Generated by trjconv : CNT in water t=  58.00000
33518
    1C        C    1   2.837   2.766   4.742
    1C        C    2   2.892   2.715   4.863
    1C        C    3   2.842   2.773   4.980
    1C        C    4   2.847   2.770   4.255
    1C        C    5   2.901   2.727   4.378
    1C        C    6   2.847   2.770   4.501
    1C        C    7   3.008   2.633   4.623
    1C        C    8   2.895   2.718   4.623
    1C        C    9   3.075   2.605   4.744
    1C        C   10   3.006   2.633   4.864
    1C        C   11   3.175   2.491   4.972
    1C        C   12   3.052   2.557   4.973
    1C        C   13   2.842   2.763   3.769
    1C        C   14   2.895   2.714   3.891
    1C        C   15   2.844   2.767   4.011
    1C        C   16   3.016   2.643   4.134
    1C        C   17   2.898   2.721   4.133
    1C        C   18   3.077   2.611   4.257
    1C        C   19   3.013   2.640   4.380
    1C        C   20   3.206   2.556   4.502
    1C        C   21   3.072   2.601   4.502
    1C        C   22   3.277   2.535   4.622
    1C        C   23   3.207   2.551   4.743
    1C        C   24   3.408   2.481   4.858
    1C        C   25   3.267   2.500   4.862
    1C        C   26   3.483   2.473   4.976
    1C        C   27   2.841   2.757   3.280
    1C        C   28   2.898   2.715   3.402
    1C        C   29   2.851   2.766   3.525
    1C        C   30   3.014   2.635   3.646
    1C        C   31   2.898   2.716   3.648
    1C        C   32   3.073   2.595   3.769
    1C        C   33   3.011   2.632   3.890
    1C        C   34   3.207   2.555   4.014
    1C        C   35   3.073   2.600   4.013
    1C        C   36   3.275   2.531   4.136
    1C        C   37   3.208   2.557   4.258
    1C        C   38   3.413   2.505   4.377
    1C        C   39   3.275   2.534   4.380
    1C        C   40   3.485   2.497   4.498
    1C        C   41   3.413   2.497   4.620
    1C        C   42   3.629   2.482   4.740
    1C        C   43   3.487   2.479   4.739
    1C        C   44   3.700   2.480   4.862
    1C        C   45   3.622   2.471   4.978
    1C        C   46   2.838   2.752   2.789
    1C        C   47   2.896   2.713   2.912
    1C        C   48   2.841   2.759   3.034
    1C        C   49   3.015   2.638   3.158
    1C        C   50   2.895   2.714   3.157
    1C        C   51   3.079   2.604   3.279
    1C        C   52   3.017   2.638   3.401
    1C        C   53   3.206   2.545   3.523
    1C        C   54   3.077   2.603   3.524
    1C        C   55   3.272   2.526   3.647
    1C        C   56   3.204   2.544   3.770
    1C        C   57   3.412   2.504   3.892
    1C        C   58   3.273   2.529   3.892
    1C        C   59   3.485   2.497   4.012
    1C        C   60   3.412   2.499   4.133
    1C        C   61   3.625   2.498   4.254
    1C        C   62   3.484   2.498   4.255
    1C        C   63   3.697   2.499   4.376
    1C        C   64   3.626   2.499   4.498
    1C        C   65   3.835   2.542   4.617
    1C        C   66   3.699   2.504   4.619
    1C        C   67   3.903   2.557   4.740
    1C        C   68   3.837   2.515   4.857
    1C        C   69   4.046   2.579   4.975
    1C        C   70   3.918   2.523   4.971
    1C        C   71   2.820   2.731   2.307
    1C        C   72   2.881   2.689   2.427
    1C        C   73   2.828   2.744   2.546
    1C        C   74   3.007   2.626   2.666
    1C        C   75   2.889   2.704   2.666
    1C        C   76   3.069   2.594   2.789
    1C        C   77   3.011   2.632   2.913
    1C        C   78   3.203   2.544   3.033
    1C        C   79   3.073   2.600   3.035
    1C        C   80   3.273   2.526   3.154
    1C        C   81   3.210   2.549   3.278
    1C        C   82   3.411   2.489   3.400
    1C        C   83   3.274   2.525   3.402
    1C        C   84   3.481   2.487   3.523
    1C        C   85   3.411   2.498   3.645
    1C        C   86   3.621   2.496   3.766
    1C        C   87   3.480   2.493   3.768
    1C        C   88   3.692   2.515   3.886
    1C        C   89   3.626   2.505   4.011
    1C        C   90   3.834   2.547   4.130
    1C        C   91   3.697   2.511   4.133
    1C        C   92   3.898   2.572   4.254
    1C        C   93   3.833   2.535   4.374
    1C        C   94   4.025   2.630   4.496
    1C        C   95   3.903   2.560   4.495
    1C        C   96   4.089   2.666   4.617
    1C        C   97   4.031   2.620   4.737
    1C        C   98   4.187   2.758   4.861
    1C        C   99   4.097   2.647   4.860
    1C        C  100   4.210   2.833   4.977
    1C        C  101   2.824   2.731   2.067
    1C        C  102   2.987   2.590   2.186
    1C        C  103   2.878   2.683   2.187
    1C        C  104   3.060   2.570   2.307
    1C        C  105   2.999   2.611   2.427
    1C        C  106   3.200   2.529   2.546
    1C        C  107   3.070   2.584   2.546
    1C        C  108   3.267   2.513   2.669
    1C        C  109   3.196   2.533   2.790
    1C        C  110   3.408   2.495   2.911
    1C        C  111   3.268   2.518   2.910
    1C        C  112   3.481   2.493   3.032
    1C        C  113   3.412   2.501   3.155
    1C        C  114   3.622   2.497   3.275
    1C        C  115   3.482   2.486   3.278
    1C        C  116   3.690   2.508   3.398
    1C        C  117   3.621   2.498   3.522
    1C        C  118   3.829   2.538   3.640
    1C        C  119   3.692   2.505   3.644
    1C        C  120   3.896   2.566   3.762
    1C        C  121   3.829   2.550   3.885
    1C        C  122   4.021   2.639   4.008
    1C        C  123   3.897   2.571   4.007
    1C        C  124   4.084   2.670   4.131
    1C        C  125   4.026   2.631   4.254
    1C        C  126   4.193   2.763   4.374
    1C        C  127   4.088   2.668   4.375
    1C        C  128   4.238   2.816   4.497
    1C        C  129   4.196   2.759   4.620
    1C        C  130   4.320   2.932   4.741
    1C        C  131   4.243   2.812   4.742
    1C        C  132   4.348   3.001   4.861
    1C        C  133   4.277   2.955   4.972
    1C        C  134   3.172   2.467   2.078
    1C        C  135   3.039   2.509   2.080
    1C        C  136   3.258   2.474   2.189
    1C        C  137   3.190   2.513   2.307
    1C        C  138   3.405   2.480   2.424
    1C        C  139   3.264   2.495   2.425
    1C        C  140   3.479   2.482   2.545
    1C        C  141   3.407   2.490   2.666
    1C        C  142   3.617   2.493   2.784
    1C        C  143   3.476   2.485   2.788
    1C        C  144   3.687   2.507   2.906
    1C        C  145   3.622   2.497   3.031
    1C        C  146   3.831   2.537   3.150
    1C        C  147   3.693   2.504   3.153
    1C        C  148   3.896   2.561   3.273
    1C        C  149   3.828   2.537   3.395
    1C        C  150   4.021   2.624   3.520
    1C        C  151   3.896   2.559   3.517
    1C        C  152   4.079   2.669   3.640
    1C        C  153   4.019   2.635   3.763
    1C        C  154   4.192   2.762   3.886
    1C        C  155   4.080   2.675   3.884
    1C        C  156   4.244   2.810   4.008
    1C        C  157   4.191   2.762   4.130
    1C        C  158   4.337   2.917   4.251
    1C        C  159   4.245   2.810   4.252
    1C        C  160   4.373   2.977   4.374
    1C        C  161   4.331   2.922   4.497
    1C        C  162   4.431   3.110   4.613
    1C        C  163   4.367   2.984   4.619
    1C        C  164   4.456   3.180   4.733
    1C        C  165   4.424   3.120   4.857
    1C        C  166   4.508   3.317   4.972
    1C        C  167   4.473   3.183   4.972
    1C        C  168   3.475   2.438   2.065
    1C        C  169   3.398   2.460   2.181
    1C        C  170   3.614   2.457   2.302
    1C        C  171   3.472   2.464   2.301
    1C        C  172   3.691   2.480   2.418
    1C        C  173   3.620   2.486   2.541
    1C        C  174   3.825   2.540   2.661
    1C        C  175   3.689   2.501   2.663
    1C        C  176   3.889   2.565   2.784
    1C        C  177   3.823   2.545   2.908
    1C        C  178   4.025   2.620   3.031
    1C        C  179   3.898   2.557   3.027
    1C        C  180   4.085   2.657   3.153
    1C        C  181   4.023   2.623   3.275
    1C        C  182   4.197   2.743   3.394
    1C        C  183   4.083   2.659   3.398
    1C        C  184   4.246   2.796   3.515
    1C        C  185   4.194   2.752   3.639
    1C        C  186   4.337   2.908   3.759
    1C        C  187   4.247   2.799   3.761
    1C        C  188   4.373   2.971   3.880
    1C        C  189   4.336   2.916   4.005
    1C        C  190   4.442   3.098   4.126
    1C        C  191   4.379   2.971   4.128
    1C        C  192   4.470   3.164   4.248
    1C        C  193   4.438   3.103   4.371
    1C        C  194   4.504   3.309   4.489
    1C        C  195   4.461   3.174   4.490
    1C        C  196   4.517   3.380   4.610
    1C        C  197   4.503   3.314   4.733
    1C        C  198   4.547   3.530   4.847
    1C        C  199   4.524   3.388   4.853
    1C        C  200   4.580   3.616   4.957
    1C        C  201   3.612   2.413   2.068
    1C        C  202   3.824   2.504   2.178
    1C        C  203   3.689   2.456   2.181
    1C        C  204   3.894   2.539   2.297
    1C        C  205   3.827   2.517   2.419
    1C        C  206   4.020   2.616   2.537
    1C        C  207   3.895   2.550   2.538
    1C        C  208   4.081   2.652   2.660
    1C        C  209   4.020   2.618   2.783
    1C        C  210   4.194   2.738   2.904
    1C        C  211   4.079   2.656   2.905
    1C        C  212   4.244   2.792   3.025
    1C        C  213   4.197   2.743   3.149
    1C        C  214   4.334   2.903   3.269
    1C        C  215   4.249   2.791   3.272
    1C        C  216   4.370   2.963   3.392
    1C        C  217   4.330   2.909   3.516
    1C        C  218   4.440   3.093   3.637
    1C        C  219   4.378   2.966   3.637
    1C        C  220   4.458   3.164   3.757
    1C        C  221   4.434   3.099   3.880
    1C        C  222   4.498   3.300   4.004
    1C        C  223   4.461   3.164   4.002
    1C        C  224   4.512   3.373   4.124
    1C        C  225   4.500   3.302   4.246
    1C        C  226   4.509   3.518   4.363
    1C        C  227   4.512   3.377   4.365
    1C        C  228   4.510   3.593   4.483
    1C        C  229   4.521   3.521   4.604
    1C        C  230   4.498   3.735   4.725
    1C        C  231   4.532   3.597   4.723
    1C        C  232   4.497   3.817   4.840
    1C        C  233   4.541   3.750   4.955
    1C        C  234   4.007   2.616   2.062
    1C        C  235   3.891   2.540   2.061
    1C        C  236   4.080   2.651   2.177
    1C        C  237   4.020   2.606   2.296
    1C        C  238   4.201   2.727   2.416
    1C        C  239   4.083   2.648   2.415
    1C        C  240   4.249   2.780   2.538
    1C        C  241   4.194   2.736   2.660
    1C        C  242   4.334   2.896   2.781
    1C        C  243   4.247   2.784   2.782
    1C        C  244   4.375   2.958   2.901
    1C        C  245   4.334   2.900   3.023
    1C        C  246   4.439   3.084   3.146
    1C        C  247   4.375   2.959   3.146
    1C        C  248   4.459   3.154   3.267
    1C        C  249   4.430   3.092   3.391
    1C        C  250   4.488   3.296   3.511
    1C        C  251   4.455   3.159   3.513
    1C        C  252   4.499   3.367   3.633
    1C        C  253   4.489   3.302   3.757
    1C        C  254   4.517   3.509   3.877
    1C        C  255   4.507   3.369   3.881
    1C        C  256   4.512   3.583   3.997
    1C        C  257   4.512   3.514   4.120
    1C        C  258   4.478   3.727   4.237
    1C        C  259   4.502   3.587   4.240
    1C        C  260   4.467   3.797   4.359
    1C        C  261   4.482   3.731   4.483
    1C        C  262   4.416   3.933   4.599
    1C        C  263   4.467   3.802   4.604
    1C        C  264   4.392   4.003   4.719
    1C        C  265   4.431   3.942   4.840
    1C        C  266   4.320   4.127   4.953
    1C        C  267   4.399   4.013   4.956
    1C        C  268   4.259   2.770   2.056
    1C        C  269   4.202   2.722   2.175
    1C        C  270   4.351   2.880   2.297
    1C        C  271   4.259   2.772   2.295
    1C        C  272   4.388   2.945   2.417
    1C        C  273   4.337   2.891   2.537
    1C        C  274   4.439   3.079   2.656
    1C        C  275   4.371   2.955   2.658
    1C        C  276   4.469   3.147   2.776
    1C        C  277   4.441   3.083   2.899
    1C        C  278   4.494   3.286   3.022
    1C        C  279   4.466   3.147   3.022
    1C        C  280   4.504   3.359   3.142
    1C        C  281   4.485   3.293   3.266
    1C        C  282   4.505   3.505   3.387
    1C        C  283   4.497   3.364   3.387
    1C        C  284   4.508   3.575   3.510
    1C        C  285   4.513   3.508   3.634
    1C        C  286   4.488   3.720   3.748
    1C        C  287   4.512   3.581   3.755
    1C        C  288   4.464   3.788   3.869
    1C        C  289   4.485   3.722   3.992
    1C        C  290   4.419   3.926   4.113
    1C        C  291   4.464   3.792   4.113
    1C        C  292   4.394   3.996   4.234
    1C        C  293   4.418   3.930   4.356
    1C        C  294   4.323   4.123   4.475
    1C        C  295   4.386   3.997   4.476
    1C        C  296   4.280   4.185   4.594
    1C        C  297   4.318   4.125   4.716
    1C        C  298   4.195   4.308   4.836
    1C        C  299   4.274   4.188   4.836
    1C        C  300   4.167   4.398   4.944
    1C        C  301   4.346   2.878   2.057
    1C        C  302   4.468   3.059   2.176
    1C        C  303   4.397   2.934   2.175
    1C        C  304   4.487   3.137   2.293
    1C        C  305   4.451   3.071   2.413
    1C        C  306   4.511   3.277   2.533
    1C        C  307   4.473   3.141   2.534
    1C        C  308   4.507   3.352   2.653
    1C        C  309   4.494   3.286   2.777
    1C        C  310   4.519   3.495   2.895
    1C        C  311   4.511   3.354   2.899
    1C        C  312   4.506   3.568   3.016
    1C        C  313   4.509   3.500   3.140
    1C        C  314   4.477   3.709   3.260
    1C        C  315   4.504   3.570   3.262
    1C        C  316   4.460   3.779   3.381
    1C        C  317   4.481   3.714   3.505
    1C        C  318   4.417   3.919   3.623
    1C        C  319   4.471   3.788   3.625
    1C        C  320   4.387   3.983   3.745
    1C        C  321   4.414   3.921   3.869
    1C        C  322   4.312   4.108   3.988
    1C        C  323   4.385   3.987   3.990
    1C        C  324   4.269   4.164   4.110
    1C        C  325   4.316   4.114   4.233
    1C        C  326   4.183   4.283   4.352
    1C        C  327   4.278   4.179   4.353
    1C        C  328   4.136   4.341   4.472
    1C        C  329   4.186   4.290   4.594
    1C        C  330   4.022   4.433   4.709
    1C        C  331   4.137   4.349   4.713
    1C        C  332   3.967   4.491   4.825
    1C        C  333   4.045   4.466   4.939
    1C        C  334   4.550   3.258   2.058
    1C        C  335   4.530   3.120   2.062
    1C        C  336   4.538   3.345   2.168
    1C        C  337   4.513   3.277   2.289
    1C        C  338   4.521   3.489   2.408
    1C        C  339   4.520   3.348   2.411
    1C        C  340   4.511   3.561   2.529
    1C        C  341   4.511   3.493   2.653
    1C        C  342   4.484   3.706   2.769
    1C        C  343   4.510   3.567   2.774
    1C        C  344   4.470   3.777   2.891
    1C        C  345   4.482   3.707   3.012
    1C        C  346   4.417   3.908   3.134
    1C        C  347   4.461   3.773   3.135
    1C        C  348   4.385   3.973   3.255
    1C        C  349   4.414   3.912   3.379
    1C        C  350   4.312   4.100   3.500
    1C        C  351   4.385   3.979   3.500
    1C        C  352   4.270   4.161   3.620
    1C        C  353   4.315   4.105   3.742
    1C        C  354   4.179   4.269   3.864
    1C        C  355   4.271   4.162   3.864
    1C        C  356   4.120   4.314   3.984
    1C        C  357   4.170   4.265   4.107
    1C        C  358   4.008   4.400   4.227
    1C        C  359   4.125   4.321   4.229
    1C        C  360   3.949   4.443   4.348
    1C        C  361   4.017   4.416   4.470
    1C        C  362   3.822   4.511   4.589
    1C        C  363   3.953   4.458   4.588
    1C        C  364   3.758   4.548   4.710
    1C        C  365   3.835   4.541   4.828
    1C        C  366   3.624   4.587   4.948
    1C        C  367   3.762   4.569   4.944
    1C        C  368   4.512   3.556   2.046
    1C        C  369   4.519   3.485   2.166
    1C        C  370   4.494   3.699   2.285
    1C        C  371   4.515   3.560   2.286
    1C        C  372   4.476   3.773   2.404
    1C        C  373   4.491   3.701   2.525
    1C        C  374   4.416   3.903   2.644
    1C        C  375   4.471   3.772   2.645
    1C        C  376   4.385   3.967   2.765
    1C        C  377   4.417   3.908   2.890
    1C        C  378   4.313   4.093   3.009
    1C        C  379   4.387   3.973   3.012
    1C        C  380   4.271   4.150   3.131
    1C        C  381   4.312   4.094   3.254
    1C        C  382   4.168   4.251   3.374
    1C        C  383   4.266   4.149   3.376
    1C        C  384   4.118   4.303   3.496
    1C        C  385   4.172   4.262   3.620
    1C        C  386   4.005   4.389   3.741
    1C        C  387   4.125   4.316   3.742
    1C        C  388   3.942   4.431   3.861
    1C        C  389   4.005   4.396   3.983
    1C        C  390   3.814   4.487   4.103
    1C        C  391   3.944   4.430   4.105
    1C        C  392   3.748   4.511   4.225
    1C        C  393   3.820   4.499   4.346
    1C        C  394   3.613   4.547   4.469
    1C        C  395   3.753   4.527   4.467
    1C        C  396   3.544   4.563   4.592
    1C        C  397   3.617   4.559   4.712
    1C        C  398   3.406   4.547   4.836
    1C        C  399   3.546   4.565   4.834
    1C        C  400   3.340   4.514   4.956
    1C        C  401   4.497   3.694   2.049
    1C        C  402   4.441   3.907   2.161
    1C        C  403   4.480   3.772   2.165
    1C        C  404   4.410   3.976   2.281
    1C        C  405   4.428   3.906   2.402
    1C        C  406   4.318   4.090   2.522
    1C        C  407   4.395   3.971   2.522
    1C        C  408   4.269   4.143   2.644
    1C        C  409   4.311   4.088   2.767
    1C        C  410   4.171   4.251   2.885
    1C        C  411   4.270   4.150   2.887
    1C        C  412   4.122   4.299   3.009
    1C        C  413   4.172   4.251   3.132
    1C        C  414   3.995   4.375   3.251
    1C        C  415   4.113   4.297   3.252
    1C        C  416   3.938   4.411   3.374
    1C        C  417   4.001   4.383   3.497
    1C        C  418   3.810   4.474   3.615
    1C        C  419   3.941   4.421   3.619
    1C        C  420   3.743   4.502   3.737
    1C        C  421   3.811   4.482   3.859
    1C        C  422   3.607   4.534   3.985
    1C        C  423   3.745   4.504   3.981
    1C        C  424   3.538   4.546   4.107
    1C        C  425   3.609   4.538   4.229
    1C        C  426   3.396   4.539   4.354
    1C        C  427   3.537   4.550   4.350
    1C        C  428   3.329   4.540   4.478
    1C        C  429   3.403   4.557   4.596
    1C        C  430   3.191   4.515   4.719
    1C        C  431   3.331   4.541   4.717
    1C        C  432   3.122   4.489   4.841
    1C        C  433   3.204   4.489   4.955
    1C        C  434   4.377   4.113   2.048
    1C        C  435   4.441   3.989   2.047
    1C        C  436   4.299   4.159   2.159
    1C        C  437   4.334   4.096   2.281
    1C        C  438   4.184   4.254   2.398
    1C        C  439   4.282   4.152   2.400
    1C        C  440   4.126   4.299   2.518
    1C        C  441   4.172   4.246   2.640
    1C        C  442   4.002   4.374   2.761
    1C        C  443   4.117   4.293   2.762
    1C        C  444   3.942   4.410   2.884
    1C        C  445   4.003   4.375   3.007
    1C        C  446   3.809   4.468   3.123
    1C        C  447   3.938   4.412   3.127
    1C        C  448   3.746   4.490   3.248
    1C        C  449   3.810   4.472   3.372
    1C        C  450   3.604   4.525   3.494
    1C        C  451   3.743   4.498   3.494
    1C        C  452   3.536   4.539   3.617
    1C        C  453   3.605   4.534   3.740
    1C        C  454   3.395   4.540   3.861
    1C        C  455   3.536   4.542   3.863
    1C        C  456   3.327   4.530   3.984
    1C        C  457   3.397   4.537   4.107
    1C        C  458   3.191   4.500   4.232
    1C        C  459   3.328   4.534   4.230
    1C        C  460   3.125   4.483   4.356
    1C        C  461   3.191   4.508   4.478
    1C        C  462   2.990   4.437   4.600
    1C        C  463   3.120   4.491   4.599
    1C        C  464   2.921   4.403   4.719
    1C        C  465   2.986   4.443   4.838
    1C        C  466   2.799   4.334   4.954
    1C        C  467   2.904   4.427   4.954
    1C        C  468   4.118   4.284   2.042
    1C        C  469   4.189   4.250   2.157
    1C        C  470   4.006   4.371   2.275
    1C        C  471   4.131   4.303   2.276
    1C        C  472   3.940   4.403   2.396
    1C        C  473   4.006   4.374   2.517
    1C        C  474   3.811   4.464   2.639
    1C        C  475   3.940   4.406   2.638
    1C        C  476   3.741   4.487   2.760
    1C        C  477   3.811   4.461   2.880
    1C        C  478   3.604   4.519   3.004
    1C        C  479   3.742   4.486   3.001
    1C        C  480   3.536   4.527   3.127
    1C        C  481   3.606   4.513   3.249
    1C        C  482   3.394   4.529   3.373
    1C        C  483   3.535   4.523   3.370
    1C        C  484   3.323   4.531   3.495
    1C        C  485   3.395   4.540   3.616
    1C        C  486   3.188   4.495   3.739
    1C        C  487   3.324   4.534   3.738
    1C        C  488   3.123   4.471   3.863
    1C        C  489   3.191   4.495   3.985
    1C        C  490   2.998   4.415   4.113
    1C        C  491   3.127   4.472   4.109
    1C        C  492   2.941   4.376   4.237
    1C        C  493   2.999   4.419   4.358
    1C        C  494   2.827   4.295   4.479
    1C        C  495   2.936   4.386   4.480
    1C        C  496   2.766   4.255   4.600
    1C        C  497   2.812   4.311   4.721
    1C        C  498   2.661   4.159   4.841
    1C        C  499   2.749   4.270   4.840
    1C        C  500   2.594   4.112   4.955
    1C        C  501   3.996   4.352   2.038
    1C        C  502   3.815   4.469   2.154
    1C        C  503   3.941   4.406   2.155
    1C        C  504   3.740   4.479   2.274
    1C        C  505   3.808   4.454   2.395
    1C        C  506   3.603   4.506   2.513
    1C        C  507   3.742   4.480   2.517
    1C        C  508   3.531   4.510   2.635
    1C        C  509   3.602   4.510   2.757
    1C        C  510   3.393   4.516   2.883
    1C        C  511   3.534   4.521   2.881
    1C        C  512   3.321   4.515   3.005
    1C        C  513   3.395   4.528   3.125
    1C        C  514   3.189   4.490   3.251
    1C        C  515   3.327   4.523   3.249
    1C        C  516   3.122   4.465   3.373
    1C        C  517   3.188   4.490   3.496
    1C        C  518   2.992   4.409   3.623
    1C        C  519   3.121   4.467   3.618
    1C        C  520   2.937   4.367   3.746
    1C        C  521   2.996   4.410   3.867
    1C        C  522   2.835   4.280   3.993
    1C        C  523   2.939   4.376   3.991
    1C        C  524   2.784   4.232   4.116
    1C        C  525   2.834   4.284   4.237
    1C        C  526   2.689   4.130   4.361
    1C        C  527   2.778   4.240   4.359
    1C        C  528   2.645   4.075   4.483
    1C        C  529   2.678   4.145   4.601
    1C        C  530   2.575   3.958   4.728
    1C        C  531   2.634   4.088   4.723
    1C        C  532   2.532   3.896   4.849
    1C        C  533   2.523   3.991   4.955
    1C        C  534   3.613   4.552   2.032
    1C        C  535   3.746   4.509   2.039
    1C        C  536   3.532   4.527   2.147
    1C        C  537   3.601   4.508   2.271
    1C        C  538   3.389   4.511   2.398
    1C        C  539   3.530   4.513   2.393
    1C        C  540   3.316   4.502   2.518
    1C        C  541   3.390   4.512   2.638
    1C        C  542   3.182   4.482   2.762
    1C        C  543   3.321   4.506   2.761
    1C        C  544   3.116   4.461   2.885
    1C        C  545   3.184   4.481   3.008
    1C        C  546   2.995   4.394   3.131
    1C        C  547   3.121   4.458   3.132
    1C        C  548   2.940   4.359   3.256
    1C        C  549   2.997   4.399   3.379
    1C        C  550   2.827   4.274   3.501
    1C        C  551   2.934   4.366   3.501
    1C        C  552   2.779   4.223   3.624
    1C        C  553   2.834   4.271   3.746
    1C        C  554   2.705   4.110   3.872
    1C        C  555   2.786   4.226   3.871
    1C        C  556   2.663   4.057   3.996
    1C        C  557   2.694   4.123   4.116
    1C        C  558   2.595   3.938   4.240
    1C        C  559   2.652   4.068   4.239
    1C        C  560   2.568   3.876   4.364
    1C        C  561   2.583   3.948   4.485
    1C        C  562   2.526   3.747   4.614
    1C        C  563   2.558   3.885   4.609
    1C        C  564   2.513   3.676   4.736
    1C        C  565   2.507   3.755   4.854
    1C        C  566   2.541   3.544   4.975
    1C        C  567   2.525   3.682   4.972
    1C        C  568   3.322   4.480   2.035
    1C        C  569   3.391   4.507   2.154
    1C        C  570   3.181   4.470   2.277
    1C        C  571   3.319   4.506   2.276
    1C        C  572   3.108   4.455   2.396
    1C        C  573   3.177   4.478   2.517
    1C        C  574   2.985   4.396   2.645
    1C        C  575   3.112   4.458   2.642
    1C        C  576   2.926   4.358   2.768
    1C        C  577   2.990   4.398   2.887
    1C        C  578   2.819   4.272   3.013
    1C        C  579   2.932   4.357   3.010
    1C        C  580   2.772   4.224   3.138
    1C        C  581   2.829   4.272   3.258
    1C        C  582   2.695   4.107   3.378
    1C        C  583   2.778   4.221   3.380
    1C        C  584   2.660   4.050   3.502
    1C        C  585   2.694   4.111   3.625
    1C        C  586   2.593   3.930   3.753
    1C        C  587   2.663   4.052   3.750
    1C        C  588   2.566   3.866   3.876
    1C        C  589   2.603   3.929   3.998
    1C        C  590   2.526   3.733   4.125
    1C        C  591   2.572   3.867   4.121
    1C        C  592   2.512   3.669   4.249
    1C        C  593   2.529   3.740   4.370
    1C        C  594   2.510   3.532   4.496
    1C        C  595   2.520   3.673   4.494
    1C        C  596   2.516   3.460   4.617
    1C        C  597   2.518   3.534   4.737
    1C        C  598   2.532   3.324   4.858
    1C        C  599   2.528   3.465   4.860
    1C        C  600   2.532   3.248   4.976
    1C        C  601   3.190   4.439   2.040
    1C        C  602   2.977   4.390   2.154
    1C        C  603   3.112   4.439   2.156
    1C        C  604   2.920   4.354   2.279
    1C        C  605   2.980   4.394   2.400
    1C        C  606   2.810   4.273   2.525
    1C        C  607   2.922   4.360   2.524
    1C        C  608   2.764   4.219   2.647
    1C        C  609   2.816   4.269   2.769
    1C        C  610   2.683   4.107   2.893
    1C        C  611   2.769   4.219   2.892
    1C        C  612   2.649   4.048   3.017
    1C        C  613   2.693   4.108   3.137
    1C        C  614   2.583   3.923   3.263
    1C        C  615   2.650   4.048   3.258
    1C        C  616   2.564   3.860   3.387
    1C        C  617   2.595   3.925   3.509
    1C        C  618   2.525   3.726   3.633
    1C        C  619   2.566   3.861   3.632
    1C        C  620   2.512   3.661   3.757
    1C        C  621   2.525   3.731   3.879
    1C        C  622   2.507   3.523   4.007
    1C        C  623   2.509   3.664   4.003
    1C        C  624   2.511   3.455   4.130
    1C        C  625   2.508   3.527   4.252
    1C        C  626   2.532   3.319   4.376
    1C        C  627   2.512   3.459   4.375
    1C        C  628   2.554   3.251   4.497
    1C        C  629   2.535   3.319   4.619
    1C        C  630   2.595   3.114   4.740
    1C        C  631   2.549   3.248   4.740
    1C        C  632   2.611   3.046   4.864
    1C        C  633   2.559   3.110   4.980
    1C        C  634   2.772   4.305   2.051
    1C        C  635   2.884   4.388   2.046
    1C        C  636   2.741   4.227   2.163
    1C        C  637   2.807   4.268   2.281
    1C        C  638   2.674   4.106   2.406
    1C        C  639   2.758   4.220   2.405
    1C        C  640   2.637   4.047   2.528
    1C        C  641   2.682   4.104   2.649
    1C        C  642   2.582   3.919   2.774
    1C        C  643   2.646   4.045   2.772
    1C        C  644   2.554   3.857   2.898
    1C        C  645   2.584   3.923   3.019
    1C        C  646   2.526   3.718   3.145
    1C        C  647   2.561   3.855   3.141
    1C        C  648   2.508   3.652   3.268
    1C        C  649   2.529   3.723   3.389
    1C        C  650   2.500   3.513   3.514
    1C        C  651   2.513   3.654   3.512
    1C        C  652   2.510   3.448   3.639
    1C        C  653   2.505   3.520   3.761
    1C        C  654   2.534   3.313   3.887
    1C        C  655   2.507   3.451   3.885
    1C        C  656   2.554   3.247   4.010
    1C        C  657   2.530   3.315   4.131
    1C        C  658   2.603   3.118   4.254
    1C        C  659   2.548   3.248   4.255
    1C        C  660   2.630   3.052   4.376
    1C        C  661   2.595   3.115   4.497
    1C        C  662   2.707   2.932   4.620
    1C        C  663   2.628   3.049   4.618
    1C        C  664   2.744   2.873   4.742
    1C        C  665   2.691   2.927   4.863
    1C        C  666   2.740   2.868   4.980
    1C        C  667   2.682   4.018   2.052
    1C        C  668   2.679   4.100   2.165
    1C        C  669   2.581   3.911   2.289
    1C        C  670   2.637   4.041   2.286
    1C        C  671   2.553   3.846   2.411
    1C        C  672   2.578   3.918   2.530
    1C        C  673   2.513   3.717   2.654
    1C        C  674   2.552   3.853   2.653
    1C        C  675   2.510   3.648   2.778
    1C        C  676   2.525   3.719   2.899
    1C        C  677   2.513   3.508   3.025
    1C        C  678   2.520   3.649   3.022
    1C        C  679   2.509   3.439   3.148
    1C        C  680   2.501   3.511   3.270
    1C        C  681   2.534   3.304   3.398
    1C        C  682   2.501   3.441   3.393
    1C        C  683   2.558   3.239   3.521
    1C        C  684   2.537   3.310   3.642
    1C        C  685   2.602   3.111   3.765
    1C        C  686   2.550   3.242   3.765
    1C        C  687   2.632   3.049   3.889
    1C        C  688   2.604   3.114   4.011
    1C        C  689   2.713   2.934   4.135
    1C        C  690   2.635   3.052   4.133
    1C        C  691   2.754   2.877   4.258
    1C        C  692   2.713   2.938   4.379
    1C        C  693   2.756   2.878   4.499
    1C        C  694   2.620   3.893   2.054
    1C        C  695   2.523   3.701   2.169
    1C        C  696   2.566   3.835   2.170
    1C        C  697   2.500   3.638   2.294
    1C        C  698   2.515   3.710   2.415
    1C        C  699   2.479   3.501   2.537
    1C        C  700   2.493   3.642   2.537
    1C        C  701   2.488   3.432   2.661
    1C        C  702   2.499   3.507   2.780
    1C        C  703   2.522   3.297   2.907
    1C        C  704   2.508   3.437   2.903
    1C        C  705   2.544   3.229   3.029
    1C        C  706   2.533   3.300   3.151
    1C        C  707   2.596   3.101   3.277
    1C        C  708   2.549   3.234   3.276
    1C        C  709   2.635   3.042   3.400
    1C        C  710   2.603   3.105   3.522
    1C        C  711   2.709   2.925   3.645
    1C        C  712   2.628   3.041   3.645
    1C        C  713   2.753   2.872   3.769
    1C        C  714   2.713   2.933   3.890
    1C        C  715   2.755   2.877   4.013
    1C        C  716   2.454   3.494   2.058
    1C        C  717   2.492   3.629   2.053
    1C        C  718   2.469   3.418   2.178
    1C        C  719   2.483   3.497   2.296
    1C        C  720   2.508   3.287   2.422
    1C        C  721   2.481   3.426   2.418
    1C        C  722   2.533   3.221   2.544
    1C        C  723   2.517   3.294   2.664
    1C        C  724   2.589   3.094   2.784
    1C        C  725   2.539   3.227   2.786
    1C        C  726   2.623   3.035   2.907
    1C        C  727   2.598   3.098   3.031
    1C        C  728   2.702   2.918   3.156
    1C        C  729   2.626   3.037   3.155
    1C        C  730   2.748   2.863   3.278
    1C        C  731   2.710   2.922   3.401
    1C        C  732   2.753   2.868   3.524
    1C        C  733   2.486   3.194   2.067
    1C        C  734   2.477   3.276   2.181
    1C        C  735   2.581   3.086   2.299
    1C        C  736   2.518   3.213   2.302
    1C        C  737   2.610   3.022   2.422
    1C        C  738   2.583   3.089   2.543
    1C        C  739   2.700   2.910   2.668
    1C        C  740   2.621   3.027   2.664
    1C        C  741   2.739   2.852   2.791
    1C        C  742   2.703   2.918   2.911
    1C        C  743   2.745   2.862   3.033
    1C        C  744   2.536   3.064   2.069
    1C        C  745   2.681   2.894   2.182
    1C        C  746   2.604   3.013   2.180
    1C        C  747   2.724   2.837   2.304
    1C        C  748   2.686   2.903   2.423
    1C        C  749   2.738   2.854   2.544
    1C        C  750   2.736   2.838   2.066
    1C        C  751   3.659   2.289   2.001
    1C        O  752   3.735   2.206   2.059
    1C        O  753   3.657   2.275   1.862
    1C        C  754   4.640   3.049   1.992
    1C        O  755   4.654   3.041   1.867
    1C        O  756   4.755   3.029   2.068
    1C        C  757   4.404   4.208   1.938
    1C        O  758   4.519   4.260   1.944
    1C        O  759   4.350   4.200   1.809
    1C        C  760   3.580   4.665   1.943
    1C        O  761   3.620   4.783   1.959
    1C        O  762   3.539   4.647   1.810
    1C        C  763   2.878   4.495   1.943
    1C        O  764   2.885   4.469   1.820
    1C        O  765   2.776   4.590   1.957
    1C        C  766   2.351   3.470   1.955
    1C        O  767   2.388   3.428   1.842
    1C        O  768   2.215   3.506   1.963
    1C        C  769   4.691   3.584   5.049
    1C        O  770   4.691   3.616   5.171
    1C        O  771   4.816   3.545   4.999
    1C        C  772   4.271   4.481   5.011
    1C        O  773   4.310   4.445   5.125
    1C        O  774   4.366   4.544   4.929
    1C        C  775   4.137   2.524   5.078
    1C        O  776   4.193   2.413   5.055
    1C        O  777   4.159   2.583   5.203
    1C        C  778   2.907   4.528   5.062
    1C        O  779   2.807   4.604   5.074
    1C        O  780   2.976   4.515   5.184
    1C        C  781   2.498   3.037   5.094
    1C        O  782   2.404   2.954   5.083
    1C        O  783   2.564   3.036   5.216
    1C        C  784   2.404   3.971   5.041
    1C        O  785   2.289   4.022   5.028
    1C        O  786   2.429   3.948   5.176
    1C        C  787   2.951   2.442   1.981
    1C        O  788   2.973   2.457   1.858
    1C        O  789   2.905   2.315   2.013
    1C        C  790   3.169   2.392   5.082
    1C        O  791   3.096   2.290   5.065
    1C        O  792   3.187   2.435   5.214
    1C        H  793   4.257   3.024   5.051
    1C        H  794   4.172   2.801   5.072
    1C        H  795   4.503   3.125   5.057
    1C        H  796   4.530   3.359   5.068
    1C        H  797   4.589   3.815   5.025
    1C        H  798   4.456   3.997   5.046
    1C        H  799   4.291   4.159   5.051
    1C        H  800   4.031   4.541   5.014
    1C        H  801   3.800   4.540   5.040
    1C        H  802   3.580   4.657   5.016
    1C        H  803   3.387   4.501   5.051
    1C        H  804   3.161   4.459   5.049
    1C        H  805   3.902   2.445   5.042
    1C        H  806   3.675   2.465   5.071
    1C        H  807   2.972   2.523   5.035
    1C        H  808   3.433   2.504   5.065
    1C        H  809   2.884   2.745   5.074
    1C        H  810   2.763   2.943   5.052
    1C        H  811   2.490   3.285   5.067
    1C        H  812   2.584   3.500   5.063
    1C        H  813   2.503   3.727   5.067
    1C        H  814   2.600   4.161   5.050
    1C        H  815   2.759   4.314   5.051
    1C        H  816   2.724   2.894   1.976
    1C        H  817   2.809   2.662   1.986
    1C        H  818   3.209   2.424   1.988
    1C        H  819   3.441   2.484   1.975
    1C        H  820   3.884   2.469   1.980
    1C        H  821   4.031   2.655   1.965
    1C        H  822   4.258   2.703   1.972
    1C        H  823   4.370   2.928   1.966
    1C        H  824   4.562   3.304   1.963
    1C        H  825   4.546   3.511   1.955
    1C        H  826   4.476   3.739   1.954
    1C        H  827   3.802   4.511   1.947
    1C        H  828   3.930   4.327   1.958
    1C        H  829   4.140   4.227   1.954
    1C        H  830   4.525   3.972   1.983
    1C        H  831   2.573   3.873   1.960
    1C        H  832   2.775   4.014   1.998
    1C        H  833   2.688   4.341   1.995
    1C        H  834   3.349   4.531   1.945
    1C        H  835   3.162   4.380   1.954
    1C        H  836   2.490   2.998   1.998
    1C        H  837   2.480   3.238   1.970
    1C        H  838   2.526   3.666   1.958
    2V3OU   H29  839   2.803   3.542   1.084
    2V3OU   C27  840   2.778   3.501   1.185
    2V3OU   H27  841   2.726   3.562   1.263
    2V3OU   H28  842   2.735   3.399   1.173
    2V3OU   O11  843   2.906   3.469   1.242
    2V3OU   C15  844   2.919   3.394   1.357
    2V3OU   C13  845   3.051   3.376   1.406
    2V3OU   C14  846   3.076   3.267   1.489
    2V3OU   C16  847   2.967   3.189   1.525
    2V3OU    H6  848   2.989   3.098   1.582
    2V3OU   C12  849   3.212   3.224   1.531
    2V3OU    O2  850   3.239   3.120   1.595
    2V3OU   C10  851   3.321   3.307   1.477
    2V3OU    C8  852   3.454   3.273   1.504
    2V3OU   O10  853   3.485   3.151   1.556
    2V3OU   H26  854   3.399   3.116   1.583
    2V3OU    C6  855   3.563   3.350   1.454
    2V3OU    C5  856   3.534   3.461   1.376
    2V3OU    C4  857   3.701   3.293   1.455
    2V3OU    H4  858   3.725   3.226   1.543
    2V3OU    H5  859   3.705   3.224   1.366
    2V3OU    C2  860   3.814   3.395   1.441
    2V3OU    O6  861   3.804   3.473   1.560
    2V3OU   H21  862   3.758   3.554   1.530
    2V3OU    C3  863   3.778   3.489   1.326
    2V3OU    H2  864   3.856   3.569   1.318
    2V3OU    H3  865   3.780   3.433   1.228
    2V3OU   C25  866   3.948   3.322   1.427
    2V3OU    O7  867   4.002   3.294   1.320
    2V3OU   C26  868   4.025   3.286   1.553
    2V3OU   H22  869   4.061   3.381   1.600
    2V3OU   H23  870   4.110   3.218   1.528
    2V3OU    O8  871   3.959   3.205   1.648
    2V3OU   H24  872   3.924   3.266   1.716
    2V3OU    C1  873   3.643   3.558   1.341
    2V3OU    H1  874   3.620   3.612   1.244
    2V3OU    O3  875   3.655   3.652   1.447
    2V3OU   C19  876   3.611   3.785   1.422
    2V3OU    H9  877   3.510   3.792   1.372
    2V3OU    O4  878   3.709   3.846   1.340
    2V3OU   C20  879   3.840   3.869   1.392
    2V3OU   H10  880   3.889   3.768   1.400
    2V3OU   C24  881   3.606   3.853   1.559
    2V3OU   H16  882   3.547   3.789   1.630
    2V3OU   H17  883   3.559   3.954   1.551
    2V3OU   C23  884   3.745   3.869   1.619
    2V3OU   H15  885   3.786   3.765   1.643
    2V3OU    N1  886   3.730   3.949   1.740
    2V3OU   H19  887   3.806   3.928   1.801
    2V3OU   H20  888   3.644   3.930   1.787
    2V3OU   C21  889   3.844   3.944   1.525
    2V3OU   H11  890   3.948   3.929   1.568
    2V3OU    O5  891   3.821   4.083   1.510
    2V3OU   H18  892   3.782   4.108   1.595
    2V3OU   C22  893   3.905   3.943   1.276
    2V3OU   H12  894   3.853   4.041   1.261
    2V3OU   H13  895   3.895   3.885   1.181
    2V3OU   H14  896   4.014   3.958   1.295
    2V3OU   C11  897   3.159   3.472   1.382
    2V3OU    O1  898   3.132   3.585   1.335
    2V3OU    C9  899   3.297   3.423   1.399
    2V3OU    C7  900   3.399   3.500   1.345
    2V3OU    O9  901   3.382   3.617   1.274
    2V3OU   H25  902   3.286   3.630   1.276
    2V3OU   C17  903   2.813   3.314   1.403
    2V3OU    H7  904   2.714   3.339   1.364
    2V3OU   C18  905   2.833   3.208   1.490
    2V3OU    H8  906   2.757   3.141   1.532
    3SOL     OW  907   0.689   3.198   0.812
    3SOL    HW1  908   0.729   3.289   0.815
    3SOL    HW2  909   0.720   3.149   0.731
    4SOL     OW  910   5.774   0.676   1.815
    4SOL    HW1  911   5.778   0.623   1.899
    4SOL    HW2  912   5.845   0.747   1.816
    5SOL     OW  913   3.533   3.247   0.973
    5SOL    HW1  914   3.628   3.276   0.986
    5SOL    HW2  915   3.473   3.327   0.971
    6SOL     OW  916   2.696   2.281   1.092
    6SOL    HW1  917   2.608   2.248   1.056
    6SOL    HW2  918   2.771   2.236   1.044
    7SOL     OW  919   6.113   0.610   1.594
    7SOL    HW1  920   6.034   0.657   1.553
    7SOL    HW2  921   6.156   0.670   1.662
    8SOL     OW  922   2.806   1.583   4.051
    8SOL    HW1  923   2.838   1.593   4.145
    8SOL    HW2  924   2.727   1.643   4.037
    9SOL     OW  925   0.960   3.798   5.752
    9SOL    HW1  926   1.011   3.732   5.697
    9SOL    HW2  927   0.896   3.848   5.694
   10SOL     OW  928   0.395   4.216   0.119
   10SOL    HW1  929   0.347   4.220   0.031
   10SOL    HW2  930   0.486   4.176   0.105
   11SOL     OW  931   3.994   6.587   6.770
   11SOL    HW1  932   3.992   6.516   6.701
   11SOL    HW2  933   4.087   6.600   6.803
   12SOL     OW  934   5.712   6.014   2.435
   12SOL    HW1  935   5.649   5.970   2.370
   12SOL    HW2  936   5.805   5.983   2.417
   13SOL     OW  937   2.210   0.098   3.197
   13SOL    HW1  938   2.209   0.165   3.271
   13SOL    HW2  939   2.149   0.022   3.220
   14SOL     OW  940   2.911   6.799   2.061
   14SOL    HW1  941   2.893   6.715   2.010
   14SOL    HW2  942   2.933   6.777   2.156
   15SOL     OW  943   1.755   6.636   6.135
   15SOL    HW1  944   1.716   6.616   6.224
   15SOL    HW2  945   1.742   6.733   6.114
   16SOL     OW  946   6.401   1.452   6.302
   16SOL    HW1  947   6.367   1.540   6.335
   16SOL    HW2  948   6.493   1.464   6.263
   17SOL     OW  949   5.124   5.937   3.604
   17SOL    HW1  950   5.146   5.896   3.693
   17SOL    HW2  951   5.047   5.999   3.614
   18SOL     OW  952   1.960   1.293   6.781
   18SOL    HW1  953   1.882   1.354   6.792
   18SOL    HW2  954   1.999   1.303   6.690
   19SOL     OW  955   0.482   6.968   1.512
   19SOL    HW1  956   0.400   7.014   1.546
   19SOL    HW2  957   0.542   0.019   1.468
   20SOL     OW  958   3.187   1.257   4.372
   20SOL    HW1  959   3.091   1.246   4.344
   20SOL    HW2  960   3.236   1.308   4.301
   21SOL     OW  961   3.250   2.447   1.005
   21SOL    HW1  962   3.151   2.443   1.024
   21SOL    HW2  963   3.288   2.530   1.047
   22SOL     OW  964   1.074   0.953   5.318
   22SOL    HW1  965   1.131   1.020   5.270
   22SOL    HW2  966   1.008   0.913   5.254
   23SOL     OW  967   4.075   6.245   4.253
   23SOL    HW1  968   3.995   6.224   4.197
   23SOL    HW2  969   4.143   6.292   4.196
   24SOL     OW  970   4.109   1.539   4.461
   24SOL    HW1  971   4.194   1.487   4.459
   24SOL    HW2  972   4.129   1.637   4.449
   25SOL     OW  973   2.969   4.795   1.200
   25SOL    HW1  974   2.869   4.789   1.195
   25SOL    HW2  975   2.995   4.846   1.282
   26SOL     OW  976   6.063   1.445   2.756
   26SOL    HW1  977   6.072   1.495   2.670
   26SOL    HW2  978   5.972   1.461   2.794
   27SOL     OW  979   6.147   6.063   2.105
   27SOL    HW1  980   6.217   6.005   2.147
   27SOL    HW2  981   6.176   6.088   2.013
   28SOL     OW  982   3.161   0.820   0.425
   28SOL    HW1  983   3.110   0.753   0.371
   28SOL    HW2  984   3.254   0.786   0.440
   29SOL     OW  985   4.402   2.439   1.775
   29SOL    HW1  986   4.416   2.537   1.759
   29SOL    HW2  987   4.456   2.387   1.709
   30SOL     OW  988   3.777   1.002   4.676
   30SOL    HW1  989   3.790   1.081   4.616
   30SOL    HW2  990   3.856   0.992   4.735
   31SOL     OW  991   0.402   0.981   5.147
   31SOL    HW1  992   0.480   0.934   5.188
   31SOL    HW2  993   0.331   0.914   5.127
   32SOL     OW  994   0.229   2.123   1.671
   32SOL    HW1  995   0.229   2.220   1.647
   32SOL    HW2  996   0.203   2.069   1.591
   33SOL     OW  997   1.298   1.959   5.069
   33SOL    HW1  998   1.229   1.927   5.005
   33SOL    HW2  999   1.387   1.963   5.023
   34SOL     OW 1000   1.098   0.612   4.692
   34SOL    HW1 1001   1.045   0.554   4.753
   34SOL    HW2 1002   1.046   0.631   4.609
   35SOL     OW 1003   4.093   1.555   6.552
   35SOL    HW1 1004   4.088   1.637   6.608
   35SOL    HW2 1005   4.189   1.537   6.527
   36SOL     OW 1006   1.809   1.233   5.722
   36SOL    HW1 1007   1.709   1.236   5.728
   36SOL    HW2 1008   1.838   1.272   5.635
   37SOL     OW 1009   2.513   6.700   1.092
   37SOL    HW1 1010   2.531   6.641   1.014
   37SOL    HW2 1011   2.453   6.653   1.157
   38SOL     OW 1012   0.317   6.062   2.700
   38SOL    HW1 1013   0.358   6.143   2.657
   38SOL    HW2 1014   0.355   5.980   2.658
   39SOL     OW 1015   6.677   3.181   6.166
   39SOL    HW1 1016   6.615   3.106   6.186
   39SOL    HW2 1017   6.651   3.223   6.079
   40SOL     OW 1018   6.617   0.798   1.433
   40SOL    HW1 1019   6.563   0.766   1.511
   40SOL    HW2 1020   6.568   0.870   1.385
   41SOL     OW 1021   1.378   0.125   5.187
   41SOL    HW1 1022   1.419   0.046   5.233
   41SOL    HW2 1023   1.335   0.184   5.256
   42SOL     OW 1024   3.751   0.815   0.538
   42SOL    HW1 1025   3.715   0.754   0.609
   42SOL    HW2 1026   3.735   0.910   0.565
   43SOL     OW 1027   5.218   5.445   5.312
   43SOL    HW1 1028   5.287   5.375   5.291
   43SOL    HW2 1029   5.260   5.536   5.306
   44SOL     OW 1030   0.762   3.654   6.468
   44SOL    HW1 1031   0.707   3.573   6.448
   44SOL    HW2 1032   0.805   3.687   6.384
   45SOL     OW 1033   3.032   0.432   1.642
   45SOL    HW1 1034   2.960   0.370   1.610
   45SOL    HW2 1035   3.069   0.398   1.729
   46SOL     OW 1036   1.230   4.469   3.737
   46SOL    HW1 1037   1.240   4.550   3.794
   46SOL    HW2 1038   1.320   4.433   3.714
   47SOL     OW 1039   6.362   4.396   3.052
   47SOL    HW1 1040   6.344   4.304   3.085
   47SOL    HW2 1041   6.296   4.420   2.981
   48SOL     OW 1042   0.769   1.900   5.361
   48SOL    HW1 1043   0.827   1.827   5.397
   48SOL    HW2 1044   0.822   1.958   5.300
   49SOL     OW 1045   5.351   2.255   0.726
   49SOL    HW1 1046   5.377   2.351   0.738
   49SOL    HW2 1047   5.347   2.234   0.628
   50SOL     OW 1048   6.720   3.866   4.605
   50SOL    HW1 1049   6.810   3.827   4.626
   50SOL    HW2 1050   6.729   3.964   4.589
   51SOL     OW 1051   2.988   5.436   2.748
   51SOL    HW1 1052   2.898   5.394   2.746
   51SOL    HW2 1053   2.989   5.512   2.814
   52SOL     OW 1054   1.208   2.278   1.543
   52SOL    HW1 1055   1.300   2.257   1.577
   52SOL    HW2 1056   1.141   2.248   1.610
   53SOL     OW 1057   5.013   6.612   3.880
   53SOL    HW1 1058   4.940   6.572   3.936
   53SOL    HW2 1059   5.102   6.592   3.921
   54SOL     OW 1060   4.222   5.618   6.065
   54SOL    HW1 1061   4.294   5.655   6.123
   54SOL    HW2 1062   4.253   5.617   5.970
   55SOL     OW 1063   3.813   2.463   0.286
   55SOL    HW1 1064   3.755   2.478   0.365
   55SOL    HW2 1065   3.863   2.547   0.263
   56SOL     OW 1066   0.471   6.853   1.743
   56SOL    HW1 1067   0.550   6.798   1.768
   56SOL    HW2 1068   0.488   6.900   1.657
   57SOL     OW 1069   5.672   0.687   0.759
   57SOL    HW1 1070   5.603   0.674   0.830
   57SOL    HW2 1071   5.707   0.597   0.730
   58SOL     OW 1072   6.963   6.611   6.985
   58SOL    HW1 1073   6.877   6.579   6.944
   58SOL    HW2 1074   0.020   6.605   6.917
   59SOL     OW 1075   1.255   0.068   4.728
   59SOL    HW1 1076   1.239   0.132   4.803
   59SOL    HW2 1077   1.177   0.069   4.666
   60SOL     OW 1078   4.829   6.562   5.106
   60SOL    HW1 1079   4.809   6.641   5.164
   60SOL    HW2 1080   4.897   6.588   5.037
   61SOL     OW 1081   3.997   0.152   4.895
   61SOL    HW1 1082   3.909   0.105   4.891
   61SOL    HW2 1083   3.989   0.242   4.850
   62SOL     OW 1084   2.653   1.540   4.645
   62SOL    HW1 1085   2.582   1.555   4.714
   62SOL    HW2 1086   2.666   1.624   4.592
   63SOL     OW 1087   6.466   3.453   3.335
   63SOL    HW1 1088   6.562   3.433   3.356
   63SOL    HW2 1089   6.434   3.391   3.265
   64SOL     OW 1090   6.896   2.407   5.800
   64SOL    HW1 1091   6.938   2.342   5.737
   64SOL    HW2 1092   6.796   2.398   5.796
   65SOL     OW 1093   0.032   4.448   6.098
   65SOL    HW1 1094   0.087   4.365   6.092
   65SOL    HW2 1095   6.996   4.448   6.183
   66SOL     OW 1096   2.880   1.118   0.851
   66SOL    HW1 1097   2.923   1.189   0.907
   66SOL    HW2 1098   2.884   1.144   0.755
   67SOL     OW 1099   5.230   5.933   4.078
   67SOL    HW1 1100   5.329   5.945   4.082
   67SOL    HW2 1101   5.185   6.009   4.126
   68SOL     OW 1102   5.445   2.562   6.174
   68SOL    HW1 1103   5.430   2.587   6.078
   68SOL    HW2 1104   5.536   2.524   6.184
   69SOL     OW 1105   2.252   3.195   6.077
   69SOL    HW1 1106   2.335   3.185   6.132
   69SOL    HW2 1107   2.274   3.177   5.981
   70SOL     OW 1108   6.902   5.018   2.025
   70SOL    HW1 1109   6.997   5.050   2.028
   70SOL    HW2 1110   6.900   4.918   2.019
   71SOL     OW 1111   1.783   2.541   2.884
   71SOL    HW1 1112   1.826   2.627   2.913
   71SOL    HW2 1113   1.685   2.546   2.903
   72SOL     OW 1114   3.014   5.747   4.315
   72SOL    HW1 1115   3.004   5.649   4.331
   72SOL    HW2 1116   2.988   5.769   4.221
   73SOL     OW 1117   4.476   2.637   6.856
   73SOL    HW1 1118   4.523   2.589   6.930
   73SOL    HW2 1119   4.386   2.597   6.843
   74SOL     OW 1120   4.911   5.700   6.069
   74SOL    HW1 1121   4.841   5.630   6.083
   74SOL    HW2 1122   5.001   5.661   6.086
   75SOL     OW 1123   3.882   5.005   5.477
   75SOL    HW1 1124   3.950   4.990   5.549
   75SOL    HW2 1125   3.871   4.921   5.424
   76SOL     OW 1126   2.326   2.943   1.313
   76SOL    HW1 1127   2.289   2.959   1.222
   76SOL    HW2 1128   2.340   3.031   1.359
   77SOL     OW 1129   5.691   4.874   6.399
   77SOL    HW1 1130   5.638   4.818   6.463
   77SOL    HW2 1131   5.787   4.876   6.427
   78SOL     OW 1132   6.220   6.693   6.233
   78SOL    HW1 1133   6.179   6.780   6.206
   78SOL    HW2 1134   6.155   6.641   6.289
   79SOL     OW 1135   3.457   0.453   6.949
   79SOL    HW1 1136   3.518   0.440   0.011
   79SOL    HW2 1137   3.404   0.370   6.934
   80SOL     OW 1138   0.435   1.499   4.261
   80SOL    HW1 1139   0.438   1.467   4.166
   80SOL    HW2 1140   0.482   1.433   4.320
   81SOL     OW 1141   1.295   0.146   3.782
   81SOL    HW1 1142   1.236   0.077   3.823
   81SOL    HW2 1143   1.251   0.183   3.700
   82SOL     OW 1144   0.159   4.584   5.440
   82SOL    HW1 1145   0.221   4.549   5.510
   82SOL    HW2 1146   0.184   4.678   5.416
   83SOL     OW 1147   6.952   6.902   7.007
   83SOL    HW1 1148   0.033   6.910   0.016
   83SOL    HW2 1149   6.930   6.807   6.988
   84SOL     OW 1150   6.038   3.759   1.644
   84SOL    HW1 1151   5.968   3.818   1.605
   84SOL    HW2 1152   6.039   3.672   1.596
   85SOL     OW 1153   0.217   2.725   5.819
   85SOL    HW1 1154   0.265   2.735   5.732
   85SOL    HW2 1155   0.119   2.713   5.801
   86SOL     OW 1156   1.235   1.147   5.218
   86SOL    HW1 1157   1.189   1.212   5.279
   86SOL    HW2 1158   1.241   1.187   5.126
   87SOL     OW 1159   4.239   0.608   1.854
   87SOL    HW1 1160   4.156   0.553   1.849
   87SOL    HW2 1161   4.250   0.661   1.770
   88SOL     OW 1162   5.195   0.320   0.732
   88SOL    HW1 1163   5.196   0.220   0.736
   88SOL    HW2 1164   5.150   0.356   0.814
   89SOL     OW 1165   2.058   2.214   5.757
   89SOL    HW1 1166   2.150   2.179   5.774
   89SOL    HW2 1167   2.065   2.308   5.722
   90SOL     OW 1168   6.288   6.199   3.496
   90SOL    HW1 1169   6.347   6.262   3.447
   90SOL    HW2 1170   6.266   6.236   3.587
   91SOL     OW 1171   4.867   4.914   4.808
   91SOL    HW1 1172   4.803   4.921   4.732
   91SOL    HW2 1173   4.858   4.825   4.853
   92SOL     OW 1174   3.104   6.294   0.834
   92SOL    HW1 1175   3.005   6.292   0.818
   92SOL    HW2 1176   3.125   6.360   0.906
   93SOL     OW 1177   3.507   5.607   5.968
   93SOL    HW1 1178   3.498   5.517   6.011
   93SOL    HW2 1179   3.457   5.608   5.882
   94SOL     OW 1180   2.238   5.950   0.603
   94SOL    HW1 1181   2.307   5.969   0.672
   94SOL    HW2 1182   2.283   5.937   0.514
   95SOL     OW 1183   6.433   0.551   4.773
   95SOL    HW1 1184   6.362   0.494   4.813
   95SOL    HW2 1185   6.392   0.618   4.711
   96SOL     OW 1186   1.566   0.263   5.045
   96SOL    HW1 1187   1.509   0.327   4.992
   96SOL    HW2 1188   1.508   0.192   5.084
   97SOL     OW 1189   6.096   3.441   5.472
   97SOL    HW1 1190   6.045   3.527   5.472
   97SOL    HW2 1191   6.081   3.393   5.385
   98SOL     OW 1192   5.786   2.609   6.201
   98SOL    HW1 1193   5.880   2.602   6.168
   98SOL    HW2 1194   5.775   2.696   6.251
   99SOL     OW 1195   4.568   2.180   1.178
   99SOL    HW1 1196   4.481   2.200   1.224
   99SOL    HW2 1197   4.557   2.098   1.122
  100SOL     OW 1198   6.237   5.086   6.516
  100SOL    HW1 1199   6.271   5.112   6.425
  100SOL    HW2 1200   6.164   5.149   6.543
  101SOL     OW 1201   0.642   6.305   3.594
  101SOL    HW1 1202   0.737   6.333   3.604
  101SOL    HW2 1203   0.613   6.255   3.675
  102SOL     OW 1204   5.065   6.997   3.478
  102SOL    HW1 1205   5.025   0.069   3.452
  102SOL    HW2 1206   4.992   6.930   3.488
  103SOL     OW 1207   3.764   1.744   1.633
  103SOL    HW1 1208   3.757   1.839   1.602
  103SOL    HW2 1209   3.860   1.721   1.650
  104SOL     OW 1210   6.862   5.828   1.885
  104SOL    HW1 1211   6.809   5.801   1.966
  104SOL    HW2 1212   6.944   5.877   1.913
  105SOL     OW 1213   5.096   1.251   5.204
  105SOL    HW1 1214   5.021   1.288   5.150
  105SOL    HW2 1215   5.061   1.184   5.270
  106SOL     OW 1216   3.112   6.181   0.073
  106SOL    HW1 1217   3.089   6.168   0.170
  106SOL    HW2 1218   3.212   6.189   0.064
  107SOL     OW 1219   2.376   3.411   1.411
  107SOL    HW1 1220   2.278   3.421   1.393
  107SOL    HW2 1221   2.413   3.499   1.442
  108SOL     OW 1222   5.022   4.460   5.706
  108SOL    HW1 1223   5.009   4.390   5.776
  108SOL    HW2 1224   5.013   4.418   5.615
  109SOL     OW 1225   6.492   1.098   1.064
  109SOL    HW1 1226   6.411   1.155   1.049
  109SOL    HW2 1227   6.513   1.095   1.162
  110SOL     OW 1228   3.889   5.666   5.336
  110SOL    HW1 1229   3.791   5.669   5.356
  110SOL    HW2 1230   3.940   5.688   5.418
  111SOL     OW 1231   3.847   1.069   2.980
  111SOL    HW1 1232   3.852   0.991   2.917
  111SOL    HW2 1233   3.752   1.089   3.000
  112SOL     OW 1234   0.028   0.510   5.943
  112SOL    HW1 1235   0.006   0.453   5.864
  112SOL    HW2 1236   0.051   0.452   6.021
  113SOL     OW 1237   0.380   5.403   3.755
  113SOL    HW1 1238   0.359   5.496   3.723
  113SOL    HW2 1239   0.345   5.336   3.690
  114SOL     OW 1240   0.511   6.814   6.992
  114SOL    HW1 1241   0.510   6.750   0.053
  114SOL    HW2 1242   0.555   6.899   0.004
  115SOL     OW 1243   5.257   1.191   4.989
  115SOL    HW1 1244   5.224   1.232   5.074
  115SOL    HW2 1245   5.356   1.202   4.982
  116SOL     OW 1246   6.369   4.275   2.356
  116SOL    HW1 1247   6.462   4.307   2.375
  116SOL    HW2 1248   6.318   4.347   2.310
  117SOL     OW 1249   1.298   0.009   6.466
  117SOL    HW1 1250   1.308   6.933   6.428
  117SOL    HW2 1251   1.338   0.011   6.558
  118SOL     OW 1252   1.395   0.535   2.172
  118SOL    HW1 1253   1.307   0.529   2.220
  118SOL    HW2 1254   1.378   0.543   2.074
  119SOL     OW 1255   6.664   2.796   6.390
  119SOL    HW1 1256   6.576   2.831   6.421
  119SOL    HW2 1257   6.738   2.839   6.442
  120SOL     OW 1258   5.657   6.567   1.213
  120SOL    HW1 1259   5.725   6.635   1.184
  120SOL    HW2 1260   5.686   6.524   1.298
  121SOL     OW 1261   2.739   3.391   5.873
  121SOL    HW1 1262   2.830   3.430   5.889
  121SOL    HW2 1263   2.669   3.458   5.899
  122SOL     OW 1264   0.417   3.207   4.630
  122SOL    HW1 1265   0.376   3.162   4.709
  122SOL    HW2 1266   0.452   3.297   4.657
  123SOL     OW 1267   1.212   1.833   1.639
  123SOL    HW1 1268   1.160   1.839   1.554
  123SOL    HW2 1269   1.151   1.847   1.717
  124SOL     OW 1270   5.095   2.925   1.088
  124SOL    HW1 1271   5.076   3.003   1.029
  124SOL    HW2 1272   5.156   2.952   1.162
  125SOL     OW 1273   2.066   3.383   1.788
  125SOL    HW1 1274   2.125   3.423   1.858
  125SOL    HW2 1275   2.116   3.312   1.738
  126SOL     OW 1276   3.145   4.573   1.598
  126SOL    HW1 1277   3.084   4.549   1.673
  126SOL    HW2 1278   3.220   4.629   1.632
  127SOL     OW 1279   0.605   5.955   5.937
  127SOL    HW1 1280   0.548   5.889   5.890
  127SOL    HW2 1281   0.547   6.030   5.972
  128SOL     OW 1282   4.771   2.510   1.789
  128SOL    HW1 1283   4.844   2.469   1.843
  128SOL    HW2 1284   4.733   2.589   1.837
  129SOL     OW 1285   2.847   3.828   6.494
  129SOL    HW1 1286   2.795   3.755   6.539
  129SOL    HW2 1287   2.940   3.797   6.478
  130SOL     OW 1288   1.682   2.061   4.693
  130SOL    HW1 1289   1.681   2.012   4.605
  130SOL    HW2 1290   1.726   2.150   4.681
  131SOL     OW 1291   5.180   1.590   2.614
  131SOL    HW1 1292   5.147   1.628   2.527
  131SOL    HW2 1293   5.277   1.613   2.625
  132SOL     OW 1294   0.634   2.526   0.647
  132SOL    HW1 1295   0.541   2.558   0.661
  132SOL    HW2 1296   0.692   2.602   0.620
  133SOL     OW 1297   6.470   5.154   2.061
  133SOL    HW1 1298   6.375   5.176   2.039
  133SOL    HW2 1299   6.502   5.080   2.002
  134SOL     OW 1300   0.397   3.490   2.853
  134SOL    HW1 1301   0.331   3.529   2.788
  134SOL    HW2 1302   0.351   3.470   2.939
  135SOL     OW 1303   5.008   1.673   4.226
  135SOL    HW1 1304   5.096   1.655   4.183
  135SOL    HW2 1305   4.950   1.592   4.218
  136SOL     OW 1306   5.645   4.802   5.366
  136SOL    HW1 1307   5.631   4.773   5.272
  136SOL    HW2 1308   5.565   4.777   5.421
  137SOL     OW 1309   4.002   0.248   5.707
  137SOL    HW1 1310   3.918   0.225   5.756
  137SOL    HW2 1311   3.984   0.324   5.644
  138SOL     OW 1312   6.762   4.983   4.864
  138SOL    HW1 1313   6.785   4.903   4.808
  138SOL    HW2 1314   6.770   4.958   4.961
  139SOL     OW 1315   3.668   5.252   5.290
  139SOL    HW1 1316   3.754   5.235   5.242
  139SOL    HW2 1317   3.665   5.200   5.375
  140SOL     OW 1318   5.895   3.948   4.822
  140SOL    HW1 1319   5.985   3.963   4.862
  140SOL    HW2 1320   5.852   4.036   4.803
  141SOL     OW 1321   1.091   1.787   3.635
  141SOL    HW1 1322   1.055   1.876   3.607
  141SOL    HW2 1323   1.133   1.742   3.556
  142SOL     OW 1324   1.524   5.478   1.480
  142SOL    HW1 1325   1.446   5.526   1.441
  142SOL    HW2 1326   1.589   5.457   1.408
  143SOL     OW 1327   5.618   4.009   1.727
  143SOL    HW1 1328   5.619   4.108   1.720
  143SOL    HW2 1329   5.526   3.978   1.749
  144SOL     OW 1330   2.868   6.762   0.559
  144SOL    HW1 1331   2.881   6.848   0.510
  144SOL    HW2 1332   2.807   6.702   0.506
  145SOL     OW 1333   6.803   5.852   0.731
  145SOL    HW1 1334   6.774   5.834   0.637
  145SOL    HW2 1335   6.807   5.951   0.746
  146SOL     OW 1336   6.202   4.854   0.652
  146SOL    HW1 1337   6.168   4.924   0.714
  146SOL    HW2 1338   6.127   4.820   0.595
  147SOL     OW 1339   6.073   2.181   0.979
  147SOL    HW1 1340   5.987   2.212   0.938
  147SOL    HW2 1341   6.120   2.258   1.021
  148SOL     OW 1342   1.326   5.246   5.792
  148SOL    HW1 1343   1.380   5.270   5.711
  148SOL    HW2 1344   1.315   5.146   5.796
  149SOL     OW 1345   3.261   0.969   5.814
  149SOL    HW1 1346   3.272   1.055   5.863
  149SOL    HW2 1347   3.170   0.931   5.835
  150SOL     OW 1348   0.037   5.501   6.227
  150SOL    HW1 1349   7.012   5.494   6.318
  150SOL    HW2 1350   0.132   5.531   6.236
  151SOL     OW 1351   4.367   1.537   1.667
  151SOL    HW1 1352   4.459   1.576   1.657
  151SOL    HW2 1353   4.311   1.599   1.723
  152SOL     OW 1354   3.621   1.051   4.317
  152SOL    HW1 1355   3.567   1.133   4.297
  152SOL    HW2 1356   3.569   0.970   4.292
  153SOL     OW 1357   1.846   0.786   3.108
  153SOL    HW1 1358   1.935   0.818   3.140
  153SOL    HW2 1359   1.777   0.806   3.178
  154SOL     OW 1360   6.900   2.074   2.674
  154SOL    HW1 1361   6.962   2.014   2.624
  154SOL    HW2 1362   6.867   2.026   2.756
  155SOL     OW 1363   0.618   0.707   3.228
  155SOL    HW1 1364   0.658   0.731   3.316
  155SOL    HW2 1365   0.544   0.641   3.241
  156SOL     OW 1366   6.675   2.284   1.118
  156SOL    HW1 1367   6.635   2.372   1.093
  156SOL    HW2 1368   6.630   2.211   1.067
  157SOL     OW 1369   5.531   3.727   2.518
  157SOL    HW1 1370   5.432   3.735   2.532
  157SOL    HW2 1371   5.566   3.811   2.477
  158SOL     OW 1372   1.295   1.447   3.524
  158SOL    HW1 1373   1.269   1.383   3.596
  158SOL    HW2 1374   1.384   1.486   3.544
  159SOL     OW 1375   5.041   3.964   2.098
  159SOL    HW1 1376   5.051   3.937   2.002
  159SOL    HW2 1377   4.967   4.030   2.107
  160SOL     OW 1378   6.864   4.310   5.834
  160SOL    HW1 1379   6.878   4.215   5.804
  160SOL    HW2 1380   6.946   4.363   5.815
  161SOL     OW 1381   3.057   4.920   5.092
  161SOL    HW1 1382   2.964   4.888   5.110
  161SOL    HW2 1383   3.058   5.020   5.094
  162SOL     OW 1384   4.351   6.015   1.553
  162SOL    HW1 1385   4.396   6.088   1.604
  162SOL    HW2 1386   4.407   5.990   1.474
  163SOL     OW 1387   4.972   0.719   2.190
  163SOL    HW1 1388   5.008   0.763   2.272
  163SOL    HW2 1389   4.937   0.789   2.128
  164SOL     OW 1390   5.918   3.199   1.434
  164SOL    HW1 1391   5.848   3.205   1.505
  164SOL    HW2 1392   5.884   3.242   1.350
  165SOL     OW 1393   5.243   4.337   6.770
  165SOL    HW1 1394   5.247   4.270   6.844
  165SOL    HW2 1395   5.149   4.348   6.739
  166SOL     OW 1396   1.266   0.947   1.785
  166SOL    HW1 1397   1.223   0.953   1.695
  166SOL    HW2 1398   1.267   0.851   1.815
  167SOL     OW 1399   6.664   2.925   0.428
  167SOL    HW1 1400   6.619   2.951   0.342
  167SOL    HW2 1401   6.595   2.909   0.498
  168SOL     OW 1402   2.087   5.633   1.052
  168SOL    HW1 1403   2.091   5.615   0.954
  168SOL    HW2 1404   2.048   5.724   1.068
  169SOL     OW 1405   1.199   0.094   1.550
  169SOL    HW1 1406   1.173   0.012   1.600
  169SOL    HW2 1407   1.177   0.175   1.605
  170SOL     OW 1408   0.196   1.673   3.444
  170SOL    HW1 1409   0.151   1.586   3.426
  170SOL    HW2 1410   0.139   1.748   3.410
  171SOL     OW 1411   3.494   3.430   6.857
  171SOL    HW1 1412   3.575   3.413   6.802
  171SOL    HW2 1413   3.481   3.354   6.921
  172SOL     OW 1414   0.261   2.835   6.678
  172SOL    HW1 1415   0.277   2.773   6.755
  172SOL    HW2 1416   0.267   2.785   6.592
  173SOL     OW 1417   0.463   6.178   5.498
  173SOL    HW1 1418   0.365   6.159   5.512
  173SOL    HW2 1419   0.515   6.093   5.510
  174SOL     OW 1420   2.980   5.498   3.429
  174SOL    HW1 1421   3.031   5.576   3.393
  174SOL    HW2 1422   2.917   5.465   3.359
  175SOL     OW 1423   1.043   5.503   2.889
  175SOL    HW1 1424   0.980   5.449   2.944
  175SOL    HW2 1425   1.106   5.552   2.949
  176SOL     OW 1426   2.690   5.274   1.193
  176SOL    HW1 1427   2.761   5.239   1.132
  176SOL    HW2 1428   2.600   5.262   1.150
  177SOL     OW 1429   4.751   1.762   2.229
  177SOL    HW1 1430   4.663   1.714   2.235
  177SOL    HW2 1431   4.788   1.775   2.321
  178SOL     OW 1432   5.991   4.904   6.561
  178SOL    HW1 1433   5.916   4.886   6.625
  178SOL    HW2 1434   6.076   4.870   6.600
  179SOL     OW 1435   2.731   0.105   0.996
  179SOL    HW1 1436   2.702   0.181   1.055
  179SOL    HW2 1437   2.684   0.112   0.908
  180SOL     OW 1438   1.065   2.101   6.919
  180SOL    HW1 1439   1.022   2.093   6.829
  180SOL    HW2 1440   1.000   2.140   6.984
  181SOL     OW 1441   3.486   2.763   5.229
  181SOL    HW1 1442   3.584   2.767   5.210
  181SOL    HW2 1443   3.436   2.817   5.161
  182SOL     OW 1444   4.584   2.744   4.779
  182SOL    HW1 1445   4.536   2.713   4.861
  182SOL    HW2 1446   4.559   2.686   4.702
  183SOL     OW 1447   5.493   1.437   1.859
  183SOL    HW1 1448   5.401   1.475   1.858
  183SOL    HW2 1449   5.489   1.340   1.881
  184SOL     OW 1450   0.262   4.733   2.908
  184SOL    HW1 1451   0.205   4.800   2.956
  184SOL    HW2 1452   0.252   4.644   2.952
  185SOL     OW 1453   2.295   3.795   6.380
  185SOL    HW1 1454   2.284   3.893   6.397
  185SOL    HW2 1455   2.336   3.752   6.461
  186SOL     OW 1456   5.767   6.666   3.088
  186SOL    HW1 1457   5.861   6.663   3.122
  186SOL    HW2 1458   5.704   6.675   3.165
  187SOL     OW 1459   5.563   1.001   4.043
  187SOL    HW1 1460   5.626   0.943   3.991
  187SOL    HW2 1461   5.589   1.097   4.031
  188SOL     OW 1462   6.303   2.420   3.790
  188SOL    HW1 1463   6.236   2.346   3.793
  188SOL    HW2 1464   6.385   2.393   3.841
  189SOL     OW 1465   2.237   4.291   2.843
  189SOL    HW1 1466   2.192   4.379   2.861
  189SOL    HW2 1467   2.294   4.299   2.761
  190SOL     OW 1468   3.286   0.977   6.146
  190SOL    HW1 1469   3.315   1.058   6.094
  190SOL    HW2 1470   3.258   1.005   6.237
  191SOL     OW 1471   4.676   5.820   6.211
  191SOL    HW1 1472   4.676   5.867   6.123
  191SOL    HW2 1473   4.762   5.770   6.222
  192SOL     OW 1474   6.840   0.307   1.368
  192SOL    HW1 1475   6.899   0.358   1.305
  192SOL    HW2 1476   6.862   0.332   1.462
  193SOL     OW 1477   5.941   4.531   6.504
  193SOL    HW1 1478   6.014   4.594   6.528
  193SOL    HW2 1479   5.911   4.481   6.586
  194SOL     OW 1480   3.742   0.510   4.060
  194SOL    HW1 1481   3.716   0.493   4.155
  194SOL    HW2 1482   3.805   0.588   4.056
  195SOL     OW 1483   0.128   5.822   3.527
  195SOL    HW1 1484   0.114   5.871   3.441
  195SOL    HW2 1485   0.159   5.887   3.597
  196SOL     OW 1486   0.843   1.507   0.683
  196SOL    HW1 1487   0.786   1.529   0.763
  196SOL    HW2 1488   0.911   1.439   0.709
  197SOL     OW 1489   1.854   1.030   0.774
  197SOL    HW1 1490   1.768   0.997   0.736
  197SOL    HW2 1491   1.876   0.978   0.857
  198SOL     OW 1492   3.007   1.698   3.927
  198SOL    HW1 1493   2.933   1.641   3.963
  198SOL    HW2 1494   3.056   1.742   4.002
  199SOL     OW 1495   0.902   2.388   4.109
  199SOL    HW1 1496   0.944   2.307   4.149
  199SOL    HW2 1497   0.802   2.376   4.107
  200SOL     OW 1498   6.863   2.718   0.186
  200SOL    HW1 1499   6.837   2.706   0.282
  200SOL    HW2 1500   6.800   2.666   0.128
  201SOL     OW 1501   0.639   0.756   6.414
  201SOL    HW1 1502   0.691   0.731   6.496
  201SOL    HW2 1503   0.647   0.855   6.398
  202SOL     OW 1504   4.215   6.853   0.631
  202SOL    HW1 1505   4.176   6.919   0.695
  202SOL    HW2 1506   4.145   6.822   0.568
  203SOL     OW 1507   6.113   3.213   6.638
  203SOL    HW1 1508   6.210   3.215   6.664
  203SOL    HW2 1509   6.099   3.145   6.567
  204SOL     OW 1510   6.334   1.231   5.420
  204SOL    HW1 1511   6.382   1.160   5.367
  204SOL    HW2 1512   6.246   1.196   5.451
  205SOL     OW 1513   1.477   3.154   3.102
  205SOL    HW1 1514   1.514   3.206   3.179
  205SOL    HW2 1515   1.530   3.070   3.091
  206SOL     OW 1516   0.408   3.555   0.231
  206SOL    HW1 1517   0.400   3.654   0.230
  206SOL    HW2 1518   0.436   3.525   0.322
  207SOL     OW 1519   5.890   2.552   4.433
  207SOL    HW1 1520   5.835   2.575   4.513
  207SOL    HW2 1521   5.891   2.629   4.369
  208SOL     OW 1522   1.397   3.801   4.730
  208SOL    HW1 1523   1.490   3.812   4.766
  208SOL    HW2 1524   1.332   3.843   4.793
  209SOL     OW 1525   6.546   4.318   2.829
  209SOL    HW1 1526   6.635   4.295   2.789
  209SOL    HW2 1527   6.557   4.395   2.891
  210SOL     OW 1528   4.584   2.784   0.481
  210SOL    HW1 1529   4.524   2.859   0.510
  210SOL    HW2 1530   4.598   2.789   0.382
  211SOL     OW 1531   0.385   1.358   3.192
  211SOL    HW1 1532   0.407   1.328   3.285
  211SOL    HW2 1533   0.341   1.283   3.142
  212SOL     OW 1534   2.129   3.894   2.409
  212SOL    HW1 1535   2.142   3.808   2.359
  212SOL    HW2 1536   2.101   3.966   2.346
  213SOL     OW 1537   1.131   4.997   1.445
  213SOL    HW1 1538   1.152   4.918   1.503
  213SOL    HW2 1539   1.215   5.036   1.409
  214SOL     OW 1540   5.260   5.826   1.644
  214SOL    HW1 1541   5.231   5.896   1.579
  214SOL    HW2 1542   5.260   5.737   1.598
  215SOL     OW 1543   2.683   5.410   3.218
  215SOL    HW1 1544   2.689   5.344   3.293
  215SOL    HW2 1545   2.702   5.363   3.131
  216SOL     OW 1546   1.021   6.825   2.409
  216SOL    HW1 1547   1.104   6.769   2.403
  216SOL    HW2 1548   0.941   6.768   2.391
  217SOL     OW 1549   1.288   4.560   6.057
  217SOL    HW1 1550   1.292   4.609   5.970
  217SOL    HW2 1551   1.226   4.482   6.049
  218SOL     OW 1552   1.744   1.559   4.891
  218SOL    HW1 1553   1.749   1.552   4.991
  218SOL    HW2 1554   1.836   1.565   4.854
  219SOL     OW 1555   4.300   2.009   1.034
  219SOL    HW1 1556   4.253   1.949   1.098
  219SOL    HW2 1557   4.235   2.039   0.963
  220SOL     OW 1558   2.832   6.463   0.857
  220SOL    HW1 1559   2.792   6.459   0.949
  220SOL    HW2 1560   2.894   6.541   0.851
  221SOL     OW 1561   5.384   4.958   2.092
  221SOL    HW1 1562   5.320   4.954   2.015
  221SOL    HW2 1563   5.473   4.923   2.064
  222SOL     OW 1564   2.170   5.122   6.543
  222SOL    HW1 1565   2.226   5.129   6.460
  222SOL    HW2 1566   2.134   5.029   6.552
  223SOL     OW 1567   6.016   2.994   5.658
  223SOL    HW1 1568   5.947   3.049   5.613
  223SOL    HW2 1569   6.092   3.052   5.688
  224SOL     OW 1570   2.509   1.163   6.474
  224SOL    HW1 1571   2.589   1.156   6.534
  224SOL    HW2 1572   2.495   1.076   6.427
  225SOL     OW 1573   4.184   6.286   6.119
  225SOL    HW1 1574   4.202   6.254   6.026
  225SOL    HW2 1575   4.267   6.326   6.158
  226SOL     OW 1576   1.363   2.521   6.848
  226SOL    HW1 1577   1.344   2.425   6.825
  226SOL    HW2 1578   1.303   2.551   6.921
  227SOL     OW 1579   1.770   3.782   1.323
  227SOL    HW1 1580   1.706   3.853   1.296
  227SOL    HW2 1581   1.823   3.813   1.402
  228SOL     OW 1582   1.412   0.143   2.257
  228SOL    HW1 1583   1.331   0.202   2.256
  228SOL    HW2 1584   1.453   0.145   2.348
  229SOL     OW 1585   4.030   6.523   6.032
  229SOL    HW1 1586   4.071   6.590   6.093
  229SOL    HW2 1587   4.065   6.432   6.054
  230SOL     OW 1588   5.378   5.672   5.260
  230SOL    HW1 1589   5.350   5.742   5.327
  230SOL    HW2 1590   5.478   5.667   5.257
  231SOL     OW 1591   4.943   1.801   6.599
  231SOL    HW1 1592   5.010   1.788   6.525
  231SOL    HW2 1593   4.951   1.894   6.635
  232SOL     OW 1594   1.353   1.914   5.599
  232SOL    HW1 1595   1.276   1.978   5.597
  232SOL    HW2 1596   1.404   1.926   5.684
  233SOL     OW 1597   3.267   1.773   2.960
  233SOL    HW1 1598   3.356   1.819   2.958
  233SOL    HW2 1599   3.277   1.679   2.927
  234SOL     OW 1600   4.397   0.868   0.002
  234SOL    HW1 1601   4.478   0.888   6.963
  234SOL    HW2 1602   4.423   0.809   0.079
  235SOL     OW 1603   4.892   3.178   3.346
  235SOL    HW1 1604   4.986   3.157   3.372
  235SOL    HW2 1605   4.835   3.096   3.356
  236SOL     OW 1606   4.186   5.034   6.098
  236SOL    HW1 1607   4.118   5.016   6.028
  236SOL    HW2 1608   4.265   5.079   6.057
  237SOL     OW 1609   6.292   3.469   2.980
  237SOL    HW1 1610   6.324   3.561   3.003
  237SOL    HW2 1611   6.238   3.473   2.897
  238SOL     OW 1612   6.627   1.620   0.584
  238SOL    HW1 1613   6.583   1.584   0.502
  238SOL    HW2 1614   6.720   1.584   0.590
  239SOL     OW 1615   1.156   3.453   0.816
  239SOL    HW1 1616   1.176   3.364   0.858
  239SOL    HW2 1617   1.185   3.452   0.720
  240SOL     OW 1618   5.535   3.307   3.374
  240SOL    HW1 1619   5.579   3.271   3.456
  240SOL    HW2 1620   5.502   3.400   3.391
  241SOL     OW 1621   3.040   2.237   4.131
  241SOL    HW1 1622   3.087   2.164   4.082
  241SOL    HW2 1623   3.107   2.292   4.182
  242SOL     OW 1624   3.582   3.763   2.651
  242SOL    HW1 1625   3.645   3.750   2.727
  242SOL    HW2 1626   3.498   3.711   2.667
  243SOL     OW 1627   4.344   2.735   6.065
  243SOL    HW1 1628   4.274   2.781   6.120
  243SOL    HW2 1629   4.339   2.636   6.081
  244SOL     OW 1630   4.745   3.444   5.412
  244SOL    HW1 1631   4.745   3.485   5.504
  244SOL    HW2 1632   4.711   3.510   5.346
  245SOL     OW 1633   3.860   1.544   2.967
  245SOL    HW1 1634   3.932   1.564   3.034
  245SOL    HW2 1635   3.893   1.565   2.875
  246SOL     OW 1636   6.327   1.509   2.083
  246SOL    HW1 1637   6.307   1.606   2.096
  246SOL    HW2 1638   6.377   1.496   1.997
  247SOL     OW 1639   1.648   1.088   1.583
  247SOL    HW1 1640   1.586   1.013   1.556
  247SOL    HW2 1641   1.642   1.162   1.517
  248SOL     OW 1642   1.965   2.437   2.085
  248SOL    HW1 1643   1.982   2.534   2.066
  248SOL    HW2 1644   2.047   2.396   2.123
  249SOL     OW 1645   4.874   5.879   5.124
  249SOL    HW1 1646   4.961   5.858   5.168
  249SOL    HW2 1647   4.875   5.845   5.030
  250SOL     OW 1648   4.240   2.569   0.808
  250SOL    HW1 1649   4.330   2.584   0.850
  250SOL    HW2 1650   4.168   2.581   0.876
  251SOL     OW 1651   3.910   4.092   5.388
  251SOL    HW1 1652   3.937   4.082   5.483
  251SOL    HW2 1653   3.853   4.173   5.378
  252SOL     OW 1654   6.277   6.667   5.475
  252SOL    HW1 1655   6.375   6.679   5.492
  252SOL    HW2 1656   6.262   6.579   5.430
  253SOL     OW 1657   3.684   6.263   6.393
  253SOL    HW1 1658   3.778   6.254   6.361
  253SOL    HW2 1659   3.636   6.331   6.338
  254SOL     OW 1660   5.499   2.477   5.239
  254SOL    HW1 1661   5.560   2.398   5.234
  254SOL    HW2 1662   5.552   2.561   5.222
  255SOL     OW 1663   1.517   4.441   6.170
  255SOL    HW1 1664   1.441   4.502   6.147
  255SOL    HW2 1665   1.526   4.371   6.099
  256SOL     OW 1666   5.181   2.194   5.489
  256SOL    HW1 1667   5.155   2.290   5.476
  256SOL    HW2 1668   5.104   2.144   5.529
  257SOL     OW 1669   4.843   6.799   2.615
  257SOL    HW1 1670   4.862   6.779   2.519
  257SOL    HW2 1671   4.752   6.840   2.623
  258SOL     OW 1672   1.472   2.886   5.301
  258SOL    HW1 1673   1.508   2.978   5.311
  258SOL    HW2 1674   1.447   2.870   5.205
  259SOL     OW 1675   3.740   0.040   3.978
  259SOL    HW1 1676   3.751   0.136   4.004
  259SOL    HW2 1677   3.743   0.032   3.878
  260SOL     OW 1678   3.632   5.484   3.827
  260SOL    HW1 1679   3.559   5.417   3.838
  260SOL    HW2 1680   3.673   5.475   3.737
  261SOL     OW 1681   4.137   4.816   0.468
  261SOL    HW1 1682   4.055   4.872   0.481
  261SOL    HW2 1683   4.210   4.872   0.432
  262SOL     OW 1684   1.576   4.287   6.367
  262SOL    HW1 1685   1.558   4.350   6.291
  262SOL    HW2 1686   1.504   4.218   6.371
  263SOL     OW 1687   0.848   6.223   3.906
  263SOL    HW1 1688   0.894   6.239   3.819
  263SOL    HW2 1689   0.880   6.290   3.974
  264SOL     OW 1690   6.696   3.557   6.555
  264SOL    HW1 1691   6.719   3.645   6.514
  264SOL    HW2 1692   6.622   3.569   6.621
  265SOL     OW 1693   6.488   0.134   4.077
  265SOL    HW1 1694   6.587   0.127   4.083
  265SOL    HW2 1695   6.455   0.084   3.997
  266SOL     OW 1696   3.628   1.055   5.652
  266SOL    HW1 1697   3.528   1.064   5.650
  266SOL    HW2 1698   3.669   1.146   5.646
  267SOL     OW 1699   1.802   0.933   4.156
  267SOL    HW1 1700   1.863   1.008   4.180
  267SOL    HW2 1701   1.725   0.930   4.220
  268SOL     OW 1702   3.333   2.138   1.256
  268SOL    HW1 1703   3.277   2.219   1.275
  268SOL    HW2 1704   3.351   2.089   1.341
  269SOL     OW 1705   4.520   1.841   0.358
  269SOL    HW1 1706   4.548   1.774   0.289
  269SOL    HW2 1707   4.420   1.852   0.354
  270SOL     OW 1708   5.439   0.194   0.276
  270SOL    HW1 1709   5.379   0.218   0.352
  270SOL    HW2 1710   5.520   0.253   0.277
  271SOL     OW 1711   1.129   3.515   6.475
  271SOL    HW1 1712   1.145   3.420   6.502
  271SOL    HW2 1713   1.193   3.540   6.401
  272SOL     OW 1714   3.097   6.556   3.866
  272SOL    HW1 1715   3.032   6.633   3.867
  272SOL    HW2 1716   3.126   6.539   3.772
  273SOL     OW 1717   1.739   4.694   6.327
  273SOL    HW1 1718   1.705   4.633   6.399
  273SOL    HW2 1719   1.687   4.779   6.328
  274SOL     OW 1720   4.832   1.839   3.816
  274SOL    HW1 1721   4.854   1.914   3.878
  274SOL    HW2 1722   4.759   1.867   3.753
  275SOL     OW 1723   6.569   6.550   1.965
  275SOL    HW1 1724   6.654   6.600   1.947
  275SOL    HW2 1725   6.588   6.452   1.967
  276SOL     OW 1726   0.822   1.170   4.502
  276SOL    HW1 1727   0.828   1.117   4.587
  276SOL    HW2 1728   0.891   1.242   4.504
  277SOL     OW 1729   2.010   4.135   1.167
  277SOL    HW1 1730   1.924   4.186   1.157
  277SOL    HW2 1731   2.009   4.056   1.106
  278SOL     OW 1732   0.222   2.874   1.932
  278SOL    HW1 1733   0.233   2.849   1.836
  278SOL    HW2 1734   0.129   2.850   1.962
  279SOL     OW 1735   5.968   1.737   3.687
  279SOL    HW1 1736   6.059   1.754   3.650
  279SOL    HW2 1737   5.976   1.689   3.775
  280SOL     OW 1738   1.915   4.853   2.073
  280SOL    HW1 1739   1.975   4.900   2.008
  280SOL    HW2 1740   1.844   4.916   2.105
  281SOL     OW 1741   2.341   4.563   1.266
  281SOL    HW1 1742   2.286   4.646   1.263
  281SOL    HW2 1743   2.403   4.567   1.345
  282SOL     OW 1744   2.757   2.318   6.340
  282SOL    HW1 1745   2.721   2.345   6.429
  282SOL    HW2 1746   2.718   2.377   6.269
  283SOL     OW 1747   4.071   2.424   6.197
  283SOL    HW1 1748   4.068   2.496   6.266
  283SOL    HW2 1749   4.002   2.354   6.219
  284SOL     OW 1750   1.269   3.938   4.064
  284SOL    HW1 1751   1.196   3.915   4.129
  284SOL    HW2 1752   1.232   3.998   3.993
  285SOL     OW 1753   5.639   4.612   4.574
  285SOL    HW1 1754   5.634   4.683   4.504
  285SOL    HW2 1755   5.731   4.608   4.612
  286SOL     OW 1756   3.077   3.637   6.735
  286SOL    HW1 1757   3.022   3.685   6.803
  286SOL    HW2 1758   3.070   3.685   6.647
  287SOL     OW 1759   1.584   3.632   0.202
  287SOL    HW1 1760   1.609   3.664   0.110
  287SOL    HW2 1761   1.559   3.535   0.198
  288SOL     OW 1762   4.681   3.169   0.488
  288SOL    HW1 1763   4.751   3.100   0.470
  288SOL    HW2 1764   4.722   3.260   0.482
  289SOL     OW 1765   3.090   4.856   6.465
  289SOL    HW1 1766   2.996   4.822   6.465
  289SOL    HW2 1767   3.152   4.784   6.432
  290SOL     OW 1768   0.869   1.474   4.786
  290SOL    HW1 1769   0.942   1.541   4.776
  290SOL    HW2 1770   0.852   1.457   4.884
  291SOL     OW 1771   0.243   2.150   2.512
  291SOL    HW1 1772   0.233   2.188   2.420
  291SOL    HW2 1773   0.338   2.123   2.527
  292SOL     OW 1774   2.352   6.583   4.247
  292SOL    HW1 1775   2.420   6.517   4.280
  292SOL    HW2 1776   2.302   6.622   4.324
  293SOL     OW 1777   3.576   4.903   3.440
  293SOL    HW1 1778   3.639   4.848   3.384
  293SOL    HW2 1779   3.491   4.918   3.390
  294SOL     OW 1780   4.665   0.282   6.889
  294SOL    HW1 1781   4.589   0.286   6.824
  294SOL    HW2 1782   4.714   0.369   6.888
  295SOL     OW 1783   4.985   6.962   3.761
  295SOL    HW1 1784   5.019   7.007   3.678
  295SOL    HW2 1785   5.063   6.940   3.821
  296SOL     OW 1786   2.412   2.061   3.223
  296SOL    HW1 1787   2.458   2.065   3.312
  296SOL    HW2 1788   2.361   2.145   3.209
  297SOL     OW 1789   1.772   4.594   3.251
  297SOL    HW1 1790   1.774   4.674   3.192
  297SOL    HW2 1791   1.865   4.565   3.271
  298SOL     OW 1792   6.059   5.274   0.556
  298SOL    HW1 1793   6.085   5.237   0.467
  298SOL    HW2 1794   6.134   5.261   0.621
  299SOL     OW 1795   6.357   2.495   4.541
  299SOL    HW1 1796   6.310   2.549   4.611
  299SOL    HW2 1797   6.455   2.499   4.556
  300SOL     OW 1798   6.417   0.074   2.399
  300SOL    HW1 1799   6.455   0.054   2.489
  300SOL    HW2 1800   6.397   0.172   2.393
  301SOL     OW 1801   4.927   3.275   6.321
  301SOL    HW1 1802   4.918   3.251   6.224
  301SOL    HW2 1803   4.948   3.372   6.330
  302SOL     OW 1804   1.233   6.919   3.422
  302SOL    HW1 1805   1.182   6.840   3.388
  302SOL    HW2 1806   1.217   6.929   3.520
  303SOL     OW 1807   6.153   6.477   2.890
  303SOL    HW1 1808   6.131   6.430   2.975
  303SOL    HW2 1809   6.084   6.455   2.821
  304SOL     OW 1810   3.186   6.573   3.605
  304SOL    HW1 1811   3.189   6.673   3.611
  304SOL    HW2 1812   3.188   6.545   3.509
  305SOL     OW 1813   1.358   3.965   1.933
  305SOL    HW1 1814   1.398   4.010   2.012
  305SOL    HW2 1815   1.316   4.034   1.873
  306SOL     OW 1816   2.586   0.457   3.033
  306SOL    HW1 1817   2.656   0.526   3.053
  306SOL    HW2 1818   2.495   0.498   3.045
  307SOL     OW 1819   3.577   0.182   1.594
  307SOL    HW1 1820   3.585   0.104   1.655
  307SOL    HW2 1821   3.668   0.213   1.566
  308SOL     OW 1822   0.946   5.077   4.629
  308SOL    HW1 1823   0.908   5.168   4.645
  308SOL    HW2 1824   0.943   5.057   4.531
  309SOL     OW 1825   3.809   4.779   5.343
  309SOL    HW1 1826   3.755   4.811   5.266
  309SOL    HW2 1827   3.896   4.744   5.311
  310SOL     OW 1828   0.803   6.462   5.946
  310SOL    HW1 1829   0.889   6.506   5.923
  310SOL    HW2 1830   0.813   6.410   6.030
  311SOL     OW 1831   0.613   0.430   1.441
  311SOL    HW1 1832   0.675   0.439   1.519
  311SOL    HW2 1833   0.520   0.456   1.469
  312SOL     OW 1834   3.892   1.876   4.528
  312SOL    HW1 1835   3.854   1.912   4.443
  312SOL    HW2 1836   3.987   1.849   4.513
  313SOL     OW 1837   0.125   4.711   1.257
  313SOL    HW1 1838   0.181   4.628   1.260
  313SOL    HW2 1839   0.057   4.703   1.184
  314SOL     OW 1840   3.334   5.959   0.958
  314SOL    HW1 1841   3.376   6.011   1.032
  314SOL    HW2 1842   3.324   6.018   0.878
  315SOL     OW 1843   1.062   3.139   2.531
  315SOL    HW1 1844   0.991   3.097   2.587
  315SOL    HW2 1845   1.091   3.075   2.460
  316SOL     OW 1846   2.101   3.362   3.971
  316SOL    HW1 1847   2.148   3.284   4.011
  316SOL    HW2 1848   2.002   3.351   3.982
  317SOL     OW 1849   6.617   1.346   0.126
  317SOL    HW1 1850   6.596   1.427   0.071
  317SOL    HW2 1851   6.686   1.291   0.079
  318SOL     OW 1852   2.006   4.765   1.067
  318SOL    HW1 1853   1.966   4.847   1.108
  318SOL    HW2 1854   2.100   4.783   1.038
  319SOL     OW 1855   1.408   0.218   0.067
  319SOL    HW1 1856   1.313   0.217   0.099
  319SOL    HW2 1857   1.417   0.284   7.009
  320SOL     OW 1858   5.016   3.415   0.577
  320SOL    HW1 1859   4.985   3.489   0.636
  320SOL    HW2 1860   4.976   3.427   0.486
  321SOL     OW 1861   1.895   1.500   1.645
  321SOL    HW1 1862   1.953   1.532   1.571
  321SOL    HW2 1863   1.799   1.504   1.617
  322SOL     OW 1864   3.107   2.990   5.289
  322SOL    HW1 1865   3.178   2.920   5.283
  322SOL    HW2 1866   3.129   3.054   5.362
  323SOL     OW 1867   0.341   3.797   2.008
  323SOL    HW1 1868   0.272   3.732   1.974
  323SOL    HW2 1869   0.318   3.824   2.101
  324SOL     OW 1870   0.419   3.211   4.333
  324SOL    HW1 1871   0.424   3.213   4.433
  324SOL    HW2 1872   0.384   3.298   4.300
  325SOL     OW 1873   2.111   2.599   2.872
  325SOL    HW1 1874   2.030   2.655   2.891
  325SOL    HW2 1875   2.191   2.642   2.913
  326SOL     OW 1876   2.495   4.448   5.614
  326SOL    HW1 1877   2.528   4.529   5.566
  326SOL    HW2 1878   2.413   4.470   5.666
  327SOL     OW 1879   6.314   5.141   6.263
  327SOL    HW1 1880   6.333   5.116   6.169
  327SOL    HW2 1881   6.357   5.230   6.283
  328SOL     OW 1882   3.021   5.771   1.862
  328SOL    HW1 1883   3.085   5.825   1.916
  328SOL    HW2 1884   3.026   5.798   1.766
  329SOL     OW 1885   3.139   3.561   2.529
  329SOL    HW1 1886   3.219   3.576   2.588
  329SOL    HW2 1887   3.081   3.490   2.569
  330SOL     OW 1888   3.307   1.584   1.904
  330SOL    HW1 1889   3.250   1.666   1.906
  330SOL    HW2 1890   3.388   1.598   1.961
  331SOL     OW 1891   5.804   4.746   5.754
  331SOL    HW1 1892   5.877   4.712   5.813
  331SOL    HW2 1893   5.725   4.773   5.809
  332SOL     OW 1894   4.606   1.884   3.650
  332SOL    HW1 1895   4.634   1.908   3.557
  332SOL    HW2 1896   4.542   1.807   3.647
  333SOL     OW 1897   3.823   6.420   0.214
  333SOL    HW1 1898   3.730   6.444   0.242
  333SOL    HW2 1899   3.819   6.371   0.127
  334SOL     OW 1900   4.375   6.980   2.968
  334SOL    HW1 1901   4.448   6.938   2.915
  334SOL    HW2 1902   4.299   6.915   2.977
  335SOL     OW 1903   3.600   6.688   3.060
  335SOL    HW1 1904   3.596   6.784   3.033
  335SOL    HW2 1905   3.669   6.676   3.130
  336SOL     OW 1906   3.366   0.619   4.956
  336SOL    HW1 1907   3.435   0.554   4.989
  336SOL    HW2 1908   3.365   0.699   5.015
  337SOL     OW 1909   0.426   4.249   1.344
  337SOL    HW1 1910   0.457   4.158   1.317
  337SOL    HW2 1911   0.417   4.307   1.263
  338SOL     OW 1912   2.661   2.572   1.811
  338SOL    HW1 1913   2.757   2.598   1.824
  338SOL    HW2 1914   2.635   2.589   1.716
  339SOL     OW 1915   4.216   0.518   2.890
  339SOL    HW1 1916   4.212   0.421   2.917
  339SOL    HW2 1917   4.271   0.527   2.807
  340SOL     OW 1918   4.970   3.777   4.726
  340SOL    HW1 1919   4.918   3.696   4.699
  340SOL    HW2 1920   4.922   3.859   4.695
  341SOL     OW 1921   5.416   4.946   5.234
  341SOL    HW1 1922   5.426   4.890   5.316
  341SOL    HW2 1923   5.505   4.960   5.192
  342SOL     OW 1924   5.347   3.447   0.442
  342SOL    HW1 1925   5.284   3.413   0.372
  342SOL    HW2 1926   5.434   3.472   0.400
  343SOL     OW 1927   2.417   0.885   2.743
  343SOL    HW1 1928   2.486   0.934   2.797
  343SOL    HW2 1929   2.373   0.950   2.680
  344SOL     OW 1930   3.320   5.415   6.722
  344SOL    HW1 1931   3.353   5.373   6.637
  344SOL    HW2 1932   3.281   5.505   6.702
  345SOL     OW 1933   1.334   0.158   5.845
  345SOL    HW1 1934   1.248   0.119   5.811
  345SOL    HW2 1935   1.372   0.220   5.776
  346SOL     OW 1936   3.237   0.613   4.135
  346SOL    HW1 1937   3.218   0.522   4.171
  346SOL    HW2 1938   3.318   0.610   4.076
  347SOL     OW 1939   4.812   6.174   5.962
  347SOL    HW1 1940   4.823   6.200   5.866
  347SOL    HW2 1941   4.895   6.198   6.012
  348SOL     OW 1942   2.887   6.216   2.739
  348SOL    HW1 1943   2.897   6.304   2.784
  348SOL    HW2 1944   2.800   6.174   2.766
  349SOL     OW 1945   2.187   5.120   1.578
  349SOL    HW1 1946   2.247   5.085   1.506
  349SOL    HW2 1947   2.128   5.045   1.610
  350SOL     OW 1948   4.459   2.880   0.820
  350SOL    HW1 1949   4.385   2.942   0.847
  350SOL    HW2 1950   4.517   2.926   0.752
  351SOL     OW 1951   3.066   2.206   0.536
  351SOL    HW1 1952   3.077   2.135   0.605
  351SOL    HW2 1953   3.118   2.287   0.563
  352SOL     OW 1954   3.870   1.640   6.406
  352SOL    HW1 1955   3.928   1.576   6.457
  352SOL    HW2 1956   3.858   1.608   6.313
  353SOL     OW 1957   2.221   0.484   1.206
  353SOL    HW1 1958   2.247   0.447   1.116
  353SOL    HW2 1959   2.278   0.442   1.277
  354SOL     OW 1960   5.056   1.228   2.142
  354SOL    HW1 1961   4.956   1.233   2.140
  354SOL    HW2 1962   5.087   1.145   2.095
  355SOL     OW 1963   1.651   1.790   1.708
  355SOL    HW1 1964   1.733   1.847   1.714
  355SOL    HW2 1965   1.638   1.741   1.795
  356SOL     OW 1966   4.021   5.931   2.837
  356SOL    HW1 1967   3.937   5.969   2.800
  356SOL    HW2 1968   4.097   5.951   2.775
  357SOL     OW 1969   1.729   4.347   5.974
  357SOL    HW1 1970   1.784   4.298   6.042
  357SOL    HW2 1971   1.715   4.441   6.006
  358SOL     OW 1972   5.554   1.274   2.216
  358SOL    HW1 1973   5.600   1.304   2.132
  358SOL    HW2 1974   5.577   1.335   2.291
  359SOL     OW 1975   1.281   1.970   1.144
  359SOL    HW1 1976   1.315   2.055   1.183
  359SOL    HW2 1977   1.194   1.987   1.097
  360SOL     OW 1978   4.295   6.612   0.895
  360SOL    HW1 1979   4.355   6.546   0.942
  360SOL    HW2 1980   4.348   6.661   0.826
  361SOL     OW 1981   3.668   0.719   3.164
  361SOL    HW1 1982   3.599   0.674   3.220
  361SOL    HW2 1983   3.732   0.769   3.222
  362SOL     OW 1984   2.740   3.729   0.811
  362SOL    HW1 1985   2.697   3.715   0.722
  362SOL    HW2 1986   2.802   3.653   0.831
  363SOL     OW 1987   4.241   4.852   3.940
  363SOL    HW1 1988   4.202   4.935   3.981
  363SOL    HW2 1989   4.217   4.773   3.996
  364SOL     OW 1990   1.543   6.056   5.829
  364SOL    HW1 1991   1.489   5.994   5.886
  364SOL    HW2 1992   1.621   6.007   5.791
  365SOL     OW 1993   4.571   6.705   2.939
  365SOL    HW1 1994   4.588   6.681   3.035
  365SOL    HW2 1995   4.634   6.655   2.880
  366SOL     OW 1996   4.805   0.319   0.670
  366SOL    HW1 1997   4.815   0.395   0.735
  366SOL    HW2 1998   4.718   0.273   0.687
  367SOL     OW 1999   4.770   2.017   1.600
  367SOL    HW1 2000   4.764   2.103   1.549
  367SOL    HW2 2001   4.688   2.006   1.657
  368SOL     OW 2002   1.880   5.061   5.654
  368SOL    HW1 2003   1.897   4.963   5.655
  368SOL    HW2 2004   1.874   5.096   5.748
  369SOL     OW 2005   0.237   3.218   1.591
  369SOL    HW1 2006   0.151   3.254   1.556
  369SOL    HW2 2007   0.246   3.242   1.687
  370SOL     OW 2008   3.334   1.670   6.930
  370SOL    HW1 2009   3.412   1.652   6.989
  370SOL    HW2 2010   3.309   1.586   6.882
  371SOL     OW 2011   4.023   3.089   6.116
  371SOL    HW1 2012   3.924   3.088   6.102
  371SOL    HW2 2013   4.052   3.003   6.158
  372SOL     OW 2014   1.464   5.086   6.925
  372SOL    HW1 2015   1.527   5.145   6.977
  372SOL    HW2 2016   1.426   5.017   6.986
  373SOL     OW 2017   6.837   6.694   0.371
  373SOL    HW1 2018   6.911   6.758   0.355
  373SOL    HW2 2019   6.871   6.600   0.361
  374SOL     OW 2020   4.346   0.989   1.248
  374SOL    HW1 2021   4.283   0.921   1.210
  374SOL    HW2 2022   4.354   1.066   1.185
  375SOL     OW 2023   6.792   4.250   1.348
  375SOL    HW1 2024   6.796   4.216   1.254
  375SOL    HW2 2025   6.801   4.173   1.411
  376SOL     OW 2026   2.159   3.597   4.479
  376SOL    HW1 2027   2.111   3.573   4.564
  376SOL    HW2 2028   2.244   3.644   4.501
  377SOL     OW 2029   4.485   2.075   4.619
  377SOL    HW1 2030   4.465   2.025   4.704
  377SOL    HW2 2031   4.584   2.078   4.605
  378SOL     OW 2032   4.916   2.671   4.216
  378SOL    HW1 2033   4.940   2.630   4.128
  378SOL    HW2 2034   4.978   2.637   4.286
  379SOL     OW 2035   6.879   2.748   1.482
  379SOL    HW1 2036   6.965   2.782   1.445
  379SOL    HW2 2037   6.863   2.654   1.450
  380SOL     OW 2038   1.319   1.873   0.236
  380SOL    HW1 2039   1.370   1.792   0.267
  380SOL    HW2 2040   1.371   1.918   0.163
  381SOL     OW 2041   3.476   4.600   0.305
  381SOL    HW1 2042   3.402   4.629   0.243
  381SOL    HW2 2043   3.530   4.528   0.260
  382SOL     OW 2044   2.074   4.943   0.501
  382SOL    HW1 2045   2.126   4.892   0.569
  382SOL    HW2 2046   2.022   5.016   0.546
  383SOL     OW 2047   6.439   2.075   0.188
  383SOL    HW1 2048   6.535   2.100   0.176
  383SOL    HW2 2049   6.381   2.153   0.165
  384SOL     OW 2050   2.226   5.239   4.808
  384SOL    HW1 2051   2.199   5.190   4.725
  384SOL    HW2 2052   2.326   5.237   4.817
  385SOL     OW 2053   4.804   5.519   1.452
  385SOL    HW1 2054   4.880   5.477   1.402
  385SOL    HW2 2055   4.719   5.509   1.400
  386SOL     OW 2056   2.917   6.520   4.543
  386SOL    HW1 2057   2.876   6.563   4.623
  386SOL    HW2 2058   2.919   6.420   4.556
  387SOL     OW 2059   6.562   0.085   6.145
  387SOL    HW1 2060   6.619   0.108   6.066
  387SOL    HW2 2061   6.478   0.041   6.113
  388SOL     OW 2062   0.417   2.131   4.666
  388SOL    HW1 2063   0.408   2.050   4.609
  388SOL    HW2 2064   0.440   2.210   4.609
  389SOL     OW 2065   5.387   4.611   1.902
  389SOL    HW1 2066   5.385   4.691   1.842
  389SOL    HW2 2067   5.303   4.608   1.956
  390SOL     OW 2068   4.210   2.533   6.890
  390SOL    HW1 2069   4.154   2.616   6.888
  390SOL    HW2 2070   4.228   2.508   6.985
  391SOL     OW 2071   3.983   3.785   3.900
  391SOL    HW1 2072   3.917   3.784   3.975
  391SOL    HW2 2073   4.075   3.794   3.938
  392SOL     OW 2074   1.650   3.939   1.877
  392SOL    HW1 2075   1.610   4.007   1.816
  392SOL    HW2 2076   1.740   3.972   1.908
  393SOL     OW 2077   1.448   5.795   1.767
  393SOL    HW1 2078   1.532   5.777   1.715
  393SOL    HW2 2079   1.471   5.803   1.864
  394SOL     OW 2080   5.933   0.933   6.520
  394SOL    HW1 2081   5.943   0.946   6.619
  394SOL    HW2 2082   6.024   0.931   6.478
  395SOL     OW 2083   5.647   4.533   0.269
  395SOL    HW1 2084   5.690   4.603   0.326
  395SOL    HW2 2085   5.609   4.575   0.187
  396SOL     OW 2086   1.414   0.756   1.411
  396SOL    HW1 2087   1.434   0.696   1.333
  396SOL    HW2 2088   1.422   0.851   1.382
  397SOL     OW 2089   4.396   2.331   4.633
  397SOL    HW1 2090   4.361   2.350   4.725
  397SOL    HW2 2091   4.434   2.238   4.630
  398SOL     OW 2092   0.286   0.620   3.432
  398SOL    HW1 2093   0.195   0.651   3.404
  398SOL    HW2 2094   0.321   0.554   3.365
  399SOL     OW 2095   5.731   5.837   4.006
  399SOL    HW1 2096   5.815   5.859   4.054
  399SOL    HW2 2097   5.730   5.882   3.916
  400SOL     OW 2098   6.848   6.945   3.599
  400SOL    HW1 2099   6.757   6.979   3.572
  400SOL    HW2 2100   6.861   6.853   3.562
  401SOL     OW 2101   1.043   5.330   4.869
  401SOL    HW1 2102   0.948   5.299   4.869
  401SOL    HW2 2103   1.073   5.346   4.775
  402SOL     OW 2104   5.939   1.577   4.198
  402SOL    HW1 2105   5.903   1.486   4.219
  402SOL    HW2 2106   5.902   1.644   4.263
  403SOL     OW 2107   2.894   1.890   5.231
  403SOL    HW1 2108   2.912   1.803   5.184
  403SOL    HW2 2109   2.799   1.893   5.261
  404SOL     OW 2110   3.374   5.776   3.651
  404SOL    HW1 2111   3.299   5.721   3.688
  404SOL    HW2 2112   3.339   5.832   3.576
  405SOL     OW 2113   2.634   4.857   4.251
  405SOL    HW1 2114   2.701   4.931   4.259
  405SOL    HW2 2115   2.642   4.796   4.330
  406SOL     OW 2116   6.968   0.290   6.263
  406SOL    HW1 2117   6.999   0.256   6.174
  406SOL    HW2 2118   6.879   0.251   6.284
  407SOL     OW 2119   1.521   3.348   3.959
  407SOL    HW1 2120   1.620   3.366   3.959
  407SOL    HW2 2121   1.504   3.253   3.932
  408SOL     OW 2122   2.230   2.336   2.865
  408SOL    HW1 2123   2.211   2.335   2.767
  408SOL    HW2 2124   2.167   2.399   2.911
  409SOL     OW 2125   0.582   2.724   3.037
  409SOL    HW1 2126   0.506   2.698   3.096
  409SOL    HW2 2127   0.668   2.687   3.074
  410SOL     OW 2128   1.769   2.881   1.198
  410SOL    HW1 2129   1.757   2.921   1.289
  410SOL    HW2 2130   1.691   2.821   1.178
  411SOL     OW 2131   6.698   2.072   0.308
  411SOL    HW1 2132   6.638   2.032   0.377
  411SOL    HW2 2133   6.748   2.149   0.347
  412SOL     OW 2134   1.702   5.153   2.844
  412SOL    HW1 2135   1.627   5.099   2.883
  412SOL    HW2 2136   1.663   5.223   2.783
  413SOL     OW 2137   6.338   4.530   2.009
  413SOL    HW1 2138   6.330   4.494   1.916
  413SOL    HW2 2139   6.433   4.521   2.039
  414SOL     OW 2140   2.183   6.891   3.537
  414SOL    HW1 2141   2.218   6.797   3.539
  414SOL    HW2 2142   2.164   6.917   3.442
  415SOL     OW 2143   5.344   1.518   6.446
  415SOL    HW1 2144   5.419   1.583   6.454
  415SOL    HW2 2145   5.359   1.442   6.510
  416SOL     OW 2146   5.715   3.000   5.995
  416SOL    HW1 2147   5.642   2.953   6.044
  416SOL    HW2 2148   5.796   2.940   5.990
  417SOL     OW 2149   2.293   2.720   6.038
  417SOL    HW1 2150   2.352   2.762   5.970
  417SOL    HW2 2151   2.197   2.732   6.010
  418SOL     OW 2152   3.429   6.895   5.385
  418SOL    HW1 2153   3.339   6.869   5.421
  418SOL    HW2 2154   3.420   6.979   5.331
  419SOL     OW 2155   5.794   0.331   0.483
  419SOL    HW1 2156   5.772   0.330   0.581
  419SOL    HW2 2157   5.867   0.264   0.465
  420SOL     OW 2158   3.608   6.674   0.965
  420SOL    HW1 2159   3.640   6.758   0.921
  420SOL    HW2 2160   3.666   6.653   1.044
  421SOL     OW 2161   4.747   4.169   2.450
  421SOL    HW1 2162   4.670   4.229   2.469
  421SOL    HW2 2163   4.832   4.213   2.478
  422SOL     OW 2164   4.560   1.990   1.790
  422SOL    HW1 2165   4.477   1.992   1.735
  422SOL    HW2 2166   4.549   2.049   1.870
  423SOL     OW 2167   3.019   0.805   6.344
  423SOL    HW1 2168   3.043   0.729   6.283
  423SOL    HW2 2169   3.095   0.870   6.347
  424SOL     OW 2170   1.865   3.881   4.278
  424SOL    HW1 2171   1.824   3.858   4.190
  424SOL    HW2 2172   1.862   3.802   4.338
  425SOL     OW 2173   3.494   1.453   6.773
  425SOL    HW1 2174   3.489   1.378   6.840
  425SOL    HW2 2175   3.587   1.459   6.738
  426SOL     OW 2176   2.524   1.964   4.466
  426SOL    HW1 2177   2.486   2.056   4.468
  426SOL    HW2 2178   2.519   1.923   4.558
  427SOL     OW 2179   5.057   1.601   3.783
  427SOL    HW1 2180   4.997   1.676   3.811
  427SOL    HW2 2181   5.100   1.625   3.696
  428SOL     OW 2182   2.324   2.111   6.270
  428SOL    HW1 2183   2.282   2.159   6.193
  428SOL    HW2 2184   2.355   2.177   6.338
  429SOL     OW 2185   0.232   5.915   3.832
  429SOL    HW1 2186   0.200   5.934   3.925
  429SOL    HW2 2187   0.321   5.870   3.835
  430SOL     OW 2188   1.848   0.134   4.183
  430SOL    HW1 2189   1.932   0.155   4.133
  430SOL    HW2 2190   1.849   0.182   4.271
  431SOL     OW 2191   2.613   1.297   0.950
  431SOL    HW1 2192   2.546   1.232   0.913
  431SOL    HW2 2193   2.602   1.385   0.905
  432SOL     OW 2194   4.815   1.487   1.281
  432SOL    HW1 2195   4.786   1.569   1.332
  432SOL    HW2 2196   4.735   1.438   1.248
  433SOL     OW 2197   1.793   4.454   0.750
  433SOL    HW1 2198   1.696   4.438   0.735
  433SOL    HW2 2199   1.806   4.540   0.800
  434SOL     OW 2200   4.321   5.304   2.903
  434SOL    HW1 2201   4.387   5.248   2.853
  434SOL    HW2 2202   4.341   5.299   3.001
  435SOL     OW 2203   3.758   3.009   6.049
  435SOL    HW1 2204   3.680   3.015   6.111
  435SOL    HW2 2205   3.725   3.000   5.955
  436SOL     OW 2206   5.560   5.965   1.759
  436SOL    HW1 2207   5.631   6.020   1.803
  436SOL    HW2 2208   5.475   6.018   1.752
  437SOL     OW 2209   6.874   1.258   5.111
  437SOL    HW1 2210   6.929   1.334   5.074
  437SOL    HW2 2211   6.932   1.177   5.118
  438SOL     OW 2212   0.923   4.364   2.523
  438SOL    HW1 2213   0.877   4.287   2.479
  438SOL    HW2 2214   0.875   4.449   2.499
  439SOL     OW 2215   0.361   0.335   5.636
  439SOL    HW1 2216   0.306   0.261   5.598
  439SOL    HW2 2217   0.318   0.368   5.721
  440SOL     OW 2218   4.725   1.979   0.669
  440SOL    HW1 2219   4.761   1.950   0.580
  440SOL    HW2 2220   4.798   1.979   0.737
  441SOL     OW 2221   0.113   4.710   2.347
  441SOL    HW1 2222   0.109   4.666   2.436
  441SOL    HW2 2223   0.173   4.790   2.351
  442SOL     OW 2224   4.141   3.258   5.042
  442SOL    HW1 2225   4.189   3.220   4.964
  442SOL    HW2 2226   4.146   3.195   5.119
  443SOL     OW 2227   4.798   2.900   3.434
  443SOL    HW1 2228   4.891   2.882   3.465
  443SOL    HW2 2229   4.749   2.814   3.423
  444SOL     OW 2230   4.081   2.144   1.223
  444SOL    HW1 2231   4.160   2.140   1.285
  444SOL    HW2 2232   4.011   2.080   1.253
  445SOL     OW 2233   2.754   5.319   2.736
  445SOL    HW1 2234   2.766   5.233   2.786
  445SOL    HW2 2235   2.713   5.300   2.647
  446SOL     OW 2236   6.595   0.124   1.874
  446SOL    HW1 2237   6.607   0.031   1.909
  446SOL    HW2 2238   6.567   0.184   1.949
  447SOL     OW 2239   5.691   3.883   0.471
  447SOL    HW1 2240   5.639   3.964   0.446
  447SOL    HW2 2241   5.776   3.909   0.516
  448SOL     OW 2242   3.717   6.493   3.799
  448SOL    HW1 2243   3.767   6.579   3.814
  448SOL    HW2 2244   3.627   6.513   3.760
  449SOL     OW 2245   1.175   4.073   4.721
  449SOL    HW1 2246   1.173   4.061   4.820
  449SOL    HW2 2247   1.089   4.037   4.682
  450SOL     OW 2248   6.732   4.039   3.218
  450SOL    HW1 2249   6.804   4.080   3.161
  450SOL    HW2 2250   6.766   3.954   3.257
  451SOL     OW 2251   1.237   1.927   0.498
  451SOL    HW1 2252   1.302   1.905   0.571
  451SOL    HW2 2253   1.278   1.907   0.409
  452SOL     OW 2254   4.165   5.532   1.734
  452SOL    HW1 2255   4.076   5.511   1.775
  452SOL    HW2 2256   4.162   5.624   1.693
  453SOL     OW 2257   3.868   1.252   0.054
  453SOL    HW1 2258   3.792   1.198   0.019
  453SOL    HW2 2259   3.834   1.338   0.093
  454SOL     OW 2260   7.007   3.196   4.402
  454SOL    HW1 2261   0.066   3.164   4.345
  454SOL    HW2 2262   0.020   3.276   4.455
  455SOL     OW 2263   5.113   4.962   6.012
  455SOL    HW1 2264   5.057   4.970   6.094
  455SOL    HW2 2265   5.209   4.979   6.036
  456SOL     OW 2266   2.196   0.807   2.879
  456SOL    HW1 2267   2.266   0.850   2.823
  456SOL    HW2 2268   2.208   0.707   2.877
  457SOL     OW 2269   2.248   6.209   0.165
  457SOL    HW1 2270   2.334   6.166   0.137
  457SOL    HW2 2271   2.183   6.206   0.090
  458SOL     OW 2272   3.859   1.537   3.309
  458SOL    HW1 2273   3.865   1.602   3.385
  458SOL    HW2 2274   3.949   1.528   3.266
  459SOL     OW 2275   2.993   0.963   3.027
  459SOL    HW1 2276   3.035   0.929   3.112
  459SOL    HW2 2277   2.922   1.030   3.050
  460SOL     OW 2278   0.801   1.718   6.140
  460SOL    HW1 2279   0.835   1.810   6.118
  460SOL    HW2 2280   0.745   1.684   6.064
  461SOL     OW 2281   1.567   6.176   5.341
  461SOL    HW1 2282   1.523   6.172   5.251
  461SOL    HW2 2283   1.563   6.269   5.376
  462SOL     OW 2284   3.403   4.074   4.733
  462SOL    HW1 2285   3.353   4.138   4.791
  462SOL    HW2 2286   3.415   3.987   4.782
  463SOL     OW 2287   5.510   5.994   3.185
  463SOL    HW1 2288   5.467   6.085   3.179
  463SOL    HW2 2289   5.607   6.002   3.161
  464SOL     OW 2290   4.184   5.443   5.362
  464SOL    HW1 2291   4.136   5.356   5.349
  464SOL    HW2 2292   4.243   5.460   5.283
  465SOL     OW 2293   0.133   4.702   6.802
  465SOL    HW1 2294   0.202   4.661   6.861
  465SOL    HW2 2295   0.050   4.646   6.802
  466SOL     OW 2296   3.882   5.212   4.437
  466SOL    HW1 2297   3.909   5.234   4.531
  466SOL    HW2 2298   3.890   5.293   4.380
  467SOL     OW 2299   6.713   0.501   2.138
  467SOL    HW1 2300   6.764   0.470   2.218
  467SOL    HW2 2301   6.761   0.576   2.094
  468SOL     OW 2302   2.514   6.147   6.341
  468SOL    HW1 2303   2.603   6.140   6.388
  468SOL    HW2 2304   2.449   6.084   6.384
  469SOL     OW 2305   3.120   4.716   5.254
  469SOL    HW1 2306   3.056   4.646   5.224
  469SOL    HW2 2307   3.098   4.803   5.209
  470SOL     OW 2308   2.149   4.790   3.022
  470SOL    HW1 2309   2.144   4.826   2.929
  470SOL    HW2 2310   2.234   4.820   3.065
  471SOL     OW 2311   1.668   2.012   3.923
  471SOL    HW1 2312   1.716   1.944   3.867
  471SOL    HW2 2313   1.656   2.095   3.869
  472SOL     OW 2314   5.483   4.231   6.690
  472SOL    HW1 2315   5.392   4.257   6.722
  472SOL    HW2 2316   5.516   4.298   6.624
  473SOL     OW 2317   5.239   3.654   2.580
  473SOL    HW1 2318   5.145   3.654   2.544
  473SOL    HW2 2319   5.289   3.575   2.543
  474SOL     OW 2320   5.122   5.503   3.899
  474SOL    HW1 2321   5.127   5.456   3.811
  474SOL    HW2 2322   5.215   5.517   3.934
  475SOL     OW 2323   5.907   1.596   0.639
  475SOL    HW1 2324   5.832   1.559   0.694
  475SOL    HW2 2325   5.906   1.696   0.645
  476SOL     OW 2326   1.264   3.914   0.134
  476SOL    HW1 2327   1.315   3.829   0.151
  476SOL    HW2 2328   1.208   3.904   0.052
  477SOL     OW 2329   0.265   5.235   2.812
  477SOL    HW1 2330   0.348   5.276   2.773
  477SOL    HW2 2331   0.202   5.307   2.840
  478SOL     OW 2332   6.042   5.555   2.644
  478SOL    HW1 2333   6.019   5.487   2.574
  478SOL    HW2 2334   6.082   5.509   2.723
  479SOL     OW 2335   3.016   3.942   2.898
  479SOL    HW1 2336   2.979   3.897   2.816
  479SOL    HW2 2337   3.091   4.003   2.871
  480SOL     OW 2338   0.931   0.974   2.085
  480SOL    HW1 2339   0.934   1.044   2.014
  480SOL    HW2 2340   1.022   0.935   2.097
  481SOL     OW 2341   5.818   6.674   0.978
  481SOL    HW1 2342   5.916   6.663   0.997
  481SOL    HW2 2343   5.782   6.590   0.938
  482SOL     OW 2344   3.904   4.926   2.756
  482SOL    HW1 2345   3.914   4.862   2.680
  482SOL    HW2 2346   3.824   4.984   2.740
  483SOL     OW 2347   5.827   1.145   4.018
  483SOL    HW1 2348   5.840   1.048   3.997
  483SOL    HW2 2349   5.916   1.191   4.022
  484SOL     OW 2350   1.862   4.938   3.357
  484SOL    HW1 2351   1.824   4.932   3.265
  484SOL    HW2 2352   1.955   4.972   3.352
  485SOL     OW 2353   5.158   2.004   0.815
  485SOL    HW1 2354   5.096   2.065   0.766
  485SOL    HW2 2355   5.203   2.054   0.889
  486SOL     OW 2356   5.834   6.921   5.788
  486SOL    HW1 2357   5.820   0.002   5.771
  486SOL    HW2 2358   5.798   6.868   5.712
  487SOL     OW 2359   0.165   0.954   6.565
  487SOL    HW1 2360   0.105   0.964   6.645
  487SOL    HW2 2361   0.218   0.870   6.573
  488SOL     OW 2362   1.934   5.662   3.245
  488SOL    HW1 2363   1.876   5.706   3.176
  488SOL    HW2 2364   1.922   5.708   3.333
  489SOL     OW 2365   2.949   5.094   5.484
  489SOL    HW1 2366   3.048   5.105   5.484
  489SOL    HW2 2367   2.921   5.043   5.565
  490SOL     OW 2368   1.573   3.503   4.639
  490SOL    HW1 2369   1.480   3.499   4.677
  490SOL    HW2 2370   1.570   3.545   4.549
  491SOL     OW 2371   6.277   2.759   1.120
  491SOL    HW1 2372   6.205   2.825   1.103
  491SOL    HW2 2373   6.308   2.719   1.034
  492SOL     OW 2374   1.800   2.296   5.849
  492SOL    HW1 2375   1.890   2.282   5.808
  492SOL    HW2 2376   1.739   2.336   5.781
  493SOL     OW 2377   2.067   5.599   3.998
  493SOL    HW1 2378   2.014   5.515   4.000
  493SOL    HW2 2379   2.013   5.673   4.038
  494SOL     OW 2380   2.971   0.932   4.343
  494SOL    HW1 2381   3.015   0.936   4.253
  494SOL    HW2 2382   2.933   1.021   4.366
  495SOL     OW 2383   3.797   4.422   6.722
  495SOL    HW1 2384   3.757   4.342   6.768
  495SOL    HW2 2385   3.753   4.436   6.634
  496SOL     OW 2386   5.005   1.190   2.957
  496SOL    HW1 2387   4.949   1.232   3.029
  496SOL    HW2 2388   4.946   1.167   2.879
  497SOL     OW 2389   4.352   2.319   0.665
  497SOL    HW1 2390   4.324   2.369   0.747
  497SOL    HW2 2391   4.440   2.275   0.682
  498SOL     OW 2392   0.328   0.164   1.269
  498SOL    HW1 2393   0.411   0.114   1.296
  498SOL    HW2 2394   0.248   0.110   1.292
  499SOL     OW 2395   2.822   6.127   0.321
  499SOL    HW1 2396   2.911   6.141   0.364
  499SOL    HW2 2397   2.756   6.192   0.359
  500SOL     OW 2398   5.600   1.895   6.248
  500SOL    HW1 2399   5.696   1.892   6.276
  500SOL    HW2 2400   5.559   1.980   6.279
  501SOL     OW 2401   2.005   1.806   4.530
  501SOL    HW1 2402   1.969   1.862   4.456
  501SOL    HW2 2403   2.102   1.788   4.515
  502SOL     OW 2404   2.820   4.013   6.734
  502SOL    HW1 2405   2.791   4.108   6.721
  502SOL    HW2 2406   2.843   3.972   6.646
  503SOL     OW 2407   3.078   5.321   1.077
  503SOL    HW1 2408   3.152   5.282   1.023
  503SOL    HW2 2409   3.114   5.356   1.164
  504SOL     OW 2410   6.080   6.530   0.443
  504SOL    HW1 2411   6.073   6.627   0.416
  504SOL    HW2 2412   6.145   6.521   0.518
  505SOL     OW 2413   6.014   4.455   5.637
  505SOL    HW1 2414   5.938   4.493   5.585
  505SOL    HW2 2415   6.101   4.490   5.602
  506SOL     OW 2416   3.245   5.397   3.000
  506SOL    HW1 2417   3.148   5.376   2.993
  506SOL    HW2 2418   3.270   5.408   3.096
  507SOL     OW 2419   3.583   0.361   2.406
  507SOL    HW1 2420   3.679   0.384   2.392
  507SOL    HW2 2421   3.559   0.378   2.502
  508SOL     OW 2422   0.777   4.958   3.482
  508SOL    HW1 2423   0.722   4.893   3.430
  508SOL    HW2 2424   0.825   4.910   3.556
  509SOL     OW 2425   4.413   6.820   6.538
  509SOL    HW1 2426   4.422   6.816   6.638
  509SOL    HW2 2427   4.390   6.913   6.510
  510SOL     OW 2428   6.350   4.063   0.003
  510SOL    HW1 2429   6.388   4.138   0.058
  510SOL    HW2 2430   6.263   4.093   6.978
  511SOL     OW 2431   0.731   1.251   6.831
  511SOL    HW1 2432   0.785   1.174   6.796
  511SOL    HW2 2433   0.788   1.308   6.889
  512SOL     OW 2434   0.420   2.380   4.207
  512SOL    HW1 2435   0.407   2.479   4.200
  512SOL    HW2 2436   0.333   2.334   4.192
  513SOL     OW 2437   5.718   6.736   2.838
  513SOL    HW1 2438   5.721   6.834   2.818
  513SOL    HW2 2439   5.754   6.720   2.931
  514SOL     OW 2440   5.023   1.667   4.975
  514SOL    HW1 2441   5.108   1.645   5.022
  514SOL    HW2 2442   5.027   1.632   4.881
  515SOL     OW 2443   3.338   0.981   0.008
  515SOL    HW1 2444   3.309   0.938   6.939
  515SOL    HW2 2445   3.312   1.078   0.008
  516SOL     OW 2446   1.518   6.260   1.837
  516SOL    HW1 2447   1.536   6.324   1.912
  516SOL    HW2 2448   1.426   6.275   1.801
  517SOL     OW 2449   3.177   5.446   1.669
  517SOL    HW1 2450   3.149   5.524   1.613
  517SOL    HW2 2451   3.096   5.400   1.705
  518SOL     OW 2452   2.086   6.029   4.281
  518SOL    HW1 2453   2.176   6.054   4.246
  518SOL    HW2 2454   2.083   6.044   4.380
  519SOL     OW 2455   6.691   0.242   2.555
  519SOL    HW1 2456   6.656   0.165   2.610
  519SOL    HW2 2457   6.647   0.327   2.585
  520SOL     OW 2458   2.159   5.197   0.864
  520SOL    HW1 2459   2.168   5.230   0.770
  520SOL    HW2 2460   2.209   5.111   0.874
  521SOL     OW 2461   6.180   5.896   5.570
  521SOL    HW1 2462   6.211   5.984   5.607
  521SOL    HW2 2463   6.130   5.846   5.641
  522SOL     OW 2464   3.834   4.343   0.112
  522SOL    HW1 2465   3.766   4.349   0.038
  522SOL    HW2 2466   3.907   4.281   0.085
  523SOL     OW 2467   1.934   6.976   6.165
  523SOL    HW1 2468   1.850   6.930   6.136
  523SOL    HW2 2469   1.960   0.028   6.097
  524SOL     OW 2470   0.297   1.224   0.869
  524SOL    HW1 2471   0.225   1.252   0.932
  524SOL    HW2 2472   0.355   1.302   0.846
  525SOL     OW 2473   0.399   3.122   3.202
  525SOL    HW1 2474   0.468   3.120   3.274
  525SOL    HW2 2475   0.441   3.096   3.115
  526SOL     OW 2476   4.312   6.857   4.525
  526SOL    HW1 2477   4.378   6.932   4.527
  526SOL    HW2 2478   4.312   6.816   4.434
  527SOL     OW 2479   0.240   0.918   1.254
  527SOL    HW1 2480   0.207   1.012   1.259
  527SOL    HW2 2481   0.320   0.908   1.313
  528SOL     OW 2482   0.186   2.361   4.399
  528SOL    HW1 2483   0.143   2.354   4.490
  528SOL    HW2 2484   0.227   2.273   4.376
  529SOL     OW 2485   1.658   0.483   6.069
  529SOL    HW1 2486   1.634   0.468   5.972
  529SOL    HW2 2487   1.746   0.440   6.089
  530SOL     OW 2488   2.731   4.777   1.355
  530SOL    HW1 2489   2.734   4.681   1.327
  530SOL    HW2 2490   2.801   4.794   1.424
  531SOL     OW 2491   1.067   0.786   6.477
  531SOL    HW1 2492   1.098   0.801   6.571
  531SOL    HW2 2493   1.094   0.864   6.421
  532SOL     OW 2494   2.849   0.716   6.534
  532SOL    HW1 2495   2.912   0.748   6.464
  532SOL    HW2 2496   2.814   0.626   6.507
  533SOL     OW 2497   4.056   0.207   4.208
  533SOL    HW1 2498   4.062   0.198   4.109
  533SOL    HW2 2499   4.099   0.293   4.237
  534SOL     OW 2500   1.667   4.392   1.993
  534SOL    HW1 2501   1.681   4.365   1.898
  534SOL    HW2 2502   1.689   4.488   2.004
  535SOL     OW 2503   4.845   4.009   4.657
  535SOL    HW1 2504   4.838   4.058   4.744
  535SOL    HW2 2505   4.795   4.059   4.586
  536SOL     OW 2506   6.759   6.296   1.584
  536SOL    HW1 2507   6.807   6.379   1.615
  536SOL    HW2 2508   6.819   6.217   1.595
  537SOL     OW 2509   2.795   1.795   2.240
  537SOL    HW1 2510   2.815   1.765   2.147
  537SOL    HW2 2511   2.717   1.858   2.239
  538SOL     OW 2512   4.071   4.704   5.334
  538SOL    HW1 2513   4.125   4.731   5.414
  538SOL    HW2 2514   4.104   4.616   5.300
  539SOL     OW 2515   2.330   0.214   6.579
  539SOL    HW1 2516   2.420   0.180   6.604
  539SOL    HW2 2517   2.336   0.262   6.491
  540SOL     OW 2518   1.920   1.127   5.329
  540SOL    HW1 2519   1.939   1.152   5.234
  540SOL    HW2 2520   1.895   1.209   5.380
  541SOL     OW 2521   5.309   6.432   3.578
  541SOL    HW1 2522   5.316   6.343   3.623
  541SOL    HW2 2523   5.214   6.450   3.555
  542SOL     OW 2524   3.578   6.426   6.181
  542SOL    HW1 2525   3.550   6.454   6.089
  542SOL    HW2 2526   3.638   6.495   6.220
  543SOL     OW 2527   5.855   2.774   3.968
  543SOL    HW1 2528   5.822   2.833   4.042
  543SOL    HW2 2529   5.800   2.790   3.886
  544SOL     OW 2530   1.448   3.271   1.237
  544SOL    HW1 2531   1.440   3.206   1.312
  544SOL    HW2 2532   1.367   3.331   1.237
  545SOL     OW 2533   6.984   5.622   0.613
  545SOL    HW1 2534   0.033   5.689   0.647
  545SOL    HW2 2535   6.892   5.646   0.644
  546SOL     OW 2536   6.982   4.376   1.936
  546SOL    HW1 2537   6.897   4.384   1.883
  546SOL    HW2 2538   6.987   4.451   2.002
  547SOL     OW 2539   4.280   0.008   0.106
  547SOL    HW1 2540   4.305   0.007   0.009
  547SOL    HW2 2541   4.246   0.099   0.130
  548SOL     OW 2542   4.256   3.080   0.257
  548SOL    HW1 2543   4.229   2.989   0.289
  548SOL    HW2 2544   4.264   3.079   0.157
  549SOL     OW 2545   5.292   2.136   3.239
  549SOL    HW1 2546   5.388   2.113   3.223
  549SOL    HW2 2547   5.235   2.057   3.217
  550SOL     OW 2548   6.812   5.699   3.698
  550SOL    HW1 2549   6.756   5.616   3.702
  550SOL    HW2 2550   6.886   5.693   3.765
  551SOL     OW 2551   5.650   0.389   0.252
  551SOL    HW1 2552   5.692   0.394   0.343
  551SOL    HW2 2553   5.598   0.472   0.235
  552SOL     OW 2554   0.755   6.959   4.710
  552SOL    HW1 2555   0.814   6.924   4.783
  552SOL    HW2 2556   0.704   0.022   4.743
  553SOL     OW 2557   3.331   2.729   6.011
  553SOL    HW1 2558   3.240   2.771   6.010
  553SOL    HW2 2559   3.398   2.797   5.982
  554SOL     OW 2560   6.717   5.851   0.473
  554SOL    HW1 2561   6.761   5.883   0.389
  554SOL    HW2 2562   6.630   5.898   0.484
  555SOL     OW 2563   2.925   3.705   5.784
  555SOL    HW1 2564   2.826   3.694   5.787
  555SOL    HW2 2565   2.949   3.775   5.717
  556SOL     OW 2566   6.225   6.112   3.223
  556SOL    HW1 2567   6.309   6.075   3.183
  556SOL    HW2 2568   6.237   6.124   3.321
  557SOL     OW 2569   5.363   4.197   6.386
  557SOL    HW1 2570   5.422   4.261   6.435
  557SOL    HW2 2571   5.369   4.215   6.288
  558SOL     OW 2572   3.761   3.355   2.269
  558SOL    HW1 2573   3.778   3.262   2.302
  558SOL    HW2 2574   3.781   3.420   2.342
  559SOL     OW 2575   6.613   0.939   6.348
  559SOL    HW1 2576   6.608   0.946   6.249
  559SOL    HW2 2577   6.525   0.909   6.384
  560SOL     OW 2578   0.012   2.661   4.106
  560SOL    HW1 2579   0.001   2.691   4.201
  560SOL    HW2 2580   6.993   2.568   4.096
  561SOL     OW 2581   0.525   3.991   6.903
  561SOL    HW1 2582   0.571   3.903   6.916
  561SOL    HW2 2583   0.522   4.012   6.806
  562SOL     OW 2584   4.717   6.353   3.768
  562SOL    HW1 2585   4.729   6.254   3.767
  562SOL    HW2 2586   4.622   6.376   3.790
  563SOL     OW 2587   1.400   0.819   3.949
  563SOL    HW1 2588   1.436   0.796   3.859
  563SOL    HW2 2589   1.460   0.887   3.992
  564SOL     OW 2590   5.956   1.563   6.234
  564SOL    HW1 2591   5.973   1.644   6.178
  564SOL    HW2 2592   6.023   1.493   6.211
  565SOL     OW 2593   3.288   2.895   3.459
  565SOL    HW1 2594   3.235   2.917   3.541
  565SOL    HW2 2595   3.270   2.800   3.431
  566SOL     OW 2596   2.539   1.845   3.615
  566SOL    HW1 2597   2.635   1.853   3.640
  566SOL    HW2 2598   2.519   1.751   3.589
  567SOL     OW 2599   1.994   3.137   5.196
  567SOL    HW1 2600   2.074   3.086   5.226
  567SOL    HW2 2601   1.988   3.222   5.247
  568SOL     OW 2602   0.936   6.613   0.047
  568SOL    HW1 2603   0.872   6.634   6.990
  568SOL    HW2 2604   0.908   6.659   0.131
  569SOL     OW 2605   5.466   3.674   6.397
  569SOL    HW1 2606   5.532   3.663   6.472
  569SOL    HW2 2607   5.401   3.598   6.397
  570SOL     OW 2608   3.786   0.518   5.943
  570SOL    HW1 2609   3.778   0.510   6.042
  570SOL    HW2 2610   3.852   0.589   5.920
  571SOL     OW 2611   2.395   4.388   1.815
  571SOL    HW1 2612   2.317   4.418   1.761
  571SOL    HW2 2613   2.480   4.420   1.773
  572SOL     OW 2614   2.881   1.042   4.722
  572SOL    HW1 2615   2.941   1.101   4.777
  572SOL    HW2 2616   2.884   0.949   4.758
  573SOL     OW 2617   0.377   0.663   5.266
  573SOL    HW1 2618   0.463   0.611   5.258
  573SOL    HW2 2619   0.371   0.705   5.356
  574SOL     OW 2620   2.349   1.048   6.118
  574SOL    HW1 2621   2.430   1.106   6.104
  574SOL    HW2 2622   2.266   1.101   6.103
  575SOL     OW 2623   4.041   4.154   0.012
  575SOL    HW1 2624   4.082   4.072   0.053
  575SOL    HW2 2625   4.083   4.236   0.050
  576SOL     OW 2626   1.560   1.339   2.630
  576SOL    HW1 2627   1.475   1.312   2.585
  576SOL    HW2 2628   1.638   1.300   2.580
  577SOL     OW 2629   0.417   0.862   1.878
  577SOL    HW1 2630   0.334   0.828   1.834
  577SOL    HW2 2631   0.402   0.873   1.976
  578SOL     OW 2632   3.310   6.850   6.953
  578SOL    HW1 2633   3.343   6.880   6.863
  578SOL    HW2 2634   3.377   6.874   0.006
  579SOL     OW 2635   1.127   3.521   1.986
  579SOL    HW1 2636   1.194   3.464   2.032
  579SOL    HW2 2637   1.172   3.601   1.945
  580SOL     OW 2638   4.736   4.860   4.564
  580SOL    HW1 2639   4.699   4.938   4.514
  580SOL    HW2 2640   4.829   4.841   4.533
  581SOL     OW 2641   2.117   2.495   4.072
  581SOL    HW1 2642   2.181   2.419   4.062
  581SOL    HW2 2643   2.146   2.552   4.149
  582SOL     OW 2644   5.621   4.443   5.372
  582SOL    HW1 2645   5.603   4.417   5.277
  582SOL    HW2 2646   5.707   4.401   5.402
  583SOL     OW 2647   3.519   6.349   5.686
  583SOL    HW1 2648   3.450   6.335   5.615
  583SOL    HW2 2649   3.575   6.267   5.696
  584SOL     OW 2650   3.963   0.636   5.208
  584SOL    HW1 2651   4.008   0.717   5.246
  584SOL    HW2 2652   4.015   0.603   5.129
  585SOL     OW 2653   3.520   6.555   1.760
  585SOL    HW1 2654   3.584   6.630   1.742
  585SOL    HW2 2655   3.455   6.582   1.831
  586SOL     OW 2656   3.287   0.254   0.711
  586SOL    HW1 2657   3.332   0.201   0.639
  586SOL    HW2 2658   3.240   0.332   0.670
  587SOL     OW 2659   4.805   1.256   2.243
  587SOL    HW1 2660   4.749   1.174   2.226
  587SOL    HW2 2661   4.746   1.333   2.265
  588SOL     OW 2662   1.760   4.717   2.715
  588SOL    HW1 2663   1.739   4.624   2.685
  588SOL    HW2 2664   1.839   4.715   2.776
  589SOL     OW 2665   3.516   5.320   0.702
  589SOL    HW1 2666   3.605   5.278   0.686
  589SOL    HW2 2667   3.516   5.365   0.791
  590SOL     OW 2668   3.060   2.442   6.557
  590SOL    HW1 2669   3.007   2.514   6.512
  590SOL    HW2 2670   3.083   2.371   6.489
  591SOL     OW 2671   2.806   6.960   3.638
  591SOL    HW1 2672   2.878   6.960   3.569
  591SOL    HW2 2673   2.808   0.029   3.689
  592SOL     OW 2674   5.071   2.533   4.378
  592SOL    HW1 2675   5.157   2.516   4.331
  592SOL    HW2 2676   5.022   2.447   4.390
  593SOL     OW 2677   2.135   1.440   6.553
  593SOL    HW1 2678   2.041   1.460   6.525
  593SOL    HW2 2679   2.165   1.355   6.509
  594SOL     OW 2680   4.327   1.059   3.185
  594SOL    HW1 2681   4.364   1.009   3.106
  594SOL    HW2 2682   4.384   1.042   3.265
  595SOL     OW 2683   6.055   4.690   2.756
  595SOL    HW1 2684   6.095   4.687   2.848
  595SOL    HW2 2685   6.105   4.627   2.696
  596SOL     OW 2686   6.563   4.852   4.587
  596SOL    HW1 2687   6.550   4.848   4.686
  596SOL    HW2 2688   6.558   4.759   4.549
  597SOL     OW 2689   3.192   1.870   6.717
  597SOL    HW1 2690   3.247   1.812   6.777
  597SOL    HW2 2691   3.114   1.906   6.769
  598SOL     OW 2692   3.568   3.509   2.921
  598SOL    HW1 2693   3.638   3.487   2.853
  598SOL    HW2 2694   3.514   3.427   2.942
  599SOL     OW 2695   1.469   4.930   1.753
  599SOL    HW1 2696   1.537   5.001   1.732
  599SOL    HW2 2697   1.384   4.973   1.782
  600SOL     OW 2698   0.050   3.428   5.558
  600SOL    HW1 2699   0.076   3.352   5.498
  600SOL    HW2 2700   6.999   3.486   5.511
  601SOL     OW 2701   0.301   6.585   5.853
  601SOL    HW1 2702   0.250   6.665   5.821
  601SOL    HW2 2703   0.398   6.598   5.836
  602SOL     OW 2704   1.789   0.850   3.532
  602SOL    HW1 2705   1.731   0.907   3.591
  602SOL    HW2 2706   1.862   0.905   3.493
  603SOL     OW 2707   2.124   1.795   4.049
  603SOL    HW1 2708   2.041   1.767   4.001
  603SOL    HW2 2709   2.106   1.880   4.099
  604SOL     OW 2710   5.749   2.605   0.771
  604SOL    HW1 2711   5.772   2.606   0.868
  604SOL    HW2 2712   5.793   2.526   0.727
  605SOL     OW 2713   6.308   6.324   1.267
  605SOL    HW1 2714   6.371   6.366   1.202
  605SOL    HW2 2715   6.291   6.229   1.241
  606SOL     OW 2716   3.287   6.670   4.982
  606SOL    HW1 2717   3.192   6.650   4.958
  606SOL    HW2 2718   3.333   6.714   4.905
  607SOL     OW 2719   1.580   2.546   6.169
  607SOL    HW1 2720   1.484   2.571   6.179
  607SOL    HW2 2721   1.593   2.451   6.198
  608SOL     OW 2722   3.404   0.976   6.574
  608SOL    HW1 2723   3.413   1.076   6.576
  608SOL    HW2 2724   3.475   0.938   6.515
  609SOL     OW 2725   3.566   2.801   2.129
  609SOL    HW1 2726   3.579   2.702   2.115
  609SOL    HW2 2727   3.469   2.819   2.149
  610SOL     OW 2728   4.791   3.684   1.786
  610SOL    HW1 2729   4.800   3.623   1.864
  610SOL    HW2 2730   4.780   3.630   1.702
  611SOL     OW 2731   4.153   1.287   2.602
  611SOL    HW1 2732   4.072   1.231   2.616
  611SOL    HW2 2733   4.230   1.249   2.653
  612SOL     OW 2734   4.889   4.715   3.942
  612SOL    HW1 2735   4.862   4.623   3.971
  612SOL    HW2 2736   4.972   4.743   3.991
  613SOL     OW 2737   3.885   4.720   6.238
  613SOL    HW1 2738   3.808   4.775   6.204
  613SOL    HW2 2739   3.892   4.637   6.184
  614SOL     OW 2740   2.554   6.609   6.469
  614SOL    HW1 2741   2.514   6.517   6.468
  614SOL    HW2 2742   2.545   6.649   6.378
  615SOL     OW 2743   0.021   4.935   2.971
  615SOL    HW1 2744   6.966   4.882   3.017
  615SOL    HW2 2745   7.014   4.945   2.874
  616SOL     OW 2746   6.379   3.426   3.719
  616SOL    HW1 2747   6.428   3.340   3.712
  616SOL    HW2 2748   6.292   3.411   3.765
  617SOL     OW 2749   3.332   6.764   5.875
  617SOL    HW1 2750   3.332   6.801   5.968
  617SOL    HW2 2751   3.417   6.789   5.829
  618SOL     OW 2752   1.792   0.787   3.892
  618SOL    HW1 2753   1.853   0.814   3.818
  618SOL    HW2 2754   1.782   0.863   3.956
  619SOL     OW 2755   0.813   2.262   6.346
  619SOL    HW1 2756   0.859   2.234   6.262
  619SOL    HW2 2757   0.741   2.328   6.325
  620SOL     OW 2758   4.506   3.345   0.711
  620SOL    HW1 2759   4.560   3.359   0.629
  620SOL    HW2 2760   4.546   3.396   0.787
  621SOL     OW 2761   0.167   6.004   0.706
  621SOL    HW1 2762   0.170   6.072   0.779
  621SOL    HW2 2763   0.138   5.916   0.744
  622SOL     OW 2764   0.303   0.700   6.697
  622SOL    HW1 2765   0.397   0.728   6.716
  622SOL    HW2 2766   0.249   0.705   6.781
  623SOL     OW 2767   0.328   4.945   4.734
  623SOL    HW1 2768   0.379   5.014   4.785
  623SOL    HW2 2769   0.374   4.856   4.743
  624SOL     OW 2770   1.011   1.518   1.730
  624SOL    HW1 2771   1.065   1.538   1.812
  624SOL    HW2 2772   1.072   1.490   1.656
  625SOL     OW 2773   1.506   1.328   2.960
  625SOL    HW1 2774   1.464   1.403   2.910
  625SOL    HW2 2775   1.566   1.365   3.031
  626SOL     OW 2776   2.908   5.747   4.772
  626SOL    HW1 2777   2.903   5.799   4.687
  626SOL    HW2 2778   2.954   5.660   4.755
  627SOL     OW 2779   5.335   6.647   0.079
  627SOL    HW1 2780   5.330   6.746   0.073
  627SOL    HW2 2781   5.247   6.607   0.052
  628SOL     OW 2782   5.581   4.330   3.067
  628SOL    HW1 2783   5.567   4.418   3.022
  628SOL    HW2 2784   5.572   4.257   2.999
  629SOL     OW 2785   1.341   0.224   1.355
  629SOL    HW1 2786   1.301   0.311   1.327
  629SOL    HW2 2787   1.275   0.172   1.408
  630SOL     OW 2788   2.665   1.600   1.096
  630SOL    HW1 2789   2.681   1.555   1.184
  630SOL    HW2 2790   2.711   1.689   1.096
  631SOL     OW 2791   2.823   0.629   4.261
  631SOL    HW1 2792   2.878   0.644   4.343
  631SOL    HW2 2793   2.726   0.636   4.285
  632SOL     OW 2794   3.118   0.396   1.245
  632SOL    HW1 2795   3.051   0.324   1.225
  632SOL    HW2 2796   3.071   0.479   1.272
  633SOL     OW 2797   2.343   6.867   5.100
  633SOL    HW1 2798   2.287   6.899   5.177
  633SOL    HW2 2799   2.376   6.775   5.119
  634SOL     OW 2800   2.705   5.630   2.000
  634SOL    HW1 2801   2.707   5.724   2.033
  634SOL    HW2 2802   2.795   5.605   1.965
  635SOL     OW 2803   2.836   0.141   3.255
  635SOL    HW1 2804   2.892   0.218   3.223
  635SOL    HW2 2805   2.742   0.171   3.268
  636SOL     OW 2806   4.610   5.250   6.876
  636SOL    HW1 2807   4.563   5.290   6.798
  636SOL    HW2 2808   4.546   5.239   6.952
  637SOL     OW 2809   5.923   4.336   0.044
  637SOL    HW1 2810   5.831   4.300   0.031
  637SOL    HW2 2811   5.966   4.289   0.121
  638SOL     OW 2812   5.391   1.454   2.964
  638SOL    HW1 2813   5.364   1.512   2.888
  638SOL    HW2 2814   5.485   1.477   2.992
  639SOL     OW 2815   4.863   3.834   2.364
  639SOL    HW1 2816   4.801   3.846   2.287
  639SOL    HW2 2817   4.941   3.896   2.355
  640SOL     OW 2818   2.039   3.440   5.751
  640SOL    HW1 2819   2.111   3.426   5.683
  640SOL    HW2 2820   2.052   3.529   5.796
  641SOL     OW 2821   0.067   5.768   5.191
  641SOL    HW1 2822   7.010   5.716   5.146
  641SOL    HW2 2823   0.103   5.715   5.268
  642SOL     OW 2824   1.733   4.608   6.059
  642SOL    HW1 2825   1.718   4.606   6.158
  642SOL    HW2 2826   1.773   4.696   6.033
  643SOL     OW 2827   6.169   6.052   4.923
  643SOL    HW1 2828   6.129   5.971   4.967
  643SOL    HW2 2829   6.104   6.127   4.926
  644SOL     OW 2830   2.212   6.382   1.734
  644SOL    HW1 2831   2.308   6.359   1.749
  644SOL    HW2 2832   2.154   6.306   1.763
  645SOL     OW 2833   6.821   2.282   3.003
  645SOL    HW1 2834   6.748   2.240   3.056
  645SOL    HW2 2835   6.900   2.221   3.001
  646SOL     OW 2836   0.970   2.754   4.374
  646SOL    HW1 2837   0.945   2.688   4.444
  646SOL    HW2 2838   0.893   2.815   4.357
  647SOL     OW 2839   5.086   3.291   0.294
  647SOL    HW1 2840   5.031   3.221   0.249
  647SOL    HW2 2841   5.135   3.252   0.372
  648SOL     OW 2842   4.678   2.430   4.367
  648SOL    HW1 2843   4.592   2.406   4.322
  648SOL    HW2 2844   4.708   2.521   4.336
  649SOL     OW 2845   4.367   4.658   1.931
  649SOL    HW1 2846   4.319   4.577   1.898
  649SOL    HW2 2847   4.458   4.662   1.890
  650SOL     OW 2848   4.917   4.052   0.803
  650SOL    HW1 2849   4.898   4.123   0.871
  650SOL    HW2 2850   4.881   3.964   0.835
  651SOL     OW 2851   0.758   6.272   6.172
  651SOL    HW1 2852   0.661   6.285   6.192
  651SOL    HW2 2853   0.811   6.289   6.254
  652SOL     OW 2854   4.931   1.773   2.461
  652SOL    HW1 2855   5.017   1.824   2.468
  652SOL    HW2 2856   4.950   1.681   2.427
  653SOL     OW 2857   3.565   4.924   2.468
  653SOL    HW1 2858   3.473   4.913   2.430
  653SOL    HW2 2859   3.564   4.902   2.566
  654SOL     OW 2860   6.668   5.850   6.402
  654SOL    HW1 2861   6.574   5.825   6.424
  654SOL    HW2 2862   6.713   5.772   6.358
  655SOL     OW 2863   0.599   1.549   6.998
  655SOL    HW1 2864   0.602   1.467   0.039
  655SOL    HW2 2865   0.632   1.628   0.034
  656SOL     OW 2866   2.350   6.170   1.023
  656SOL    HW1 2867   2.332   6.082   1.066
  656SOL    HW2 2868   2.267   6.226   1.025
  657SOL     OW 2869   3.802   1.587   7.016
  657SOL    HW1 2870   3.706   1.612   7.005
  657SOL    HW2 2871   3.857   1.638   6.950
  658SOL     OW 2872   3.837   5.470   6.326
  658SOL    HW1 2873   3.914   5.533   6.318
  658SOL    HW2 2874   3.809   5.440   6.235
  659SOL     OW 2875   3.793   0.870   5.697
  659SOL    HW1 2876   3.755   0.784   5.665
  659SOL    HW2 2877   3.723   0.942   5.690
  660SOL     OW 2878   3.690   5.659   3.318
  660SOL    HW1 2879   3.760   5.728   3.338
  660SOL    HW2 2880   3.629   5.651   3.397
  661SOL     OW 2881   5.681   5.116   2.724
  661SOL    HW1 2882   5.685   5.082   2.630
  661SOL    HW2 2883   5.722   5.048   2.785
  662SOL     OW 2884   4.012   1.807   0.578
  662SOL    HW1 2885   4.089   1.855   0.620
  662SOL    HW2 2886   4.044   1.722   0.537
  663SOL     OW 2887   1.576   4.560   4.750
  663SOL    HW1 2888   1.558   4.644   4.700
  663SOL    HW2 2889   1.658   4.572   4.806
  664SOL     OW 2890   5.905   7.013   6.574
  664SOL    HW1 2891   5.982   0.009   6.512
  664SOL    HW2 2892   5.928   6.943   6.642
  665SOL     OW 2893   0.842   4.732   1.940
  665SOL    HW1 2894   0.821   4.826   1.968
  665SOL    HW2 2895   0.795   4.712   1.854
  666SOL     OW 2896   4.357   1.323   1.474
  666SOL    HW1 2897   4.355   1.384   1.554
  666SOL    HW2 2898   4.439   1.341   1.420
  667SOL     OW 2899   1.157   0.265   2.261
  667SOL    HW1 2900   1.134   0.355   2.298
  667SOL    HW2 2901   1.101   0.196   2.308
  668SOL     OW 2902   5.916   3.075   0.497
  668SOL    HW1 2903   5.884   2.991   0.540
  668SOL    HW2 2904   5.876   3.084   0.406
  669SOL     OW 2905   5.144   1.628   3.077
  669SOL    HW1 2906   5.096   1.574   3.147
  669SOL    HW2 2907   5.173   1.715   3.117
  670SOL     OW 2908   3.649   1.748   2.736
  670SOL    HW1 2909   3.588   1.669   2.730
  670SOL    HW2 2910   3.626   1.814   2.665
  671SOL     OW 2911   1.967   6.301   2.120
  671SOL    HW1 2912   1.896   6.294   2.190
  671SOL    HW2 2913   1.983   6.398   2.098
  672SOL     OW 2914   0.665   0.057   2.162
  672SOL    HW1 2915   0.757   0.020   2.149
  672SOL    HW2 2916   0.670   0.141   2.216
  673SOL     OW 2917   5.970   6.896   6.798
  673SOL    HW1 2918   6.037   6.961   6.834
  673SOL    HW2 2919   5.995   6.803   6.827
  674SOL     OW 2920   5.337   0.678   3.979
  674SOL    HW1 2921   5.339   0.638   3.888
  674SOL    HW2 2922   5.323   0.777   3.973
  675SOL     OW 2923   0.659   3.538   2.865
  675SOL    HW1 2924   0.561   3.531   2.882
  675SOL    HW2 2925   0.676   3.543   2.767
  676SOL     OW 2926   2.089   6.298   6.142
  676SOL    HW1 2927   2.048   6.304   6.233
  676SOL    HW2 2928   2.028   6.340   6.075
  677SOL     OW 2929   6.011   1.796   1.251
  677SOL    HW1 2930   5.938   1.809   1.184
  677SOL    HW2 2931   6.084   1.741   1.210
  678SOL     OW 2932   0.926   5.207   3.566
  678SOL    HW1 2933   0.947   5.130   3.505
  678SOL    HW2 2934   0.827   5.215   3.577
  679SOL     OW 2935   4.773   2.170   5.079
  679SOL    HW1 2936   4.807   2.079   5.105
  679SOL    HW2 2937   4.851   2.230   5.060
  680SOL     OW 2938   6.233   6.291   3.745
  680SOL    HW1 2939   6.267   6.226   3.813
  680SOL    HW2 2940   6.272   6.381   3.764
  681SOL     OW 2941   4.843   4.613   2.975
  681SOL    HW1 2942   4.753   4.589   2.938
  681SOL    HW2 2943   4.838   4.614   3.075
  682SOL     OW 2944   0.271   1.590   3.122
  682SOL    HW1 2945   0.172   1.596   3.113
  682SOL    HW2 2946   0.296   1.497   3.151
  683SOL     OW 2947   3.398   3.931   1.200
  683SOL    HW1 2948   3.326   3.918   1.268
  683SOL    HW2 2949   3.480   3.968   1.244
  684SOL     OW 2950   6.478   1.317   5.636
  684SOL    HW1 2951   6.544   1.258   5.681
  684SOL    HW2 2952   6.427   1.264   5.568
  685SOL     OW 2953   3.078   6.806   2.792
  685SOL    HW1 2954   3.169   6.790   2.752
  685SOL    HW2 2955   3.054   6.729   2.852
  686SOL     OW 2956   4.242   0.774   5.053
  686SOL    HW1 2957   4.234   0.746   5.148
  686SOL    HW2 2958   4.151   0.787   5.014
  687SOL     OW 2959   6.781   1.258   3.923
  687SOL    HW1 2960   6.843   1.205   3.865
  687SOL    HW2 2961   6.829   1.338   3.958
  688SOL     OW 2962   5.896   1.258   0.040
  688SOL    HW1 2963   5.938   1.346   0.019
  688SOL    HW2 2964   5.804   1.255   0.001
  689SOL     OW 2965   1.881   5.373   6.865
  689SOL    HW1 2966   1.880   5.458   6.812
  689SOL    HW2 2967   1.909   5.298   6.806
  690SOL     OW 2968   5.595   4.011   3.411
  690SOL    HW1 2969   5.575   4.003   3.313
  690SOL    HW2 2970   5.655   4.090   3.426
  691SOL     OW 2971   5.997   1.289   1.302
  691SOL    HW1 2972   6.019   1.228   1.378
  691SOL    HW2 2973   5.909   1.335   1.320
  692SOL     OW 2974   1.946   1.156   4.373
  692SOL    HW1 2975   1.993   1.095   4.309
  692SOL    HW2 2976   1.917   1.103   4.453
  693SOL     OW 2977   6.078   5.065   3.292
  693SOL    HW1 2978   6.005   5.132   3.306
  693SOL    HW2 2979   6.068   4.991   3.358
  694SOL     OW 2980   4.410   6.045   4.570
  694SOL    HW1 2981   4.391   6.070   4.475
  694SOL    HW2 2982   4.378   6.118   4.631
  695SOL     OW 2983   4.888   6.820   4.046
  695SOL    HW1 2984   4.933   6.806   3.958
  695SOL    HW2 2985   4.826   6.897   4.040
  696SOL     OW 2986   5.680   4.318   2.368
  696SOL    HW1 2987   5.742   4.391   2.341
  696SOL    HW2 2988   5.731   4.233   2.380
  697SOL     OW 2989   1.126   6.604   2.152
  697SOL    HW1 2990   1.140   6.588   2.249
  697SOL    HW2 2991   1.163   6.693   2.127
  698SOL     OW 2992   5.572   5.885   6.359
  698SOL    HW1 2993   5.628   5.837   6.291
  698SOL    HW2 2994   5.607   5.977   6.372
  699SOL     OW 2995   3.842   3.667   0.625
  699SOL    HW1 2996   3.771   3.682   0.694
  699SOL    HW2 2997   3.911   3.739   0.632
  700SOL     OW 2998   4.050   6.732   5.035
  700SOL    HW1 2999   4.088   6.825   5.035
  700SOL    HW2 3000   3.984   6.724   4.960
  701SOL     OW 3001   4.400   5.091   1.084
  701SOL    HW1 3002   4.337   5.028   1.039
  701SOL    HW2 3003   4.349   5.167   1.123
  702SOL     OW 3004   4.380   0.797   4.625
  702SOL    HW1 3005   4.371   0.879   4.681
  702SOL    HW2 3006   4.473   0.792   4.587
  703SOL     OW 3007   2.999   2.601   0.164
  703SOL    HW1 3008   2.982   2.699   0.159
  703SOL    HW2 3009   3.079   2.578   0.109
  704SOL     OW 3010   3.273   1.203   5.952
  704SOL    HW1 3011   3.271   1.303   5.948
  704SOL    HW2 3012   3.187   1.170   5.991
  705SOL     OW 3013   0.194   6.094   5.505
  705SOL    HW1 3014   0.173   6.180   5.552
  705SOL    HW2 3015   0.115   6.032   5.511
  706SOL     OW 3016   3.848   0.921   5.140
  706SOL    HW1 3017   3.783   0.920   5.217
  706SOL    HW2 3018   3.881   1.014   5.126
  707SOL     OW 3019   2.465   5.814   4.075
  707SOL    HW1 3020   2.442   5.808   4.172
  707SOL    HW2 3021   2.550   5.764   4.058
  708SOL     OW 3022   4.686   6.107   3.862
  708SOL    HW1 3023   4.684   6.042   3.786
  708SOL    HW2 3024   4.755   6.078   3.928
  709SOL     OW 3025   2.349   0.528   1.707
  709SOL    HW1 3026   2.346   0.486   1.797
  709SOL    HW2 3027   2.423   0.595   1.704
  710SOL     OW 3028   5.319   3.667   2.210
  710SOL    HW1 3029   5.273   3.748   2.245
  710SOL    HW2 3030   5.272   3.635   2.128
  711SOL     OW 3031   0.118   1.664   0.252
  711SOL    HW1 3032   0.177   1.705   0.322
  711SOL    HW2 3033   0.148   1.693   0.161
  712SOL     OW 3034   5.025   3.996   0.128
  712SOL    HW1 3035   5.033   3.962   0.222
  712SOL    HW2 3036   5.038   4.095   0.127
  713SOL     OW 3037   4.295   3.541   5.338
  713SOL    HW1 3038   4.352   3.493   5.271
  713SOL    HW2 3039   4.339   3.628   5.361
  714SOL     OW 3040   5.711   6.078   3.015
  714SOL    HW1 3041   5.622   6.088   2.969
  714SOL    HW2 3042   5.763   6.162   3.005
  715SOL     OW 3043   6.151   4.820   5.435
  715SOL    HW1 3044   6.057   4.842   5.462
  715SOL    HW2 3045   6.215   4.869   5.494
  716SOL     OW 3046   3.079   2.171   3.049
  716SOL    HW1 3047   3.130   2.106   3.105
  716SOL    HW2 3048   2.990   2.189   3.091
  717SOL     OW 3049   5.121   5.039   3.889
  717SOL    HW1 3050   5.082   5.126   3.919
  717SOL    HW2 3051   5.082   5.014   3.801
  718SOL     OW 3052   6.234   2.346   5.288
  718SOL    HW1 3053   6.173   2.276   5.253
  718SOL    HW2 3054   6.275   2.316   5.374
  719SOL     OW 3055   5.072   6.491   3.477
  719SOL    HW1 3056   5.001   6.505   3.546
  719SOL    HW2 3057   5.051   6.546   3.396
  720SOL     OW 3058   2.701   1.087   1.125
  720SOL    HW1 3059   2.678   1.161   1.062
  720SOL    HW2 3060   2.619   1.033   1.145
  721SOL     OW 3061   6.671   3.022   1.900
  721SOL    HW1 3062   6.680   2.983   1.992
  721SOL    HW2 3063   6.599   3.091   1.901
  722SOL     OW 3064   4.700   6.186   1.022
  722SOL    HW1 3065   4.732   6.199   0.928
  722SOL    HW2 3066   4.703   6.274   1.070
  723SOL     OW 3067   2.217   0.783   4.467
  723SOL    HW1 3068   2.283   0.805   4.538
  723SOL    HW2 3069   2.125   0.783   4.506
  724SOL     OW 3070   1.100   1.614   4.694
  724SOL    HW1 3071   1.195   1.616   4.665
  724SOL    HW2 3072   1.054   1.698   4.665
  725SOL     OW 3073   1.931   4.664   2.954
  725SOL    HW1 3074   2.012   4.715   2.986
  725SOL    HW2 3075   1.939   4.568   2.981
  726SOL     OW 3076   1.905   3.876   1.076
  726SOL    HW1 3077   1.828   3.865   1.138
  726SOL    HW2 3078   1.886   3.830   0.990
  727SOL     OW 3079   3.552   4.934   4.824
  727SOL    HW1 3080   3.552   4.915   4.726
  727SOL    HW2 3081   3.482   5.004   4.844
  728SOL     OW 3082   6.865   3.410   3.755
  728SOL    HW1 3083   6.883   3.314   3.734
  728SOL    HW2 3084   6.844   3.420   3.852
  729SOL     OW 3085   0.808   4.177   0.845
  729SOL    HW1 3086   0.763   4.237   0.912
  729SOL    HW2 3087   0.874   4.230   0.792
  730SOL     OW 3088   4.476   1.302   3.094
  730SOL    HW1 3089   4.452   1.205   3.085
  730SOL    HW2 3090   4.536   1.328   3.019
  731SOL     OW 3091   4.543   4.539   4.327
  731SOL    HW1 3092   4.639   4.566   4.331
  731SOL    HW2 3093   4.495   4.574   4.407
  732SOL     OW 3094   3.587   0.852   4.820
  732SOL    HW1 3095   3.662   0.792   4.849
  732SOL    HW2 3096   3.623   0.929   4.767
  733SOL     OW 3097   6.259   5.006   3.911
  733SOL    HW1 3098   6.267   5.093   3.960
  733SOL    HW2 3099   6.164   4.993   3.883
  734SOL     OW 3100   6.650   6.330   2.859
  734SOL    HW1 3101   6.711   6.388   2.806
  734SOL    HW2 3102   6.576   6.296   2.800
  735SOL     OW 3103   4.216   6.870   2.443
  735SOL    HW1 3104   4.148   6.806   2.408
  735SOL    HW2 3105   4.308   6.835   2.426
  736SOL     OW 3106   1.797   1.970   3.662
  736SOL    HW1 3107   1.761   2.044   3.605
  736SOL    HW2 3108   1.893   1.987   3.682
  737SOL     OW 3109   3.855   1.237   6.374
  737SOL    HW1 3110   3.930   1.171   6.378
  737SOL    HW2 3111   3.812   1.233   6.283
  738SOL     OW 3112   1.921   4.750   0.391
  738SOL    HW1 3113   1.994   4.816   0.412
  738SOL    HW2 3114   1.938   4.665   0.441
  739SOL     OW 3115   1.930   6.838   3.620
  739SOL    HW1 3116   1.871   6.910   3.584
  739SOL    HW2 3117   2.026   6.867   3.615
  740SOL     OW 3118   5.125   3.599   3.382
  740SOL    HW1 3119   5.173   3.524   3.336
  740SOL    HW2 3120   5.028   3.596   3.358
  741SOL     OW 3121   3.073   1.126   2.811
  741SOL    HW1 3122   3.050   1.075   2.894
  741SOL    HW2 3123   3.096   1.220   2.834
  742SOL     OW 3124   1.507   6.681   1.873
  742SOL    HW1 3125   1.467   6.758   1.823
  742SOL    HW2 3126   1.582   6.641   1.819
  743SOL     OW 3127   0.622   6.100   2.886
  743SOL    HW1 3128   0.610   6.003   2.865
  743SOL    HW2 3129   0.619   6.153   2.801
  744SOL     OW 3130   5.233   1.657   6.945
  744SOL    HW1 3131   5.279   1.736   6.904
  744SOL    HW2 3132   5.257   1.574   6.893
  745SOL     OW 3133   2.272   6.396   4.749
  745SOL    HW1 3134   2.188   6.344   4.736
  745SOL    HW2 3135   2.350   6.333   4.755
  746SOL     OW 3136   0.323   4.697   4.358
  746SOL    HW1 3137   0.238   4.699   4.411
  746SOL    HW2 3138   0.336   4.784   4.312
  747SOL     OW 3139   4.611   5.396   2.696
  747SOL    HW1 3140   4.559   5.467   2.648
  747SOL    HW2 3141   4.708   5.417   2.693
  748SOL     OW 3142   5.655   4.748   1.333
  748SOL    HW1 3143   5.627   4.770   1.240
  748SOL    HW2 3144   5.678   4.650   1.339
  749SOL     OW 3145   5.119   4.747   5.177
  749SOL    HW1 3146   5.172   4.786   5.102
  749SOL    HW2 3147   5.117   4.811   5.254
  750SOL     OW 3148   2.128   2.097   3.504
  750SOL    HW1 3149   2.094   2.130   3.416
  750SOL    HW2 3150   2.174   2.171   3.553
  751SOL     OW 3151   3.353   0.867   0.680
  751SOL    HW1 3152   3.388   0.885   0.589
  751SOL    HW2 3153   3.261   0.907   0.689
  752SOL     OW 3154   3.770   2.819   5.151
  752SOL    HW1 3155   3.729   2.833   5.061
  752SOL    HW2 3156   3.809   2.727   5.157
  753SOL     OW 3157   3.732   4.138   3.754
  753SOL    HW1 3158   3.681   4.149   3.669
  753SOL    HW2 3159   3.687   4.189   3.828
  754SOL     OW 3160   4.960   0.400   0.217
  754SOL    HW1 3161   4.988   0.375   0.310
  754SOL    HW2 3162   4.940   0.318   0.164
  755SOL     OW 3163   4.536   4.568   5.253
  755SOL    HW1 3164   4.485   4.600   5.333
  755SOL    HW2 3165   4.472   4.532   5.185
  756SOL     OW 3166   2.643   5.027   6.353
  756SOL    HW1 3167   2.635   4.927   6.351
  756SOL    HW2 3168   2.577   5.067   6.289
  757SOL     OW 3169   1.806   6.294   1.801
  757SOL    HW1 3170   1.718   6.258   1.833
  757SOL    HW2 3171   1.798   6.392   1.783
  758SOL     OW 3172   4.825   1.136   4.422
  758SOL    HW1 3173   4.857   1.067   4.488
  758SOL    HW2 3174   4.901   1.196   4.397
  759SOL     OW 3175   0.388   3.902   4.069
  759SOL    HW1 3176   0.301   3.893   4.020
  759SOL    HW2 3177   0.457   3.843   4.027
  760SOL     OW 3178   6.803   4.964   3.557
  760SOL    HW1 3179   6.874   4.935   3.494
  760SOL    HW2 3180   6.714   4.962   3.511
  761SOL     OW 3181   4.962   5.057   6.425
  761SOL    HW1 3182   5.020   4.976   6.436
  761SOL    HW2 3183   4.950   5.076   6.327
  762SOL     OW 3184   4.207   5.936   3.622
  762SOL    HW1 3185   4.211   6.016   3.682
  762SOL    HW2 3186   4.235   5.962   3.529
  763SOL     OW 3187   5.265   0.274   0.440
  763SOL    HW1 3188   5.166   0.292   0.441
  763SOL    HW2 3189   5.303   0.294   0.530
  764SOL     OW 3190   5.267   6.451   5.179
  764SOL    HW1 3191   5.347   6.458   5.239
  764SOL    HW2 3192   5.196   6.513   5.212
  765SOL     OW 3193   6.109   6.405   0.829
  765SOL    HW1 3194   6.147   6.493   0.857
  765SOL    HW2 3195   6.172   6.360   0.766
  766SOL     OW 3196   2.832   1.770   4.462
  766SOL    HW1 3197   2.861   1.789   4.556
  766SOL    HW2 3198   2.856   1.847   4.403
  767SOL     OW 3199   6.729   5.717   3.968
  767SOL    HW1 3200   6.693   5.768   3.889
  767SOL    HW2 3201   6.670   5.639   3.987
  768SOL     OW 3202   2.261   5.465   2.831
  768SOL    HW1 3203   2.251   5.559   2.798
  768SOL    HW2 3204   2.180   5.440   2.883
  769SOL     OW 3205   3.030   2.059   5.395
  769SOL    HW1 3206   3.003   2.153   5.377
  769SOL    HW2 3207   2.985   1.998   5.331
  770SOL     OW 3208   1.482   4.921   5.906
  770SOL    HW1 3209   1.386   4.933   5.881
  770SOL    HW2 3210   1.515   4.834   5.871
  771SOL     OW 3211   1.508   4.824   2.975
  771SOL    HW1 3212   1.521   4.822   2.875
  771SOL    HW2 3213   1.417   4.861   2.995
  772SOL     OW 3214   5.370   4.630   0.301
  772SOL    HW1 3215   5.431   4.625   0.380
  772SOL    HW2 3216   5.421   4.608   0.218
  773SOL     OW 3217   2.174   4.218   3.863
  773SOL    HW1 3218   2.259   4.253   3.902
  773SOL    HW2 3219   2.113   4.295   3.844
  774SOL     OW 3220   2.093   1.308   3.643
  774SOL    HW1 3221   2.159   1.259   3.587
  774SOL    HW2 3222   2.065   1.392   3.597
  775SOL     OW 3223   1.278   4.553   2.797
  775SOL    HW1 3224   1.321   4.522   2.882
  775SOL    HW2 3225   1.272   4.477   2.732
  776SOL     OW 3226   2.328   5.393   6.208
  776SOL    HW1 3227   2.230   5.397   6.227
  776SOL    HW2 3228   2.347   5.316   6.147
  777SOL     OW 3229   1.817   3.495   6.363
  777SOL    HW1 3230   1.873   3.563   6.410
  777SOL    HW2 3231   1.815   3.411   6.418
  778SOL     OW 3232   3.211   5.641   6.686
  778SOL    HW1 3233   3.138   5.637   6.754
  778SOL    HW2 3234   3.211   5.731   6.642
  779SOL     OW 3235   6.229   2.247   2.889
  779SOL    HW1 3236   6.249   2.311   2.963
  779SOL    HW2 3237   6.311   2.193   2.869
  780SOL     OW 3238   6.926   2.162   4.418
  780SOL    HW1 3239   6.851   2.098   4.431
  780SOL    HW2 3240   6.907   2.219   4.338
  781SOL     OW 3241   0.457   4.522   6.777
  781SOL    HW1 3242   0.385   4.492   6.714
  781SOL    HW2 3243   0.536   4.463   6.769
  782SOL     OW 3244   2.098   3.739   5.447
  782SOL    HW1 3245   2.090   3.770   5.542
  782SOL    HW2 3246   2.190   3.760   5.412
  783SOL     OW 3247   6.560   4.627   6.907
  783SOL    HW1 3248   6.622   4.703   6.887
  783SOL    HW2 3249   6.613   4.551   6.947
  784SOL     OW 3250   2.007   6.056   0.717
  784SOL    HW1 3251   2.032   6.152   0.706
  784SOL    HW2 3252   2.070   5.999   0.666
  785SOL     OW 3253   0.366   0.929   4.383
  785SOL    HW1 3254   0.298   0.972   4.443
  785SOL    HW2 3255   0.367   0.830   4.400
  786SOL     OW 3256   6.048   0.938   4.274
  786SOL    HW1 3257   5.969   0.887   4.309
  786SOL    HW2 3258   6.132   0.901   4.314
  787SOL     OW 3259   2.054   6.803   1.448
  787SOL    HW1 3260   2.117   6.751   1.504
  787SOL    HW2 3261   2.082   6.899   1.445
  788SOL     OW 3262   2.217   2.902   2.200
  788SOL    HW1 3263   2.182   2.834   2.264
  788SOL    HW2 3264   2.251   2.856   2.118
  789SOL     OW 3265   4.198   4.767   2.692
  789SOL    HW1 3266   4.260   4.738   2.765
  789SOL    HW2 3267   4.148   4.688   2.657
  790SOL     OW 3268   0.239   2.970   2.448
  790SOL    HW1 3269   0.239   2.891   2.508
  790SOL    HW2 3270   0.233   3.054   2.503
  791SOL     OW 3271   3.294   0.054   3.744
  791SOL    HW1 3272   3.313   0.095   3.833
  791SOL    HW2 3273   3.279   6.972   3.756
  792SOL     OW 3274   2.470   0.520   0.668
  792SOL    HW1 3275   2.407   0.446   0.693
  792SOL    HW2 3276   2.420   0.591   0.617
  793SOL     OW 3277   2.046   6.207   4.676
  793SOL    HW1 3278   2.126   6.181   4.622
  793SOL    HW2 3279   1.967   6.217   4.616
  794SOL     OW 3280   2.981   3.381   2.669
  794SOL    HW1 3281   2.967   3.301   2.727
  794SOL    HW2 3282   2.944   3.462   2.716
  795SOL     OW 3283   4.884   0.758   5.536
  795SOL    HW1 3284   4.898   0.845   5.583
  795SOL    HW2 3285   4.815   0.704   5.584
  796SOL     OW 3286   0.708   2.061   6.874
  796SOL    HW1 3287   0.769   2.102   6.805
  796SOL    HW2 3288   0.757   2.050   6.960
  797SOL     OW 3289   3.397   6.522   1.257
  797SOL    HW1 3290   3.353   6.466   1.187
  797SOL    HW2 3291   3.389   6.619   1.231
  798SOL     OW 3292   5.020   4.690   1.344
  798SOL    HW1 3293   5.024   4.622   1.271
  798SOL    HW2 3294   5.045   4.780   1.307
  799SOL     OW 3295   2.729   2.886   5.723
  799SOL    HW1 3296   2.666   2.901   5.646
  799SOL    HW2 3297   2.759   2.974   5.758
  800SOL     OW 3298   5.848   2.997   3.562
  800SOL    HW1 3299   5.851   2.930   3.636
  800SOL    HW2 3300   5.938   3.039   3.551
  801SOL     OW 3301   1.861   5.798   6.390
  801SOL    HW1 3302   1.781   5.804   6.331
  801SOL    HW2 3303   1.924   5.730   6.355
  802SOL     OW 3304   4.494   2.539   6.515
  802SOL    HW1 3305   4.572   2.544   6.579
  802SOL    HW2 3306   4.469   2.444   6.501
  803SOL     OW 3307   2.355   2.017   4.030
  803SOL    HW1 3308   2.291   2.086   4.063
  803SOL    HW2 3309   2.312   1.926   4.036
  804SOL     OW 3310   5.110   0.459   2.785
  804SOL    HW1 3311   5.081   0.494   2.874
  804SOL    HW2 3312   5.134   0.362   2.792
  805SOL     OW 3313   3.523   0.869   4.076
  805SOL    HW1 3314   3.612   0.903   4.046
  805SOL    HW2 3315   3.511   0.776   4.042
  806SOL     OW 3316   3.205   6.552   5.436
  806SOL    HW1 3317   3.246   6.618   5.498
  806SOL    HW2 3318   3.270   6.529   5.364
  807SOL     OW 3319   0.828   6.011   5.775
  807SOL    HW1 3320   0.811   6.109   5.761
  807SOL    HW2 3321   0.766   5.976   5.845
  808SOL     OW 3322   5.223   2.742   6.270
  808SOL    HW1 3323   5.211   2.815   6.204
  808SOL    HW2 3324   5.299   2.684   6.243
  809SOL     OW 3325   3.282   5.914   6.605
  809SOL    HW1 3326   3.191   5.883   6.578
  809SOL    HW2 3327   3.275   6.007   6.642
  810SOL     OW 3328   3.428   3.646   0.002
  810SOL    HW1 3329   3.428   3.566   6.959
  810SOL    HW2 3330   3.522   3.678   0.015
  811SOL     OW 3331   5.779   5.797   4.565
  811SOL    HW1 3332   5.862   5.853   4.575
  811SOL    HW2 3333   5.765   5.775   4.469
  812SOL     OW 3334   0.894   3.648   1.315
  812SOL    HW1 3335   0.929   3.611   1.229
  812SOL    HW2 3336   0.921   3.588   1.390
  813SOL     OW 3337   1.929   1.181   5.070
  813SOL    HW1 3338   1.934   1.099   5.014
  813SOL    HW2 3339   1.983   1.254   5.028
  814SOL     OW 3340   0.775   4.205   2.266
  814SOL    HW1 3341   0.686   4.239   2.237
  814SOL    HW2 3342   0.847   4.255   2.217
  815SOL     OW 3343   4.769   2.940   4.756
  815SOL    HW1 3344   4.707   2.862   4.756
  815SOL    HW2 3345   4.790   2.968   4.850
  816SOL     OW 3346   5.222   3.504   6.557
  816SOL    HW1 3347   5.221   3.420   6.504
  816SOL    HW2 3348   5.142   3.507   6.618
  817SOL     OW 3349   0.164   4.782   6.256
  817SOL    HW1 3350   0.171   4.769   6.157
  817SOL    HW2 3351   0.233   4.726   6.302
  818SOL     OW 3352   0.316   1.732   5.167
  818SOL    HW1 3353   0.272   1.642   5.170
  818SOL    HW2 3354   0.416   1.721   5.174
  819SOL     OW 3355   5.161   3.000   1.797
  819SOL    HW1 3356   5.155   2.943   1.715
  819SOL    HW2 3357   5.217   2.955   1.866
  820SOL     OW 3358   2.625   1.941   5.274
  820SOL    HW1 3359   2.580   1.982   5.194
  820SOL    HW2 3360   2.592   1.987   5.357
  821SOL     OW 3361   5.060   3.347   6.919
  821SOL    HW1 3362   5.098   3.439   6.908
  821SOL    HW2 3363   4.965   3.347   6.887
  822SOL     OW 3364   0.123   4.954   3.394
  822SOL    HW1 3365   0.067   5.035   3.383
  822SOL    HW2 3366   0.207   4.977   3.443
  823SOL     OW 3367   1.933   2.751   4.466
  823SOL    HW1 3368   1.869   2.825   4.446
  823SOL    HW2 3369   2.002   2.784   4.532
  824SOL     OW 3370   4.971   0.262   6.767
  824SOL    HW1 3371   4.976   0.181   6.824
  824SOL    HW2 3372   4.904   0.326   6.804
  825SOL     OW 3373   6.234   5.828   0.792
  825SOL    HW1 3374   6.150   5.877   0.818
  825SOL    HW2 3375   6.233   5.813   0.693
  826SOL     OW 3376   3.760   1.871   0.394
  826SOL    HW1 3377   3.711   1.952   0.427
  826SOL    HW2 3378   3.841   1.899   0.344
  827SOL     OW 3379   3.253   3.543   4.541
  827SOL    HW1 3380   3.253   3.572   4.446
  827SOL    HW2 3381   3.333   3.580   4.588
  828SOL     OW 3382   6.884   6.741   6.368
  828SOL    HW1 3383   6.964   6.801   6.372
  828SOL    HW2 3384   6.830   6.761   6.287
  829SOL     OW 3385   3.839   3.393   2.005
  829SOL    HW1 3386   3.924   3.356   2.042
  829SOL    HW2 3387   3.772   3.403   2.078
  830SOL     OW 3388   0.059   4.691   6.492
  830SOL    HW1 3389   0.108   4.683   6.579
  830SOL    HW2 3390   0.091   4.772   6.443
  831SOL     OW 3391   5.724   0.932   2.318
  831SOL    HW1 3392   5.763   0.924   2.410
  831SOL    HW2 3393   5.661   0.856   2.302
  832SOL     OW 3394   2.949   1.953   4.317
  832SOL    HW1 3395   2.928   2.001   4.232
  832SOL    HW2 3396   3.003   2.013   4.376
  833SOL     OW 3397   3.917   2.954   6.969
  833SOL    HW1 3398   3.882   2.999   6.887
  833SOL    HW2 3399   3.940   3.023   0.021
  834SOL     OW 3400   5.518   2.896   0.472
  834SOL    HW1 3401   5.486   2.862   0.560
  834SOL    HW2 3402   5.542   2.818   0.413
  835SOL     OW 3403   0.047   0.497   4.690
  835SOL    HW1 3404   0.060   0.402   4.659
  835SOL    HW2 3405   6.975   0.531   4.658
  836SOL     OW 3406   5.049   0.804   4.775
  836SOL    HW1 3407   5.062   0.886   4.832
  836SOL    HW2 3408   5.137   0.758   4.764
  837SOL     OW 3409   1.399   0.417   6.891
  837SOL    HW1 3410   1.416   0.516   6.892
  837SOL    HW2 3411   1.387   0.387   6.796
  838SOL     OW 3412   1.859   6.282   3.076
  838SOL    HW1 3413   1.902   6.260   3.163
  838SOL    HW2 3414   1.788   6.352   3.091
  839SOL     OW 3415   1.299   2.227   0.821
  839SOL    HW1 3416   1.335   2.253   0.731
  839SOL    HW2 3417   1.373   2.193   0.879
  840SOL     OW 3418   4.665   5.153   0.706
  840SOL    HW1 3419   4.677   5.241   0.661
  840SOL    HW2 3420   4.662   5.080   0.637
  841SOL     OW 3421   2.554   5.344   6.580
  841SOL    HW1 3422   2.611   5.378   6.505
  841SOL    HW2 3423   2.458   5.367   6.561
  842SOL     OW 3424   3.979   5.857   0.780
  842SOL    HW1 3425   3.927   5.879   0.863
  842SOL    HW2 3426   4.043   5.932   0.761
  843SOL     OW 3427   1.436   0.489   1.840
  843SOL    HW1 3428   1.461   0.415   1.778
  843SOL    HW2 3429   1.493   0.569   1.821
  844SOL     OW 3430   0.056   0.392   1.818
  844SOL    HW1 3431   0.004   0.405   1.733
  844SOL    HW2 3432   0.007   0.326   1.876
  845SOL     OW 3433   3.506   1.501   2.704
  845SOL    HW1 3434   3.435   1.494   2.774
  845SOL    HW2 3435   3.464   1.503   2.613
  846SOL     OW 3436   2.184   2.222   0.582
  846SOL    HW1 3437   2.281   2.216   0.559
  846SOL    HW2 3438   2.173   2.263   0.673
  847SOL     OW 3439   2.552   3.631   1.482
  847SOL    HW1 3440   2.581   3.694   1.411
  847SOL    HW2 3441   2.624   3.620   1.550
  848SOL     OW 3442   6.614   6.142   0.312
  848SOL    HW1 3443   6.572   6.233   0.316
  848SOL    HW2 3444   6.613   6.100   0.402
  849SOL     OW 3445   5.638   3.114   6.925
  849SOL    HW1 3446   5.719   3.153   6.881
  849SOL    HW2 3447   5.622   3.161   7.012
  850SOL     OW 3448   1.550   0.936   4.288
  850SOL    HW1 3449   1.503   0.853   4.318
  850SOL    HW2 3450   1.580   0.988   4.367
  851SOL     OW 3451   5.313   2.743   6.557
  851SOL    HW1 3452   5.311   2.747   6.457
  851SOL    HW2 3453   5.281   2.830   6.594
  852SOL     OW 3454   6.916   4.099   1.629
  852SOL    HW1 3455   7.005   4.139   1.648
  852SOL    HW2 3456   6.859   4.105   1.711
  853SOL     OW 3457   2.860   3.268   0.777
  853SOL    HW1 3458   2.947   3.226   0.802
  853SOL    HW2 3459   2.793   3.254   0.850
  854SOL     OW 3460   6.545   6.558   5.461
  854SOL    HW1 3461   6.574   6.589   5.552
  854SOL    HW2 3462   6.546   6.458   5.458
  855SOL     OW 3463   5.553   1.640   0.428
  855SOL    HW1 3464   5.459   1.672   0.412
  855SOL    HW2 3465   5.612   1.719   0.446
  856SOL     OW 3466   2.081   5.481   1.908
  856SOL    HW1 3467   1.988   5.484   1.870
  856SOL    HW2 3468   2.134   5.411   1.860
  857SOL     OW 3469   6.955   5.200   5.047
  857SOL    HW1 3470   6.998   5.110   5.049
  857SOL    HW2 3471   6.880   5.200   4.981
  858SOL     OW 3472   4.459   4.117   0.154
  858SOL    HW1 3473   4.365   4.085   0.168
  858SOL    HW2 3474   4.521   4.067   0.215
  859SOL     OW 3475   4.964   5.373   5.313
  859SOL    HW1 3476   4.924   5.399   5.401
  859SOL    HW2 3477   5.063   5.390   5.315
  860SOL     OW 3478   4.515   3.016   6.443
  860SOL    HW1 3479   4.474   3.077   6.511
  860SOL    HW2 3480   4.604   2.986   6.476
  861SOL     OW 3481   1.991   5.326   2.213
  861SOL    HW1 3482   1.993   5.257   2.285
  861SOL    HW2 3483   2.084   5.351   2.188
  862SOL     OW 3484   0.662   4.091   3.737
  862SOL    HW1 3485   0.657   4.034   3.655
  862SOL    HW2 3486   0.718   4.172   3.718
  863SOL     OW 3487   6.315   0.647   1.438
  863SOL    HW1 3488   6.382   0.574   1.448
  863SOL    HW2 3489   6.244   0.638   1.508
  864SOL     OW 3490   6.112   6.018   2.989
  864SOL    HW1 3491   6.021   5.983   3.011
  864SOL    HW2 3492   6.157   6.049   3.073
  865SOL     OW 3493   1.694   5.837   4.778
  865SOL    HW1 3494   1.672   5.755   4.831
  865SOL    HW2 3495   1.785   5.827   4.738
  866SOL     OW 3496   3.488   0.358   2.114
  866SOL    HW1 3497   3.512   0.368   2.211
  866SOL    HW2 3498   3.389   0.366   2.103
  867SOL     OW 3499   5.925   2.820   5.953
  867SOL    HW1 3500   5.965   2.737   5.991
  867SOL    HW2 3501   5.888   2.802   5.862
  868SOL     OW 3502   0.599   2.422   1.530
  868SOL    HW1 3503   0.698   2.424   1.546
  868SOL    HW2 3504   0.565   2.516   1.524
  869SOL     OW 3505   0.034   3.857   3.006
  869SOL    HW1 3506   0.039   3.822   3.099
  869SOL    HW2 3507   6.994   3.939   3.004
  870SOL     OW 3508   3.657   5.309   2.311
  870SOL    HW1 3509   3.560   5.331   2.305
  870SOL    HW2 3510   3.710   5.393   2.318
  871SOL     OW 3511   5.003   1.834   3.424
  871SOL    HW1 3512   4.951   1.883   3.353
  871SOL    HW2 3513   5.035   1.899   3.493
  872SOL     OW 3514   1.226   2.195   4.921
  872SOL    HW1 3515   1.199   2.291   4.924
  872SOL    HW2 3516   1.250   2.165   5.014
  873SOL     OW 3517   4.345   0.073   6.438
  873SOL    HW1 3518   4.245   0.065   6.438
  873SOL    HW2 3519   4.371   0.159   6.481
  874SOL     OW 3520   5.512   3.477   1.789
  874SOL    HW1 3521   5.444   3.477   1.862
  874SOL    HW2 3522   5.599   3.512   1.825
  875SOL     OW 3523   4.944   5.631   1.802
  875SOL    HW1 3524   5.013   5.674   1.861
  875SOL    HW2 3525   4.986   5.555   1.751
  876SOL     OW 3526   6.021   0.148   0.470
  876SOL    HW1 3527   5.990   0.070   0.416
  876SOL    HW2 3528   6.115   0.171   0.445
  877SOL     OW 3529   1.607   3.967   0.185
  877SOL    HW1 3530   1.546   4.046   0.176
  877SOL    HW2 3531   1.563   3.898   0.243
  878SOL     OW 3532   3.849   6.440   4.484
  878SOL    HW1 3533   3.867   6.504   4.558
  878SOL    HW2 3534   3.886   6.476   4.398
  879SOL     OW 3535   5.824   6.473   6.718
  879SOL    HW1 3536   5.792   6.526   6.639
  879SOL    HW2 3537   5.746   6.428   6.761
  880SOL     OW 3538   2.901   3.617   2.820
  880SOL    HW1 3539   2.862   3.704   2.788
  880SOL    HW2 3540   2.986   3.635   2.869
  881SOL     OW 3541   4.662   1.409   0.431
  881SOL    HW1 3542   4.692   1.504   0.439
  881SOL    HW2 3543   4.683   1.361   0.517
  882SOL     OW 3544   1.550   2.765   3.244
  882SOL    HW1 3545   1.570   2.814   3.160
  882SOL    HW2 3546   1.526   2.830   3.316
  883SOL     OW 3547   2.995   0.003   3.458
  883SOL    HW1 3548   3.060   0.077   3.474
  883SOL    HW2 3549   2.945   0.020   3.373
  884SOL     OW 3550   3.758   3.659   5.826
  884SOL    HW1 3551   3.691   3.586   5.813
  884SOL    HW2 3552   3.813   3.670   5.743
  885SOL     OW 3553   4.348   2.772   6.461
  885SOL    HW1 3554   4.400   2.855   6.442
  885SOL    HW2 3555   4.411   2.695   6.475
  886SOL     OW 3556   3.509   1.962   6.854
  886SOL    HW1 3557   3.538   2.052   6.887
  886SOL    HW2 3558   3.438   1.973   6.785
  887SOL     OW 3559   5.077   1.131   5.458
  887SOL    HW1 3560   5.078   1.231   5.463
  887SOL    HW2 3561   4.988   1.097   5.487
  888SOL     OW 3562   0.077   5.869   2.369
  888SOL    HW1 3563   0.120   5.790   2.326
  888SOL    HW2 3564   0.099   5.872   2.466
  889SOL     OW 3565   0.656   3.730   0.058
  889SOL    HW1 3566   0.713   3.662   0.105
  889SOL    HW2 3567   0.648   3.812   0.114
  890SOL     OW 3568   2.513   6.270   4.737
  890SOL    HW1 3569   2.565   6.255   4.653
  890SOL    HW2 3570   2.565   6.235   4.815
  891SOL     OW 3571   4.913   5.100   2.221
  891SOL    HW1 3572   4.905   5.110   2.122
  891SOL    HW2 3573   4.825   5.121   2.263
  892SOL     OW 3574   2.222   4.455   0.624
  892SOL    HW1 3575   2.310   4.494   0.595
  892SOL    HW2 3576   2.236   4.395   0.702
  893SOL     OW 3577   1.760   6.049   2.431
  893SOL    HW1 3578   1.849   6.033   2.388
  893SOL    HW2 3579   1.747   5.983   2.505
  894SOL     OW 3580   0.898   3.890   1.429
  894SOL    HW1 3581   0.983   3.939   1.448
  894SOL    HW2 3582   0.918   3.805   1.381
  895SOL     OW 3583   0.407   5.683   4.134
  895SOL    HW1 3584   0.430   5.717   4.043
  895SOL    HW2 3585   0.308   5.673   4.142
  896SOL     OW 3586   0.392   1.116   6.527
  896SOL    HW1 3587   0.333   1.038   6.550
  896SOL    HW2 3588   0.465   1.085   6.466
  897SOL     OW 3589   4.693   0.699   0.317
  897SOL    HW1 3590   4.683   0.647   0.402
  897SOL    HW2 3591   4.673   0.795   0.333
  898SOL     OW 3592   4.156   0.206   3.306
  898SOL    HW1 3593   4.155   0.109   3.331
  898SOL    HW2 3594   4.078   0.226   3.247
  899SOL     OW 3595   6.947   5.624   0.166
  899SOL    HW1 3596   6.972   5.541   0.215
  899SOL    HW2 3597   6.980   5.619   0.072
  900SOL     OW 3598   5.357   5.490   1.252
  900SOL    HW1 3599   5.261   5.509   1.231
  900SOL    HW2 3600   5.379   5.526   1.343
  901SOL     OW 3601   1.149   0.495   3.042
  901SOL    HW1 3602   1.076   0.527   3.102
  901SOL    HW2 3603   1.218   0.447   3.096
  902SOL     OW 3604   6.121   2.858   1.745
  902SOL    HW1 3605   6.053   2.807   1.692
  902SOL    HW2 3606   6.204   2.802   1.755
  903SOL     OW 3607   6.964   1.781   1.292
  903SOL    HW1 3608   6.950   1.835   1.210
  903SOL    HW2 3609   6.880   1.734   1.317
  904SOL     OW 3610   2.876   1.060   2.225
  904SOL    HW1 3611   2.853   1.030   2.317
  904SOL    HW2 3612   2.817   1.014   2.159
  905SOL     OW 3613   5.684   2.499   6.479
  905SOL    HW1 3614   5.706   2.513   6.382
  905SOL    HW2 3615   5.683   2.401   6.499
  906SOL     OW 3616   5.237   2.697   6.837
  906SOL    HW1 3617   5.278   2.682   6.747
  906SOL    HW2 3618   5.309   2.698   6.907
  907SOL     OW 3619   4.964   4.357   6.636
  907SOL    HW1 3620   4.921   4.300   6.707
  907SOL    HW2 3621   4.978   4.303   6.554
  908SOL     OW 3622   1.336   4.457   3.026
  908SOL    HW1 3623   1.415   4.493   3.076
  908SOL    HW2 3624   1.306   4.372   3.070
  909SOL     OW 3625   5.382   5.315   6.385
  909SOL    HW1 3626   5.415   5.230   6.346
  909SOL    HW2 3627   5.445   5.390   6.360
  910SOL     OW 3628   2.442   4.849   1.041
  910SOL    HW1 3629   2.498   4.766   1.041
  910SOL    HW2 3630   2.470   4.909   1.116
  911SOL     OW 3631   1.160   4.973   6.350
  911SOL    HW1 3632   1.234   4.928   6.400
  911SOL    HW2 3633   1.119   5.044   6.408
  912SOL     OW 3634   5.326   1.995   4.328
  912SOL    HW1 3635   5.332   2.015   4.426
  912SOL    HW2 3636   5.418   1.980   4.291
  913SOL     OW 3637   5.583   6.685   2.588
  913SOL    HW1 3638   5.620   6.683   2.681
  913SOL    HW2 3639   5.630   6.618   2.532
  914SOL     OW 3640   2.620   6.698   6.923
  914SOL    HW1 3641   2.604   6.608   6.882
  914SOL    HW2 3642   2.707   6.696   6.972
  915SOL     OW 3643   5.453   5.750   1.050
  915SOL    HW1 3644   5.531   5.698   1.014
  915SOL    HW2 3645   5.371   5.728   0.997
  916SOL     OW 3646   1.611   3.129   2.654
  916SOL    HW1 3647   1.669   3.202   2.693
  916SOL    HW2 3648   1.553   3.168   2.582
  917SOL     OW 3649   0.452   6.754   0.460
  917SOL    HW1 3650   0.495   6.803   0.536
  917SOL    HW2 3651   0.521   6.697   0.414
  918SOL     OW 3652   2.738   5.931   0.146
  918SOL    HW1 3653   2.778   5.998   0.208
  918SOL    HW2 3654   2.796   5.920   0.065
  919SOL     OW 3655   5.421   1.295   5.877
  919SOL    HW1 3656   5.400   1.388   5.909
  919SOL    HW2 3657   5.420   1.294   5.777
  920SOL     OW 3658   2.836   5.002   2.422
  920SOL    HW1 3659   2.753   4.955   2.391
  920SOL    HW2 3660   2.892   4.939   2.475
  921SOL     OW 3661   5.102   5.712   4.795
  921SOL    HW1 3662   5.012   5.751   4.816
  921SOL    HW2 3663   5.090   5.637   4.729
  922SOL     OW 3664   3.242   2.927   3.876
  922SOL    HW1 3665   3.301   2.977   3.939
  922SOL    HW2 3666   3.192   2.857   3.926
  923SOL     OW 3667   2.253   3.362   5.507
  923SOL    HW1 3668   2.322   3.315   5.453
  923SOL    HW2 3669   2.279   3.459   5.516
  924SOL     OW 3670   6.968   3.019   1.743
  924SOL    HW1 3671   6.900   3.091   1.730
  924SOL    HW2 3672   6.945   2.965   1.824
  925SOL     OW 3673   0.667   1.759   0.176
  925SOL    HW1 3674   0.713   1.826   0.117
  925SOL    HW2 3675   0.570   1.783   0.185
  926SOL     OW 3676   1.921   2.007   1.887
  926SOL    HW1 3677   1.889   1.984   1.795
  926SOL    HW2 3678   2.002   2.066   1.880
  927SOL     OW 3679   6.648   3.579   4.750
  927SOL    HW1 3680   6.575   3.639   4.718
  927SOL    HW2 3681   6.608   3.499   4.794
  928SOL     OW 3682   3.310   4.434   5.918
  928SOL    HW1 3683   3.335   4.407   6.011
  928SOL    HW2 3684   3.212   4.455   5.914
  929SOL     OW 3685   0.248   1.501   4.890
  929SOL    HW1 3686   0.256   1.592   4.850
  929SOL    HW2 3687   0.321   1.442   4.854
  930SOL     OW 3688   4.930   5.286   5.048
  930SOL    HW1 3689   4.933   5.325   5.140
  930SOL    HW2 3690   4.834   5.268   5.023
  931SOL     OW 3691   6.473   0.871   2.903
  931SOL    HW1 3692   6.391   0.837   2.855
  931SOL    HW2 3693   6.485   0.820   2.988
  932SOL     OW 3694   3.706   0.782   3.729
  932SOL    HW1 3695   3.615   0.773   3.689
  932SOL    HW2 3696   3.767   0.826   3.662
  933SOL     OW 3697   1.695   5.702   1.951
  933SOL    HW1 3698   1.752   5.654   2.018
  933SOL    HW2 3699   1.682   5.796   1.980
  934SOL     OW 3700   1.769   3.366   0.344
  934SOL    HW1 3701   1.845   3.418   0.384
  934SOL    HW2 3702   1.707   3.336   0.418
  935SOL     OW 3703   5.983   2.521   5.210
  935SOL    HW1 3704   5.956   2.613   5.237
  935SOL    HW2 3705   6.025   2.475   5.289
  936SOL     OW 3706   1.864   0.160   5.934
  936SOL    HW1 3707   1.812   0.133   5.853
  936SOL    HW2 3708   1.959   0.179   5.907
  937SOL     OW 3709   3.424   1.839   5.674
  937SOL    HW1 3710   3.522   1.860   5.677
  937SOL    HW2 3711   3.374   1.918   5.639
  938SOL     OW 3712   5.808   6.069   4.418
  938SOL    HW1 3713   5.826   6.117   4.504
  938SOL    HW2 3714   5.709   6.064   4.402
  939SOL     OW 3715   1.075   6.388   5.705
  939SOL    HW1 3716   1.002   6.328   5.737
  939SOL    HW2 3717   1.056   6.482   5.733
  940SOL     OW 3718   1.868   5.115   0.088
  940SOL    HW1 3719   1.841   5.048   0.157
  940SOL    HW2 3720   1.947   5.167   0.120
  941SOL     OW 3721   3.436   0.512   0.321
  941SOL    HW1 3722   3.351   0.536   0.368
  941SOL    HW2 3723   3.452   0.413   0.330
  942SOL     OW 3724   6.600   5.042   0.446
  942SOL    HW1 3725   6.571   5.030   0.351
  942SOL    HW2 3726   6.520   5.038   0.505
  943SOL     OW 3727   3.527   5.735   1.307
  943SOL    HW1 3728   3.598   5.794   1.269
  943SOL    HW2 3729   3.501   5.666   1.239
  944SOL     OW 3730   6.805   6.700   3.413
  944SOL    HW1 3731   6.782   6.767   3.342
  944SOL    HW2 3732   6.746   6.620   3.403
  945SOL     OW 3733   0.652   5.316   6.067
  945SOL    HW1 3734   0.581   5.383   6.043
  945SOL    HW2 3735   0.625   5.268   6.151
  946SOL     OW 3736   5.827   2.002   4.397
  946SOL    HW1 3737   5.838   2.093   4.357
  946SOL    HW2 3738   5.873   1.999   4.486
  947SOL     OW 3739   3.750   4.126   4.116
  947SOL    HW1 3740   3.810   4.131   4.036
  947SOL    HW2 3741   3.804   4.104   4.197
  948SOL     OW 3742   3.647   0.893   3.430
  948SOL    HW1 3743   3.569   0.844   3.467
  948SOL    HW2 3744   3.683   0.956   3.499
  949SOL     OW 3745   3.536   0.377   5.688
  949SOL    HW1 3746   3.479   0.410   5.764
  949SOL    HW2 3747   3.477   0.346   5.613
  950SOL     OW 3748   0.037   0.734   2.735
  950SOL    HW1 3749   0.051   0.720   2.833
  950SOL    HW2 3750   0.105   0.681   2.685
  951SOL     OW 3751   1.816   0.028   3.050
  951SOL    HW1 3752   1.903   0.056   3.008
  951SOL    HW2 3753   1.759   0.109   3.066
  952SOL     OW 3754   3.603   1.346   3.323
  952SOL    HW1 3755   3.684   1.396   3.290
  952SOL    HW2 3756   3.525   1.408   3.325
  953SOL     OW 3757   0.298   4.720   6.022
  953SOL    HW1 3758   0.392   4.733   5.990
  953SOL    HW2 3759   0.235   4.729   5.946
  954SOL     OW 3760   4.669   6.148   2.541
  954SOL    HW1 3761   4.689   6.246   2.540
  954SOL    HW2 3762   4.747   6.098   2.505
  955SOL     OW 3763   1.911   5.243   0.961
  955SOL    HW1 3764   1.926   5.294   1.046
  955SOL    HW2 3765   1.999   5.217   0.921
  956SOL     OW 3766   4.585   0.854   1.274
  956SOL    HW1 3767   4.498   0.898   1.253
  956SOL    HW2 3768   4.570   0.755   1.286
  957SOL     OW 3769   6.240   0.709   2.820
  957SOL    HW1 3770   6.282   0.645   2.885
  957SOL    HW2 3771   6.232   0.666   2.730
  958SOL     OW 3772   5.073   6.446   1.341
  958SOL    HW1 3773   5.103   6.388   1.418
  958SOL    HW2 3774   4.990   6.495   1.367
  959SOL     OW 3775   4.971   6.479   2.992
  959SOL    HW1 3776   4.980   6.560   2.935
  959SOL    HW2 3777   4.897   6.421   2.957
  960SOL     OW 3778   1.616   6.553   6.391
  960SOL    HW1 3779   1.706   6.531   6.428
  960SOL    HW2 3780   1.552   6.480   6.413
  961SOL     OW 3781   3.620   1.113   3.151
  961SOL    HW1 3782   3.591   1.030   3.198
  961SOL    HW2 3783   3.585   1.193   3.201
  962SOL     OW 3784   0.409   0.460   4.800
  962SOL    HW1 3785   0.397   0.428   4.893
  962SOL    HW2 3786   0.359   0.401   4.736
  963SOL     OW 3787   5.734   2.837   1.174
  963SOL    HW1 3788   5.701   2.790   1.256
  963SOL    HW2 3789   5.670   2.821   1.099
  964SOL     OW 3790   3.791   5.737   4.878
  964SOL    HW1 3791   3.800   5.640   4.900
  964SOL    HW2 3792   3.795   5.749   4.779
  965SOL     OW 3793   5.985   2.214   3.461
  965SOL    HW1 3794   5.916   2.161   3.510
  965SOL    HW2 3795   5.973   2.201   3.363
  966SOL     OW 3796   4.936   0.907   4.204
  966SOL    HW1 3797   4.883   0.980   4.249
  966SOL    HW2 3798   5.032   0.934   4.200
  967SOL     OW 3799   4.281   4.659   6.654
  967SOL    HW1 3800   4.206   4.599   6.682
  967SOL    HW2 3801   4.349   4.605   6.605
  968SOL     OW 3802   3.516   0.451   1.578
  968SOL    HW1 3803   3.517   0.352   1.568
  968SOL    HW2 3804   3.608   0.487   1.566
  969SOL     OW 3805   3.067   4.035   6.278
  969SOL    HW1 3806   3.146   3.987   6.240
  969SOL    HW2 3807   3.097   4.091   6.355
  970SOL     OW 3808   5.072   6.643   5.919
  970SOL    HW1 3809   5.127   6.632   6.002
  970SOL    HW2 3810   4.982   6.604   5.933
  971SOL     OW 3811   5.474   3.565   3.327
  971SOL    HW1 3812   5.567   3.601   3.314
  971SOL    HW2 3813   5.428   3.560   3.239
  972SOL     OW 3814   0.470   2.846   0.643
  972SOL    HW1 3815   0.438   2.756   0.612
  972SOL    HW2 3816   0.482   2.844   0.742
  973SOL     OW 3817   0.199   2.928   5.457
  973SOL    HW1 3818   0.138   2.850   5.441
  973SOL    HW2 3819   0.294   2.897   5.458
  974SOL     OW 3820   0.744   4.546   2.374
  974SOL    HW1 3821   0.803   4.547   2.293
  974SOL    HW2 3822   0.682   4.467   2.368
  975SOL     OW 3823   3.021   0.371   2.731
  975SOL    HW1 3824   3.107   0.322   2.744
  975SOL    HW2 3825   2.991   0.361   2.637
  976SOL     OW 3826   6.915   3.262   3.441
  976SOL    HW1 3827   6.918   3.320   3.523
  976SOL    HW2 3828   6.994   3.282   3.383
  977SOL     OW 3829   6.441   1.489   1.823
  977SOL    HW1 3830   6.534   1.491   1.786
  977SOL    HW2 3831   6.378   1.454   1.754
  978SOL     OW 3832   5.272   2.980   1.315
  978SOL    HW1 3833   5.343   3.040   1.350
  978SOL    HW2 3834   5.219   2.942   1.392
  979SOL     OW 3835   0.275   4.574   0.002
  979SOL    HW1 3836   0.291   4.524   0.087
  979SOL    HW2 3837   0.346   4.552   6.952
  980SOL     OW 3838   4.117   1.211   4.607
  980SOL    HW1 3839   4.062   1.287   4.641
  980SOL    HW2 3840   4.107   1.132   4.667
  981SOL     OW 3841   0.695   6.555   5.558
  981SOL    HW1 3842   0.746   6.484   5.509
  981SOL    HW2 3843   0.632   6.600   5.495
  982SOL     OW 3844   6.565   1.101   6.087
  982SOL    HW1 3845   6.629   1.177   6.091
  982SOL    HW2 3846   6.489   1.118   6.151
  983SOL     OW 3847   0.669   4.248   3.224
  983SOL    HW1 3848   0.592   4.189   3.247
  983SOL    HW2 3849   0.752   4.192   3.219
  984SOL     OW 3850   0.481   3.466   3.719
  984SOL    HW1 3851   0.456   3.387   3.775
  984SOL    HW2 3852   0.472   3.442   3.622
  985SOL     OW 3853   6.201   5.440   5.022
  985SOL    HW1 3854   6.110   5.473   5.000
  985SOL    HW2 3855   6.267   5.475   4.955
  986SOL     OW 3856   4.672   5.496   1.156
  986SOL    HW1 3857   4.668   5.397   1.149
  986SOL    HW2 3858   4.622   5.538   1.081
  987SOL     OW 3859   4.808   4.676   4.905
  987SOL    HW1 3860   4.717   4.636   4.917
  987SOL    HW2 3861   4.869   4.643   4.977
  988SOL     OW 3862   2.596   4.620   2.145
  988SOL    HW1 3863   2.534   4.545   2.126
  988SOL    HW2 3864   2.683   4.606   2.098
  989SOL     OW 3865   1.245   2.308   1.085
  989SOL    HW1 3866   1.322   2.273   1.138
  989SOL    HW2 3867   1.254   2.279   0.990
  990SOL     OW 3868   3.649   6.744   4.630
  990SOL    HW1 3869   3.660   6.709   4.537
  990SOL    HW2 3870   3.611   6.671   4.688
  991SOL     OW 3871   0.729   5.448   3.871
  991SOL    HW1 3872   0.770   5.536   3.894
  991SOL    HW2 3873   0.652   5.430   3.931
  992SOL     OW 3874   6.872   2.385   6.950
  992SOL    HW1 3875   6.836   2.292   6.942
  992SOL    HW2 3876   6.806   2.443   6.998
  993SOL     OW 3877   1.288   4.957   0.069
  993SOL    HW1 3878   1.256   5.028   0.006
  993SOL    HW2 3879   1.213   4.894   0.088
  994SOL     OW 3880   3.304   6.759   0.482
  994SOL    HW1 3881   3.334   6.794   0.571
  994SOL    HW2 3882   3.246   6.679   0.495
  995SOL     OW 3883   6.125   3.829   5.743
  995SOL    HW1 3884   6.165   3.877   5.821
  995SOL    HW2 3885   6.033   3.798   5.766
  996SOL     OW 3886   4.330   6.439   4.617
  996SOL    HW1 3887   4.427   6.464   4.616
  996SOL    HW2 3888   4.284   6.487   4.691
  997SOL     OW 3889   1.129   6.443   3.388
  997SOL    HW1 3890   1.207   6.500   3.414
  997SOL    HW2 3891   1.159   6.370   3.326
  998SOL     OW 3892   4.366   0.006   6.158
  998SOL    HW1 3893   4.341   0.028   6.253
  998SOL    HW2 3894   4.465   0.016   6.146
  999SOL     OW 3895   5.467   2.988   2.926
  999SOL    HW1 3896   5.490   3.014   3.020
  999SOL    HW2 3897   5.405   3.057   2.887
 1000SOL     OW 3898   5.320   1.943   1.605
 1000SOL    HW1 3899   5.370   1.862   1.636
 1000SOL    HW2 3900   5.223   1.921   1.596
 1001SOL     OW 3901   2.928   6.976   2.474
 1001SOL    HW1 3902   2.941   0.032   2.405
 1001SOL    HW2 3903   2.835   6.940   2.467
 1002SOL     OW 3904   4.191   2.848   1.095
 1002SOL    HW1 3905   4.170   2.915   1.025
 1002SOL    HW2 3906   4.175   2.756   1.059
 1003SOL     OW 3907   1.040   0.274   2.880
 1003SOL    HW1 3908   1.052   0.372   2.891
 1003SOL    HW2 3909   1.129   0.229   2.882
 1004SOL     OW 3910   5.133   1.339   4.709
 1004SOL    HW1 3911   5.080   1.315   4.791
 1004SOL    HW2 3912   5.114   1.273   4.636
 1005SOL     OW 3913   0.771   5.381   2.237
 1005SOL    HW1 3914   0.830   5.302   2.248
 1005SOL    HW2 3915   0.677   5.351   2.219
 1006SOL     OW 3916   2.317   3.960   1.616
 1006SOL    HW1 3917   2.324   3.979   1.518
 1006SOL    HW2 3918   2.314   3.862   1.632
 1007SOL     OW 3919   4.730   0.616   6.046
 1007SOL    HW1 3920   4.646   0.650   6.002
 1007SOL    HW2 3921   4.794   0.585   5.975
 1008SOL     OW 3922   0.930   5.068   5.264
 1008SOL    HW1 3923   0.982   4.989   5.230
 1008SOL    HW2 3924   0.957   5.150   5.213
 1009SOL     OW 3925   6.499   5.585   6.216
 1009SOL    HW1 3926   6.593   5.598   6.249
 1009SOL    HW2 3927   6.465   5.670   6.178
 1010SOL     OW 3928   3.097   3.673   0.682
 1010SOL    HW1 3929   3.169   3.670   0.752
 1010SOL    HW2 3930   3.019   3.618   0.712
 1011SOL     OW 3931   6.503   5.120   2.839
 1011SOL    HW1 3932   6.506   5.115   2.939
 1011SOL    HW2 3933   6.566   5.190   2.806
 1012SOL     OW 3934   5.527   6.302   2.645
 1012SOL    HW1 3935   5.514   6.372   2.715
 1012SOL    HW2 3936   5.595   6.236   2.678
 1013SOL     OW 3937   7.011   7.013   6.010
 1013SOL    HW1 3938   0.018   7.016   6.108
 1013SOL    HW2 3939   6.915   6.986   6.000
 1014SOL     OW 3940   1.029   4.828   5.121
 1014SOL    HW1 3941   1.096   4.826   5.195
 1014SOL    HW2 3942   0.953   4.767   5.143
 1015SOL     OW 3943   1.948   6.306   0.349
 1015SOL    HW1 3944   2.010   6.381   0.328
 1015SOL    HW2 3945   1.856   6.328   0.315
 1016SOL     OW 3946   6.961   3.563   0.634
 1016SOL    HW1 3947   6.942   3.465   0.624
 1016SOL    HW2 3948   0.005   3.593   0.560
 1017SOL     OW 3949   2.546   1.545   2.622
 1017SOL    HW1 3950   2.486   1.601   2.679
 1017SOL    HW2 3951   2.550   1.582   2.530
 1018SOL     OW 3952   6.198   6.599   4.194
 1018SOL    HW1 3953   6.131   6.608   4.267
 1018SOL    HW2 3954   6.164   6.537   4.123
 1019SOL     OW 3955   6.453   4.375   0.840
 1019SOL    HW1 3956   6.515   4.376   0.918
 1019SOL    HW2 3957   6.481   4.301   0.777
 1020SOL     OW 3958   5.070   1.149   0.880
 1020SOL    HW1 3959   5.092   1.246   0.875
 1020SOL    HW2 3960   5.055   1.113   0.787
 1021SOL     OW 3961   1.022   6.476   1.027
 1021SOL    HW1 3962   0.970   6.553   0.990
 1021SOL    HW2 3963   0.993   6.459   1.122
 1022SOL     OW 3964   2.779   5.528   6.668
 1022SOL    HW1 3965   2.707   5.461   6.685
 1022SOL    HW2 3966   2.766   5.571   6.579
 1023SOL     OW 3967   0.640   1.465   2.821
 1023SOL    HW1 3968   0.681   1.505   2.740
 1023SOL    HW2 3969   0.701   1.395   2.859
 1024SOL     OW 3970   1.409   1.985   4.030
 1024SOL    HW1 3971   1.506   1.997   4.006
 1024SOL    HW2 3972   1.362   1.936   3.957
 1025SOL     OW 3973   4.959   4.450   0.511
 1025SOL    HW1 3974   4.943   4.366   0.460
 1025SOL    HW2 3975   5.002   4.518   0.451
 1026SOL     OW 3976   2.846   2.833   1.668
 1026SOL    HW1 3977   2.856   2.931   1.685
 1026SOL    HW2 3978   2.921   2.783   1.711
 1027SOL     OW 3979   0.214   6.894   0.088
 1027SOL    HW1 3980   0.221   6.795   0.105
 1027SOL    HW2 3981   0.275   6.919   0.013
 1028SOL     OW 3982   1.412   5.885   2.681
 1028SOL    HW1 3983   1.419   5.963   2.618
 1028SOL    HW2 3984   1.486   5.821   2.662
 1029SOL     OW 3985   1.288   0.954   5.547
 1029SOL    HW1 3986   1.217   0.985   5.484
 1029SOL    HW2 3987   1.330   0.870   5.510
 1030SOL     OW 3988   3.775   3.430   0.956
 1030SOL    HW1 3989   3.755   3.524   0.986
 1030SOL    HW2 3990   3.868   3.405   0.984
 1031SOL     OW 3991   3.832   3.408   0.688
 1031SOL    HW1 3992   3.859   3.499   0.655
 1031SOL    HW2 3993   3.820   3.412   0.788
 1032SOL     OW 3994   1.963   1.681   0.406
 1032SOL    HW1 3995   1.906   1.625   0.346
 1032SOL    HW2 3996   2.017   1.621   0.466
 1033SOL     OW 3997   0.323   0.862   2.152
 1033SOL    HW1 3998   0.318   0.927   2.228
 1033SOL    HW2 3999   0.236   0.814   2.143
 1034SOL     OW 4000   3.436   0.961   5.035
 1034SOL    HW1 4001   3.469   0.948   4.941
 1034SOL    HW2 4002   3.496   1.024   5.083
 1035SOL     OW 4003   1.827   1.000   0.240
 1035SOL    HW1 4004   1.827   1.100   0.248
 1035SOL    HW2 4005   1.855   0.974   0.147
 1036SOL     OW 4006   4.707   1.242   1.546
 1036SOL    HW1 4007   4.788   1.273   1.596
 1036SOL    HW2 4008   4.728   1.236   1.449
 1037SOL     OW 4009   1.544   3.792   2.129
 1037SOL    HW1 4010   1.597   3.710   2.107
 1037SOL    HW2 4011   1.538   3.850   2.048
 1038SOL     OW 4012   2.360   5.906   0.353
 1038SOL    HW1 4013   2.411   5.821   0.359
 1038SOL    HW2 4014   2.382   5.953   0.267
 1039SOL     OW 4015   3.384   3.724   3.006
 1039SOL    HW1 4016   3.460   3.662   2.991
 1039SOL    HW2 4017   3.376   3.746   3.103
 1040SOL     OW 4018   3.511   1.892   3.017
 1040SOL    HW1 4019   3.587   1.946   2.980
 1040SOL    HW2 4020   3.544   1.803   3.046
 1041SOL     OW 4021   6.422   6.200   6.940
 1041SOL    HW1 4022   6.516   6.177   6.915
 1041SOL    HW2 4023   6.419   6.294   6.975
 1042SOL     OW 4024   5.416   4.583   3.412
 1042SOL    HW1 4025   5.408   4.613   3.507
 1042SOL    HW2 4026   5.476   4.503   3.407
 1043SOL     OW 4027   2.839   2.027   3.973
 1043SOL    HW1 4028   2.812   1.945   3.922
 1043SOL    HW2 4029   2.938   2.035   3.972
 1044SOL     OW 4030   6.036   4.636   1.741
 1044SOL    HW1 4031   6.095   4.670   1.669
 1044SOL    HW2 4032   6.013   4.540   1.723
 1045SOL     OW 4033   2.230   0.736   2.136
 1045SOL    HW1 4034   2.284   0.788   2.070
 1045SOL    HW2 4035   2.152   0.694   2.090
 1046SOL     OW 4036   2.960   1.928   1.394
 1046SOL    HW1 4037   3.046   1.903   1.440
 1046SOL    HW2 4038   2.966   2.022   1.362
 1047SOL     OW 4039   3.532   0.511   3.293
 1047SOL    HW1 4040   3.606   0.460   3.338
 1047SOL    HW2 4041   3.504   0.465   3.210
 1048SOL     OW 4042   0.893   0.277   2.059
 1048SOL    HW1 4043   0.916   0.202   2.122
 1048SOL    HW2 4044   0.806   0.319   2.087
 1049SOL     OW 4045   4.244   6.684   6.232
 1049SOL    HW1 4046   4.291   6.765   6.197
 1049SOL    HW2 4047   4.300   6.603   6.217
 1050SOL     OW 4048   3.275   0.134   4.001
 1050SOL    HW1 4049   3.331   0.071   4.055
 1050SOL    HW2 4050   3.271   0.223   4.047
 1051SOL     OW 4051   1.791   1.481   5.161
 1051SOL    HW1 4052   1.745   1.480   5.250
 1051SOL    HW2 4053   1.819   1.389   5.137
 1052SOL     OW 4054   3.509   1.485   0.467
 1052SOL    HW1 4055   3.491   1.565   0.411
 1052SOL    HW2 4056   3.442   1.414   0.447
 1053SOL     OW 4057   5.001   1.959   4.604
 1053SOL    HW1 4058   4.968   1.886   4.544
 1053SOL    HW2 4059   5.018   1.922   4.695
 1054SOL     OW 4060   4.002   5.153   6.305
 1054SOL    HW1 4061   4.051   5.229   6.347
 1054SOL    HW2 4062   4.060   5.110   6.236
 1055SOL     OW 4063   4.913   5.678   6.687
 1055SOL    HW1 4064   4.854   5.599   6.704
 1055SOL    HW2 4065   4.917   5.736   6.768
 1056SOL     OW 4066   3.352   3.829   6.841
 1056SOL    HW1 4067   3.367   3.755   6.907
 1056SOL    HW2 4068   3.269   3.879   6.864
 1057SOL     OW 4069   3.297   2.876   7.015
 1057SOL    HW1 4070   3.264   2.788   6.982
 1057SOL    HW2 4071   3.220   2.928   0.036
 1058SOL     OW 4072   3.083   2.098   2.063
 1058SOL    HW1 4073   3.031   2.180   2.089
 1058SOL    HW2 4074   3.100   2.100   1.965
 1059SOL     OW 4075   2.233   6.163   2.302
 1059SOL    HW1 4076   2.266   6.069   2.294
 1059SOL    HW2 4077   2.265   6.216   2.223
 1060SOL     OW 4078   6.044   0.735   5.334
 1060SOL    HW1 4079   6.042   0.668   5.260
 1060SOL    HW2 4080   6.136   0.741   5.372
 1061SOL     OW 4081   0.463   3.709   5.940
 1061SOL    HW1 4082   0.437   3.624   5.895
 1061SOL    HW2 4083   0.384   3.745   5.990
 1062SOL     OW 4084   3.284   5.137   4.592
 1062SOL    HW1 4085   3.267   5.047   4.551
 1062SOL    HW2 4086   3.329   5.126   4.680
 1063SOL     OW 4087   3.307   6.421   4.375
 1063SOL    HW1 4088   3.351   6.388   4.459
 1063SOL    HW2 4089   3.375   6.426   4.302
 1064SOL     OW 4090   1.342   3.117   0.663
 1064SOL    HW1 4091   1.436   3.126   0.696
 1064SOL    HW2 4092   1.321   3.020   0.648
 1065SOL     OW 4093   6.282   1.136   4.944
 1065SOL    HW1 4094   6.330   1.224   4.944
 1065SOL    HW2 4095   6.183   1.151   4.934
 1066SOL     OW 4096   4.932   6.806   0.565
 1066SOL    HW1 4097   4.857   6.762   0.516
 1066SOL    HW2 4098   4.971   6.741   0.630
 1067SOL     OW 4099   2.612   1.801   0.117
 1067SOL    HW1 4100   2.570   1.842   0.199
 1067SOL    HW2 4101   2.629   1.872   0.049
 1068SOL     OW 4102   6.653   2.941   1.224
 1068SOL    HW1 4103   6.589   2.942   1.302
 1068SOL    HW2 4104   6.726   3.007   1.241
 1069SOL     OW 4105   6.137   3.356   2.717
 1069SOL    HW1 4106   6.096   3.269   2.742
 1069SOL    HW2 4107   6.067   3.428   2.718
 1070SOL     OW 4108   0.771   0.735   2.091
 1070SOL    HW1 4109   0.828   0.817   2.088
 1070SOL    HW2 4110   0.730   0.725   2.182
 1071SOL     OW 4111   0.461   3.122   6.267
 1071SOL    HW1 4112   0.377   3.100   6.315
 1071SOL    HW2 4113   0.439   3.157   6.176
 1072SOL     OW 4114   1.652   1.535   2.419
 1072SOL    HW1 4115   1.690   1.615   2.465
 1072SOL    HW2 4116   1.698   1.452   2.451
 1073SOL     OW 4117   5.488   2.692   2.896
 1073SOL    HW1 4118   5.508   2.595   2.909
 1073SOL    HW2 4119   5.567   2.737   2.854
 1074SOL     OW 4120   2.771   5.135   1.517
 1074SOL    HW1 4121   2.808   5.224   1.489
 1074SOL    HW2 4122   2.778   5.125   1.616
 1075SOL     OW 4123   6.829   3.993   6.095
 1075SOL    HW1 4124   6.803   4.074   6.146
 1075SOL    HW2 4125   6.769   3.917   6.121
 1076SOL     OW 4126   1.763   4.552   5.193
 1076SOL    HW1 4127   1.814   4.474   5.156
 1076SOL    HW2 4128   1.739   4.614   5.118
 1077SOL     OW 4129   6.753   6.342   0.610
 1077SOL    HW1 4130   6.789   6.425   0.653
 1077SOL    HW2 4131   6.794   6.329   0.520
 1078SOL     OW 4132   6.299   6.423   4.499
 1078SOL    HW1 4133   6.293   6.405   4.597
 1078SOL    HW2 4134   6.322   6.519   4.484
 1079SOL     OW 4135   0.560   6.699   1.404
 1079SOL    HW1 4136   0.520   6.781   1.444
 1079SOL    HW2 4137   0.520   6.683   1.313
 1080SOL     OW 4138   3.571   6.827   0.028
 1080SOL    HW1 4139   3.544   6.748   6.989
 1080SOL    HW2 4140   3.560   6.805   0.125
 1081SOL     OW 4141   6.606   6.505   3.404
 1081SOL    HW1 4142   6.611   6.405   3.398
 1081SOL    HW2 4143   6.559   6.541   3.323
 1082SOL     OW 4144   3.768   0.102   0.509
 1082SOL    HW1 4145   3.749   0.005   0.523
 1082SOL    HW2 4146   3.801   0.116   0.415
 1083SOL     OW 4147   5.742   4.035   2.004
 1083SOL    HW1 4148   5.796   3.967   2.053
 1083SOL    HW2 4149   5.690   3.990   1.931
 1084SOL     OW 4150   5.408   0.461   5.406
 1084SOL    HW1 4151   5.405   0.403   5.487
 1084SOL    HW2 4152   5.357   0.546   5.423
 1085SOL     OW 4153   2.156   3.854   4.655
 1085SOL    HW1 4154   2.104   3.905   4.724
 1085SOL    HW2 4155   2.192   3.918   4.586
 1086SOL     OW 4156   5.638   5.329   0.545
 1086SOL    HW1 4157   5.691   5.410   0.520
 1086SOL    HW2 4158   5.624   5.272   0.464
 1087SOL     OW 4159   4.217   0.090   5.649
 1087SOL    HW1 4160   4.134   0.143   5.635
 1087SOL    HW2 4161   4.194   7.016   5.686
 1088SOL     OW 4162   6.580   5.230   3.845
 1088SOL    HW1 4163   6.638   5.304   3.811
 1088SOL    HW2 4164   6.567   5.162   3.773
 1089SOL     OW 4165   5.541   5.321   4.296
 1089SOL    HW1 4166   5.582   5.289   4.211
 1089SOL    HW2 4167   5.595   5.290   4.374
 1090SOL     OW 4168   5.629   2.158   5.063
 1090SOL    HW1 4169   5.569   2.139   5.141
 1090SOL    HW2 4170   5.716   2.195   5.096
 1091SOL     OW 4171   1.711   3.004   3.175
 1091SOL    HW1 4172   1.674   3.027   3.265
 1091SOL    HW2 4173   1.780   3.072   3.149
 1092SOL     OW 4174   0.295   6.273   0.492
 1092SOL    HW1 4175   0.245   6.187   0.490
 1092SOL    HW2 4176   0.393   6.255   0.484
 1093SOL     OW 4177   1.535   0.456   3.214
 1093SOL    HW1 4178   1.480   0.385   3.169
 1093SOL    HW2 4179   1.567   0.522   3.145
 1094SOL     OW 4180   0.137   7.012   3.217
 1094SOL    HW1 4181   0.187   0.038   3.141
 1094SOL    HW2 4182   0.163   6.916   3.225
 1095SOL     OW 4183   5.611   3.140   0.362
 1095SOL    HW1 4184   5.662   3.194   0.429
 1095SOL    HW2 4185   5.575   3.057   0.406
 1096SOL     OW 4186   1.840   5.432   1.664
 1096SOL    HW1 4187   1.876   5.350   1.708
 1096SOL    HW2 4188   1.749   5.453   1.701
 1097SOL     OW 4189   2.948   6.563   4.249
 1097SOL    HW1 4190   2.908   6.482   4.205
 1097SOL    HW2 4191   2.913   6.570   4.343
 1098SOL     OW 4192   6.731   3.933   0.522
 1098SOL    HW1 4193   6.828   3.932   0.498
 1098SOL    HW2 4194   6.687   4.011   0.478
 1099SOL     OW 4195   4.903   0.439   6.546
 1099SOL    HW1 4196   4.811   0.466   6.519
 1099SOL    HW2 4197   4.905   0.341   6.567
 1100SOL     OW 4198   4.383   1.754   4.638
 1100SOL    HW1 4199   4.348   1.800   4.556
 1100SOL    HW2 4200   4.334   1.787   4.718
 1101SOL     OW 4201   4.846   2.852   6.590
 1101SOL    HW1 4202   4.831   2.928   6.526
 1101SOL    HW2 4203   4.916   2.791   6.552
 1102SOL     OW 4204   2.759   0.685   3.044
 1102SOL    HW1 4205   2.706   0.769   3.036
 1102SOL    HW2 4206   2.842   0.692   2.990
 1103SOL     OW 4207   3.411   6.075   0.654
 1103SOL    HW1 4208   3.452   6.146   0.596
 1103SOL    HW2 4209   3.435   5.985   0.618
 1104SOL     OW 4210   6.901   2.649   3.827
 1104SOL    HW1 4211   6.978   2.700   3.865
 1104SOL    HW2 4212   6.821   2.659   3.886
 1105SOL     OW 4213   5.457   1.791   5.856
 1105SOL    HW1 4214   5.467   1.889   5.843
 1105SOL    HW2 4215   5.513   1.761   5.933
 1106SOL     OW 4216   6.529   1.501   0.821
 1106SOL    HW1 4217   6.576   1.414   0.807
 1106SOL    HW2 4218   6.547   1.562   0.744
 1107SOL     OW 4219   0.866   1.578   6.504
 1107SOL    HW1 4220   0.856   1.540   6.412
 1107SOL    HW2 4221   0.782   1.565   6.556
 1108SOL     OW 4222   2.487   0.925   4.193
 1108SOL    HW1 4223   2.397   0.882   4.196
 1108SOL    HW2 4224   2.477   1.024   4.185
 1109SOL     OW 4225   4.836   2.619   5.033
 1109SOL    HW1 4226   4.882   2.618   4.944
 1109SOL    HW2 4227   4.822   2.713   5.063
 1110SOL     OW 4228   2.054   1.067   2.201
 1110SOL    HW1 4229   2.080   1.061   2.104
 1110SOL    HW2 4230   2.057   0.975   2.241
 1111SOL     OW 4231   5.869   3.843   6.598
 1111SOL    HW1 4232   5.926   3.761   6.594
 1111SOL    HW2 4233   5.777   3.821   6.564
 1112SOL     OW 4234   5.518   0.310   2.633
 1112SOL    HW1 4235   5.563   0.366   2.703
 1112SOL    HW2 4236   5.585   0.285   2.563
 1113SOL     OW 4237   5.763   3.533   2.507
 1113SOL    HW1 4238   5.687   3.598   2.513
 1113SOL    HW2 4239   5.815   3.535   2.593
 1114SOL     OW 4240   3.674   3.986   4.648
 1114SOL    HW1 4241   3.639   3.901   4.687
 1114SOL    HW2 4242   3.615   4.062   4.674
 1115SOL     OW 4243   2.696   4.637   5.757
 1115SOL    HW1 4244   2.741   4.550   5.778
 1115SOL    HW2 4245   2.741   4.680   5.679
 1116SOL     OW 4246   4.202   0.232   0.200
 1116SOL    HW1 4247   4.179   0.228   0.297
 1116SOL    HW2 4248   4.128   0.276   0.149
 1117SOL     OW 4249   2.357   2.479   1.694
 1117SOL    HW1 4250   2.360   2.560   1.752
 1117SOL    HW2 4251   2.429   2.415   1.721
 1118SOL     OW 4252   4.244   6.092   0.118
 1118SOL    HW1 4253   4.302   6.151   0.061
 1118SOL    HW2 4254   4.157   6.137   0.135
 1119SOL     OW 4255   3.250   4.872   3.706
 1119SOL    HW1 4256   3.266   4.970   3.721
 1119SOL    HW2 4257   3.247   4.854   3.607
 1120SOL     OW 4258   6.732   3.262   1.256
 1120SOL    HW1 4259   6.771   3.243   1.346
 1120SOL    HW2 4260   6.633   3.274   1.264
 1121SOL     OW 4261   6.876   4.604   4.909
 1121SOL    HW1 4262   6.864   4.676   4.840
 1121SOL    HW2 4263   6.931   4.639   4.985
 1122SOL     OW 4264   5.782   2.175   1.817
 1122SOL    HW1 4265   5.767   2.246   1.886
 1122SOL    HW2 4266   5.873   2.185   1.777
 1123SOL     OW 4267   3.840   1.521   3.894
 1123SOL    HW1 4268   3.896   1.537   3.813
 1123SOL    HW2 4269   3.877   1.443   3.944
 1124SOL     OW 4270   2.343   2.816   4.058
 1124SOL    HW1 4271   2.248   2.847   4.061
 1124SOL    HW2 4272   2.398   2.870   4.121
 1125SOL     OW 4273   1.574   3.495   3.661
 1125SOL    HW1 4274   1.598   3.589   3.639
 1125SOL    HW2 4275   1.647   3.455   3.717
 1126SOL     OW 4276   4.276   5.040   4.651
 1126SOL    HW1 4277   4.222   4.955   4.654
 1126SOL    HW2 4278   4.276   5.075   4.558
 1127SOL     OW 4279   6.628   6.922   2.028
 1127SOL    HW1 4280   6.667   6.961   2.111
 1127SOL    HW2 4281   6.675   6.836   2.006
 1128SOL     OW 4282   4.683   1.328   5.003
 1128SOL    HW1 4283   4.659   1.390   4.929
 1128SOL    HW2 4284   4.775   1.350   5.036
 1129SOL     OW 4285   0.956   0.588   0.569
 1129SOL    HW1 4286   0.860   0.602   0.591
 1129SOL    HW2 4287   1.005   0.557   0.651
 1130SOL     OW 4288   2.373   4.786   2.172
 1130SOL    HW1 4289   2.319   4.805   2.091
 1130SOL    HW2 4290   2.431   4.705   2.156
 1131SOL     OW 4291   2.054   5.342   3.732
 1131SOL    HW1 4292   2.034   5.244   3.725
 1131SOL    HW2 4293   2.026   5.387   3.648
 1132SOL     OW 4294   1.790   1.735   2.559
 1132SOL    HW1 4295   1.875   1.683   2.549
 1132SOL    HW2 4296   1.802   1.827   2.522
 1133SOL     OW 4297   0.784   6.767   6.226
 1133SOL    HW1 4298   0.876   6.781   6.189
 1133SOL    HW2 4299   0.741   6.855   6.243
 1134SOL     OW 4300   3.497   5.856   1.780
 1134SOL    HW1 4301   3.578   5.851   1.838
 1134SOL    HW2 4302   3.513   5.804   1.696
 1135SOL     OW 4303   1.657   6.097   3.254
 1135SOL    HW1 4304   1.569   6.051   3.239
 1135SOL    HW2 4305   1.650   6.192   3.225
 1136SOL     OW 4306   1.798   5.431   2.563
 1136SOL    HW1 4307   1.732   5.372   2.608
 1136SOL    HW2 4308   1.871   5.376   2.523
 1137SOL     OW 4309   1.013   5.894   4.519
 1137SOL    HW1 4310   1.024   5.930   4.426
 1137SOL    HW2 4311   0.916   5.874   4.535
 1138SOL     OW 4312   1.832   3.676   5.098
 1138SOL    HW1 4313   1.902   3.708   5.034
 1138SOL    HW2 4314   1.755   3.739   5.096
 1139SOL     OW 4315   2.566   4.996   4.954
 1139SOL    HW1 4316   2.589   5.039   5.041
 1139SOL    HW2 4317   2.543   5.067   4.887
 1140SOL     OW 4318   2.137   2.041   1.236
 1140SOL    HW1 4319   2.137   1.975   1.311
 1140SOL    HW2 4320   2.230   2.048   1.197
 1141SOL     OW 4321   0.050   4.570   5.859
 1141SOL    HW1 4322   6.989   4.633   5.853
 1141SOL    HW2 4323   0.051   4.527   5.950
 1142SOL     OW 4324   1.571   6.435   2.064
 1142SOL    HW1 4325   1.492   6.441   2.125
 1142SOL    HW2 4326   1.575   6.518   2.007
 1143SOL     OW 4327   0.570   3.973   2.263
 1143SOL    HW1 4328   0.545   4.066   2.233
 1143SOL    HW2 4329   0.492   3.912   2.249
 1144SOL     OW 4330   5.577   4.269   0.191
 1144SOL    HW1 4331   5.565   4.236   0.098
 1144SOL    HW2 4332   5.573   4.369   0.192
 1145SOL     OW 4333   5.454   6.695   0.989
 1145SOL    HW1 4334   5.470   6.660   0.897
 1145SOL    HW2 4335   5.523   6.657   1.051
 1146SOL     OW 4336   1.188   0.821   1.154
 1146SOL    HW1 4337   1.214   0.796   1.248
 1146SOL    HW2 4338   1.092   0.796   1.138
 1147SOL     OW 4339   1.651   6.449   0.971
 1147SOL    HW1 4340   1.634   6.546   0.986
 1147SOL    HW2 4341   1.586   6.395   1.023
 1148SOL     OW 4342   4.101   5.587   3.114
 1148SOL    HW1 4343   4.134   5.574   3.207
 1148SOL    HW2 4344   4.167   5.548   3.049
 1149SOL     OW 4345   4.943   3.292   1.601
 1149SOL    HW1 4346   4.889   3.224   1.550
 1149SOL    HW2 4347   4.956   3.259   1.695
 1150SOL     OW 4348   1.488   3.532   0.648
 1150SOL    HW1 4349   1.526   3.562   0.736
 1150SOL    HW2 4350   1.518   3.595   0.576
 1151SOL     OW 4351   5.923   5.367   4.430
 1151SOL    HW1 4352   6.013   5.372   4.473
 1151SOL    HW2 4353   5.913   5.443   4.365
 1152SOL     OW 4354   3.481   6.509   6.509
 1152SOL    HW1 4355   3.397   6.543   6.552
 1152SOL    HW2 4356   3.469   6.412   6.487
 1153SOL     OW 4357   5.506   6.609   1.911
 1153SOL    HW1 4358   5.590   6.650   1.947
 1153SOL    HW2 4359   5.431   6.625   1.977
 1154SOL     OW 4360   2.418   2.551   0.452
 1154SOL    HW1 4361   2.433   2.518   0.358
 1154SOL    HW2 4362   2.487   2.621   0.473
 1155SOL     OW 4363   3.627   6.066   4.347
 1155SOL    HW1 4364   3.559   6.122   4.299
 1155SOL    HW2 4365   3.603   5.969   4.337
 1156SOL     OW 4366   2.433   1.713   2.916
 1156SOL    HW1 4367   2.442   1.614   2.911
 1156SOL    HW2 4368   2.483   1.747   2.996
 1157SOL     OW 4369   2.644   1.310   0.574
 1157SOL    HW1 4370   2.728   1.255   0.574
 1157SOL    HW2 4371   2.652   1.383   0.643
 1158SOL     OW 4372   5.852   4.230   3.130
 1158SOL    HW1 4373   5.754   4.225   3.115
 1158SOL    HW2 4374   5.870   4.277   3.216
 1159SOL     OW 4375   6.438   4.973   0.679
 1159SOL    HW1 4376   6.395   5.043   0.736
 1159SOL    HW2 4377   6.368   4.909   0.646
 1160SOL     OW 4378   5.776   2.199   0.223
 1160SOL    HW1 4379   5.757   2.256   0.302
 1160SOL    HW2 4380   5.810   2.110   0.253
 1161SOL     OW 4381   6.844   4.961   0.893
 1161SOL    HW1 4382   6.888   4.930   0.977
 1161SOL    HW2 4383   6.879   5.052   0.869
 1162SOL     OW 4384   2.869   2.259   4.620
 1162SOL    HW1 4385   2.961   2.258   4.581
 1162SOL    HW2 4386   2.852   2.174   4.668
 1163SOL     OW 4387   5.607   2.740   1.391
 1163SOL    HW1 4388   5.593   2.820   1.449
 1163SOL    HW2 4389   5.651   2.667   1.444
 1164SOL     OW 4390   4.159   2.853   6.239
 1164SOL    HW1 4391   4.216   2.861   6.321
 1164SOL    HW2 4392   4.083   2.791   6.257
 1165SOL     OW 4393   4.624   6.777   3.394
 1165SOL    HW1 4394   4.597   6.873   3.391
 1165SOL    HW2 4395   4.574   6.730   3.467
 1166SOL     OW 4396   2.859   4.722   6.424
 1166SOL    HW1 4397   2.816   4.632   6.435
 1166SOL    HW2 4398   2.826   4.764   6.340
 1167SOL     OW 4399   5.030   4.580   2.436
 1167SOL    HW1 4400   4.984   4.530   2.362
 1167SOL    HW2 4401   5.055   4.671   2.404
 1168SOL     OW 4402   6.928   0.108   2.513
 1168SOL    HW1 4403   6.932   0.033   2.578
 1168SOL    HW2 4404   6.861   0.176   2.544
 1169SOL     OW 4405   4.400   1.285   5.262
 1169SOL    HW1 4406   4.348   1.243   5.188
 1169SOL    HW2 4407   4.490   1.242   5.270
 1170SOL     OW 4408   4.772   5.049   2.827
 1170SOL    HW1 4409   4.809   4.962   2.859
 1170SOL    HW2 4410   4.820   5.124   2.871
 1171SOL     OW 4411   0.055   6.475   0.393
 1171SOL    HW1 4412   0.114   6.394   0.391
 1171SOL    HW2 4413   0.107   6.553   0.429
 1172SOL     OW 4414   6.782   3.277   6.557
 1172SOL    HW1 4415   6.757   3.370   6.583
 1172SOL    HW2 4416   6.801   3.223   6.638
 1173SOL     OW 4417   3.751   2.002   0.791
 1173SOL    HW1 4418   3.798   1.962   0.870
 1173SOL    HW2 4419   3.699   2.082   0.821
 1174SOL     OW 4420   1.959   4.518   0.542
 1174SOL    HW1 4421   1.891   4.493   0.611
 1174SOL    HW2 4422   2.051   4.498   0.576
 1175SOL     OW 4423   2.972   3.340   4.269
 1175SOL    HW1 4424   3.017   3.428   4.251
 1175SOL    HW2 4425   2.877   3.345   4.241
 1176SOL     OW 4426   5.259   3.017   6.608
 1176SOL    HW1 4427   5.238   3.096   6.552
 1176SOL    HW2 4428   5.228   3.032   6.702
 1177SOL     OW 4429   1.073   1.821   4.171
 1177SOL    HW1 4430   1.100   1.798   4.078
 1177SOL    HW2 4431   1.131   1.896   4.204
 1178SOL     OW 4432   4.184   5.845   0.008
 1178SOL    HW1 4433   4.198   5.936   0.048
 1178SOL    HW2 4434   4.108   5.799   0.055
 1179SOL     OW 4435   1.185   6.136   6.972
 1179SOL    HW1 4436   1.231   6.223   6.950
 1179SOL    HW2 4437   1.140   6.144   0.044
 1180SOL     OW 4438   3.472   6.296   0.452
 1180SOL    HW1 4439   3.534   6.222   0.426
 1180SOL    HW2 4440   3.488   6.376   0.394
 1181SOL     OW 4441   6.660   6.476   0.168
 1181SOL    HW1 4442   6.587   6.410   0.189
 1181SOL    HW2 4443   6.621   6.559   0.131
 1182SOL     OW 4444   4.572   4.796   2.478
 1182SOL    HW1 4445   4.637   4.871   2.492
 1182SOL    HW2 4446   4.487   4.831   2.439
 1183SOL     OW 4447   1.897   3.830   6.178
 1183SOL    HW1 4448   1.897   3.891   6.099
 1183SOL    HW2 4449   1.905   3.735   6.148
 1184SOL     OW 4450   0.531   0.021   5.537
 1184SOL    HW1 4451   0.555   0.108   5.495
 1184SOL    HW2 4452   0.614   6.983   5.550
 1185SOL     OW 4453   6.643   1.504   6.798
 1185SOL    HW1 4454   6.571   1.520   6.866
 1185SOL    HW2 4455   6.604   1.507   6.706
 1186SOL     OW 4456   6.015   6.277   4.539
 1186SOL    HW1 4457   6.072   6.352   4.570
 1186SOL    HW2 4458   6.063   6.190   4.553
 1187SOL     OW 4459   6.433   0.973   5.893
 1187SOL    HW1 4460   6.337   1.001   5.900
 1187SOL    HW2 4461   6.487   1.021   5.962
 1188SOL     OW 4462   2.973   0.284   6.121
 1188SOL    HW1 4463   2.892   0.280   6.178
 1188SOL    HW2 4464   2.947   0.302   6.026
 1189SOL     OW 4465   5.543   3.582   3.835
 1189SOL    HW1 4466   5.551   3.611   3.930
 1189SOL    HW2 4467   5.491   3.650   3.783
 1190SOL     OW 4468   2.183   6.242   3.739
 1190SOL    HW1 4469   2.226   6.253   3.650
 1190SOL    HW2 4470   2.253   6.223   3.808
 1191SOL     OW 4471   4.208   5.994   2.489
 1191SOL    HW1 4472   4.243   5.908   2.525
 1191SOL    HW2 4473   4.284   6.049   2.454
 1192SOL     OW 4474   5.696   5.812   3.405
 1192SOL    HW1 4475   5.672   5.865   3.324
 1192SOL    HW2 4476   5.634   5.836   3.480
 1193SOL     OW 4477   6.878   5.549   4.249
 1193SOL    HW1 4478   6.923   5.633   4.218
 1193SOL    HW2 4479   6.898   5.533   4.345
 1194SOL     OW 4480   3.809   0.286   1.565
 1194SOL    HW1 4481   3.884   0.232   1.528
 1194SOL    HW2 4482   3.821   0.382   1.540
 1195SOL     OW 4483   5.630   2.516   3.640
 1195SOL    HW1 4484   5.533   2.496   3.626
 1195SOL    HW2 4485   5.684   2.474   3.568
 1196SOL     OW 4486   6.788   6.372   4.952
 1196SOL    HW1 4487   6.836   6.307   5.009
 1196SOL    HW2 4488   6.854   6.423   4.896
 1197SOL     OW 4489   1.895   6.030   0.399
 1197SOL    HW1 4490   1.836   6.006   0.476
 1197SOL    HW2 4491   1.906   6.129   0.395
 1198SOL     OW 4492   1.801   2.763   6.970
 1198SOL    HW1 4493   1.810   2.692   0.024
 1198SOL    HW2 4494   1.717   2.815   6.986
 1199SOL     OW 4495   5.951   4.082   1.458
 1199SOL    HW1 4496   5.924   4.117   1.548
 1199SOL    HW2 4497   5.922   3.987   1.449
 1200SOL     OW 4498   3.005   3.203   2.460
 1200SOL    HW1 4499   2.914   3.166   2.442
 1200SOL    HW2 4500   3.000   3.271   2.533
 1201SOL     OW 4501   1.572   2.245   4.329
 1201SOL    HW1 4502   1.507   2.253   4.404
 1201SOL    HW2 4503   1.611   2.334   4.309
 1202SOL     OW 4504   1.279   5.650   5.510
 1202SOL    HW1 4505   1.275   5.620   5.606
 1202SOL    HW2 4506   1.331   5.583   5.457
 1203SOL     OW 4507   3.959   5.815   5.867
 1203SOL    HW1 4508   3.967   5.858   5.777
 1203SOL    HW2 4509   3.871   5.769   5.874
 1204SOL     OW 4510   2.452   6.738   2.709
 1204SOL    HW1 4511   2.551   6.727   2.719
 1204SOL    HW2 4512   2.410   6.648   2.696
 1205SOL     OW 4513   5.536   4.226   2.052
 1205SOL    HW1 4514   5.613   4.164   2.038
 1205SOL    HW2 4515   5.570   4.315   2.081
 1206SOL     OW 4516   3.153   3.763   4.918
 1206SOL    HW1 4517   3.084   3.703   4.879
 1206SOL    HW2 4518   3.170   3.840   4.857
 1207SOL     OW 4519   1.425   6.145   2.562
 1207SOL    HW1 4520   1.351   6.208   2.536
 1207SOL    HW2 4521   1.513   6.185   2.537
 1208SOL     OW 4522   3.148   3.900   5.631
 1208SOL    HW1 4523   3.162   3.822   5.570
 1208SOL    HW2 4524   3.224   3.905   5.696
 1209SOL     OW 4525   3.756   6.535   5.677
 1209SOL    HW1 4526   3.668   6.490   5.661
 1209SOL    HW2 4527   3.760   6.619   5.623
 1210SOL     OW 4528   3.262   0.906   3.161
 1210SOL    HW1 4529   3.261   1.005   3.175
 1210SOL    HW2 4530   3.229   0.861   3.243
 1211SOL     OW 4531   1.181   3.033   0.254
 1211SOL    HW1 4532   1.101   3.093   0.256
 1211SOL    HW2 4533   1.264   3.086   0.273
 1212SOL     OW 4534   1.114   0.315   0.098
 1212SOL    HW1 4535   1.123   0.413   0.083
 1212SOL    HW2 4536   1.038   0.280   0.044
 1213SOL     OW 4537   5.492   3.115   1.367
 1213SOL    HW1 4538   5.486   3.214   1.384
 1213SOL    HW2 4539   5.570   3.097   1.306
 1214SOL     OW 4540   6.952   2.585   1.705
 1214SOL    HW1 4541   6.987   2.512   1.646
 1214SOL    HW2 4542   6.952   2.671   1.654
 1215SOL     OW 4543   1.560   5.778   3.291
 1215SOL    HW1 4544   1.510   5.708   3.341
 1215SOL    HW2 4545   1.562   5.862   3.344
 1216SOL     OW 4546   3.788   6.696   1.532
 1216SOL    HW1 4547   3.758   6.617   1.479
 1216SOL    HW2 4548   3.788   6.777   1.474
 1217SOL     OW 4549   3.103   4.665   0.334
 1217SOL    HW1 4550   3.155   4.648   0.250
 1217SOL    HW2 4551   3.012   4.697   0.310
 1218SOL     OW 4552   2.022   5.000   3.680
 1218SOL    HW1 4553   1.966   5.036   3.605
 1218SOL    HW2 4554   1.963   4.970   3.755
 1219SOL     OW 4555   4.471   6.366   2.270
 1219SOL    HW1 4556   4.385   6.372   2.321
 1219SOL    HW2 4557   4.484   6.272   2.237
 1220SOL     OW 4558   1.012   4.588   2.748
 1220SOL    HW1 4559   0.995   4.539   2.662
 1220SOL    HW2 4560   1.109   4.584   2.770
 1221SOL     OW 4561   5.064   4.227   6.404
 1221SOL    HW1 4562   5.159   4.196   6.410
 1221SOL    HW2 4563   5.056   4.298   6.335
 1222SOL     OW 4564   6.655   0.600   6.438
 1222SOL    HW1 4565   6.663   0.630   6.533
 1222SOL    HW2 4566   6.694   0.508   6.429
 1223SOL     OW 4567   3.577   6.187   0.855
 1223SOL    HW1 4568   3.516   6.156   0.782
 1223SOL    HW2 4569   3.555   6.281   0.881
 1224SOL     OW 4570   2.891   0.360   2.490
 1224SOL    HW1 4571   2.813   0.299   2.501
 1224SOL    HW2 4572   2.859   0.454   2.475
 1225SOL     OW 4573   2.690   4.081   5.946
 1225SOL    HW1 4574   2.717   4.137   5.868
 1225SOL    HW2 4575   2.734   4.116   6.029
 1226SOL     OW 4576   1.824   4.698   0.879
 1226SOL    HW1 4577   1.887   4.731   0.950
 1226SOL    HW2 4578   1.736   4.744   0.889
 1227SOL     OW 4579   0.853   3.577   5.888
 1227SOL    HW1 4580   0.931   3.554   5.946
 1227SOL    HW2 4581   0.877   3.653   5.827
 1228SOL     OW 4582   3.625   2.025   6.540
 1228SOL    HW1 4583   3.630   2.101   6.605
 1228SOL    HW2 4584   3.530   1.998   6.527
 1229SOL     OW 4585   3.290   4.252   6.261
 1229SOL    HW1 4586   3.266   4.176   6.200
 1229SOL    HW2 4587   3.355   4.220   6.330
 1230SOL     OW 4588   4.497   0.529   3.581
 1230SOL    HW1 4589   4.465   0.441   3.547
 1230SOL    HW2 4590   4.421   0.578   3.623
 1231SOL     OW 4591   1.190   4.752   4.562
 1231SOL    HW1 4592   1.092   4.731   4.556
 1231SOL    HW2 4593   1.237   4.710   4.484
 1232SOL     OW 4594   1.773   2.531   4.468
 1232SOL    HW1 4595   1.836   2.608   4.462
 1232SOL    HW2 4596   1.733   2.514   4.378
 1233SOL     OW 4597   0.523   2.974   4.265
 1233SOL    HW1 4598   0.522   2.980   4.165
 1233SOL    HW2 4599   0.496   3.062   4.304
 1234SOL     OW 4600   6.445   3.735   4.084
 1234SOL    HW1 4601   6.481   3.642   4.089
 1234SOL    HW2 4602   6.408   3.761   4.173
 1235SOL     OW 4603   6.782   5.417   3.792
 1235SOL    HW1 4604   6.838   5.460   3.863
 1235SOL    HW2 4605   6.835   5.345   3.747
 1236SOL     OW 4606   5.264   1.008   6.312
 1236SOL    HW1 4607   5.191   1.071   6.283
 1236SOL    HW2 4608   5.230   0.949   6.385
 1237SOL     OW 4609   3.077   4.790   0.000
 1237SOL    HW1 4610   3.109   4.872   0.048
 1237SOL    HW2 4611   3.011   4.816   6.945
 1238SOL     OW 4612   1.314   1.612   1.230
 1238SOL    HW1 4613   1.353   1.690   1.182
 1238SOL    HW2 4614   1.214   1.622   1.234
 1239SOL     OW 4615   0.860   6.967   5.531
 1239SOL    HW1 4616   0.869   0.034   5.587
 1239SOL    HW2 4617   0.947   6.917   5.533
 1240SOL     OW 4618   4.324   6.087   1.939
 1240SOL    HW1 4619   4.355   6.131   1.855
 1240SOL    HW2 4620   4.224   6.087   1.942
 1241SOL     OW 4621   0.215   2.625   4.389
 1241SOL    HW1 4622   0.213   2.652   4.292
 1241SOL    HW2 4623   0.186   2.529   4.397
 1242SOL     OW 4624   2.196   3.438   6.449
 1242SOL    HW1 4625   2.264   3.383   6.497
 1242SOL    HW2 4626   2.107   3.427   6.493
 1243SOL     OW 4627   2.803   5.324   5.533
 1243SOL    HW1 4628   2.749   5.280   5.604
 1243SOL    HW2 4629   2.857   5.255   5.485
 1244SOL     OW 4630   0.959   0.828   3.009
 1244SOL    HW1 4631   1.024   0.904   3.018
 1244SOL    HW2 4632   0.957   0.798   2.913
 1245SOL     OW 4633   2.879   3.029   6.472
 1245SOL    HW1 4634   2.938   2.970   6.418
 1245SOL    HW2 4635   2.788   3.033   6.431
 1246SOL     OW 4636   0.911   0.098   1.377
 1246SOL    HW1 4637   0.930   0.181   1.323
 1246SOL    HW2 4638   0.982   0.088   1.447
 1247SOL     OW 4639   0.798   6.675   6.817
 1247SOL    HW1 4640   0.837   6.595   6.772
 1247SOL    HW2 4641   0.788   6.749   6.750
 1248SOL     OW 4642   1.991   6.619   3.397
 1248SOL    HW1 4643   1.906   6.660   3.432
 1248SOL    HW2 4644   2.064   6.634   3.463
 1249SOL     OW 4645   6.095   3.085   3.593
 1249SOL    HW1 4646   6.148   3.127   3.518
 1249SOL    HW2 4647   6.152   3.081   3.675
 1250SOL     OW 4648   0.548   3.893   4.285
 1250SOL    HW1 4649   0.637   3.938   4.284
 1250SOL    HW2 4650   0.499   3.915   4.200
 1251SOL     OW 4651   3.421   6.903   6.097
 1251SOL    HW1 4652   3.517   6.876   6.102
 1251SOL    HW2 4653   3.373   6.869   6.178
 1252SOL     OW 4654   3.671   3.338   6.669
 1252SOL    HW1 4655   3.680   3.243   6.642
 1252SOL    HW2 4656   3.641   3.393   6.591
 1253SOL     OW 4657   4.217   6.668   3.227
 1253SOL    HW1 4658   4.196   6.701   3.135
 1253SOL    HW2 4659   4.295   6.607   3.224
 1254SOL     OW 4660   6.647   2.023   2.398
 1254SOL    HW1 4661   6.652   2.097   2.466
 1254SOL    HW2 4662   6.683   1.939   2.437
 1255SOL     OW 4663   5.981   0.531   0.456
 1255SOL    HW1 4664   5.923   0.454   0.483
 1255SOL    HW2 4665   6.046   0.502   0.386
 1256SOL     OW 4666   4.871   1.978   4.071
 1256SOL    HW1 4667   4.962   1.997   4.107
 1256SOL    HW2 4668   4.808   2.051   4.097
 1257SOL     OW 4669   6.226   1.612   4.144
 1257SOL    HW1 4670   6.227   1.708   4.117
 1257SOL    HW2 4671   6.135   1.589   4.179
 1258SOL     OW 4672   0.087   6.067   3.636
 1258SOL    HW1 4673   0.147   6.140   3.604
 1258SOL    HW2 4674   0.128   6.021   3.715
 1259SOL     OW 4675   4.361   2.366   5.515
 1259SOL    HW1 4676   4.274   2.361   5.563
 1259SOL    HW2 4677   4.361   2.302   5.438
 1260SOL     OW 4678   0.711   1.573   5.529
 1260SOL    HW1 4679   0.735   1.525   5.614
 1260SOL    HW2 4680   0.793   1.611   5.488
 1261SOL     OW 4681   6.435   3.627   0.563
 1261SOL    HW1 4682   6.531   3.623   0.536
 1261SOL    HW2 4683   6.419   3.708   0.620
 1262SOL     OW 4684   4.906   6.009   2.483
 1262SOL    HW1 4685   4.923   6.003   2.384
 1262SOL    HW2 4686   4.990   6.035   2.530
 1263SOL     OW 4687   6.503   2.457   3.391
 1263SOL    HW1 4688   6.565   2.493   3.462
 1263SOL    HW2 4689   6.411   2.450   3.429
 1264SOL     OW 4690   1.050   3.019   5.720
 1264SOL    HW1 4691   1.143   2.989   5.740
 1264SOL    HW2 4692   1.002   3.040   5.805
 1265SOL     OW 4693   5.711   6.726   6.001
 1265SOL    HW1 4694   5.738   6.630   5.998
 1265SOL    HW2 4695   5.748   6.774   5.922
 1266SOL     OW 4696   2.230   0.968   5.679
 1266SOL    HW1 4697   2.233   0.869   5.690
 1266SOL    HW2 4698   2.138   1.001   5.702
 1267SOL     OW 4699   3.842   0.385   2.375
 1267SOL    HW1 4700   3.906   0.364   2.301
 1267SOL    HW2 4701   3.889   0.434   2.447
 1268SOL     OW 4702   3.987   3.012   5.677
 1268SOL    HW1 4703   3.983   3.076   5.601
 1268SOL    HW2 4704   4.078   3.012   5.716
 1269SOL     OW 4705   5.891   2.003   3.748
 1269SOL    HW1 4706   5.947   1.946   3.688
 1269SOL    HW2 4707   5.868   1.953   3.831
 1270SOL     OW 4708   6.354   4.905   2.765
 1270SOL    HW1 4709   6.410   4.984   2.790
 1270SOL    HW2 4710   6.320   4.860   2.847
 1271SOL     OW 4711   2.096   1.288   0.861
 1271SOL    HW1 4712   2.078   1.267   0.765
 1271SOL    HW2 4713   2.105   1.387   0.872
 1272SOL     OW 4714   6.109   2.026   6.921
 1272SOL    HW1 4715   6.054   2.001   6.841
 1272SOL    HW2 4716   6.145   2.118   6.909
 1273SOL     OW 4717   1.560   4.378   5.500
 1273SOL    HW1 4718   1.595   4.451   5.560
 1273SOL    HW2 4719   1.509   4.312   5.554
 1274SOL     OW 4720   0.225   4.681   3.380
 1274SOL    HW1 4721   0.279   4.651   3.302
 1274SOL    HW2 4722   0.175   4.763   3.356
 1275SOL     OW 4723   2.061   1.656   2.498
 1275SOL    HW1 4724   2.040   1.698   2.409
 1275SOL    HW2 4725   2.125   1.714   2.547
 1276SOL     OW 4726   5.671   4.908   3.580
 1276SOL    HW1 4727   5.752   4.857   3.611
 1276SOL    HW2 4728   5.630   4.862   3.502
 1277SOL     OW 4729   0.459   6.368   0.008
 1277SOL    HW1 4730   0.403   6.297   0.051
 1277SOL    HW2 4731   0.404   6.419   6.959
 1278SOL     OW 4732   0.718   5.812   2.856
 1278SOL    HW1 4733   0.734   5.812   2.757
 1278SOL    HW2 4734   0.718   5.718   2.890
 1279SOL     OW 4735   2.594   2.732   1.599
 1279SOL    HW1 4736   2.505   2.754   1.638
 1279SOL    HW2 4737   2.663   2.794   1.636
 1280SOL     OW 4738   2.433   2.542   4.067
 1280SOL    HW1 4739   2.428   2.642   4.072
 1280SOL    HW2 4740   2.454   2.515   3.973
 1281SOL     OW 4741   6.235   6.377   4.763
 1281SOL    HW1 4742   6.156   6.418   4.809
 1281SOL    HW2 4743   6.319   6.417   4.798
 1282SOL     OW 4744   0.589   2.707   1.215
 1282SOL    HW1 4745   0.580   2.800   1.180
 1282SOL    HW2 4746   0.680   2.694   1.253
 1283SOL     OW 4747   6.943   1.807   4.593
 1283SOL    HW1 4748   6.948   1.877   4.664
 1283SOL    HW2 4749   6.882   1.839   4.520
 1284SOL     OW 4750   3.846   2.019   1.900
 1284SOL    HW1 4751   3.885   2.065   1.820
 1284SOL    HW2 4752   3.798   2.086   1.957
 1285SOL     OW 4753   4.649   1.078   4.222
 1285SOL    HW1 4754   4.704   1.066   4.139
 1285SOL    HW2 4755   4.707   1.113   4.296
 1286SOL     OW 4756   5.157   1.407   0.899
 1286SOL    HW1 4757   5.251   1.409   0.933
 1286SOL    HW2 4758   5.098   1.460   0.959
 1287SOL     OW 4759   6.152   4.921   5.118
 1287SOL    HW1 4760   6.207   4.927   5.035
 1287SOL    HW2 4761   6.135   4.825   5.141
 1288SOL     OW 4762   4.954   4.763   0.156
 1288SOL    HW1 4763   4.917   4.852   0.182
 1288SOL    HW2 4764   5.051   4.758   0.178
 1289SOL     OW 4765   6.515   0.046   0.887
 1289SOL    HW1 4766   6.510   0.053   0.787
 1289SOL    HW2 4767   6.610   0.054   0.917
 1290SOL     OW 4768   1.448   6.392   5.463
 1290SOL    HW1 4769   1.471   6.379   5.560
 1290SOL    HW2 4770   1.353   6.368   5.447
 1291SOL     OW 4771   5.995   5.258   4.182
 1291SOL    HW1 4772   5.966   5.282   4.274
 1291SOL    HW2 4773   6.072   5.317   4.155
 1292SOL     OW 4774   0.913   6.967   2.083
 1292SOL    HW1 4775   0.965   6.928   2.007
 1292SOL    HW2 4776   0.972   6.976   2.163
 1293SOL     OW 4777   4.668   0.982   0.350
 1293SOL    HW1 4778   4.741   1.021   0.293
 1293SOL    HW2 4779   4.579   1.001   0.308
 1294SOL     OW 4780   1.853   4.487   4.875
 1294SOL    HW1 4781   1.930   4.506   4.936
 1294SOL    HW2 4782   1.887   4.475   4.782
 1295SOL     OW 4783   6.477   4.230   0.617
 1295SOL    HW1 4784   6.468   4.134   0.645
 1295SOL    HW2 4785   6.388   4.262   0.583
 1296SOL     OW 4786   4.860   6.921   5.971
 1296SOL    HW1 4787   4.776   6.879   6.005
 1296SOL    HW2 4788   4.917   6.950   6.049
 1297SOL     OW 4789   6.863   0.069   1.239
 1297SOL    HW1 4790   6.857   0.167   1.261
 1297SOL    HW2 4791   6.833   0.016   1.318
 1298SOL     OW 4792   5.332   0.733   3.095
 1298SOL    HW1 4793   5.238   0.737   3.060
 1298SOL    HW2 4794   5.385   0.669   3.039
 1299SOL     OW 4795   0.914   3.445   4.391
 1299SOL    HW1 4796   0.902   3.365   4.450
 1299SOL    HW2 4797   0.890   3.421   4.297
 1300SOL     OW 4798   0.346   5.805   1.042
 1300SOL    HW1 4799   0.436   5.827   1.082
 1300SOL    HW2 4800   0.359   5.747   0.962
 1301SOL     OW 4801   6.729   0.610   0.075
 1301SOL    HW1 4802   6.773   0.599   0.164
 1301SOL    HW2 4803   6.738   0.706   0.046
 1302SOL     OW 4804   6.411   0.120   5.445
 1302SOL    HW1 4805   6.354   0.120   5.362
 1302SOL    HW2 4806   6.506   0.100   5.420
 1303SOL     OW 4807   3.130   6.405   1.490
 1303SOL    HW1 4808   3.104   6.496   1.520
 1303SOL    HW2 4809   3.225   6.386   1.518
 1304SOL     OW 4810   0.222   0.786   1.018
 1304SOL    HW1 4811   0.229   0.855   1.090
 1304SOL    HW2 4812   0.309   0.779   0.970
 1305SOL     OW 4813   3.888   4.497   6.080
 1305SOL    HW1 4814   3.873   4.545   5.994
 1305SOL    HW2 4815   3.915   4.403   6.061
 1306SOL     OW 4816   3.284   5.761   4.039
 1306SOL    HW1 4817   3.294   5.859   4.025
 1306SOL    HW2 4818   3.374   5.720   4.057
 1307SOL     OW 4819   2.240   3.094   4.040
 1307SOL    HW1 4820   2.213   3.083   4.135
 1307SOL    HW2 4821   2.315   3.031   4.019
 1308SOL     OW 4822   6.688   3.805   6.422
 1308SOL    HW1 4823   6.750   3.875   6.459
 1308SOL    HW2 4824   6.712   3.787   6.326
 1309SOL     OW 4825   6.149   4.096   6.766
 1309SOL    HW1 4826   6.177   4.000   6.776
 1309SOL    HW2 4827   6.066   4.101   6.711
 1310SOL     OW 4828   1.551   4.468   3.199
 1310SOL    HW1 4829   1.589   4.377   3.187
 1310SOL    HW2 4830   1.625   4.533   3.219
 1311SOL     OW 4831   5.433   5.149   0.028
 1311SOL    HW1 4832   5.421   5.248   0.022
 1311SOL    HW2 4833   5.507   5.129   0.093
 1312SOL     OW 4834   2.631   1.068   6.116
 1312SOL    HW1 4835   2.677   1.130   6.053
 1312SOL    HW2 4836   2.698   1.007   6.158
 1313SOL     OW 4837   6.598   5.325   1.555
 1313SOL    HW1 4838   6.569   5.356   1.646
 1313SOL    HW2 4839   6.562   5.388   1.486
 1314SOL     OW 4840   2.341   1.750   3.883
 1314SOL    HW1 4841   2.318   1.739   3.786
 1314SOL    HW2 4842   2.257   1.761   3.936
 1315SOL     OW 4843   6.513   1.343   2.709
 1315SOL    HW1 4844   6.429   1.395   2.719
 1315SOL    HW2 4845   6.511   1.263   2.769
 1316SOL     OW 4846   5.175   0.071   6.674
 1316SOL    HW1 4847   5.228   0.144   6.716
 1316SOL    HW2 4848   5.077   0.088   6.688
 1317SOL     OW 4849   3.197   3.161   5.483
 1317SOL    HW1 4850   3.138   3.118   5.550
 1317SOL    HW2 4851   3.292   3.157   5.514
 1318SOL     OW 4852   1.833   1.592   5.839
 1318SOL    HW1 4853   1.757   1.527   5.839
 1318SOL    HW2 4854   1.887   1.580   5.757
 1319SOL     OW 4855   6.850   0.391   0.527
 1319SOL    HW1 4856   6.946   0.361   0.523
 1319SOL    HW2 4857   6.841   0.463   0.596
 1320SOL     OW 4858   3.424   3.464   6.496
 1320SOL    HW1 4859   3.405   3.544   6.439
 1320SOL    HW2 4860   3.346   3.445   6.555
 1321SOL     OW 4861   0.380   2.585   0.531
 1321SOL    HW1 4862   0.287   2.550   0.543
 1321SOL    HW2 4863   0.389   2.624   0.439
 1322SOL     OW 4864   3.949   2.421   6.822
 1322SOL    HW1 4865   4.043   2.425   6.787
 1322SOL    HW2 4866   3.947   2.366   6.906
 1323SOL     OW 4867   3.781   6.933   1.387
 1323SOL    HW1 4868   3.699   6.978   1.422
 1323SOL    HW2 4869   3.823   6.990   1.316
 1324SOL     OW 4870   2.387   4.052   6.038
 1324SOL    HW1 4871   2.355   3.957   6.046
 1324SOL    HW2 4872   2.471   4.054   5.983
 1325SOL     OW 4873   3.411   5.696   5.283
 1325SOL    HW1 4874   3.396   5.689   5.184
 1325SOL    HW2 4875   3.342   5.756   5.323
 1326SOL     OW 4876   5.363   1.753   4.803
 1326SOL    HW1 4877   5.355   1.792   4.711
 1326SOL    HW2 4878   5.317   1.665   4.807
 1327SOL     OW 4879   4.851   5.502   2.693
 1327SOL    HW1 4880   4.912   5.493   2.771
 1327SOL    HW2 4881   4.839   5.599   2.670
 1328SOL     OW 4882   2.052   2.017   6.255
 1328SOL    HW1 4883   2.010   2.098   6.215
 1328SOL    HW2 4884   2.148   2.036   6.275
 1329SOL     OW 4885   0.566   2.426   3.894
 1329SOL    HW1 4886   0.604   2.453   3.806
 1329SOL    HW2 4887   0.633   2.373   3.945
 1330SOL     OW 4888   5.876   3.214   2.809
 1330SOL    HW1 4889   5.946   3.148   2.783
 1330SOL    HW2 4890   5.793   3.197   2.755
 1331SOL     OW 4891   4.502   2.424   3.332
 1331SOL    HW1 4892   4.426   2.466   3.381
 1331SOL    HW2 4893   4.482   2.328   3.315
 1332SOL     OW 4894   2.022   5.650   0.343
 1332SOL    HW1 4895   2.036   5.726   0.279
 1332SOL    HW2 4896   1.974   5.683   0.424
 1333SOL     OW 4897   3.635   4.088   2.901
 1333SOL    HW1 4898   3.538   4.111   2.888
 1333SOL    HW2 4899   3.660   4.103   2.996
 1334SOL     OW 4900   6.582   3.427   1.781
 1334SOL    HW1 4901   6.585   3.433   1.880
 1334SOL    HW2 4902   6.594   3.519   1.742
 1335SOL     OW 4903   0.734   3.334   3.330
 1335SOL    HW1 4904   0.827   3.361   3.356
 1335SOL    HW2 4905   0.710   3.376   3.243
 1336SOL     OW 4906   2.205   0.149   5.534
 1336SOL    HW1 4907   2.258   0.167   5.616
 1336SOL    HW2 4908   2.135   0.220   5.523
 1337SOL     OW 4909   6.851   6.738   2.590
 1337SOL    HW1 4910   6.790   6.781   2.523
 1337SOL    HW2 4911   6.912   6.807   2.628
 1338SOL     OW 4912   6.544   3.836   5.227
 1338SOL    HW1 4913   6.625   3.845   5.284
 1338SOL    HW2 4914   6.464   3.873   5.276
 1339SOL     OW 4915   6.149   0.391   6.998
 1339SOL    HW1 4916   6.089   0.331   6.945
 1339SOL    HW2 4917   6.245   0.367   6.980
 1340SOL     OW 4918   3.718   2.599   1.403
 1340SOL    HW1 4919   3.767   2.668   1.456
 1340SOL    HW2 4920   3.706   2.632   1.309
 1341SOL     OW 4921   4.910   6.045   6.693
 1341SOL    HW1 4922   5.001   6.006   6.681
 1341SOL    HW2 4923   4.916   6.128   6.747
 1342SOL     OW 4924   1.612   6.229   1.344
 1342SOL    HW1 4925   1.706   6.220   1.311
 1342SOL    HW2 4926   1.603   6.185   1.433
 1343SOL     OW 4927   5.438   5.729   2.885
 1343SOL    HW1 4928   5.533   5.698   2.882
 1343SOL    HW2 4929   5.426   5.804   2.820
 1344SOL     OW 4930   1.004   0.689   4.419
 1344SOL    HW1 4931   1.000   0.629   4.339
 1344SOL    HW2 4932   1.090   0.741   4.417
 1345SOL     OW 4933   1.118   6.840   6.869
 1345SOL    HW1 4934   1.062   6.761   6.891
 1345SOL    HW2 4935   1.172   6.867   6.949
 1346SOL     OW 4936   3.145   5.236   4.325
 1346SOL    HW1 4937   3.173   5.209   4.418
 1346SOL    HW2 4938   3.106   5.157   4.278
 1347SOL     OW 4939   1.626   0.687   6.540
 1347SOL    HW1 4940   1.654   0.671   6.635
 1347SOL    HW2 4941   1.526   0.681   6.533
 1348SOL     OW 4942   1.012   6.165   4.997
 1348SOL    HW1 4943   0.948   6.090   4.981
 1348SOL    HW2 4944   0.967   6.235   5.053
 1349SOL     OW 4945   5.151   3.372   4.292
 1349SOL    HW1 4946   5.147   3.341   4.387
 1349SOL    HW2 4947   5.066   3.419   4.268
 1350SOL     OW 4948   4.611   4.701   0.031
 1350SOL    HW1 4949   4.531   4.652   7.012
 1350SOL    HW2 4950   4.686   4.636   0.047
 1351SOL     OW 4951   6.982   2.646   6.110
 1351SOL    HW1 4952   6.904   2.706   6.128
 1351SOL    HW2 4953   6.949   2.554   6.091
 1352SOL     OW 4954   0.259   0.905   3.205
 1352SOL    HW1 4955   0.245   0.834   3.136
 1352SOL    HW2 4956   0.192   0.896   3.278
 1353SOL     OW 4957   0.088   0.795   0.449
 1353SOL    HW1 4958   0.132   0.870   0.400
 1353SOL    HW2 4959   7.010   0.820   0.470
 1354SOL     OW 4960   4.647   5.216   2.368
 1354SOL    HW1 4961   4.550   5.209   2.343
 1354SOL    HW2 4962   4.681   5.307   2.345
 1355SOL     OW 4963   4.753   3.169   5.366
 1355SOL    HW1 4964   4.734   3.265   5.381
 1355SOL    HW2 4965   4.767   3.152   5.268
 1356SOL     OW 4966   2.875   3.427   0.269
 1356SOL    HW1 4967   2.792   3.437   0.324
 1356SOL    HW2 4968   2.880   3.500   0.201
 1357SOL     OW 4969   1.253   2.556   5.688
 1357SOL    HW1 4970   1.206   2.644   5.694
 1357SOL    HW2 4971   1.343   2.570   5.645
 1358SOL     OW 4972   1.981   6.814   0.093
 1358SOL    HW1 4973   1.915   6.781   0.161
 1358SOL    HW2 4974   1.961   6.910   0.071
 1359SOL     OW 4975   6.263   3.927   1.054
 1359SOL    HW1 4976   6.259   4.023   1.025
 1359SOL    HW2 4977   6.212   3.916   1.139
 1360SOL     OW 4978   2.205   2.796   0.234
 1360SOL    HW1 4979   2.132   2.857   0.265
 1360SOL    HW2 4980   2.272   2.784   0.308
 1361SOL     OW 4981   6.636   4.467   4.943
 1361SOL    HW1 4982   6.726   4.509   4.930
 1361SOL    HW2 4983   6.647   4.376   4.982
 1362SOL     OW 4984   3.116   3.638   2.977
 1362SOL    HW1 4985   3.198   3.688   2.951
 1362SOL    HW2 4986   3.075   3.679   3.058
 1363SOL     OW 4987   0.959   6.293   4.361
 1363SOL    HW1 4988   0.919   6.313   4.450
 1363SOL    HW2 4989   0.993   6.377   4.320
 1364SOL     OW 4990   4.684   4.131   0.644
 1364SOL    HW1 4991   4.617   4.132   0.718
 1364SOL    HW2 4992   4.776   4.143   0.682
 1365SOL     OW 4993   6.456   2.938   6.499
 1365SOL    HW1 4994   6.443   3.030   6.537
 1365SOL    HW2 4995   6.410   2.871   6.558
 1366SOL     OW 4996   2.574   0.109   5.720
 1366SOL    HW1 4997   2.535   0.200   5.730
 1366SOL    HW2 4998   2.645   0.110   5.650
 1367SOL     OW 4999   2.693   1.482   2.042
 1367SOL    HW1 5000   2.731   1.508   1.953
 1367SOL    HW2 5001   2.640   1.558   2.079
 1368SOL     OW 5002   5.880   6.537   3.352
 1368SOL    HW1 5003   5.977   6.533   3.376
 1368SOL    HW2 5004   5.853   6.450   3.310
 1369SOL     OW 5005   1.136   0.577   2.630
 1369SOL    HW1 5006   1.223   0.617   2.658
 1369SOL    HW2 5007   1.147   0.479   2.615
 1370SOL     OW 5008   2.595   1.015   1.761
 1370SOL    HW1 5009   2.553   0.924   1.765
 1370SOL    HW2 5010   2.586   1.059   1.851
 1371SOL     OW 5011   3.558   0.180   6.296
 1371SOL    HW1 5012   3.479   0.144   6.346
 1371SOL    HW2 5013   3.540   0.275   6.270
 1372SOL     OW 5014   2.772   2.076   1.990
 1372SOL    HW1 5015   2.675   2.091   2.008
 1372SOL    HW2 5016   2.823   2.160   2.005
 1373SOL     OW 5017   1.624   5.767   6.707
 1373SOL    HW1 5018   1.597   5.786   6.801
 1373SOL    HW2 5019   1.567   5.693   6.670
 1374SOL     OW 5020   5.271   4.267   0.314
 1374SOL    HW1 5021   5.171   4.267   0.321
 1374SOL    HW2 5022   5.306   4.354   0.351
 1375SOL     OW 5023   1.266   4.452   5.189
 1375SOL    HW1 5024   1.321   4.415   5.113
 1375SOL    HW2 5025   1.314   4.529   5.230
 1376SOL     OW 5026   5.026   0.852   2.419
 1376SOL    HW1 5027   4.998   0.810   2.506
 1376SOL    HW2 5028   5.008   0.950   2.422
 1377SOL     OW 5029   0.935   4.699   4.519
 1377SOL    HW1 5030   0.921   4.682   4.422
 1377SOL    HW2 5031   0.911   4.617   4.571
 1378SOL     OW 5032   2.038   2.985   6.910
 1378SOL    HW1 5033   1.989   2.907   6.948
 1378SOL    HW2 5034   1.995   3.014   6.825
 1379SOL     OW 5035   4.111   6.193   1.239
 1379SOL    HW1 5036   4.140   6.118   1.297
 1379SOL    HW2 5037   4.023   6.228   1.270
 1380SOL     OW 5038   5.866   5.107   2.983
 1380SOL    HW1 5039   5.907   5.173   3.045
 1380SOL    HW2 5040   5.870   5.016   3.023
 1381SOL     OW 5041   5.744   6.685   2.049
 1381SOL    HW1 5042   5.698   6.759   2.099
 1381SOL    HW2 5043   5.839   6.711   2.031
 1382SOL     OW 5044   0.126   4.120   6.481
 1382SOL    HW1 5045   0.157   4.202   6.528
 1382SOL    HW2 5046   0.188   4.099   6.405
 1383SOL     OW 5047   2.447   0.305   0.279
 1383SOL    HW1 5048   2.437   0.206   0.265
 1383SOL    HW2 5049   2.505   0.342   0.207
 1384SOL     OW 5050   2.171   2.094   2.304
 1384SOL    HW1 5051   2.230   2.097   2.385
 1384SOL    HW2 5052   2.112   2.013   2.310
 1385SOL     OW 5053   5.165   3.179   4.090
 1385SOL    HW1 5054   5.078   3.169   4.043
 1385SOL    HW2 5055   5.162   3.260   4.148
 1386SOL     OW 5056   2.125   3.060   3.707
 1386SOL    HW1 5057   2.182   3.108   3.775
 1386SOL    HW2 5058   2.173   3.056   3.620
 1387SOL     OW 5059   2.921   0.364   4.233
 1387SOL    HW1 5060   2.925   0.342   4.135
 1387SOL    HW2 5061   2.872   0.450   4.245
 1388SOL     OW 5062   5.596   1.581   3.913
 1388SOL    HW1 5063   5.599   1.483   3.936
 1388SOL    HW2 5064   5.655   1.599   3.834
 1389SOL     OW 5065   6.699   0.343   3.528
 1389SOL    HW1 5066   6.651   0.403   3.592
 1389SOL    HW2 5067   6.754   0.277   3.578
 1390SOL     OW 5068   4.617   2.651   2.784
 1390SOL    HW1 5069   4.546   2.713   2.749
 1390SOL    HW2 5070   4.697   2.705   2.812
 1391SOL     OW 5071   5.559   1.034   4.530
 1391SOL    HW1 5072   5.510   1.118   4.553
 1391SOL    HW2 5073   5.558   0.972   4.609
 1392SOL     OW 5074   4.305   6.451   5.839
 1392SOL    HW1 5075   4.254   6.414   5.762
 1392SOL    HW2 5076   4.305   6.551   5.834
 1393SOL     OW 5077   4.664   0.095   0.152
 1393SOL    HW1 5078   4.636   0.188   0.178
 1393SOL    HW2 5079   4.582   0.039   0.137
 1394SOL     OW 5080   4.245   6.920   4.162
 1394SOL    HW1 5081   4.165   6.896   4.108
 1394SOL    HW2 5082   4.269   7.016   4.144
 1395SOL     OW 5083   0.240   5.220   2.464
 1395SOL    HW1 5084   0.146   5.189   2.476
 1395SOL    HW2 5085   0.253   5.308   2.510
 1396SOL     OW 5086   0.939   2.018   3.486
 1396SOL    HW1 5087   0.863   1.988   3.544
 1396SOL    HW2 5088   0.916   2.105   3.442
 1397SOL     OW 5089   1.776   5.086   4.969
 1397SOL    HW1 5090   1.687   5.070   5.012
 1397SOL    HW2 5091   1.847   5.038   5.021
 1398SOL     OW 5092   2.175   7.001   6.543
 1398SOL    HW1 5093   2.180   6.941   6.622
 1398SOL    HW2 5094   2.217   0.073   6.565
 1399SOL     OW 5095   3.649   0.457   0.105
 1399SOL    HW1 5096   3.646   0.457   0.205
 1399SOL    HW2 5097   3.692   0.541   0.073
 1400SOL     OW 5098   0.234   0.446   5.428
 1400SOL    HW1 5099   0.273   0.412   5.514
 1400SOL    HW2 5100   0.246   0.545   5.423
 1401SOL     OW 5101   5.612   0.083   1.931
 1401SOL    HW1 5102   5.629   0.178   1.958
 1401SOL    HW2 5103   5.674   0.057   1.858
 1402SOL     OW 5104   6.228   4.480   2.264
 1402SOL    HW1 5105   6.207   4.513   2.172
 1402SOL    HW2 5106   6.248   4.557   2.324
 1403SOL     OW 5107   2.977   3.647   6.163
 1403SOL    HW1 5108   2.952   3.551   6.170
 1403SOL    HW2 5109   2.896   3.701   6.141
 1404SOL     OW 5110   3.661   6.590   0.622
 1404SOL    HW1 5111   3.579   6.575   0.678
 1404SOL    HW2 5112   3.698   6.501   0.594
 1405SOL     OW 5113   0.990   3.515   0.419
 1405SOL    HW1 5114   0.919   3.509   0.349
 1405SOL    HW2 5115   1.079   3.496   0.377
 1406SOL     OW 5116   2.565   2.583   6.858
 1406SOL    HW1 5117   2.472   2.621   6.850
 1406SOL    HW2 5118   2.609   2.619   6.940
 1407SOL     OW 5119   0.542   2.198   0.894
 1407SOL    HW1 5120   0.588   2.197   0.805
 1407SOL    HW2 5121   0.511   2.291   0.914
 1408SOL     OW 5122   4.987   6.298   0.620
 1408SOL    HW1 5123   4.980   6.284   0.521
 1408SOL    HW2 5124   5.079   6.332   0.643
 1409SOL     OW 5125   6.092   1.640   5.757
 1409SOL    HW1 5126   6.076   1.733   5.789
 1409SOL    HW2 5127   6.153   1.642   5.678
 1410SOL     OW 5128   2.952   0.987   0.439
 1410SOL    HW1 5129   3.038   0.935   0.442
 1410SOL    HW2 5130   2.880   0.931   0.398
 1411SOL     OW 5131   3.613   5.282   6.921
 1411SOL    HW1 5132   3.679   5.209   6.940
 1411SOL    HW2 5133   3.660   5.357   6.875
 1412SOL     OW 5134   2.098   2.150   6.859
 1412SOL    HW1 5135   2.133   2.242   6.880
 1412SOL    HW2 5136   2.020   2.158   6.797
 1413SOL     OW 5137   2.441   1.505   5.383
 1413SOL    HW1 5138   2.517   1.444   5.361
 1413SOL    HW2 5139   2.436   1.518   5.482
 1414SOL     OW 5140   0.227   4.961   2.094
 1414SOL    HW1 5141   0.289   4.904   2.147
 1414SOL    HW2 5142   0.216   4.923   2.002
 1415SOL     OW 5143   3.945   1.724   5.108
 1415SOL    HW1 5144   3.927   1.708   5.011
 1415SOL    HW2 5145   3.950   1.822   5.126
 1416SOL     OW 5146   4.612   0.444   4.981
 1416SOL    HW1 5147   4.568   0.450   4.891
 1416SOL    HW2 5148   4.708   0.469   4.973
 1417SOL     OW 5149   3.324   3.306   4.228
 1417SOL    HW1 5150   3.406   3.285   4.174
 1417SOL    HW2 5151   3.350   3.317   4.324
 1418SOL     OW 5152   2.935   3.456   5.112
 1418SOL    HW1 5153   2.884   3.527   5.160
 1418SOL    HW2 5154   2.913   3.367   5.153
 1419SOL     OW 5155   1.147   6.148   2.220
 1419SOL    HW1 5156   1.121   6.128   2.125
 1419SOL    HW2 5157   1.100   6.085   2.282
 1420SOL     OW 5158   2.815   6.052   3.113
 1420SOL    HW1 5159   2.890   6.114   3.137
 1420SOL    HW2 5160   2.765   6.026   3.195
 1421SOL     OW 5161   1.851   5.429   0.309
 1421SOL    HW1 5162   1.907   5.508   0.336
 1421SOL    HW2 5163   1.897   5.378   0.236
 1422SOL     OW 5164   1.665   3.798   6.975
 1422SOL    HW1 5165   1.733   3.838   6.913
 1422SOL    HW2 5166   1.665   3.848   0.045
 1423SOL     OW 5167   4.641   0.995   4.719
 1423SOL    HW1 5168   4.570   1.017   4.786
 1423SOL    HW2 5169   4.617   1.034   4.630
 1424SOL     OW 5170   6.283   2.425   1.448
 1424SOL    HW1 5171   6.314   2.519   1.439
 1424SOL    HW2 5172   6.205   2.410   1.387
 1425SOL     OW 5173   5.608   6.937   3.315
 1425SOL    HW1 5174   5.571   0.000   3.363
 1425SOL    HW2 5175   5.590   6.945   3.217
 1426SOL     OW 5176   3.764   1.036   0.840
 1426SOL    HW1 5177   3.773   1.115   0.902
 1426SOL    HW2 5178   3.772   1.068   0.746
 1427SOL     OW 5179   1.028   0.533   4.169
 1427SOL    HW1 5180   0.996   0.448   4.128
 1427SOL    HW2 5181   1.121   0.553   4.137
 1428SOL     OW 5182   2.124   3.837   3.852
 1428SOL    HW1 5183   2.126   3.870   3.946
 1428SOL    HW2 5184   2.144   3.913   3.789
 1429SOL     OW 5185   6.002   0.177   2.304
 1429SOL    HW1 5186   6.010   0.265   2.350
 1429SOL    HW2 5187   5.993   0.192   2.205
 1430SOL     OW 5188   2.223   4.080   4.480
 1430SOL    HW1 5189   2.275   4.049   4.401
 1430SOL    HW2 5190   2.128   4.096   4.454
 1431SOL     OW 5191   3.124   1.941   0.607
 1431SOL    HW1 5192   3.051   1.875   0.587
 1431SOL    HW2 5193   3.144   1.941   0.705
 1432SOL     OW 5194   4.625   0.407   3.291
 1432SOL    HW1 5195   4.638   0.341   3.217
 1432SOL    HW2 5196   4.531   0.442   3.288
 1433SOL     OW 5197   3.106   1.917   3.703
 1433SOL    HW1 5198   3.111   1.953   3.796
 1433SOL    HW2 5199   3.176   1.961   3.646
 1434SOL     OW 5200   5.195   3.559   0.828
 1434SOL    HW1 5201   5.194   3.629   0.900
 1434SOL    HW2 5202   5.269   3.494   0.846
 1435SOL     OW 5203   0.548   6.471   4.215
 1435SOL    HW1 5204   0.580   6.382   4.248
 1435SOL    HW2 5205   0.585   6.488   4.124
 1436SOL     OW 5206   5.225   0.566   0.395
 1436SOL    HW1 5207   5.221   0.605   0.487
 1436SOL    HW2 5208   5.276   0.480   0.397
 1437SOL     OW 5209   4.420   1.055   0.281
 1437SOL    HW1 5210   4.467   1.139   0.252
 1437SOL    HW2 5211   4.322   1.063   0.260
 1438SOL     OW 5212   2.303   0.163   2.771
 1438SOL    HW1 5213   2.338   0.077   2.808
 1438SOL    HW2 5214   2.218   0.146   2.722
 1439SOL     OW 5215   0.547   5.374   5.516
 1439SOL    HW1 5216   0.519   5.453   5.571
 1439SOL    HW2 5217   0.635   5.392   5.473
 1440SOL     OW 5218   3.893   3.034   2.136
 1440SOL    HW1 5219   3.825   3.019   2.064
 1440SOL    HW2 5220   3.960   2.960   2.135
 1441SOL     OW 5221   6.512   2.007   5.979
 1441SOL    HW1 5222   6.603   2.000   6.020
 1441SOL    HW2 5223   6.499   1.933   5.913
 1442SOL     OW 5224   4.907   6.301   0.345
 1442SOL    HW1 5225   4.807   6.295   0.337
 1442SOL    HW2 5226   4.936   6.395   0.330
 1443SOL     OW 5227   1.269   2.712   3.718
 1443SOL    HW1 5228   1.264   2.668   3.808
 1443SOL    HW2 5229   1.329   2.791   3.723
 1444SOL     OW 5230   5.337   6.455   4.922
 1444SOL    HW1 5231   5.302   6.465   5.015
 1444SOL    HW2 5232   5.278   6.392   4.871
 1445SOL     OW 5233   6.763   2.115   6.893
 1445SOL    HW1 5234   6.682   2.102   6.836
 1445SOL    HW2 5235   6.808   2.027   6.909
 1446SOL     OW 5236   3.891   5.684   1.533
 1446SOL    HW1 5237   3.839   5.769   1.522
 1446SOL    HW2 5238   3.934   5.660   1.446
 1447SOL     OW 5239   6.846   0.918   4.796
 1447SOL    HW1 5240   6.890   0.934   4.885
 1447SOL    HW2 5241   6.807   0.826   4.794
 1448SOL     OW 5242   5.422   0.496   6.963
 1448SOL    HW1 5243   5.329   0.484   6.929
 1448SOL    HW2 5244   5.481   0.527   6.889
 1449SOL     OW 5245   4.322   5.594   0.267
 1449SOL    HW1 5246   4.231   5.596   0.308
 1449SOL    HW2 5247   4.368   5.509   0.293
 1450SOL     OW 5248   5.973   1.573   3.927
 1450SOL    HW1 5249   6.063   1.530   3.919
 1450SOL    HW2 5250   5.954   1.592   4.024
 1451SOL     OW 5251   1.068   6.879   1.882
 1451SOL    HW1 5252   1.162   6.886   1.916
 1451SOL    HW2 5253   1.070   6.857   1.784
 1452SOL     OW 5254   3.338   0.425   5.878
 1452SOL    HW1 5255   3.311   0.515   5.911
 1452SOL    HW2 5256   3.317   0.356   5.948
 1453SOL     OW 5257   5.107   4.361   4.251
 1453SOL    HW1 5258   5.150   4.272   4.234
 1453SOL    HW2 5259   5.172   4.434   4.230
 1454SOL     OW 5260   5.268   3.917   1.255
 1454SOL    HW1 5261   5.284   4.014   1.235
 1454SOL    HW2 5262   5.344   3.863   1.221
 1455SOL     OW 5263   1.847   2.096   1.422
 1455SOL    HW1 5264   1.903   2.179   1.415
 1455SOL    HW2 5265   1.887   2.024   1.366
 1456SOL     OW 5266   5.905   5.545   5.298
 1456SOL    HW1 5267   5.933   5.481   5.226
 1456SOL    HW2 5268   5.867   5.493   5.374
 1457SOL     OW 5269   2.002   0.705   4.154
 1457SOL    HW1 5270   1.946   0.629   4.119
 1457SOL    HW2 5271   1.952   0.791   4.143
 1458SOL     OW 5272   0.469   5.395   6.831
 1458SOL    HW1 5273   0.414   5.474   6.806
 1458SOL    HW2 5274   0.565   5.422   6.838
 1459SOL     OW 5275   2.837   0.117   1.464
 1459SOL    HW1 5276   2.765   0.049   1.479
 1459SOL    HW2 5277   2.845   0.135   1.366
 1460SOL     OW 5278   0.350   0.062   6.897
 1460SOL    HW1 5279   0.273   0.124   6.882
 1460SOL    HW2 5280   0.431   0.116   6.924
 1461SOL     OW 5281   4.770   5.463   2.246
 1461SOL    HW1 5282   4.758   5.410   2.162
 1461SOL    HW2 5283   4.852   5.433   2.293
 1462SOL     OW 5284   5.433   0.122   5.184
 1462SOL    HW1 5285   5.499   0.197   5.183
 1462SOL    HW2 5286   5.466   0.049   5.124
 1463SOL     OW 5287   0.770   2.496   5.915
 1463SOL    HW1 5288   0.691   2.546   5.879
 1463SOL    HW2 5289   0.849   2.558   5.918
 1464SOL     OW 5290   0.707   0.671   1.357
 1464SOL    HW1 5291   0.715   0.594   1.421
 1464SOL    HW2 5292   0.697   0.756   1.409
 1465SOL     OW 5293   1.008   0.680   3.661
 1465SOL    HW1 5294   1.020   0.692   3.562
 1465SOL    HW2 5295   1.021   0.767   3.707
 1466SOL     OW 5296   5.853   5.357   4.714
 1466SOL    HW1 5297   5.863   5.259   4.702
 1466SOL    HW2 5298   5.837   5.401   4.625
 1467SOL     OW 5299   6.152   4.003   4.188
 1467SOL    HW1 5300   6.086   3.928   4.178
 1467SOL    HW2 5301   6.193   4.023   4.099
 1468SOL     OW 5302   4.551   0.346   2.456
 1468SOL    HW1 5303   4.630   0.296   2.421
 1468SOL    HW2 5304   4.469   0.289   2.447
 1469SOL     OW 5305   0.577   0.652   1.881
 1469SOL    HW1 5306   0.632   0.666   1.963
 1469SOL    HW2 5307   0.511   0.727   1.872
 1470SOL     OW 5308   7.004   6.938   2.691
 1470SOL    HW1 5309   0.066   6.893   2.735
 1470SOL    HW2 5310   6.931   6.951   2.758
 1471SOL     OW 5311   5.686   1.042   1.225
 1471SOL    HW1 5312   5.598   1.054   1.271
 1471SOL    HW2 5313   5.760   1.059   1.289
 1472SOL     OW 5314   4.791   5.233   4.725
 1472SOL    HW1 5315   4.864   5.167   4.713
 1472SOL    HW2 5316   4.762   5.234   4.821
 1473SOL     OW 5317   6.239   3.541   3.515
 1473SOL    HW1 5318   6.300   3.560   3.437
 1473SOL    HW2 5319   6.293   3.513   3.594
 1474SOL     OW 5320   4.439   5.127   3.117
 1474SOL    HW1 5321   4.514   5.193   3.113
 1474SOL    HW2 5322   4.472   5.043   3.160
 1475SOL     OW 5323   6.225   6.543   3.305
 1475SOL    HW1 5324   6.181   6.616   3.254
 1475SOL    HW2 5325   6.325   6.551   3.298
 1476SOL     OW 5326   0.562   2.461   1.056
 1476SOL    HW1 5327   0.573   2.547   1.106
 1476SOL    HW2 5328   0.545   2.387   1.120
 1477SOL     OW 5329   2.684   6.453   4.109
 1477SOL    HW1 5330   2.655   6.541   4.072
 1477SOL    HW2 5331   2.733   6.402   4.038
 1478SOL     OW 5332   6.466   3.378   1.326
 1478SOL    HW1 5333   6.528   3.457   1.330
 1478SOL    HW2 5334   6.433   3.357   1.418
 1479SOL     OW 5335   1.100   5.423   0.313
 1479SOL    HW1 5336   1.101   5.385   0.406
 1479SOL    HW2 5337   1.005   5.436   0.284
 1480SOL     OW 5338   2.339   0.906   6.822
 1480SOL    HW1 5339   2.253   0.877   6.864
 1480SOL    HW2 5340   2.361   0.999   6.854
 1481SOL     OW 5341   0.923   3.559   6.919
 1481SOL    HW1 5342   0.903   3.464   6.896
 1481SOL    HW2 5343   0.885   3.619   6.848
 1482SOL     OW 5344   5.673   0.112   6.327
 1482SOL    HW1 5345   5.714   0.080   6.412
 1482SOL    HW2 5346   5.577   0.134   6.343
 1483SOL     OW 5347   6.255   1.884   6.530
 1483SOL    HW1 5348   6.318   1.841   6.466
 1483SOL    HW2 5349   6.294   1.883   6.622
 1484SOL     OW 5350   6.395   6.533   2.754
 1484SOL    HW1 5351   6.312   6.533   2.810
 1484SOL    HW2 5352   6.415   6.439   2.725
 1485SOL     OW 5353   5.571   3.256   4.053
 1485SOL    HW1 5354   5.495   3.211   4.007
 1485SOL    HW2 5355   5.536   3.317   4.124
 1486SOL     OW 5356   5.077   2.205   2.123
 1486SOL    HW1 5357   5.110   2.129   2.067
 1486SOL    HW2 5358   5.021   2.170   2.198
 1487SOL     OW 5359   6.682   0.069   5.540
 1487SOL    HW1 5360   6.710   6.990   5.526
 1487SOL    HW2 5361   6.706   0.098   5.632
 1488SOL     OW 5362   5.122   2.051   4.180
 1488SOL    HW1 5363   5.059   2.106   4.235
 1488SOL    HW2 5364   5.209   2.041   4.228
 1489SOL     OW 5365   3.921   5.285   4.705
 1489SOL    HW1 5366   3.864   5.365   4.723
 1489SOL    HW2 5367   3.896   5.211   4.769
 1490SOL     OW 5368   2.427   2.353   1.299
 1490SOL    HW1 5369   2.522   2.360   1.328
 1490SOL    HW2 5370   2.369   2.402   1.364
 1491SOL     OW 5371   0.244   2.452   5.143
 1491SOL    HW1 5372   0.236   2.363   5.187
 1491SOL    HW2 5373   0.234   2.441   5.044
 1492SOL     OW 5374   6.965   2.341   1.142
 1492SOL    HW1 5375   0.019   2.270   1.132
 1492SOL    HW2 5376   6.878   2.307   1.107
 1493SOL     OW 5377   5.999   2.467   5.499
 1493SOL    HW1 5378   6.021   2.550   5.549
 1493SOL    HW2 5379   5.904   2.443   5.514
 1494SOL     OW 5380   5.632   1.626   4.175
 1494SOL    HW1 5381   5.641   1.608   4.077
 1494SOL    HW2 5382   5.606   1.541   4.222
 1495SOL     OW 5383   1.277   3.712   2.149
 1495SOL    HW1 5384   1.366   3.743   2.115
 1495SOL    HW2 5385   1.268   3.614   2.133
 1496SOL     OW 5386   1.147   0.531   2.249
 1496SOL    HW1 5387   1.109   0.600   2.310
 1496SOL    HW2 5388   1.107   0.543   2.158
 1497SOL     OW 5389   5.142   5.344   5.592
 1497SOL    HW1 5390   5.146   5.423   5.531
 1497SOL    HW2 5391   5.048   5.312   5.598
 1498SOL     OW 5392   2.443   5.668   0.473
 1498SOL    HW1 5393   2.537   5.692   0.448
 1498SOL    HW2 5394   2.434   5.671   0.573
 1499SOL     OW 5395   0.901   4.091   4.624
 1499SOL    HW1 5396   0.817   4.051   4.660
 1499SOL    HW2 5397   0.907   4.187   4.650
 1500SOL     OW 5398   3.938   6.714   5.290
 1500SOL    HW1 5399   3.958   6.691   5.195
 1500SOL    HW2 5400   4.021   6.749   5.334
 1501SOL     OW 5401   3.673   0.747   0.791
 1501SOL    HW1 5402   3.720   0.812   0.851
 1501SOL    HW2 5403   3.630   0.675   0.846
 1502SOL     OW 5404   0.432   6.107   6.080
 1502SOL    HW1 5405   0.351   6.123   6.138
 1502SOL    HW2 5406   0.475   6.195   6.058
 1503SOL     OW 5407   3.594   4.277   5.708
 1503SOL    HW1 5408   3.622   4.206   5.644
 1503SOL    HW2 5409   3.494   4.274   5.721
 1504SOL     OW 5410   2.606   6.685   4.008
 1504SOL    HW1 5411   2.567   6.704   3.917
 1504SOL    HW2 5412   2.563   6.745   4.075
 1505SOL     OW 5413   5.049   0.139   2.585
 1505SOL    HW1 5414   4.984   0.141   2.662
 1505SOL    HW2 5415   5.132   0.188   2.610
 1506SOL     OW 5416   0.766   6.534   3.355
 1506SOL    HW1 5417   0.800   6.486   3.436
 1506SOL    HW2 5418   0.774   6.633   3.369
 1507SOL     OW 5419   2.225   2.403   6.869
 1507SOL    HW1 5420   2.196   2.430   6.961
 1507SOL    HW2 5421   2.289   2.471   6.833
 1508SOL     OW 5422   4.572   6.756   1.342
 1508SOL    HW1 5423   4.521   6.755   1.256
 1508SOL    HW2 5424   4.665   6.789   1.326
 1509SOL     OW 5425   5.540   1.702   6.450
 1509SOL    HW1 5426   5.619   1.659   6.494
 1509SOL    HW2 5427   5.570   1.750   6.368
 1510SOL     OW 5428   6.805   1.372   2.761
 1510SOL    HW1 5429   6.864   1.345   2.685
 1510SOL    HW2 5430   6.717   1.403   2.726
 1511SOL     OW 5431   1.446   2.675   0.239
 1511SOL    HW1 5432   1.464   2.696   0.335
 1511SOL    HW2 5433   1.495   2.740   0.181
 1512SOL     OW 5434   6.958   1.401   1.636
 1512SOL    HW1 5435   6.912   1.313   1.645
 1512SOL    HW2 5436   6.978   1.438   1.727
 1513SOL     OW 5437   3.025   0.586   2.921
 1513SOL    HW1 5438   2.999   0.517   2.853
 1513SOL    HW2 5439   3.046   0.672   2.875
 1514SOL     OW 5440   4.784   0.266   6.213
 1514SOL    HW1 5441   4.851   0.210   6.261
 1514SOL    HW2 5442   4.742   0.330   6.277
 1515SOL     OW 5443   5.415   4.906   5.520
 1515SOL    HW1 5444   5.399   5.003   5.542
 1515SOL    HW2 5445   5.390   4.850   5.598
 1516SOL     OW 5446   0.511   1.395   0.828
 1516SOL    HW1 5447   0.449   1.470   0.807
 1516SOL    HW2 5448   0.600   1.431   0.856
 1517SOL     OW 5449   2.916   5.769   3.128
 1517SOL    HW1 5450   2.874   5.686   3.091
 1517SOL    HW2 5451   2.857   5.848   3.110
 1518SOL     OW 5452   0.205   4.840   0.664
 1518SOL    HW1 5453   0.291   4.792   0.683
 1518SOL    HW2 5454   0.223   4.938   0.659
 1519SOL     OW 5455   0.451   4.015   0.792
 1519SOL    HW1 5456   0.539   4.027   0.746
 1519SOL    HW2 5457   0.386   4.083   0.756
 1520SOL     OW 5458   1.588   2.826   2.947
 1520SOL    HW1 5459   1.573   2.734   2.910
 1520SOL    HW2 5460   1.642   2.879   2.882
 1521SOL     OW 5461   2.555   4.585   5.121
 1521SOL    HW1 5462   2.521   4.509   5.066
 1521SOL    HW2 5463   2.654   4.593   5.110
 1522SOL     OW 5464   1.557   2.005   6.306
 1522SOL    HW1 5465   1.640   1.955   6.331
 1522SOL    HW2 5466   1.488   1.991   6.377
 1523SOL     OW 5467   5.705   1.546   1.096
 1523SOL    HW1 5468   5.729   1.489   1.018
 1523SOL    HW2 5469   5.762   1.521   1.174
 1524SOL     OW 5470   0.139   1.370   1.435
 1524SOL    HW1 5471   0.066   1.386   1.502
 1524SOL    HW2 5472   0.109   1.300   1.370
 1525SOL     OW 5473   4.802   1.520   6.026
 1525SOL    HW1 5474   4.741   1.594   5.997
 1525SOL    HW2 5475   4.748   1.448   6.069
 1526SOL     OW 5476   6.069   1.067   0.121
 1526SOL    HW1 5477   5.998   1.126   0.083
 1526SOL    HW2 5478   6.159   1.108   0.105
 1527SOL     OW 5479   3.083   1.771   6.116
 1527SOL    HW1 5480   3.036   1.713   6.050
 1527SOL    HW2 5481   3.165   1.725   6.149
 1528SOL     OW 5482   5.477   5.283   3.974
 1528SOL    HW1 5483   5.462   5.376   3.941
 1528SOL    HW2 5484   5.575   5.268   3.988
 1529SOL     OW 5485   2.044   6.983   5.667
 1529SOL    HW1 5486   2.083   7.002   5.756
 1529SOL    HW2 5487   2.080   0.031   5.599
 1530SOL     OW 5488   3.066   6.320   1.230
 1530SOL    HW1 5489   3.017   6.234   1.243
 1530SOL    HW2 5490   3.095   6.356   1.319
 1531SOL     OW 5491   5.806   0.392   6.304
 1531SOL    HW1 5492   5.812   0.444   6.389
 1531SOL    HW2 5493   5.761   0.304   6.322
 1532SOL     OW 5494   2.826   2.469   5.499
 1532SOL    HW1 5495   2.850   2.392   5.440
 1532SOL    HW2 5496   2.865   2.553   5.461
 1533SOL     OW 5497   4.631   2.864   0.213
 1533SOL    HW1 5498   4.601   2.791   0.152
 1533SOL    HW2 5499   4.591   2.951   0.183
 1534SOL     OW 5500   6.903   0.429   1.607
 1534SOL    HW1 5501   6.855   0.418   1.693
 1534SOL    HW2 5502   6.879   0.517   1.565
 1535SOL     OW 5503   5.182   4.506   4.676
 1535SOL    HW1 5504   5.128   4.473   4.599
 1535SOL    HW2 5505   5.157   4.601   4.696
 1536SOL     OW 5506   3.392   6.475   3.203
 1536SOL    HW1 5507   3.408   6.573   3.192
 1536SOL    HW2 5508   3.381   6.432   3.114
 1537SOL     OW 5509   3.118   5.592   4.615
 1537SOL    HW1 5510   3.159   5.507   4.648
 1537SOL    HW2 5511   3.189   5.659   4.594
 1538SOL     OW 5512   3.073   5.551   6.426
 1538SOL    HW1 5513   3.101   5.637   6.468
 1538SOL    HW2 5514   2.974   5.553   6.409
 1539SOL     OW 5515   2.864   6.430   1.794
 1539SOL    HW1 5516   2.840   6.482   1.876
 1539SOL    HW2 5517   2.785   6.425   1.733
 1540SOL     OW 5518   5.749   6.889   5.159
 1540SOL    HW1 5519   5.677   6.921   5.097
 1540SOL    HW2 5520   5.765   6.791   5.144
 1541SOL     OW 5521   5.073   1.579   1.113
 1541SOL    HW1 5522   5.094   1.663   1.062
 1541SOL    HW2 5523   4.974   1.561   1.107
 1542SOL     OW 5524   0.006   6.212   1.364
 1542SOL    HW1 5525   0.003   6.225   1.463
 1542SOL    HW2 5526   0.101   6.215   1.333
 1543SOL     OW 5527   3.670   3.378   3.405
 1543SOL    HW1 5528   3.599   3.448   3.398
 1543SOL    HW2 5529   3.647   3.302   3.344
 1544SOL     OW 5530   3.374   3.737   2.376
 1544SOL    HW1 5531   3.324   3.663   2.420
 1544SOL    HW2 5532   3.330   3.762   2.291
 1545SOL     OW 5533   0.133   0.208   4.830
 1545SOL    HW1 5534   0.068   0.140   4.864
 1545SOL    HW2 5535   0.116   0.224   4.732
 1546SOL     OW 5536   6.061   6.561   6.435
 1546SOL    HW1 5537   5.971   6.586   6.470
 1546SOL    HW2 5538   6.116   6.523   6.509
 1547SOL     OW 5539   3.324   5.467   6.995
 1547SOL    HW1 5540   3.346   5.381   0.025
 1547SOL    HW2 5541   3.336   5.456   6.896
 1548SOL     OW 5542   6.511   3.866   3.274
 1548SOL    HW1 5543   6.526   3.961   3.247
 1548SOL    HW2 5544   6.552   3.849   3.364
 1549SOL     OW 5545   0.028   2.201   0.556
 1549SOL    HW1 5546   0.013   2.111   0.516
 1549SOL    HW2 5547   0.071   2.261   0.489
 1550SOL     OW 5548   3.063   4.993   2.928
 1550SOL    HW1 5549   2.964   4.990   2.945
 1550SOL    HW2 5550   3.079   5.014   2.831
 1551SOL     OW 5551   0.429   2.291   1.260
 1551SOL    HW1 5552   0.497   2.234   1.305
 1551SOL    HW2 5553   0.392   2.358   1.324
 1552SOL     OW 5554   1.180   6.544   2.423
 1552SOL    HW1 5555   1.253   6.585   2.478
 1552SOL    HW2 5556   1.174   6.446   2.444
 1553SOL     OW 5557   5.445   0.892   6.086
 1553SOL    HW1 5558   5.492   0.850   6.164
 1553SOL    HW2 5559   5.374   0.954   6.120
 1554SOL     OW 5560   2.845   2.535   0.770
 1554SOL    HW1 5561   2.759   2.514   0.816
 1554SOL    HW2 5562   2.837   2.513   0.673
 1555SOL     OW 5563   3.771   1.259   0.370
 1555SOL    HW1 5564   3.787   1.210   0.285
 1555SOL    HW2 5565   3.785   1.357   0.356
 1556SOL     OW 5566   3.495   2.291   0.375
 1556SOL    HW1 5567   3.401   2.321   0.358
 1556SOL    HW2 5568   3.526   2.233   0.299
 1557SOL     OW 5569   1.749   2.872   0.345
 1557SOL    HW1 5570   1.666   2.875   0.401
 1557SOL    HW2 5571   1.767   2.778   0.317
 1558SOL     OW 5572   5.133   2.371   6.622
 1558SOL    HW1 5573   5.050   2.331   6.584
 1558SOL    HW2 5574   5.108   2.438   6.692
 1559SOL     OW 5575   2.635   6.408   3.781
 1559SOL    HW1 5576   2.632   6.502   3.815
 1559SOL    HW2 5577   2.572   6.399   3.704
 1560SOL     OW 5578   4.229   3.224   1.241
 1560SOL    HW1 5579   4.271   3.272   1.164
 1560SOL    HW2 5580   4.135   3.256   1.252
 1561SOL     OW 5581   5.469   6.031   1.022
 1561SOL    HW1 5582   5.378   6.072   1.016
 1561SOL    HW2 5583   5.460   5.931   1.022
 1562SOL     OW 5584   2.466   0.231   2.390
 1562SOL    HW1 5585   2.393   0.162   2.392
 1562SOL    HW2 5586   2.426   0.322   2.401
 1563SOL     OW 5587   1.765   3.300   3.808
 1563SOL    HW1 5588   1.798   3.282   3.715
 1563SOL    HW2 5589   1.780   3.218   3.865
 1564SOL     OW 5590   0.503   1.931   2.840
 1564SOL    HW1 5591   0.559   1.848   2.833
 1564SOL    HW2 5592   0.551   1.998   2.897
 1565SOL     OW 5593   4.730   1.858   5.534
 1565SOL    HW1 5594   4.672   1.901   5.603
 1565SOL    HW2 5595   4.817   1.908   5.528
 1566SOL     OW 5596   0.548   3.593   3.371
 1566SOL    HW1 5597   0.474   3.659   3.382
 1566SOL    HW2 5598   0.630   3.626   3.418
 1567SOL     OW 5599   5.655   0.458   4.854
 1567SOL    HW1 5600   5.557   0.465   4.867
 1567SOL    HW2 5601   5.696   0.412   4.933
 1568SOL     OW 5602   2.328   4.287   0.810
 1568SOL    HW1 5603   2.333   4.345   0.891
 1568SOL    HW2 5604   2.417   4.287   0.764
 1569SOL     OW 5605   2.258   1.295   2.856
 1569SOL    HW1 5606   2.214   1.380   2.828
 1569SOL    HW2 5607   2.210   1.218   2.816
 1570SOL     OW 5608   2.516   5.719   6.542
 1570SOL    HW1 5609   2.604   5.724   6.493
 1570SOL    HW2 5610   2.533   5.700   6.639
 1571SOL     OW 5611   6.701   2.534   4.204
 1571SOL    HW1 5612   6.623   2.483   4.240
 1571SOL    HW2 5613   6.732   2.599   4.273
 1572SOL     OW 5614   2.521   6.361   3.041
 1572SOL    HW1 5615   2.425   6.392   3.046
 1572SOL    HW2 5616   2.544   6.311   3.125
 1573SOL     OW 5617   5.316   5.417   0.347
 1573SOL    HW1 5618   5.382   5.492   0.347
 1573SOL    HW2 5619   5.287   5.398   0.253
 1574SOL     OW 5620   0.979   4.273   3.064
 1574SOL    HW1 5621   0.971   4.299   2.968
 1574SOL    HW2 5622   1.075   4.269   3.091
 1575SOL     OW 5623   6.792   2.342   0.441
 1575SOL    HW1 5624   6.741   2.314   0.522
 1575SOL    HW2 5625   6.879   2.383   0.469
 1576SOL     OW 5626   1.931   6.199   1.561
 1576SOL    HW1 5627   1.975   6.113   1.585
 1576SOL    HW2 5628   1.882   6.235   1.641
 1577SOL     OW 5629   4.866   5.725   3.702
 1577SOL    HW1 5630   4.947   5.734   3.759
 1577SOL    HW2 5631   4.846   5.628   3.687
 1578SOL     OW 5632   5.078   1.850   1.512
 1578SOL    HW1 5633   5.045   1.794   1.588
 1578SOL    HW2 5634   5.007   1.856   1.442
 1579SOL     OW 5635   1.919   3.132   1.928
 1579SOL    HW1 5636   1.942   3.229   1.915
 1579SOL    HW2 5637   1.897   3.116   2.024
 1580SOL     OW 5638   2.968   3.846   3.160
 1580SOL    HW1 5639   2.978   3.880   3.066
 1580SOL    HW2 5640   3.005   3.914   3.224
 1581SOL     OW 5641   5.682   4.189   4.767
 1581SOL    HW1 5642   5.638   4.190   4.856
 1581SOL    HW2 5643   5.612   4.189   4.695
 1582SOL     OW 5644   4.444   5.954   4.987
 1582SOL    HW1 5645   4.415   6.045   5.017
 1582SOL    HW2 5646   4.506   5.915   5.054
 1583SOL     OW 5647   1.483   5.355   5.542
 1583SOL    HW1 5648   1.494   5.421   5.468
 1583SOL    HW2 5649   1.539   5.383   5.620
 1584SOL     OW 5650   0.175   4.042   0.187
 1584SOL    HW1 5651   0.082   4.036   0.222
 1584SOL    HW2 5652   0.208   4.137   0.194
 1585SOL     OW 5653   5.259   6.503   4.237
 1585SOL    HW1 5654   5.272   6.522   4.140
 1585SOL    HW2 5655   5.161   6.509   4.259
 1586SOL     OW 5656   2.714   5.920   3.344
 1586SOL    HW1 5657   2.656   5.874   3.411
 1586SOL    HW2 5658   2.810   5.911   3.372
 1587SOL     OW 5659   3.010   6.574   6.823
 1587SOL    HW1 5660   2.953   6.518   6.763
 1587SOL    HW2 5661   3.010   6.536   6.915
 1588SOL     OW 5662   6.357   2.058   3.227
 1588SOL    HW1 5663   6.361   2.158   3.225
 1588SOL    HW2 5664   6.265   2.028   3.202
 1589SOL     OW 5665   6.991   2.614   4.741
 1589SOL    HW1 5666   7.009   2.686   4.809
 1589SOL    HW2 5667   6.923   2.647   4.675
 1590SOL     OW 5668   5.659   0.923   3.408
 1590SOL    HW1 5669   5.633   0.862   3.333
 1590SOL    HW2 5670   5.678   0.868   3.489
 1591SOL     OW 5671   0.760   5.514   0.537
 1591SOL    HW1 5672   0.715   5.442   0.590
 1591SOL    HW2 5673   0.797   5.476   0.453
 1592SOL     OW 5674   7.000   3.706   5.438
 1592SOL    HW1 5675   0.082   3.697   5.452
 1592SOL    HW2 5676   6.981   3.714   5.340
 1593SOL     OW 5677   3.860   5.954   1.396
 1593SOL    HW1 5678   3.804   6.037   1.400
 1593SOL    HW2 5679   3.956   5.978   1.412
 1594SOL     OW 5680   5.145   0.954   2.823
 1594SOL    HW1 5681   5.080   1.028   2.842
 1594SOL    HW2 5682   5.201   0.979   2.744
 1595SOL     OW 5683   0.909   3.108   6.561
 1595SOL    HW1 5684   0.918   3.044   6.638
 1595SOL    HW2 5685   0.814   3.138   6.554
 1596SOL     OW 5686   4.637   4.476   3.985
 1596SOL    HW1 5687   4.695   4.465   4.066
 1596SOL    HW2 5688   4.641   4.393   3.929
 1597SOL     OW 5689   3.361   5.658   0.187
 1597SOL    HW1 5690   3.337   5.625   0.096
 1597SOL    HW2 5691   3.459   5.645   0.202
 1598SOL     OW 5692   1.225   4.578   6.341
 1598SOL    HW1 5693   1.225   4.574   6.241
 1598SOL    HW2 5694   1.300   4.636   6.372
 1599SOL     OW 5695   4.846   5.456   3.617
 1599SOL    HW1 5696   4.784   5.379   3.608
 1599SOL    HW2 5697   4.939   5.423   3.635
 1600SOL     OW 5698   4.605   0.418   1.633
 1600SOL    HW1 5699   4.594   0.424   1.732
 1600SOL    HW2 5700   4.518   0.441   1.588
 1601SOL     OW 5701   6.420   0.765   4.612
 1601SOL    HW1 5702   6.504   0.774   4.558
 1601SOL    HW2 5703   6.410   0.845   4.671
 1602SOL     OW 5704   4.497   5.529   3.516
 1602SOL    HW1 5705   4.552   5.556   3.437
 1602SOL    HW2 5706   4.540   5.452   3.562
 1603SOL     OW 5707   3.053   4.916   2.106
 1603SOL    HW1 5708   2.958   4.913   2.074
 1603SOL    HW2 5709   3.114   4.882   2.034
 1604SOL     OW 5710   4.307   5.114   2.596
 1604SOL    HW1 5711   4.347   5.147   2.511
 1604SOL    HW2 5712   4.375   5.120   2.669
 1605SOL     OW 5713   4.697   5.218   0.330
 1605SOL    HW1 5714   4.735   5.230   0.238
 1605SOL    HW2 5715   4.706   5.304   0.381
 1606SOL     OW 5716   3.038   5.951   4.990
 1606SOL    HW1 5717   2.980   5.889   5.043
 1606SOL    HW2 5718   3.134   5.934   5.012
 1607SOL     OW 5719   4.670   4.260   3.835
 1607SOL    HW1 5720   4.695   4.257   3.738
 1607SOL    HW2 5721   4.633   4.171   3.863
 1608SOL     OW 5722   5.726   2.740   3.723
 1608SOL    HW1 5723   5.644   2.793   3.741
 1608SOL    HW2 5724   5.700   2.651   3.684
 1609SOL     OW 5725   1.879   0.331   0.662
 1609SOL    HW1 5726   1.920   0.333   0.754
 1609SOL    HW2 5727   1.813   0.406   0.654
 1610SOL     OW 5728   5.555   6.580   0.731
 1610SOL    HW1 5729   5.575   6.485   0.757
 1610SOL    HW2 5730   5.503   6.580   0.645
 1611SOL     OW 5731   1.277   4.179   0.115
 1611SOL    HW1 5732   1.264   4.080   0.120
 1611SOL    HW2 5733   1.282   4.217   0.208
 1612SOL     OW 5734   4.741   1.124   2.488
 1612SOL    HW1 5735   4.754   1.025   2.498
 1612SOL    HW2 5736   4.828   1.167   2.463
 1613SOL     OW 5737   0.324   5.794   2.882
 1613SOL    HW1 5738   0.349   5.781   2.978
 1613SOL    HW2 5739   0.323   5.892   2.861
 1614SOL     OW 5740   6.753   1.249   5.802
 1614SOL    HW1 5741   6.742   1.150   5.817
 1614SOL    HW2 5742   6.835   1.264   5.747
 1615SOL     OW 5743   6.882   3.655   5.742
 1615SOL    HW1 5744   6.980   3.633   5.734
 1615SOL    HW2 5745   6.870   3.754   5.740
 1616SOL     OW 5746   0.511   1.033   3.697
 1616SOL    HW1 5747   0.492   0.939   3.723
 1616SOL    HW2 5748   0.430   1.072   3.652
 1617SOL     OW 5749   6.642   5.482   3.523
 1617SOL    HW1 5750   6.695   5.404   3.556
 1617SOL    HW2 5751   6.694   5.531   3.454
 1618SOL     OW 5752   3.516   5.565   2.940
 1618SOL    HW1 5753   3.492   5.523   3.027
 1618SOL    HW2 5754   3.615   5.575   2.933
 1619SOL     OW 5755   1.056   3.938   6.470
 1619SOL    HW1 5756   1.094   3.900   6.554
 1619SOL    HW2 5757   1.126   3.992   6.423
 1620SOL     OW 5758   3.590   6.875   4.184
 1620SOL    HW1 5759   3.635   6.917   4.105
 1620SOL    HW2 5760   3.491   6.888   4.176
 1621SOL     OW 5761   4.615   5.670   0.669
 1621SOL    HW1 5762   4.715   5.667   0.677
 1621SOL    HW2 5763   4.588   5.740   0.604
 1622SOL     OW 5764   6.304   4.338   4.285
 1622SOL    HW1 5765   6.374   4.397   4.326
 1622SOL    HW2 5766   6.296   4.357   4.188
 1623SOL     OW 5767   0.498   2.637   3.669
 1623SOL    HW1 5768   0.587   2.592   3.662
 1623SOL    HW2 5769   0.426   2.569   3.681
 1624SOL     OW 5770   3.651   3.119   0.435
 1624SOL    HW1 5771   3.637   3.104   0.533
 1624SOL    HW2 5772   3.651   3.217   0.416
 1625SOL     OW 5773   0.673   6.574   0.368
 1625SOL    HW1 5774   0.600   6.578   0.299
 1625SOL    HW2 5775   0.708   6.480   0.374
 1626SOL     OW 5776   2.631   1.862   1.794
 1626SOL    HW1 5777   2.560   1.922   1.758
 1626SOL    HW2 5778   2.718   1.883   1.749
 1627SOL     OW 5779   4.033   2.091   5.777
 1627SOL    HW1 5780   4.026   2.173   5.835
 1627SOL    HW2 5781   4.122   2.092   5.730
 1628SOL     OW 5782   5.201   6.551   0.895
 1628SOL    HW1 5783   5.272   6.617   0.920
 1628SOL    HW2 5784   5.243   6.474   0.848
 1629SOL     OW 5785   1.717   7.004   3.507
 1629SOL    HW1 5786   1.764   0.067   3.468
 1629SOL    HW2 5787   1.658   0.018   3.582
 1630SOL     OW 5788   0.373   3.460   5.810
 1630SOL    HW1 5789   0.460   3.418   5.836
 1630SOL    HW2 5790   0.333   3.408   5.734
 1631SOL     OW 5791   5.839   2.834   0.629
 1631SOL    HW1 5792   5.886   2.790   0.553
 1631SOL    HW2 5793   5.789   2.765   0.682
 1632SOL     OW 5794   6.479   6.062   2.185
 1632SOL    HW1 5795   6.410   5.996   2.216
 1632SOL    HW2 5796   6.546   6.076   2.257
 1633SOL     OW 5797   5.463   3.675   4.784
 1633SOL    HW1 5798   5.368   3.660   4.756
 1633SOL    HW2 5799   5.509   3.587   4.796
 1634SOL     OW 5800   1.246   3.354   5.552
 1634SOL    HW1 5801   1.330   3.328   5.600
 1634SOL    HW2 5802   1.199   3.273   5.519
 1635SOL     OW 5803   3.314   0.462   3.847
 1635SOL    HW1 5804   3.314   0.505   3.757
 1635SOL    HW2 5805   3.221   0.461   3.884
 1636SOL     OW 5806   6.408   5.995   1.458
 1636SOL    HW1 5807   6.464   5.939   1.518
 1636SOL    HW2 5808   6.432   6.091   1.470
 1637SOL     OW 5809   1.484   1.574   2.814
 1637SOL    HW1 5810   1.444   1.522   2.739
 1637SOL    HW2 5811   1.583   1.583   2.800
 1638SOL     OW 5812   5.265   2.362   3.074
 1638SOL    HW1 5813   5.291   2.276   3.119
 1638SOL    HW2 5814   5.190   2.345   3.011
 1639SOL     OW 5815   4.710   2.223   2.082
 1639SOL    HW1 5816   4.627   2.215   2.026
 1639SOL    HW2 5817   4.736   2.319   2.089
 1640SOL     OW 5818   6.092   0.587   6.574
 1640SOL    HW1 5819   6.084   0.555   6.668
 1640SOL    HW2 5820   6.176   0.642   6.565
 1641SOL     OW 5821   6.300   1.524   3.067
 1641SOL    HW1 5822   6.295   1.446   3.130
 1641SOL    HW2 5823   6.306   1.608   3.120
 1642SOL     OW 5824   0.046   3.694   6.339
 1642SOL    HW1 5825   0.019   3.639   6.260
 1642SOL    HW2 5826   0.039   3.639   6.422
 1643SOL     OW 5827   1.796   5.450   3.370
 1643SOL    HW1 5828   1.866   5.489   3.310
 1643SOL    HW2 5829   1.712   5.503   3.361
 1644SOL     OW 5830   6.182   1.592   1.662
 1644SOL    HW1 5831   6.107   1.657   1.650
 1644SOL    HW2 5832   6.248   1.603   1.588
 1645SOL     OW 5833   2.532   0.736   5.065
 1645SOL    HW1 5834   2.497   0.810   5.009
 1645SOL    HW2 5835   2.602   0.685   5.014
 1646SOL     OW 5836   0.923   5.105   1.060
 1646SOL    HW1 5837   0.936   5.026   1.120
 1646SOL    HW2 5838   0.840   5.154   1.087
 1647SOL     OW 5839   6.193   3.149   4.865
 1647SOL    HW1 5840   6.265   3.180   4.803
 1647SOL    HW2 5841   6.208   3.189   4.956
 1648SOL     OW 5842   5.853   5.948   1.418
 1648SOL    HW1 5843   5.825   5.885   1.345
 1648SOL    HW2 5844   5.852   6.042   1.384
 1649SOL     OW 5845   3.634   1.668   3.079
 1649SOL    HW1 5846   3.705   1.606   3.046
 1649SOL    HW2 5847   3.638   1.674   3.178
 1650SOL     OW 5848   2.975   2.681   5.357
 1650SOL    HW1 5849   2.967   2.775   5.391
 1650SOL    HW2 5850   3.067   2.667   5.320
 1651SOL     OW 5851   1.000   2.139   4.142
 1651SOL    HW1 5852   0.956   2.049   4.145
 1651SOL    HW2 5853   1.066   2.141   4.066
 1652SOL     OW 5854   0.320   3.582   1.572
 1652SOL    HW1 5855   0.233   3.539   1.546
 1652SOL    HW2 5856   0.385   3.574   1.497
 1653SOL     OW 5857   0.312   4.137   1.692
 1653SOL    HW1 5858   0.299   4.038   1.698
 1653SOL    HW2 5859   0.409   4.157   1.680
 1654SOL     OW 5860   0.349   3.857   1.607
 1654SOL    HW1 5861   0.359   3.881   1.511
 1654SOL    HW2 5862   0.324   3.760   1.614
 1655SOL     OW 5863   0.367   0.854   5.834
 1655SOL    HW1 5864   0.290   0.803   5.873
 1655SOL    HW2 5865   0.355   0.952   5.851
 1656SOL     OW 5866   2.231   4.192   3.426
 1656SOL    HW1 5867   2.296   4.231   3.490
 1656SOL    HW2 5868   2.215   4.256   3.351
 1657SOL     OW 5869   0.593   0.451   5.820
 1657SOL    HW1 5870   0.584   0.359   5.860
 1657SOL    HW2 5871   0.686   0.463   5.785
 1658SOL     OW 5872   5.150   6.380   6.264
 1658SOL    HW1 5873   5.129   6.305   6.200
 1658SOL    HW2 5874   5.233   6.358   6.314
 1659SOL     OW 5875   4.071   6.841   5.659
 1659SOL    HW1 5876   4.076   6.814   5.755
 1659SOL    HW2 5877   3.982   6.814   5.621
 1660SOL     OW 5878   2.419   0.805   1.937
 1660SOL    HW1 5879   2.356   0.824   1.861
 1660SOL    HW2 5880   2.497   0.754   1.903
 1661SOL     OW 5881   4.718   4.148   2.743
 1661SOL    HW1 5882   4.735   4.053   2.716
 1661SOL    HW2 5883   4.698   4.203   2.662
 1662SOL     OW 5884   0.043   2.025   3.769
 1662SOL    HW1 5885   0.099   1.954   3.726
 1662SOL    HW2 5886   6.970   1.987   3.793
 1663SOL     OW 5887   5.504   3.771   1.147
 1663SOL    HW1 5888   5.565   3.847   1.125
 1663SOL    HW2 5889   5.440   3.757   1.071
 1664SOL     OW 5890   1.431   0.473   6.259
 1664SOL    HW1 5891   1.453   0.390   6.310
 1664SOL    HW2 5892   1.486   0.477   6.176
 1665SOL     OW 5893   2.711   4.083   6.341
 1665SOL    HW1 5894   2.778   4.035   6.398
 1665SOL    HW2 5895   2.758   4.128   6.265
 1666SOL     OW 5896   5.179   6.001   6.682
 1666SOL    HW1 5897   5.266   6.050   6.686
 1666SOL    HW2 5898   5.196   5.904   6.667
 1667SOL     OW 5899   0.160   5.597   0.436
 1667SOL    HW1 5900   0.126   5.554   0.352
 1667SOL    HW2 5901   0.087   5.598   0.504
 1668SOL     OW 5902   5.978   3.125   2.166
 1668SOL    HW1 5903   5.936   3.110   2.255
 1668SOL    HW2 5904   6.012   3.039   2.130
 1669SOL     OW 5905   6.802   2.816   5.884
 1669SOL    HW1 5906   6.830   2.869   5.964
 1669SOL    HW2 5907   6.882   2.793   5.829
 1670SOL     OW 5908   3.360   4.573   5.610
 1670SOL    HW1 5909   3.403   4.534   5.529
 1670SOL    HW2 5910   3.366   4.507   5.686
 1671SOL     OW 5911   5.993   2.216   0.487
 1671SOL    HW1 5912   5.894   2.226   0.492
 1671SOL    HW2 5913   6.022   2.139   0.545
 1672SOL     OW 5914   0.625   2.178   1.444
 1672SOL    HW1 5915   0.609   2.264   1.492
 1672SOL    HW2 5916   0.680   2.117   1.501
 1673SOL     OW 5917   1.508   0.408   4.453
 1673SOL    HW1 5918   1.442   0.335   4.435
 1673SOL    HW2 5919   1.490   0.448   4.542
 1674SOL     OW 5920   4.823   2.028   3.190
 1674SOL    HW1 5921   4.910   2.003   3.146
 1674SOL    HW2 5922   4.750   2.028   3.121
 1675SOL     OW 5923   5.506   0.269   1.575
 1675SOL    HW1 5924   5.445   0.317   1.639
 1675SOL    HW2 5925   5.591   0.322   1.565
 1676SOL     OW 5926   0.622   2.091   3.816
 1676SOL    HW1 5927   0.698   2.151   3.790
 1676SOL    HW2 5928   0.540   2.146   3.830
 1677SOL     OW 5929   3.383   3.353   3.054
 1677SOL    HW1 5930   3.352   3.259   3.071
 1677SOL    HW2 5931   3.303   3.413   3.049
 1678SOL     OW 5932   0.876   0.025   0.187
 1678SOL    HW1 5933   0.898   6.948   0.218
 1678SOL    HW2 5934   0.880   0.087   0.265
 1679SOL     OW 5935   6.276   1.243   0.030
 1679SOL    HW1 5936   6.263   1.332   0.073
 1679SOL    HW2 5937   6.246   1.247   6.951
 1680SOL     OW 5938   6.089   2.847   2.952
 1680SOL    HW1 5939   6.151   2.812   3.023
 1680SOL    HW2 5940   5.997   2.856   2.990
 1681SOL     OW 5941   3.776   6.224   4.625
 1681SOL    HW1 5942   3.812   6.306   4.580
 1681SOL    HW2 5943   3.828   6.206   4.708
 1682SOL     OW 5944   4.073   0.652   4.584
 1682SOL    HW1 5945   4.083   0.734   4.527
 1682SOL    HW2 5946   4.136   0.581   4.552
 1683SOL     OW 5947   6.817   2.653   3.191
 1683SOL    HW1 5948   6.907   2.679   3.225
 1683SOL    HW2 5949   6.805   2.689   3.098
 1684SOL     OW 5950   2.702   5.854   1.466
 1684SOL    HW1 5951   2.717   5.768   1.513
 1684SOL    HW2 5952   2.790   5.901   1.452
 1685SOL     OW 5953   6.958   1.261   5.595
 1685SOL    HW1 5954   6.926   1.175   5.556
 1685SOL    HW2 5955   6.899   1.335   5.563
 1686SOL     OW 5956   3.445   5.294   1.941
 1686SOL    HW1 5957   3.541   5.282   1.966
 1686SOL    HW2 5958   3.439   5.337   1.851
 1687SOL     OW 5959   4.902   4.026   1.217
 1687SOL    HW1 5960   4.829   4.069   1.271
 1687SOL    HW2 5961   4.977   4.090   1.205
 1688SOL     OW 5962   2.171   0.291   3.391
 1688SOL    HW1 5963   2.173   0.321   3.486
 1688SOL    HW2 5964   2.175   0.371   3.331
 1689SOL     OW 5965   3.772   0.686   1.850
 1689SOL    HW1 5966   3.696   0.622   1.838
 1689SOL    HW2 5967   3.779   0.712   1.947
 1690SOL     OW 5968   6.507   4.567   4.240
 1690SOL    HW1 5969   6.532   4.507   4.163
 1690SOL    HW2 5970   6.483   4.657   4.205
 1691SOL     OW 5971   4.205   2.658   5.459
 1691SOL    HW1 5972   4.278   2.601   5.498
 1691SOL    HW2 5973   4.191   2.632   5.363
 1692SOL     OW 5974   5.245   5.152   1.380
 1692SOL    HW1 5975   5.221   5.159   1.477
 1692SOL    HW2 5976   5.344   5.140   1.372
 1693SOL     OW 5977   5.214   6.858   6.020
 1693SOL    HW1 5978   5.172   6.909   6.095
 1693SOL    HW2 5979   5.143   6.826   5.957
 1694SOL     OW 5980   4.658   1.501   6.454
 1694SOL    HW1 5981   4.727   1.572   6.438
 1694SOL    HW2 5982   4.640   1.451   6.369
 1695SOL     OW 5983   4.080   0.704   5.579
 1695SOL    HW1 5984   4.014   0.629   5.588
 1695SOL    HW2 5985   4.075   0.742   5.487
 1696SOL     OW 5986   4.164   0.063   0.890
 1696SOL    HW1 5987   4.260   0.051   0.868
 1696SOL    HW2 5988   4.152   0.147   0.944
 1697SOL     OW 5989   4.759   2.776   1.894
 1697SOL    HW1 5990   4.743   2.778   1.993
 1697SOL    HW2 5991   4.721   2.859   1.853
 1698SOL     OW 5992   4.169   1.752   1.573
 1698SOL    HW1 5993   4.099   1.685   1.596
 1698SOL    HW2 5994   4.247   1.706   1.530
 1699SOL     OW 5995   1.653   0.705   0.739
 1699SOL    HW1 5996   1.750   0.683   0.725
 1699SOL    HW2 5997   1.640   0.804   0.732
 1700SOL     OW 5998   5.056   3.140   2.779
 1700SOL    HW1 5999   5.070   3.065   2.844
 1700SOL    HW2 6000   5.014   3.217   2.826
 1701SOL     OW 6001   0.886   5.579   4.663
 1701SOL    HW1 6002   0.873   5.480   4.666
 1701SOL    HW2 6003   0.963   5.601   4.603
 1702SOL     OW 6004   2.649   2.903   6.674
 1702SOL    HW1 6005   2.594   2.820   6.686
 1702SOL    HW2 6006   2.745   2.882   6.690
 1703SOL     OW 6007   1.337   2.223   1.946
 1703SOL    HW1 6008   1.429   2.244   1.914
 1703SOL    HW2 6009   1.338   2.212   2.046
 1704SOL     OW 6010   2.883   2.804   7.013
 1704SOL    HW1 6011   2.904   2.722   6.960
 1704SOL    HW2 6012   2.924   2.883   6.969
 1705SOL     OW 6013   4.941   3.153   0.995
 1705SOL    HW1 6014   4.908   3.241   1.029
 1705SOL    HW2 6015   4.978   3.165   0.903
 1706SOL     OW 6016   5.796   1.604   6.495
 1706SOL    HW1 6017   5.875   1.658   6.525
 1706SOL    HW2 6018   5.796   1.598   6.396
 1707SOL     OW 6019   4.139   1.335   2.166
 1707SOL    HW1 6020   4.203   1.274   2.118
 1707SOL    HW2 6021   4.178   1.360   2.254
 1708SOL     OW 6022   2.627   4.749   1.778
 1708SOL    HW1 6023   2.667   4.691   1.848
 1708SOL    HW2 6024   2.699   4.786   1.720
 1709SOL     OW 6025   5.123   4.878   0.995
 1709SOL    HW1 6026   5.039   4.827   1.013
 1709SOL    HW2 6027   5.118   4.921   0.905
 1710SOL     OW 6028   4.874   3.049   2.323
 1710SOL    HW1 6029   4.804   3.048   2.252
 1710SOL    HW2 6030   4.957   3.005   2.290
 1711SOL     OW 6031   3.940   5.755   0.077
 1711SOL    HW1 6032   3.854   5.775   0.030
 1711SOL    HW2 6033   3.934   5.665   0.120
 1712SOL     OW 6034   0.008   1.874   1.957
 1712SOL    HW1 6035   7.005   1.826   2.042
 1712SOL    HW2 6036   0.096   1.844   1.921
 1713SOL     OW 6037   2.394   1.771   2.508
 1713SOL    HW1 6038   2.475   1.829   2.498
 1713SOL    HW2 6039   2.373   1.728   2.421
 1714SOL     OW 6040   2.648   4.120   0.981
 1714SOL    HW1 6041   2.570   4.093   1.037
 1714SOL    HW2 6042   2.690   4.202   1.020
 1715SOL     OW 6043   0.708   5.701   0.802
 1715SOL    HW1 6044   0.795   5.737   0.835
 1715SOL    HW2 6045   0.720   5.605   0.775
 1716SOL     OW 6046   5.039   1.681   2.816
 1716SOL    HW1 6047   5.094   1.660   2.897
 1716SOL    HW2 6048   5.090   1.656   2.734
 1717SOL     OW 6049   4.034   6.266   3.848
 1717SOL    HW1 6050   3.957   6.202   3.855
 1717SOL    HW2 6051   4.119   6.219   3.871
 1718SOL     OW 6052   1.811   3.493   1.759
 1718SOL    HW1 6053   1.803   3.556   1.837
 1718SOL    HW2 6054   1.900   3.448   1.763
 1719SOL     OW 6055   1.665   5.578   2.847
 1719SOL    HW1 6056   1.614   5.494   2.828
 1719SOL    HW2 6057   1.687   5.624   2.761
 1720SOL     OW 6058   0.871   3.002   5.285
 1720SOL    HW1 6059   0.960   2.959   5.271
 1720SOL    HW2 6060   0.847   3.000   5.382
 1721SOL     OW 6061   2.176   2.618   0.037
 1721SOL    HW1 6062   2.203   2.687   0.102
 1721SOL    HW2 6063   2.108   2.557   0.078
 1722SOL     OW 6064   2.196   2.737   3.538
 1722SOL    HW1 6065   2.295   2.737   3.554
 1722SOL    HW2 6066   2.165   2.643   3.524
 1723SOL     OW 6067   5.550   4.485   1.131
 1723SOL    HW1 6068   5.640   4.492   1.173
 1723SOL    HW2 6069   5.491   4.427   1.187
 1724SOL     OW 6070   5.378   2.744   1.185
 1724SOL    HW1 6071   5.327   2.821   1.223
 1724SOL    HW2 6072   5.401   2.679   1.257
 1725SOL     OW 6073   2.157   6.469   5.882
 1725SOL    HW1 6074   2.228   6.468   5.952
 1725SOL    HW2 6075   2.197   6.441   5.794
 1726SOL     OW 6076   4.679   4.412   3.326
 1726SOL    HW1 6077   4.723   4.323   3.337
 1726SOL    HW2 6078   4.660   4.429   3.230
 1727SOL     OW 6079   3.721   3.828   2.874
 1727SOL    HW1 6080   3.819   3.820   2.856
 1727SOL    HW2 6081   3.695   3.925   2.875
 1728SOL     OW 6082   5.553   2.136   4.017
 1728SOL    HW1 6083   5.514   2.219   4.058
 1728SOL    HW2 6084   5.543   2.060   4.081
 1729SOL     OW 6085   1.192   2.295   2.752
 1729SOL    HW1 6086   1.132   2.257   2.822
 1729SOL    HW2 6087   1.276   2.241   2.747
 1730SOL     OW 6088   2.724   6.566   5.038
 1730SOL    HW1 6089   2.747   6.624   5.116
 1730SOL    HW2 6090   2.669   6.489   5.069
 1731SOL     OW 6091   4.893   4.494   4.122
 1731SOL    HW1 6092   4.952   4.432   4.174
 1731SOL    HW2 6093   4.860   4.567   4.182
 1732SOL     OW 6094   3.651   3.477   4.990
 1732SOL    HW1 6095   3.698   3.512   4.908
 1732SOL    HW2 6096   3.552   3.484   4.977
 1733SOL     OW 6097   1.644   2.381   6.512
 1733SOL    HW1 6098   1.546   2.403   6.508
 1733SOL    HW2 6099   1.690   2.445   6.573
 1734SOL     OW 6100   0.279   3.406   0.737
 1734SOL    HW1 6101   0.251   3.329   0.679
 1734SOL    HW2 6102   0.232   3.400   0.825
 1735SOL     OW 6103   3.205   5.320   6.260
 1735SOL    HW1 6104   3.209   5.324   6.160
 1735SOL    HW2 6105   3.156   5.400   6.294
 1736SOL     OW 6106   4.942   2.255   6.450
 1736SOL    HW1 6107   4.852   2.224   6.478
 1736SOL    HW2 6108   5.000   2.176   6.431
 1737SOL     OW 6109   3.003   0.861   5.877
 1737SOL    HW1 6110   2.950   0.842   5.959
 1737SOL    HW2 6111   2.949   0.838   5.796
 1738SOL     OW 6112   1.492   4.203   2.067
 1738SOL    HW1 6113   1.569   4.266   2.056
 1738SOL    HW2 6114   1.484   4.175   2.162
 1739SOL     OW 6115   4.989   5.563   2.946
 1739SOL    HW1 6116   5.065   5.628   2.948
 1739SOL    HW2 6117   4.937   5.570   3.031
 1740SOL     OW 6118   0.280   2.976   5.095
 1740SOL    HW1 6119   0.217   3.026   5.036
 1740SOL    HW2 6120   0.237   2.890   5.125
 1741SOL     OW 6121   0.886   2.903   4.831
 1741SOL    HW1 6122   0.885   3.002   4.851
 1741SOL    HW2 6123   0.801   2.862   4.863
 1742SOL     OW 6124   6.541   6.716   0.090
 1742SOL    HW1 6125   6.445   6.740   0.075
 1742SOL    HW2 6126   6.597   6.799   0.092
 1743SOL     OW 6127   1.669   2.420   1.494
 1743SOL    HW1 6128   1.617   2.335   1.487
 1743SOL    HW2 6129   1.607   2.498   1.482
 1744SOL     OW 6130   3.280   2.296   5.418
 1744SOL    HW1 6131   3.252   2.327   5.508
 1744SOL    HW2 6132   3.237   2.353   5.348
 1745SOL     OW 6133   6.791   6.864   0.561
 1745SOL    HW1 6134   6.705   6.842   0.608
 1745SOL    HW2 6135   6.814   6.790   0.498
 1746SOL     OW 6136   2.383   4.870   3.131
 1746SOL    HW1 6137   2.402   4.968   3.143
 1746SOL    HW2 6138   2.325   4.838   3.206
 1747SOL     OW 6139   4.071   0.103   2.424
 1747SOL    HW1 6140   4.108   0.010   2.420
 1747SOL    HW2 6141   4.085   0.147   2.335
 1748SOL     OW 6142   6.822   2.128   4.095
 1748SOL    HW1 6143   6.755   2.134   4.169
 1748SOL    HW2 6144   6.781   2.080   4.017
 1749SOL     OW 6145   6.514   4.970   1.861
 1749SOL    HW1 6146   6.588   5.036   1.845
 1749SOL    HW2 6147   6.456   4.964   1.780
 1750SOL     OW 6148   3.113   0.969   0.723
 1750SOL    HW1 6149   3.074   0.997   0.636
 1750SOL    HW2 6150   3.046   0.984   0.796
 1751SOL     OW 6151   5.354   4.015   4.994
 1751SOL    HW1 6152   5.271   4.045   4.946
 1751SOL    HW2 6153   5.334   3.933   5.048
 1752SOL     OW 6154   6.876   0.876   2.532
 1752SOL    HW1 6155   6.945   0.838   2.594
 1752SOL    HW2 6156   6.788   0.880   2.579
 1753SOL     OW 6157   6.874   2.136   1.623
 1753SOL    HW1 6158   6.870   2.099   1.530
 1753SOL    HW2 6159   6.913   2.067   1.685
 1754SOL     OW 6160   3.146   5.568   3.653
 1754SOL    HW1 6161   3.081   5.604   3.586
 1754SOL    HW2 6162   3.159   5.470   3.637
 1755SOL     OW 6163   6.582   0.329   5.165
 1755SOL    HW1 6164   6.600   0.315   5.262
 1755SOL    HW2 6165   6.654   0.286   5.111
 1756SOL     OW 6166   4.533   5.965   1.355
 1756SOL    HW1 6167   4.551   5.942   1.260
 1756SOL    HW2 6168   4.583   5.903   1.415
 1757SOL     OW 6169   2.807   4.819   5.237
 1757SOL    HW1 6170   2.821   4.813   5.336
 1757SOL    HW2 6171   2.821   4.730   5.195
 1758SOL     OW 6172   1.048   6.167   3.707
 1758SOL    HW1 6173   1.148   6.176   3.713
 1758SOL    HW2 6174   1.022   6.161   3.611
 1759SOL     OW 6175   1.046   5.397   6.964
 1759SOL    HW1 6176   0.981   5.472   6.958
 1759SOL    HW2 6177   0.998   5.310   6.951
 1760SOL     OW 6178   6.436   1.726   4.610
 1760SOL    HW1 6179   6.339   1.710   4.626
 1760SOL    HW2 6180   6.489   1.688   4.686
 1761SOL     OW 6181   5.310   1.370   3.319
 1761SOL    HW1 6182   5.373   1.300   3.352
 1761SOL    HW2 6183   5.359   1.434   3.260
 1762SOL     OW 6184   1.168   1.414   5.877
 1762SOL    HW1 6185   1.131   1.507   5.881
 1762SOL    HW2 6186   1.213   1.400   5.789
 1763SOL     OW 6187   1.537   5.234   3.133
 1763SOL    HW1 6188   1.632   5.206   3.145
 1763SOL    HW2 6189   1.523   5.325   3.173
 1764SOL     OW 6190   0.791   5.864   3.116
 1764SOL    HW1 6191   0.828   5.957   3.124
 1764SOL    HW2 6192   0.757   5.850   3.023
 1765SOL     OW 6193   5.528   4.068   2.314
 1765SOL    HW1 6194   5.551   4.165   2.313
 1765SOL    HW2 6195   5.437   4.055   2.355
 1766SOL     OW 6196   4.818   4.670   4.324
 1766SOL    HW1 6197   4.883   4.682   4.399
 1766SOL    HW2 6198   4.786   4.760   4.293
 1767SOL     OW 6199   0.628   4.988   1.535
 1767SOL    HW1 6200   0.583   4.973   1.447
 1767SOL    HW2 6201   0.699   4.920   1.548
 1768SOL     OW 6202   4.477   4.552   2.369
 1768SOL    HW1 6203   4.433   4.581   2.284
 1768SOL    HW2 6204   4.531   4.628   2.406
 1769SOL     OW 6205   5.175   0.140   1.162
 1769SOL    HW1 6206   5.198   0.061   1.105
 1769SOL    HW2 6207   5.193   0.118   1.258
 1770SOL     OW 6208   1.725   5.072   0.475
 1770SOL    HW1 6209   1.709   5.029   0.386
 1770SOL    HW2 6210   1.820   5.100   0.482
 1771SOL     OW 6211   1.647   2.786   6.644
 1771SOL    HW1 6212   1.554   2.787   6.607
 1771SOL    HW2 6213   1.681   2.880   6.649
 1772SOL     OW 6214   2.359   4.228   3.056
 1772SOL    HW1 6215   2.387   4.133   3.067
 1772SOL    HW2 6216   2.340   4.247   2.960
 1773SOL     OW 6217   2.328   6.230   5.058
 1773SOL    HW1 6218   2.315   6.329   5.063
 1773SOL    HW2 6219   2.424   6.210   5.040
 1774SOL     OW 6220   5.608   5.744   1.562
 1774SOL    HW1 6221   5.690   5.695   1.592
 1774SOL    HW2 6222   5.595   5.825   1.619
 1775SOL     OW 6223   1.186   5.935   0.390
 1775SOL    HW1 6224   1.170   6.012   0.328
 1775SOL    HW2 6225   1.241   5.865   0.343
 1776SOL     OW 6226   4.538   3.606   6.070
 1776SOL    HW1 6227   4.457   3.626   6.015
 1776SOL    HW2 6228   4.510   3.573   6.160
 1777SOL     OW 6229   4.345   6.303   6.988
 1777SOL    HW1 6230   4.355   6.371   0.044
 1777SOL    HW2 6231   4.386   6.337   6.903
 1778SOL     OW 6232   6.269   0.057   3.627
 1778SOL    HW1 6233   6.200   0.039   3.557
 1778SOL    HW2 6234   6.283   0.155   3.636
 1779SOL     OW 6235   5.759   0.382   4.366
 1779SOL    HW1 6236   5.800   0.438   4.294
 1779SOL    HW2 6237   5.761   0.432   4.452
 1780SOL     OW 6238   2.877   6.063   4.810
 1780SOL    HW1 6239   2.792   6.018   4.837
 1780SOL    HW2 6240   2.951   6.033   4.870
 1781SOL     OW 6241   4.163   0.935   5.689
 1781SOL    HW1 6242   4.124   0.857   5.641
 1781SOL    HW2 6243   4.238   0.973   5.635
 1782SOL     OW 6244   5.331   0.807   2.504
 1782SOL    HW1 6245   5.293   0.715   2.518
 1782SOL    HW2 6246   5.277   0.854   2.434
 1783SOL     OW 6247   1.801   4.048   6.587
 1783SOL    HW1 6248   1.785   4.147   6.594
 1783SOL    HW2 6249   1.899   4.030   6.595
 1784SOL     OW 6250   2.558   6.024   1.263
 1784SOL    HW1 6251   2.481   6.000   1.204
 1784SOL    HW2 6252   2.579   5.948   1.324
 1785SOL     OW 6253   1.749   5.989   4.260
 1785SOL    HW1 6254   1.672   6.048   4.238
 1785SOL    HW2 6255   1.793   6.022   4.344
 1786SOL     OW 6256   0.809   6.099   1.495
 1786SOL    HW1 6257   0.843   6.035   1.426
 1786SOL    HW2 6258   0.871   6.177   1.502
 1787SOL     OW 6259   2.102   2.478   5.626
 1787SOL    HW1 6260   2.138   2.535   5.699
 1787SOL    HW2 6261   2.160   2.486   5.545
 1788SOL     OW 6262   3.915   4.004   0.362
 1788SOL    HW1 6263   3.822   4.033   0.338
 1788SOL    HW2 6264   3.951   3.947   0.288
 1789SOL     OW 6265   5.679   2.959   2.056
 1789SOL    HW1 6266   5.661   2.894   2.130
 1789SOL    HW2 6267   5.773   2.948   2.024
 1790SOL     OW 6268   2.214   1.949   4.759
 1790SOL    HW1 6269   2.216   1.917   4.854
 1790SOL    HW2 6270   2.227   2.048   4.757
 1791SOL     OW 6271   5.742   0.355   3.842
 1791SOL    HW1 6272   5.698   0.444   3.847
 1791SOL    HW2 6273   5.789   0.335   3.928
 1792SOL     OW 6274   6.789   2.522   6.469
 1792SOL    HW1 6275   6.851   2.484   6.538
 1792SOL    HW2 6276   6.771   2.618   6.490
 1793SOL     OW 6277   0.033   1.330   4.910
 1793SOL    HW1 6278   0.102   1.399   4.889
 1793SOL    HW2 6279   0.075   1.239   4.910
 1794SOL     OW 6280   0.481   1.514   6.242
 1794SOL    HW1 6281   0.505   1.417   6.242
 1794SOL    HW2 6282   0.464   1.544   6.336
 1795SOL     OW 6283   5.231   4.693   0.811
 1795SOL    HW1 6284   5.324   4.663   0.827
 1795SOL    HW2 6285   5.185   4.710   0.898
 1796SOL     OW 6286   6.013   6.839   0.757
 1796SOL    HW1 6287   5.934   6.882   0.801
 1796SOL    HW2 6288   6.097   6.875   0.798
 1797SOL     OW 6289   3.094   5.891   5.651
 1797SOL    HW1 6290   3.171   5.894   5.587
 1797SOL    HW2 6291   3.104   5.964   5.719
 1798SOL     OW 6292   2.069   3.688   5.862
 1798SOL    HW1 6293   2.150   3.728   5.819
 1798SOL    HW2 6294   2.014   3.761   5.902
 1799SOL     OW 6295   3.405   1.456   2.163
 1799SOL    HW1 6296   3.437   1.375   2.115
 1799SOL    HW2 6297   3.464   1.534   2.141
 1800SOL     OW 6298   6.328   2.695   5.993
 1800SOL    HW1 6299   6.404   2.691   6.059
 1800SOL    HW2 6300   6.298   2.789   5.983
 1801SOL     OW 6301   0.253   1.307   2.763
 1801SOL    HW1 6302   0.221   1.238   2.828
 1801SOL    HW2 6303   0.278   1.390   2.812
 1802SOL     OW 6304   6.016   4.808   4.277
 1802SOL    HW1 6305   6.070   4.881   4.237
 1802SOL    HW2 6306   6.074   4.750   4.334
 1803SOL     OW 6307   0.267   0.111   4.399
 1803SOL    HW1 6308   0.324   0.169   4.341
 1803SOL    HW2 6309   0.191   0.074   4.344
 1804SOL     OW 6310   1.093   2.780   6.515
 1804SOL    HW1 6311   1.064   2.817   6.603
 1804SOL    HW2 6312   1.176   2.726   6.527
 1805SOL     OW 6313   5.977   4.611   0.063
 1805SOL    HW1 6314   6.072   4.601   0.095
 1805SOL    HW2 6315   5.939   4.520   0.044
 1806SOL     OW 6316   0.792   1.969   1.567
 1806SOL    HW1 6317   0.872   2.005   1.519
 1806SOL    HW2 6318   0.811   1.877   1.600
 1807SOL     OW 6319   6.094   3.057   2.763
 1807SOL    HW1 6320   6.090   2.976   2.822
 1807SOL    HW2 6321   6.155   3.039   2.686
 1808SOL     OW 6322   5.585   0.753   6.261
 1808SOL    HW1 6323   5.591   0.782   6.357
 1808SOL    HW2 6324   5.549   0.660   6.256
 1809SOL     OW 6325   5.047   0.203   5.513
 1809SOL    HW1 6326   5.067   0.192   5.610
 1809SOL    HW2 6327   4.989   0.128   5.482
 1810SOL     OW 6328   1.347   1.250   4.524
 1810SOL    HW1 6329   1.283   1.207   4.460
 1810SOL    HW2 6330   1.433   1.198   4.526
 1811SOL     OW 6331   3.027   5.489   2.478
 1811SOL    HW1 6332   2.988   5.495   2.570
 1811SOL    HW2 6333   3.123   5.519   2.481
 1812SOL     OW 6334   4.065   0.107   6.385
 1812SOL    HW1 6335   4.017   0.050   6.318
 1812SOL    HW2 6336   4.076   0.199   6.349
 1813SOL     OW 6337   5.057   3.846   1.837
 1813SOL    HW1 6338   4.963   3.871   1.815
 1813SOL    HW2 6339   5.057   3.764   1.895
 1814SOL     OW 6340   6.557   5.667   0.782
 1814SOL    HW1 6341   6.650   5.706   0.776
 1814SOL    HW2 6342   6.508   5.712   0.856
 1815SOL     OW 6343   6.311   5.265   1.149
 1815SOL    HW1 6344   6.217   5.298   1.145
 1815SOL    HW2 6345   6.333   5.239   1.243
 1816SOL     OW 6346   4.145   5.199   4.264
 1816SOL    HW1 6347   4.057   5.162   4.293
 1816SOL    HW2 6348   4.197   5.228   4.345
 1817SOL     OW 6349   6.707   2.856   3.575
 1817SOL    HW1 6350   6.805   2.874   3.571
 1817SOL    HW2 6351   6.661   2.912   3.506
 1818SOL     OW 6352   2.417   1.172   0.599
 1818SOL    HW1 6353   2.380   1.116   0.524
 1818SOL    HW2 6354   2.492   1.229   0.564
 1819SOL     OW 6355   0.916   4.140   1.682
 1819SOL    HW1 6356   0.930   4.217   1.744
 1819SOL    HW2 6357   0.818   4.127   1.667
 1820SOL     OW 6358   4.359   0.174   5.142
 1820SOL    HW1 6359   4.399   0.116   5.213
 1820SOL    HW2 6360   4.420   0.250   5.122
 1821SOL     OW 6361   4.003   1.527   2.737
 1821SOL    HW1 6362   4.086   1.474   2.714
 1821SOL    HW2 6363   3.957   1.554   2.652
 1822SOL     OW 6364   1.720   3.883   4.044
 1822SOL    HW1 6365   1.636   3.931   4.070
 1822SOL    HW2 6366   1.733   3.889   3.945
 1823SOL     OW 6367   3.842   6.911   3.249
 1823SOL    HW1 6368   3.823   6.815   3.268
 1823SOL    HW2 6369   3.790   6.968   3.312
 1824SOL     OW 6370   4.653   3.204   1.636
 1824SOL    HW1 6371   4.617   3.293   1.663
 1824SOL    HW2 6372   4.659   3.145   1.717
 1825SOL     OW 6373   1.128   3.650   0.055
 1825SOL    HW1 6374   1.056   3.595   0.014
 1825SOL    HW2 6375   1.167   3.601   0.133
 1826SOL     OW 6376   3.680   2.775   0.421
 1826SOL    HW1 6377   3.762   2.819   0.458
 1826SOL    HW2 6378   3.637   2.835   0.354
 1827SOL     OW 6379   5.113   4.546   0.315
 1827SOL    HW1 6380   5.095   4.534   0.217
 1827SOL    HW2 6381   5.197   4.599   0.327
 1828SOL     OW 6382   2.551   4.607   4.779
 1828SOL    HW1 6383   2.499   4.579   4.860
 1828SOL    HW2 6384   2.645   4.630   4.807
 1829SOL     OW 6385   2.348   6.106   2.028
 1829SOL    HW1 6386   2.406   6.072   2.102
 1829SOL    HW2 6387   2.373   6.060   1.942
 1830SOL     OW 6388   4.588   1.333   6.248
 1830SOL    HW1 6389   4.511   1.269   6.250
 1830SOL    HW2 6390   4.674   1.283   6.238
 1831SOL     OW 6391   3.747   4.519   0.305
 1831SOL    HW1 6392   3.786   4.465   0.231
 1831SOL    HW2 6393   3.784   4.612   0.302
 1832SOL     OW 6394   1.878   3.581   5.374
 1832SOL    HW1 6395   1.942   3.631   5.433
 1832SOL    HW2 6396   1.885   3.617   5.281
 1833SOL     OW 6397   5.803   0.559   7.000
 1833SOL    HW1 6398   5.738   0.631   6.977
 1833SOL    HW2 6399   5.829   0.567   0.080
 1834SOL     OW 6400   1.437   3.687   6.551
 1834SOL    HW1 6401   1.339   3.670   6.536
 1834SOL    HW2 6402   1.454   3.785   6.553
 1835SOL     OW 6403   6.753   6.432   1.019
 1835SOL    HW1 6404   6.746   6.511   1.079
 1835SOL    HW2 6405   6.749   6.348   1.073
 1836SOL     OW 6406   5.991   1.922   2.774
 1836SOL    HW1 6407   5.902   1.891   2.806
 1836SOL    HW2 6408   5.989   2.022   2.763
 1837SOL     OW 6409   1.749   2.212   6.977
 1837SOL    HW1 6410   1.704   2.284   6.924
 1837SOL    HW2 6411   1.698   2.196   0.045
 1838SOL     OW 6412   4.587   0.334   0.895
 1838SOL    HW1 6413   4.511   0.367   0.951
 1838SOL    HW2 6414   4.662   0.400   0.898
 1839SOL     OW 6415   6.715   0.721   6.692
 1839SOL    HW1 6416   6.678   0.788   6.756
 1839SOL    HW2 6417   6.779   0.766   6.629
 1840SOL     OW 6418   4.177   7.003   5.055
 1840SOL    HW1 6419   4.096   0.041   5.034
 1840SOL    HW2 6420   4.255   0.047   5.071
 1841SOL     OW 6421   1.889   0.942   1.606
 1841SOL    HW1 6422   1.955   0.966   1.535
 1841SOL    HW2 6423   1.803   0.990   1.589
 1842SOL     OW 6424   7.003   5.111   1.260
 1842SOL    HW1 6425   0.012   5.190   1.204
 1842SOL    HW2 6426   6.932   5.137   1.324
 1843SOL     OW 6427   2.863   1.292   6.787
 1843SOL    HW1 6428   2.873   1.284   6.886
 1843SOL    HW2 6429   2.767   1.307   6.764
 1844SOL     OW 6430   5.313   2.893   0.265
 1844SOL    HW1 6431   5.377   2.862   0.335
 1844SOL    HW2 6432   5.298   2.991   0.275
 1845SOL     OW 6433   0.979   2.639   4.137
 1845SOL    HW1 6434   0.952   2.545   4.115
 1845SOL    HW2 6435   0.961   2.658   4.233
 1846SOL     OW 6436   3.321   1.349   1.765
 1846SOL    HW1 6437   3.248   1.305   1.816
 1846SOL    HW2 6438   3.341   1.439   1.804
 1847SOL     OW 6439   2.162   6.273   6.567
 1847SOL    HW1 6440   2.160   6.194   6.505
 1847SOL    HW2 6441   2.092   6.262   6.638
 1848SOL     OW 6442   4.168   6.229   3.386
 1848SOL    HW1 6443   4.108   6.256   3.310
 1848SOL    HW2 6444   4.185   6.308   3.444
 1849SOL     OW 6445   4.827   2.989   3.003
 1849SOL    HW1 6446   4.927   2.988   3.007
 1849SOL    HW2 6447   4.796   2.948   2.917
 1850SOL     OW 6448   4.357   1.578   0.770
 1850SOL    HW1 6449   4.288   1.623   0.828
 1850SOL    HW2 6450   4.409   1.648   0.721
 1851SOL     OW 6451   0.625   5.093   4.116
 1851SOL    HW1 6452   0.604   5.110   4.212
 1851SOL    HW2 6453   0.709   5.040   4.109
 1852SOL     OW 6454   0.317   6.600   3.726
 1852SOL    HW1 6455   0.228   6.555   3.736
 1852SOL    HW2 6456   0.303   6.695   3.699
 1853SOL     OW 6457   1.106   1.818   5.961
 1853SOL    HW1 6458   1.113   1.868   6.047
 1853SOL    HW2 6459   1.198   1.806   5.922
 1854SOL     OW 6460   0.381   0.329   4.234
 1854SOL    HW1 6461   0.478   0.316   4.254
 1854SOL    HW2 6462   0.360   0.295   4.143
 1855SOL     OW 6463   6.508   1.963   4.977
 1855SOL    HW1 6464   6.463   2.036   4.926
 1855SOL    HW2 6465   6.495   1.876   4.930
 1856SOL     OW 6466   5.146   4.071   6.808
 1856SOL    HW1 6467   5.175   4.032   6.721
 1856SOL    HW2 6468   5.205   4.037   6.881
 1857SOL     OW 6469   4.011   1.370   6.719
 1857SOL    HW1 6470   4.069   1.402   6.794
 1857SOL    HW2 6471   4.037   1.418   6.635
 1858SOL     OW 6472   5.423   1.747   5.227
 1858SOL    HW1 6473   5.462   1.786   5.144
 1858SOL    HW2 6474   5.492   1.692   5.274
 1859SOL     OW 6475   6.583   6.745   2.764
 1859SOL    HW1 6476   6.660   6.697   2.722
 1859SOL    HW2 6477   6.503   6.685   2.765
 1860SOL     OW 6478   2.860   1.043   6.346
 1860SOL    HW1 6479   2.817   1.058   6.434
 1860SOL    HW2 6480   2.913   0.958   6.348
 1861SOL     OW 6481   6.289   6.431   5.320
 1861SOL    HW1 6482   6.238   6.360   5.367
 1861SOL    HW2 6483   6.316   6.398   5.229
 1862SOL     OW 6484   2.910   5.925   6.315
 1862SOL    HW1 6485   3.003   5.900   6.340
 1862SOL    HW2 6486   2.912   6.002   6.251
 1863SOL     OW 6487   6.971   1.885   1.693
 1863SOL    HW1 6488   0.002   1.859   1.778
 1863SOL    HW2 6489   0.018   1.932   1.632
 1864SOL     OW 6490   2.016   6.553   2.060
 1864SOL    HW1 6491   2.064   6.594   1.982
 1864SOL    HW2 6492   2.024   6.613   2.139
 1865SOL     OW 6493   6.120   2.341   5.996
 1865SOL    HW1 6494   6.198   2.327   6.056
 1865SOL    HW2 6495   6.136   2.297   5.908
 1866SOL     OW 6496   0.148   4.500   3.834
 1866SOL    HW1 6497   0.192   4.490   3.745
 1866SOL    HW2 6498   0.057   4.541   3.823
 1867SOL     OW 6499   1.358   1.417   2.004
 1867SOL    HW1 6500   1.352   1.345   1.935
 1867SOL    HW2 6501   1.447   1.411   2.050
 1868SOL     OW 6502   5.118   3.977   6.144
 1868SOL    HW1 6503   5.132   4.076   6.137
 1868SOL    HW2 6504   5.141   3.947   6.236
 1869SOL     OW 6505   5.182   0.628   5.497
 1869SOL    HW1 6506   5.097   0.577   5.483
 1869SOL    HW2 6507   5.177   0.714   5.445
 1870SOL     OW 6508   6.019   0.244   6.237
 1870SOL    HW1 6509   5.939   0.298   6.263
 1870SOL    HW2 6510   5.997   0.188   6.157
 1871SOL     OW 6511   0.846   5.977   6.558
 1871SOL    HW1 6512   0.776   5.963   6.488
 1871SOL    HW2 6513   0.843   5.903   6.625
 1872SOL     OW 6514   2.586   3.151   1.263
 1872SOL    HW1 6515   2.555   3.137   1.357
 1872SOL    HW2 6516   2.545   3.235   1.226
 1873SOL     OW 6517   5.902   1.397   2.273
 1873SOL    HW1 6518   5.959   1.363   2.199
 1873SOL    HW2 6519   5.890   1.326   2.342
 1874SOL     OW 6520   1.268   6.182   6.191
 1874SOL    HW1 6521   1.267   6.190   6.091
 1874SOL    HW2 6522   1.241   6.270   6.231
 1875SOL     OW 6523   0.646   6.402   2.443
 1875SOL    HW1 6524   0.621   6.337   2.372
 1875SOL    HW2 6525   0.745   6.415   2.444
 1876SOL     OW 6526   0.465   4.686   0.562
 1876SOL    HW1 6527   0.479   4.769   0.508
 1876SOL    HW2 6528   0.537   4.678   0.631
 1877SOL     OW 6529   1.243   0.931   2.790
 1877SOL    HW1 6530   1.169   0.997   2.793
 1877SOL    HW2 6531   1.330   0.978   2.773
 1878SOL     OW 6532   5.283   3.867   4.254
 1878SOL    HW1 6533   5.226   3.855   4.336
 1878SOL    HW2 6534   5.379   3.853   4.278
 1879SOL     OW 6535   4.123   6.429   5.279
 1879SOL    HW1 6536   4.045   6.477   5.240
 1879SOL    HW2 6537   4.206   6.453   5.228
 1880SOL     OW 6538   1.252   2.784   4.330
 1880SOL    HW1 6539   1.263   2.793   4.231
 1880SOL    HW2 6540   1.166   2.825   4.359
 1881SOL     OW 6541   2.019   1.242   3.924
 1881SOL    HW1 6542   2.050   1.222   3.831
 1881SOL    HW2 6543   1.919   1.243   3.925
 1882SOL     OW 6544   2.902   5.546   0.821
 1882SOL    HW1 6545   2.970   5.529   0.892
 1882SOL    HW2 6546   2.927   5.628   0.770
 1883SOL     OW 6547   1.721   2.874   2.638
 1883SOL    HW1 6548   1.656   2.949   2.623
 1883SOL    HW2 6549   1.803   2.910   2.683
 1884SOL     OW 6550   4.652   0.440   0.449
 1884SOL    HW1 6551   4.738   0.400   0.483
 1884SOL    HW2 6552   4.619   0.388   0.370
 1885SOL     OW 6553   0.026   1.348   0.579
 1885SOL    HW1 6554   6.978   1.309   0.513
 1885SOL    HW2 6555   0.112   1.299   0.575
 1886SOL     OW 6556   3.735   2.915   5.738
 1886SOL    HW1 6557   3.731   2.829   5.688
 1886SOL    HW2 6558   3.824   2.958   5.724
 1887SOL     OW 6559   0.829   5.959   4.957
 1887SOL    HW1 6560   0.836   6.008   4.870
 1887SOL    HW2 6561   0.834   5.861   4.940
 1888SOL     OW 6562   1.465   1.689   6.062
 1888SOL    HW1 6563   1.487   1.735   6.148
 1888SOL    HW2 6564   1.418   1.602   6.081
 1889SOL     OW 6565   3.693   2.548   6.803
 1889SOL    HW1 6566   3.670   2.579   6.896
 1889SOL    HW2 6567   3.792   2.534   6.797
 1890SOL     OW 6568   6.436   5.723   6.476
 1890SOL    HW1 6569   6.461   5.646   6.535
 1890SOL    HW2 6570   6.407   5.688   6.387
 1891SOL     OW 6571   5.289   3.296   0.060
 1891SOL    HW1 6572   5.190   3.287   0.071
 1891SOL    HW2 6573   5.311   3.387   0.023
 1892SOL     OW 6574   4.000   0.529   3.281
 1892SOL    HW1 6575   4.015   0.585   3.200
 1892SOL    HW2 6576   4.001   0.432   3.255
 1893SOL     OW 6577   2.780   0.834   6.787
 1893SOL    HW1 6578   2.761   0.792   6.699
 1893SOL    HW2 6579   2.879   0.840   6.801
 1894SOL     OW 6580   4.952   2.902   0.647
 1894SOL    HW1 6581   4.912   2.923   0.558
 1894SOL    HW2 6582   4.989   2.986   0.688
 1895SOL     OW 6583   4.866   5.554   3.204
 1895SOL    HW1 6584   4.912   5.465   3.206
 1895SOL    HW2 6585   4.902   5.611   3.278
 1896SOL     OW 6586   6.706   1.856   5.153
 1896SOL    HW1 6587   6.626   1.895   5.107
 1896SOL    HW2 6588   6.789   1.898   5.116
 1897SOL     OW 6589   4.953   4.900   3.204
 1897SOL    HW1 6590   5.042   4.931   3.172
 1897SOL    HW2 6591   4.937   4.932   3.297
 1898SOL     OW 6592   5.563   6.502   0.036
 1898SOL    HW1 6593   5.641   6.559   0.064
 1898SOL    HW2 6594   5.478   6.555   0.047
 1899SOL     OW 6595   2.172   3.099   3.216
 1899SOL    HW1 6596   2.080   3.058   3.217
 1899SOL    HW2 6597   2.170   3.183   3.162
 1900SOL     OW 6598   2.002   5.630   1.570
 1900SOL    HW1 6599   1.983   5.701   1.638
 1900SOL    HW2 6600   1.946   5.550   1.590
 1901SOL     OW 6601   2.006   0.514   5.274
 1901SOL    HW1 6602   2.021   0.552   5.183
 1901SOL    HW2 6603   2.048   0.574   5.342
 1902SOL     OW 6604   0.988   3.090   3.744
 1902SOL    HW1 6605   0.953   3.175   3.704
 1902SOL    HW2 6606   0.930   3.064   3.822
 1903SOL     OW 6607   6.675   4.789   3.733
 1903SOL    HW1 6608   6.581   4.780   3.698
 1903SOL    HW2 6609   6.730   4.841   3.668
 1904SOL     OW 6610   0.625   0.296   4.328
 1904SOL    HW1 6611   0.720   0.270   4.310
 1904SOL    HW2 6612   0.607   0.291   4.426
 1905SOL     OW 6613   6.655   2.809   5.239
 1905SOL    HW1 6614   6.638   2.759   5.154
 1905SOL    HW2 6615   6.623   2.903   5.230
 1906SOL     OW 6616   2.472   6.812   5.384
 1906SOL    HW1 6617   2.382   6.855   5.378
 1906SOL    HW2 6618   2.467   6.733   5.445
 1907SOL     OW 6619   4.129   6.918   3.324
 1907SOL    HW1 6620   4.182   6.835   3.306
 1907SOL    HW2 6621   4.048   6.919   3.266
 1908SOL     OW 6622   4.637   5.900   1.048
 1908SOL    HW1 6623   4.677   5.984   1.010
 1908SOL    HW2 6624   4.711   5.838   1.075
 1909SOL     OW 6625   5.074   5.322   3.658
 1909SOL    HW1 6626   5.004   5.251   3.668
 1909SOL    HW2 6627   5.127   5.305   3.575
 1910SOL     OW 6628   5.115   3.130   4.478
 1910SOL    HW1 6629   5.021   3.143   4.509
 1910SOL    HW2 6630   5.117   3.064   4.403
 1911SOL     OW 6631   0.652   2.894   5.814
 1911SOL    HW1 6632   0.616   2.801   5.824
 1911SOL    HW2 6633   0.727   2.907   5.879
 1912SOL     OW 6634   3.373   6.432   3.465
 1912SOL    HW1 6635   3.397   6.516   3.514
 1912SOL    HW2 6636   3.359   6.453   3.368
 1913SOL     OW 6637   2.245   4.138   5.551
 1913SOL    HW1 6638   2.283   4.134   5.458
 1913SOL    HW2 6639   2.273   4.224   5.595
 1914SOL     OW 6640   4.332   1.535   4.850
 1914SOL    HW1 6641   4.277   1.539   4.766
 1914SOL    HW2 6642   4.301   1.605   4.914
 1915SOL     OW 6643   3.323   0.237   5.439
 1915SOL    HW1 6644   3.322   0.173   5.515
 1915SOL    HW2 6645   3.349   0.189   5.355
 1916SOL     OW 6646   3.531   6.250   2.619
 1916SOL    HW1 6647   3.433   6.256   2.640
 1916SOL    HW2 6648   3.561   6.155   2.631
 1917SOL     OW 6649   3.444   3.884   4.180
 1917SOL    HW1 6650   3.374   3.952   4.157
 1917SOL    HW2 6651   3.477   3.840   4.097
 1918SOL     OW 6652   6.843   6.488   5.359
 1918SOL    HW1 6653   6.897   6.510   5.440
 1918SOL    HW2 6654   6.895   6.425   5.301
 1919SOL     OW 6655   6.584   0.821   2.652
 1919SOL    HW1 6656   6.581   0.806   2.751
 1919SOL    HW2 6657   6.493   0.806   2.614
 1920SOL     OW 6658   6.554   6.323   4.685
 1920SOL    HW1 6659   6.531   6.326   4.782
 1920SOL    HW2 6660   6.546   6.415   4.647
 1921SOL     OW 6661   2.107   6.572   6.719
 1921SOL    HW1 6662   2.183   6.533   6.772
 1921SOL    HW2 6663   2.110   6.671   6.723
 1922SOL     OW 6664   3.823   4.352   0.648
 1922SOL    HW1 6665   3.746   4.290   0.660
 1922SOL    HW2 6666   3.791   4.447   0.657
 1923SOL     OW 6667   1.638   2.747   0.851
 1923SOL    HW1 6668   1.712   2.693   0.891
 1923SOL    HW2 6669   1.583   2.688   0.792
 1924SOL     OW 6670   0.508   3.792   0.945
 1924SOL    HW1 6671   0.607   3.800   0.955
 1924SOL    HW2 6672   0.472   3.877   0.906
 1925SOL     OW 6673   2.977   4.411   0.223
 1925SOL    HW1 6674   2.921   4.390   0.304
 1925SOL    HW2 6675   3.023   4.499   0.237
 1926SOL     OW 6676   0.366   0.362   3.785
 1926SOL    HW1 6677   0.286   0.394   3.733
 1926SOL    HW2 6678   0.426   0.439   3.805
 1927SOL     OW 6679   4.782   3.536   1.535
 1927SOL    HW1 6680   4.799   3.445   1.574
 1927SOL    HW2 6681   4.707   3.531   1.470
 1928SOL     OW 6682   6.941   5.614   4.506
 1928SOL    HW1 6683   6.851   5.636   4.542
 1928SOL    HW2 6684   7.004   5.691   4.524
 1929SOL     OW 6685   1.763   5.928   2.672
 1929SOL    HW1 6686   1.773   5.980   2.757
 1929SOL    HW2 6687   1.682   5.869   2.679
 1930SOL     OW 6688   6.889   5.452   6.454
 1930SOL    HW1 6689   6.867   5.471   6.549
 1930SOL    HW2 6690   6.876   5.354   6.435
 1931SOL     OW 6691   0.791   2.285   4.428
 1931SOL    HW1 6692   0.774   2.261   4.332
 1931SOL    HW2 6693   0.865   2.229   4.464
 1932SOL     OW 6694   5.828   3.494   2.784
 1932SOL    HW1 6695   5.839   3.410   2.836
 1932SOL    HW2 6696   5.730   3.516   2.777
 1933SOL     OW 6697   2.735   5.092   0.415
 1933SOL    HW1 6698   2.789   5.060   0.337
 1933SOL    HW2 6699   2.751   5.034   0.494
 1934SOL     OW 6700   6.808   6.113   2.954
 1934SOL    HW1 6701   6.756   6.180   2.900
 1934SOL    HW2 6702   6.867   6.061   2.893
 1935SOL     OW 6703   1.814   1.237   3.359
 1935SOL    HW1 6704   1.768   1.317   3.399
 1935SOL    HW2 6705   1.758   1.200   3.285
 1936SOL     OW 6706   6.598   6.096   5.167
 1936SOL    HW1 6707   6.678   6.145   5.132
 1936SOL    HW2 6708   6.516   6.126   5.118
 1937SOL     OW 6709   4.290   1.202   2.843
 1937SOL    HW1 6710   4.341   1.286   2.826
 1937SOL    HW2 6711   4.200   1.225   2.881
 1938SOL     OW 6712   5.781   0.801   4.651
 1938SOL    HW1 6713   5.828   0.883   4.618
 1938SOL    HW2 6714   5.706   0.827   4.710
 1939SOL     OW 6715   3.084   0.784   4.732
 1939SOL    HW1 6716   3.070   0.873   4.774
 1939SOL    HW2 6717   3.181   0.759   4.736
 1940SOL     OW 6718   6.439   5.825   6.133
 1940SOL    HW1 6719   6.457   5.923   6.145
 1940SOL    HW2 6720   6.398   5.811   6.043
 1941SOL     OW 6721   4.749   5.011   2.522
 1941SOL    HW1 6722   4.714   5.096   2.483
 1941SOL    HW2 6723   4.771   5.025   2.618
 1942SOL     OW 6724   0.476   3.741   3.104
 1942SOL    HW1 6725   0.453   3.819   3.162
 1942SOL    HW2 6726   0.532   3.772   3.027
 1943SOL     OW 6727   2.944   5.916   3.450
 1943SOL    HW1 6728   3.018   5.858   3.417
 1943SOL    HW2 6729   2.952   5.929   3.549
 1944SOL     OW 6730   7.009   6.651   2.171
 1944SOL    HW1 6731   0.004   6.744   2.136
 1944SOL    HW2 6732   0.022   6.647   2.266
 1945SOL     OW 6733   3.378   5.093   3.256
 1945SOL    HW1 6734   3.287   5.065   3.223
 1945SOL    HW2 6735   3.448   5.051   3.198
 1946SOL     OW 6736   1.370   6.797   6.743
 1946SOL    HW1 6737   1.304   6.796   6.818
 1946SOL    HW2 6738   1.414   6.887   6.739
 1947SOL     OW 6739   4.797   0.050   3.912
 1947SOL    HW1 6740   4.857   6.998   3.869
 1947SOL    HW2 6741   4.708   0.049   3.866
 1948SOL     OW 6742   6.513   3.877   4.962
 1948SOL    HW1 6743   6.488   3.897   5.057
 1948SOL    HW2 6744   6.510   3.962   4.909
 1949SOL     OW 6745   4.470   4.401   6.692
 1949SOL    HW1 6746   4.475   4.342   6.611
 1949SOL    HW2 6747   4.381   4.389   6.736
 1950SOL     OW 6748   3.552   5.113   1.108
 1950SOL    HW1 6749   3.603   5.038   1.067
 1950SOL    HW2 6750   3.606   5.197   1.103
 1951SOL     OW 6751   6.670   2.767   0.780
 1951SOL    HW1 6752   6.611   2.824   0.723
 1951SOL    HW2 6753   6.636   2.767   0.874
 1952SOL     OW 6754   3.367   2.967   4.780
 1952SOL    HW1 6755   3.283   3.011   4.813
 1952SOL    HW2 6756   3.346   2.913   4.698
 1953SOL     OW 6757   0.457   2.814   4.770
 1953SOL    HW1 6758   0.535   2.785   4.716
 1953SOL    HW2 6759   0.374   2.768   4.737
 1954SOL     OW 6760   2.893   2.067   3.574
 1954SOL    HW1 6761   2.920   2.012   3.652
 1954SOL    HW2 6762   2.817   2.127   3.600
 1955SOL     OW 6763   6.086   5.449   1.741
 1955SOL    HW1 6764   6.051   5.452   1.834
 1955SOL    HW2 6765   6.041   5.375   1.691
 1956SOL     OW 6766   5.392   5.702   2.556
 1956SOL    HW1 6767   5.469   5.763   2.540
 1956SOL    HW2 6768   5.322   5.750   2.609
 1957SOL     OW 6769   1.636   6.599   4.563
 1957SOL    HW1 6770   1.642   6.697   4.548
 1957SOL    HW2 6771   1.648   6.551   4.476
 1958SOL     OW 6772   4.213   3.379   5.939
 1958SOL    HW1 6773   4.219   3.340   6.031
 1958SOL    HW2 6774   4.234   3.477   5.943
 1959SOL     OW 6775   2.038   1.044   0.394
 1959SOL    HW1 6776   1.969   1.038   0.322
 1959SOL    HW2 6777   2.129   1.043   0.353
 1960SOL     OW 6778   5.736   5.639   2.385
 1960SOL    HW1 6779   5.777   5.657   2.475
 1960SOL    HW2 6780   5.801   5.665   2.313
 1961SOL     OW 6781   5.899   5.025   5.224
 1961SOL    HW1 6782   5.978   4.971   5.196
 1961SOL    HW2 6783   5.869   4.995   5.314
 1962SOL     OW 6784   6.799   6.904   3.863
 1962SOL    HW1 6785   6.770   6.934   3.772
 1962SOL    HW2 6786   6.875   6.840   3.854
 1963SOL     OW 6787   2.717   0.547   3.308
 1963SOL    HW1 6788   2.625   0.517   3.283
 1963SOL    HW2 6789   2.744   0.623   3.249
 1964SOL     OW 6790   5.660   3.337   2.387
 1964SOL    HW1 6791   5.708   3.408   2.438
 1964SOL    HW2 6792   5.711   3.251   2.394
 1965SOL     OW 6793   2.142   6.105   3.431
 1965SOL    HW1 6794   2.076   6.165   3.385
 1965SOL    HW2 6795   2.218   6.085   3.369
 1966SOL     OW 6796   6.130   6.889   0.138
 1966SOL    HW1 6797   6.069   6.835   0.195
 1966SOL    HW2 6798   6.095   6.983   0.133
 1967SOL     OW 6799   5.062   3.728   5.262
 1967SOL    HW1 6800   5.049   3.721   5.163
 1967SOL    HW2 6801   5.055   3.637   5.303
 1968SOL     OW 6802   3.842   5.103   4.884
 1968SOL    HW1 6803   3.791   5.031   4.836
 1968SOL    HW2 6804   3.778   5.163   4.932
 1969SOL     OW 6805   6.698   1.483   1.738
 1969SOL    HW1 6806   6.781   1.539   1.744
 1969SOL    HW2 6807   6.704   1.408   1.803
 1970SOL     OW 6808   1.927   0.604   3.579
 1970SOL    HW1 6809   1.866   0.570   3.650
 1970SOL    HW2 6810   1.887   0.685   3.536
 1971SOL     OW 6811   0.410   1.266   5.995
 1971SOL    HW1 6812   0.439   1.359   5.971
 1971SOL    HW2 6813   0.392   1.214   5.912
 1972SOL     OW 6814   1.639   0.536   3.564
 1972SOL    HW1 6815   1.617   0.441   3.588
 1972SOL    HW2 6816   1.641   0.545   3.464
 1973SOL     OW 6817   2.463   3.457   0.238
 1973SOL    HW1 6818   2.406   3.537   0.222
 1973SOL    HW2 6819   2.414   3.375   0.207
 1974SOL     OW 6820   5.944   6.942   4.425
 1974SOL    HW1 6821   5.955   6.904   4.333
 1974SOL    HW2 6822   5.916   0.021   4.418
 1975SOL     OW 6823   2.949   0.439   3.721
 1975SOL    HW1 6824   2.916   0.374   3.790
 1975SOL    HW2 6825   2.922   0.406   3.630
 1976SOL     OW 6826   6.419   3.868   6.388
 1976SOL    HW1 6827   6.367   3.782   6.385
 1976SOL    HW2 6828   6.511   3.851   6.421
 1977SOL     OW 6829   2.870   2.133   5.593
 1977SOL    HW1 6830   2.890   2.222   5.633
 1977SOL    HW2 6831   2.941   2.108   5.528
 1978SOL     OW 6832   6.957   2.256   5.580
 1978SOL    HW1 6833   6.897   2.220   5.508
 1978SOL    HW2 6834   0.015   2.191   5.597
 1979SOL     OW 6835   6.406   4.028   2.427
 1979SOL    HW1 6836   6.387   4.125   2.412
 1979SOL    HW2 6837   6.429   3.985   2.340
 1980SOL     OW 6838   2.840   1.028   1.872
 1980SOL    HW1 6839   2.816   0.983   1.958
 1980SOL    HW2 6840   2.767   1.016   1.806
 1981SOL     OW 6841   5.105   3.650   1.995
 1981SOL    HW1 6842   5.170   3.575   1.987
 1981SOL    HW2 6843   5.031   3.625   2.057
 1982SOL     OW 6844   6.697   6.699   5.272
 1982SOL    HW1 6845   6.766   6.635   5.307
 1982SOL    HW2 6846   6.608   6.677   5.312
 1983SOL     OW 6847   0.292   4.543   2.237
 1983SOL    HW1 6848   0.217   4.602   2.265
 1983SOL    HW2 6849   0.372   4.560   2.294
 1984SOL     OW 6850   4.564   0.566   4.726
 1984SOL    HW1 6851   4.660   0.561   4.698
 1984SOL    HW2 6852   4.521   0.645   4.683
 1985SOL     OW 6853   1.453   6.352   1.130
 1985SOL    HW1 6854   1.500   6.323   1.213
 1985SOL    HW2 6855   1.370   6.404   1.155
 1986SOL     OW 6856   0.230   2.420   7.006
 1986SOL    HW1 6857   0.194   2.350   6.945
 1986SOL    HW2 6858   0.161   2.491   0.004
 1987SOL     OW 6859   2.626   4.524   0.250
 1987SOL    HW1 6860   2.553   4.571   0.201
 1987SOL    HW2 6861   2.635   4.431   0.215
 1988SOL     OW 6862   4.469   3.581   0.244
 1988SOL    HW1 6863   4.496   3.639   0.321
 1988SOL    HW2 6864   4.546   3.574   0.180
 1989SOL     OW 6865   2.038   2.029   4.192
 1989SOL    HW1 6866   1.948   2.055   4.228
 1989SOL    HW2 6867   2.109   2.076   4.243
 1990SOL     OW 6868   1.583   0.613   2.970
 1990SOL    HW1 6869   1.634   0.698   2.959
 1990SOL    HW2 6870   1.485   0.631   2.960
 1991SOL     OW 6871   4.373   5.547   3.008
 1991SOL    HW1 6872   4.361   5.466   2.950
 1991SOL    HW2 6873   4.462   5.544   3.053
 1992SOL     OW 6874   2.660   6.340   5.202
 1992SOL    HW1 6875   2.750   6.332   5.245
 1992SOL    HW2 6876   2.591   6.349   5.274
 1993SOL     OW 6877   3.034   3.630   4.200
 1993SOL    HW1 6878   3.028   3.632   4.100
 1993SOL    HW2 6879   3.109   3.688   4.230
 1994SOL     OW 6880   6.329   2.296   1.909
 1994SOL    HW1 6881   6.372   2.362   1.847
 1994SOL    HW2 6882   6.336   2.204   1.871
 1995SOL     OW 6883   4.166   2.438   1.213
 1995SOL    HW1 6884   4.164   2.340   1.195
 1995SOL    HW2 6885   4.220   2.455   1.296
 1996SOL     OW 6886   2.897   4.052   5.245
 1996SOL    HW1 6887   2.984   4.001   5.246
 1996SOL    HW2 6888   2.821   3.988   5.255
 1997SOL     OW 6889   5.574   6.647   3.298
 1997SOL    HW1 6890   5.482   6.656   3.338
 1997SOL    HW2 6891   5.642   6.662   3.369
 1998SOL     OW 6892   3.315   5.120   4.881
 1998SOL    HW1 6893   3.264   5.043   4.843
 1998SOL    HW2 6894   3.334   5.103   4.977
 1999SOL     OW 6895   2.640   1.070   1.509
 1999SOL    HW1 6896   2.592   1.067   1.596
 1999SOL    HW2 6897   2.578   1.042   1.435
 2000SOL     OW 6898   3.409   1.336   4.976
 2000SOL    HW1 6899   3.436   1.256   4.922
 2000SOL    HW2 6900   3.316   1.324   5.008
 2001SOL     OW 6901   2.071   3.660   0.041
 2001SOL    HW1 6902   1.976   3.652   0.010
 2001SOL    HW2 6903   2.122   3.718   6.993
 2002SOL     OW 6904   1.468   5.341   4.898
 2002SOL    HW1 6905   1.427   5.252   4.878
 2002SOL    HW2 6906   1.492   5.346   4.995
 2003SOL     OW 6907   6.804   4.430   2.967
 2003SOL    HW1 6908   6.902   4.432   2.989
 2003SOL    HW2 6909   6.758   4.363   3.026
 2004SOL     OW 6910   2.972   0.119   6.742
 2004SOL    HW1 6911   3.008   0.026   6.754
 2004SOL    HW2 6912   2.963   0.163   6.831
 2005SOL     OW 6913   3.042   6.732   5.184
 2005SOL    HW1 6914   2.995   6.655   5.227
 2005SOL    HW2 6915   3.081   6.791   5.255
 2006SOL     OW 6916   5.161   6.768   3.202
 2006SOL    HW1 6917   5.158   6.868   3.195
 2006SOL    HW2 6918   5.071   6.733   3.227
 2007SOL     OW 6919   6.338   5.362   0.009
 2007SOL    HW1 6920   6.343   5.441   6.964
 2007SOL    HW2 6921   6.281   5.291   6.984
 2008SOL     OW 6922   0.031   6.354   5.196
 2008SOL    HW1 6923   6.975   6.298   5.155
 2008SOL    HW2 6924   0.120   6.319   5.168
 2009SOL     OW 6925   0.909   0.604   6.934
 2009SOL    HW1 6926   0.834   0.537   6.934
 2009SOL    HW2 6927   0.874   0.693   6.965
 2010SOL     OW 6928   1.600   0.629   1.226
 2010SOL    HW1 6929   1.690   0.617   1.184
 2010SOL    HW2 6930   1.555   0.709   1.185
 2011SOL     OW 6931   0.191   2.177   5.256
 2011SOL    HW1 6932   0.231   2.144   5.342
 2011SOL    HW2 6933   0.202   2.106   5.186
 2012SOL     OW 6934   6.634   3.227   0.733
 2012SOL    HW1 6935   6.609   3.158   0.665
 2012SOL    HW2 6936   6.709   3.192   0.790
 2013SOL     OW 6937   4.064   2.216   2.129
 2013SOL    HW1 6938   3.987   2.235   2.069
 2013SOL    HW2 6939   4.031   2.206   2.223
 2014SOL     OW 6940   3.065   5.968   3.699
 2014SOL    HW1 6941   3.124   5.947   3.777
 2014SOL    HW2 6942   3.070   6.065   3.678
 2015SOL     OW 6943   2.944   6.595   0.321
 2015SOL    HW1 6944   2.875   6.546   0.374
 2015SOL    HW2 6945   3.028   6.604   0.375
 2016SOL     OW 6946   6.513   5.564   4.004
 2016SOL    HW1 6947   6.485   5.590   3.911
 2016SOL    HW2 6948   6.433   5.566   4.065
 2017SOL     OW 6949   2.309   5.103   1.923
 2017SOL    HW1 6950   2.373   5.026   1.935
 2017SOL    HW2 6951   2.337   5.158   1.845
 2018SOL     OW 6952   0.447   4.055   5.964
 2018SOL    HW1 6953   0.394   4.084   6.043
 2018SOL    HW2 6954   0.391   4.062   5.882
 2019SOL     OW 6955   5.767   1.845   3.169
 2019SOL    HW1 6956   5.773   1.836   3.268
 2019SOL    HW2 6957   5.850   1.808   3.127
 2020SOL     OW 6958   1.859   5.476   3.015
 2020SOL    HW1 6959   1.783   5.511   2.959
 2020SOL    HW2 6960   1.889   5.548   3.078
 2021SOL     OW 6961   2.222   0.220   1.615
 2021SOL    HW1 6962   2.124   0.214   1.594
 2021SOL    HW2 6963   2.262   0.129   1.612
 2022SOL     OW 6964   2.661   4.594   1.054
 2022SOL    HW1 6965   2.732   4.589   0.984
 2022SOL    HW2 6966   2.665   4.513   1.112
 2023SOL     OW 6967   6.044   1.254   6.474
 2023SOL    HW1 6968   5.976   1.295   6.413
 2023SOL    HW2 6969   6.021   1.158   6.490
 2024SOL     OW 6970   6.235   0.528   2.592
 2024SOL    HW1 6971   6.260   0.433   2.613
 2024SOL    HW2 6972   6.292   0.562   2.518
 2025SOL     OW 6973   6.025   0.934   1.195
 2025SOL    HW1 6974   5.970   0.990   1.256
 2025SOL    HW2 6975   5.974   0.915   1.111
 2026SOL     OW 6976   1.577   2.023   4.930
 2026SOL    HW1 6977   1.663   2.039   4.978
 2026SOL    HW2 6978   1.589   2.042   4.832
 2027SOL     OW 6979   0.698   1.132   2.585
 2027SOL    HW1 6980   0.744   1.046   2.606
 2027SOL    HW2 6981   0.747   1.180   2.512
 2028SOL     OW 6982   3.809   3.986   5.669
 2028SOL    HW1 6983   3.764   3.938   5.745
 2028SOL    HW2 6984   3.868   3.923   5.620
 2029SOL     OW 6985   1.752   0.510   0.390
 2029SOL    HW1 6986   1.800   0.593   0.419
 2029SOL    HW2 6987   1.705   0.470   0.469
 2030SOL     OW 6988   1.927   2.856   3.201
 2030SOL    HW1 6989   1.945   2.893   3.293
 2030SOL    HW2 6990   1.838   2.887   3.170
 2031SOL     OW 6991   5.686   0.003   2.788
 2031SOL    HW1 6992   5.619   7.001   2.717
 2031SOL    HW2 6993   5.773   0.030   2.747
 2032SOL     OW 6994   4.603   5.983   1.746
 2032SOL    HW1 6995   4.541   5.958   1.820
 2032SOL    HW2 6996   4.618   5.904   1.687
 2033SOL     OW 6997   6.942   5.153   6.697
 2033SOL    HW1 6998   6.910   5.169   6.790
 2033SOL    HW2 6999   6.997   5.069   6.694
 2034SOL     OW 7000   2.237   6.615   3.549
 2034SOL    HW1 7001   2.320   6.603   3.495
 2034SOL    HW2 7002   2.245   6.563   3.635
 2035SOL     OW 7003   0.275   2.373   1.585
 2035SOL    HW1 7004   0.319   2.462   1.579
 2035SOL    HW2 7005   0.177   2.382   1.565
 2036SOL     OW 7006   0.259   4.165   0.669
 2036SOL    HW1 7007   0.162   4.185   0.677
 2036SOL    HW2 7008   0.309   4.248   0.645
 2037SOL     OW 7009   0.249   1.999   6.294
 2037SOL    HW1 7010   0.333   1.977   6.344
 2037SOL    HW2 7011   0.197   2.068   6.344
 2038SOL     OW 7012   1.194   0.189   4.977
 2038SOL    HW1 7013   1.267   0.197   5.045
 2038SOL    HW2 7014   1.151   0.099   4.985
 2039SOL     OW 7015   1.380   5.858   2.087
 2039SOL    HW1 7016   1.429   5.837   2.171
 2039SOL    HW2 7017   1.322   5.781   2.061
 2040SOL     OW 7018   3.911   3.998   4.305
 2040SOL    HW1 7019   3.832   3.941   4.322
 2040SOL    HW2 7020   3.974   3.994   4.383
 2041SOL     OW 7021   5.687   2.925   0.153
 2041SOL    HW1 7022   5.651   2.948   0.063
 2041SOL    HW2 7023   5.738   3.002   0.190
 2042SOL     OW 7024   3.221   5.906   0.468
 2042SOL    HW1 7025   3.185   5.813   0.461
 2042SOL    HW2 7026   3.314   5.903   0.504
 2043SOL     OW 7027   4.394   5.114   2.337
 2043SOL    HW1 7028   4.369   5.017   2.344
 2043SOL    HW2 7029   4.349   5.153   2.256
 2044SOL     OW 7030   6.609   0.858   2.083
 2044SOL    HW1 7031   6.608   0.844   2.183
 2044SOL    HW2 7032   6.614   0.769   2.038
 2045SOL     OW 7033   2.480   6.391   5.929
 2045SOL    HW1 7034   2.466   6.302   5.972
 2045SOL    HW2 7035   2.456   6.463   5.993
 2046SOL     OW 7036   6.403   0.209   4.968
 2046SOL    HW1 7037   6.334   0.281   4.959
 2046SOL    HW2 7038   6.477   0.241   5.028
 2047SOL     OW 7039   5.117   2.587   0.215
 2047SOL    HW1 7040   5.022   2.562   0.193
 2047SOL    HW2 7041   5.177   2.558   0.141
 2048SOL     OW 7042   4.459   6.245   5.484
 2048SOL    HW1 7043   4.537   6.220   5.426
 2048SOL    HW2 7044   4.382   6.184   5.465
 2049SOL     OW 7045   4.647   6.357   0.248
 2049SOL    HW1 7046   4.643   6.444   0.199
 2049SOL    HW2 7047   4.659   6.282   0.184
 2050SOL     OW 7048   5.613   0.628   4.097
 2050SOL    HW1 7049   5.549   0.618   4.021
 2050SOL    HW2 7050   5.572   0.686   4.168
 2051SOL     OW 7051   2.447   5.267   1.096
 2051SOL    HW1 7052   2.417   5.240   1.004
 2051SOL    HW2 7053   2.384   5.335   1.133
 2052SOL     OW 7054   1.472   2.888   1.021
 2052SOL    HW1 7055   1.479   2.986   1.001
 2052SOL    HW2 7056   1.531   2.838   0.958
 2053SOL     OW 7057   5.207   0.973   0.242
 2053SOL    HW1 7058   5.165   0.884   0.225
 2053SOL    HW2 7059   5.204   1.028   0.159
 2054SOL     OW 7060   0.030   3.389   1.538
 2054SOL    HW1 7061   7.005   3.451   1.471
 2054SOL    HW2 7062   6.983   3.373   1.613
 2055SOL     OW 7063   6.233   1.872   4.062
 2055SOL    HW1 7064   6.151   1.921   4.090
 2055SOL    HW2 7065   6.297   1.935   4.019
 2056SOL     OW 7066   0.812   0.258   1.780
 2056SOL    HW1 7067   0.830   0.268   1.878
 2056SOL    HW2 7068   0.757   0.176   1.764
 2057SOL     OW 7069   6.341   2.224   4.124
 2057SOL    HW1 7070   6.325   2.157   4.051
 2057SOL    HW2 7071   6.283   2.202   4.203
 2058SOL     OW 7072   0.840   1.739   2.087
 2058SOL    HW1 7073   0.794   1.795   2.018
 2058SOL    HW2 7074   0.903   1.676   2.043
 2059SOL     OW 7075   1.420   0.282   6.643
 2059SOL    HW1 7076   1.505   0.289   6.590
 2059SOL    HW2 7077   1.342   0.301   6.583
 2060SOL     OW 7078   0.176   5.652   2.017
 2060SOL    HW1 7079   0.268   5.636   1.981
 2060SOL    HW2 7080   0.147   5.745   1.995
 2061SOL     OW 7081   0.855   0.968   1.156
 2061SOL    HW1 7082   0.756   0.965   1.142
 2061SOL    HW2 7083   0.899   1.012   1.078
 2062SOL     OW 7084   3.995   0.303   3.648
 2062SOL    HW1 7085   3.916   0.360   3.670
 2062SOL    HW2 7086   4.052   0.350   3.581
 2063SOL     OW 7087   2.220   1.900   0.501
 2063SOL    HW1 7088   2.169   1.977   0.463
 2063SOL    HW2 7089   2.192   1.884   0.595
 2064SOL     OW 7090   0.868   1.952   0.073
 2064SOL    HW1 7091   0.950   1.909   0.037
 2064SOL    HW2 7092   0.889   1.995   0.161
 2065SOL     OW 7093   6.395   3.035   2.261
 2065SOL    HW1 7094   6.424   2.959   2.202
 2065SOL    HW2 7095   6.464   3.050   2.331
 2066SOL     OW 7096   1.680   6.827   3.080
 2066SOL    HW1 7097   1.723   6.917   3.070
 2066SOL    HW2 7098   1.699   6.791   3.171
 2067SOL     OW 7099   6.990   0.114   0.685
 2067SOL    HW1 7100   6.895   0.104   0.656
 2067SOL    HW2 7101   6.994   0.153   0.776
 2068SOL     OW 7102   2.069   1.338   4.748
 2068SOL    HW1 7103   2.096   1.433   4.761
 2068SOL    HW2 7104   2.149   1.278   4.758
 2069SOL     OW 7105   1.156   1.938   2.064
 2069SOL    HW1 7106   1.145   2.008   2.135
 2069SOL    HW2 7107   1.190   1.853   2.105
 2070SOL     OW 7108   0.868   0.942   2.643
 2070SOL    HW1 7109   0.867   0.849   2.680
 2070SOL    HW2 7110   0.962   0.975   2.641
 2071SOL     OW 7111   1.965   6.243   4.924
 2071SOL    HW1 7112   1.886   6.185   4.941
 2071SOL    HW2 7113   2.004   6.222   4.834
 2072SOL     OW 7114   4.733   4.690   2.229
 2072SOL    HW1 7115   4.780   4.603   2.241
 2072SOL    HW2 7116   4.718   4.732   2.319
 2073SOL     OW 7117   3.522   6.140   5.400
 2073SOL    HW1 7118   3.601   6.201   5.393
 2073SOL    HW2 7119   3.439   6.194   5.414
 2074SOL     OW 7120   6.294   2.105   2.159
 2074SOL    HW1 7121   6.214   2.163   2.141
 2074SOL    HW2 7122   6.330   2.071   2.073
 2075SOL     OW 7123   3.927   3.817   6.362
 2075SOL    HW1 7124   3.954   3.730   6.320
 2075SOL    HW2 7125   3.832   3.811   6.393
 2076SOL     OW 7126   4.626   0.372   1.224
 2076SOL    HW1 7127   4.587   0.292   1.270
 2076SOL    HW2 7128   4.682   0.342   1.147
 2077SOL     OW 7129   4.946   1.401   3.562
 2077SOL    HW1 7130   4.870   1.446   3.610
 2077SOL    HW2 7131   5.024   1.464   3.557
 2078SOL     OW 7132   4.128   5.649   4.979
 2078SOL    HW1 7133   4.174   5.562   4.961
 2078SOL    HW2 7134   4.177   5.723   4.934
 2079SOL     OW 7135   5.761   0.541   3.439
 2079SOL    HW1 7136   5.715   0.598   3.371
 2079SOL    HW2 7137   5.846   0.586   3.466
 2080SOL     OW 7138   2.798   2.321   4.191
 2080SOL    HW1 7139   2.890   2.288   4.169
 2080SOL    HW2 7140   2.732   2.285   4.125
 2081SOL     OW 7141   1.019   6.030   4.292
 2081SOL    HW1 7142   0.983   5.988   4.209
 2081SOL    HW2 7143   0.997   6.128   4.292
 2082SOL     OW 7144   5.002   0.460   2.088
 2082SOL    HW1 7145   4.973   0.555   2.104
 2082SOL    HW2 7146   4.938   0.417   2.024
 2083SOL     OW 7147   3.281   5.192   5.988
 2083SOL    HW1 7148   3.257   5.203   5.892
 2083SOL    HW2 7149   3.246   5.105   6.021
 2084SOL     OW 7150   0.019   2.589   2.458
 2084SOL    HW1 7151   6.996   2.505   2.496
 2084SOL    HW2 7152   0.099   2.567   2.404
 2085SOL     OW 7153   5.413   6.173   6.689
 2085SOL    HW1 7154   5.421   6.251   6.750
 2085SOL    HW2 7155   5.504   6.132   6.676
 2086SOL     OW 7156   3.792   5.417   0.471
 2086SOL    HW1 7157   3.719   5.484   0.458
 2086SOL    HW2 7158   3.771   5.360   0.551
 2087SOL     OW 7159   6.195   5.724   3.538
 2087SOL    HW1 7160   6.154   5.728   3.447
 2087SOL    HW2 7161   6.129   5.760   3.605
 2088SOL     OW 7162   2.354   0.075   0.965
 2088SOL    HW1 7163   2.311   7.003   0.947
 2088SOL    HW2 7164   2.286   0.148   0.953
 2089SOL     OW 7165   3.042   0.943   6.619
 2089SOL    HW1 7166   3.072   0.972   6.528
 2089SOL    HW2 7167   3.120   0.941   6.681
 2090SOL     OW 7168   3.101   3.063   3.661
 2090SOL    HW1 7169   3.133   2.999   3.731
 2090SOL    HW2 7170   3.055   3.140   3.705
 2091SOL     OW 7171   1.829   5.377   0.747
 2091SOL    HW1 7172   1.912   5.431   0.738
 2091SOL    HW2 7173   1.831   5.325   0.832
 2092SOL     OW 7174   0.036   6.096   1.660
 2092SOL    HW1 7175   0.088   6.140   1.733
 2092SOL    HW2 7176   6.968   6.057   1.697
 2093SOL     OW 7177   0.831   2.643   1.661
 2093SOL    HW1 7178   0.870   2.691   1.740
 2093SOL    HW2 7179   0.900   2.583   1.621
 2094SOL     OW 7180   6.438   0.545   1.916
 2094SOL    HW1 7181   6.439   0.457   1.963
 2094SOL    HW2 7182   6.350   0.590   1.931
 2095SOL     OW 7183   6.820   4.760   4.687
 2095SOL    HW1 7184   6.774   4.714   4.612
 2095SOL    HW2 7185   6.904   4.803   4.653
 2096SOL     OW 7186   5.129   3.885   3.382
 2096SOL    HW1 7187   5.204   3.910   3.443
 2096SOL    HW2 7188   5.122   3.785   3.377
 2097SOL     OW 7189   6.214   3.582   0.065
 2097SOL    HW1 7190   6.197   3.623   0.154
 2097SOL    HW2 7191   6.310   3.595   0.040
 2098SOL     OW 7192   4.610   0.291   3.953
 2098SOL    HW1 7193   4.547   0.330   4.020
 2098SOL    HW2 7194   4.675   0.230   3.999
 2099SOL     OW 7195   2.861   2.170   2.892
 2099SOL    HW1 7196   2.960   2.175   2.897
 2099SOL    HW2 7197   2.829   2.085   2.934
 2100SOL     OW 7198   3.615   4.444   6.510
 2100SOL    HW1 7199   3.574   4.428   6.420
 2100SOL    HW2 7200   3.604   4.540   6.535
 2101SOL     OW 7201   0.224   0.652   2.546
 2101SOL    HW1 7202   0.303   0.593   2.528
 2101SOL    HW2 7203   0.178   0.674   2.460
 2102SOL     OW 7204   0.157   4.793   1.900
 2102SOL    HW1 7205   0.062   4.779   1.926
 2102SOL    HW2 7206   0.162   4.861   1.827
 2103SOL     OW 7207   2.511   3.634   6.244
 2103SOL    HW1 7208   2.434   3.697   6.238
 2103SOL    HW2 7209   2.597   3.685   6.248
 2104SOL     OW 7210   1.179   3.869   5.436
 2104SOL    HW1 7211   1.169   3.968   5.425
 2104SOL    HW2 7212   1.118   3.822   5.371
 2105SOL     OW 7213   6.180   5.842   1.564
 2105SOL    HW1 7214   6.086   5.869   1.546
 2105SOL    HW2 7215   6.239   5.874   1.490
 2106SOL     OW 7216   5.825   5.326   6.750
 2106SOL    HW1 7217   5.822   5.331   6.650
 2106SOL    HW2 7218   5.768   5.399   6.789
 2107SOL     OW 7219   2.829   4.696   0.314
 2107SOL    HW1 7220   2.828   4.663   0.408
 2107SOL    HW2 7221   2.780   4.631   0.255
 2108SOL     OW 7222   5.490   4.491   5.763
 2108SOL    HW1 7223   5.486   4.542   5.677
 2108SOL    HW2 7224   5.544   4.408   5.750
 2109SOL     OW 7225   5.736   6.143   2.667
 2109SOL    HW1 7226   5.736   6.108   2.573
 2109SOL    HW2 7227   5.803   6.091   2.721
 2110SOL     OW 7228   2.375   4.837   4.764
 2110SOL    HW1 7229   2.451   4.777   4.791
 2110SOL    HW2 7230   2.314   4.851   4.842
 2111SOL     OW 7231   1.965   2.645   6.790
 2111SOL    HW1 7232   1.882   2.686   6.828
 2111SOL    HW2 7233   2.037   2.645   6.859
 2112SOL     OW 7234   5.517   3.187   0.973
 2112SOL    HW1 7235   5.517   3.102   0.922
 2112SOL    HW2 7236   5.564   3.174   1.060
 2113SOL     OW 7237   6.682   1.715   3.217
 2113SOL    HW1 7238   6.772   1.677   3.196
 2113SOL    HW2 7239   6.640   1.750   3.133
 2114SOL     OW 7240   1.678   3.693   0.491
 2114SOL    HW1 7241   1.715   3.785   0.481
 2114SOL    HW2 7242   1.722   3.632   0.424
 2115SOL     OW 7243   3.035   5.553   2.072
 2115SOL    HW1 7244   3.071   5.606   1.996
 2115SOL    HW2 7245   3.053   5.455   2.056
 2116SOL     OW 7246   0.182   3.950   3.284
 2116SOL    HW1 7247   0.176   3.977   3.380
 2116SOL    HW2 7248   0.178   4.031   3.226
 2117SOL     OW 7249   6.982   5.827   6.405
 2117SOL    HW1 7250   0.052   5.778   6.390
 2117SOL    HW2 7251   6.957   5.877   6.322
 2118SOL     OW 7252   6.637   3.547   2.012
 2118SOL    HW1 7253   6.718   3.526   2.067
 2118SOL    HW2 7254   6.647   3.639   1.973
 2119SOL     OW 7255   3.509   5.801   0.566
 2119SOL    HW1 7256   3.503   5.702   0.554
 2119SOL    HW2 7257   3.599   5.825   0.601
 2120SOL     OW 7258   6.748   4.538   2.327
 2120SOL    HW1 7259   6.798   4.606   2.381
 2120SOL    HW2 7260   6.687   4.486   2.387
 2121SOL     OW 7261   0.657   4.095   4.750
 2121SOL    HW1 7262   0.656   4.113   4.848
 2121SOL    HW2 7263   0.564   4.084   4.716
 2122SOL     OW 7264   4.565   4.665   5.756
 2122SOL    HW1 7265   4.536   4.586   5.809
 2122SOL    HW2 7266   4.664   4.678   5.766
 2123SOL     OW 7267   4.343   4.755   3.711
 2123SOL    HW1 7268   4.292   4.782   3.792
 2123SOL    HW2 7269   4.403   4.678   3.733
 2124SOL     OW 7270   2.890   1.603   1.534
 2124SOL    HW1 7271   2.874   1.623   1.630
 2124SOL    HW2 7272   2.987   1.583   1.519
 2125SOL     OW 7273   3.464   6.962   0.704
 2125SOL    HW1 7274   3.410   6.982   0.786
 2125SOL    HW2 7275   3.410   6.984   0.622
 2126SOL     OW 7276   2.789   0.590   1.917
 2126SOL    HW1 7277   2.784   0.499   1.876
 2126SOL    HW2 7278   2.758   0.586   2.012
 2127SOL     OW 7279   5.808   2.792   5.031
 2127SOL    HW1 7280   5.856   2.870   5.072
 2127SOL    HW2 7281   5.865   2.752   4.959
 2128SOL     OW 7282   0.801   4.412   4.181
 2128SOL    HW1 7283   0.801   4.411   4.081
 2128SOL    HW2 7284   0.821   4.504   4.213
 2129SOL     OW 7285   4.047   2.358   5.578
 2129SOL    HW1 7286   4.010   2.277   5.623
 2129SOL    HW2 7287   4.024   2.355   5.481
 2130SOL     OW 7288   4.691   0.722   3.551
 2130SOL    HW1 7289   4.637   0.639   3.564
 2130SOL    HW2 7290   4.784   0.707   3.585
 2131SOL     OW 7291   5.397   1.845   6.825
 2131SOL    HW1 7292   5.492   1.863   6.797
 2131SOL    HW2 7293   5.335   1.878   6.754
 2132SOL     OW 7294   1.836   3.499   0.902
 2132SOL    HW1 7295   1.815   3.582   0.851
 2132SOL    HW2 7296   1.849   3.521   0.999
 2133SOL     OW 7297   2.324   3.492   5.930
 2133SOL    HW1 7298   2.270   3.481   6.013
 2133SOL    HW2 7299   2.307   3.416   5.868
 2134SOL     OW 7300   0.405   6.923   0.935
 2134SOL    HW1 7301   0.307   6.940   0.924
 2134SOL    HW2 7302   0.433   6.847   0.876
 2135SOL     OW 7303   6.667   4.380   5.537
 2135SOL    HW1 7304   6.760   4.409   5.559
 2135SOL    HW2 7305   6.667   4.282   5.516
 2136SOL     OW 7306   0.641   4.733   0.767
 2136SOL    HW1 7307   0.651   4.832   0.760
 2136SOL    HW2 7308   0.696   4.699   0.843
 2137SOL     OW 7309   1.239   6.436   4.113
 2137SOL    HW1 7310   1.242   6.420   4.212
 2137SOL    HW2 7311   1.271   6.529   4.094
 2138SOL     OW 7312   5.324   2.055   1.907
 2138SOL    HW1 7313   5.377   2.028   1.827
 2138SOL    HW2 7314   5.229   2.025   1.896
 2139SOL     OW 7315   3.079   0.106   5.322
 2139SOL    HW1 7316   3.019   0.162   5.265
 2139SOL    HW2 7317   3.149   0.165   5.364
 2140SOL     OW 7318   2.632   1.656   4.290
 2140SOL    HW1 7319   2.705   1.659   4.359
 2140SOL    HW2 7320   2.602   1.749   4.269
 2141SOL     OW 7321   6.625   3.170   3.223
 2141SOL    HW1 7322   6.652   3.089   3.172
 2141SOL    HW2 7323   6.576   3.143   3.306
 2142SOL     OW 7324   1.539   2.258   2.412
 2142SOL    HW1 7325   1.571   2.243   2.506
 2142SOL    HW2 7326   1.613   2.237   2.348
 2143SOL     OW 7327   0.683   4.841   6.180
 2143SOL    HW1 7328   0.626   4.766   6.146
 2143SOL    HW2 7329   0.766   4.804   6.222
 2144SOL     OW 7330   6.715   4.510   3.273
 2144SOL    HW1 7331   6.692   4.423   3.229
 2144SOL    HW2 7332   6.652   4.581   3.241
 2145SOL     OW 7333   4.104   1.502   3.174
 2145SOL    HW1 7334   4.186   1.539   3.130
 2145SOL    HW2 7335   4.118   1.404   3.192
 2146SOL     OW 7336   2.644   2.716   0.092
 2146SOL    HW1 7337   2.725   2.755   0.049
 2146SOL    HW2 7338   2.647   2.732   0.191
 2147SOL     OW 7339   6.094   6.759   3.933
 2147SOL    HW1 7340   6.182   6.729   3.972
 2147SOL    HW2 7341   6.107   6.782   3.837
 2148SOL     OW 7342   0.399   3.218   6.024
 2148SOL    HW1 7343   0.300   3.215   6.036
 2148SOL    HW2 7344   0.422   3.195   5.930
 2149SOL     OW 7345   0.754   0.329   0.129
 2149SOL    HW1 7346   0.798   0.389   0.196
 2149SOL    HW2 7347   0.656   0.323   0.147
 2150SOL     OW 7348   1.751   3.266   1.234
 2150SOL    HW1 7349   1.735   3.247   1.138
 2150SOL    HW2 7350   1.664   3.265   1.284
 2151SOL     OW 7351   0.793   5.016   0.227
 2151SOL    HW1 7352   0.867   5.025   0.293
 2151SOL    HW2 7353   0.807   5.080   0.151
 2152SOL     OW 7354   5.413   6.016   3.821
 2152SOL    HW1 7355   5.427   5.983   3.915
 2152SOL    HW2 7356   5.487   6.078   3.797
 2153SOL     OW 7357   5.276   0.386   4.398
 2153SOL    HW1 7358   5.212   0.311   4.413
 2153SOL    HW2 7359   5.257   0.430   4.310
 2154SOL     OW 7360   2.567   0.589   2.766
 2154SOL    HW1 7361   2.587   0.570   2.863
 2154SOL    HW2 7362   2.493   0.530   2.735
 2155SOL     OW 7363   4.151   0.794   1.170
 2155SOL    HW1 7364   4.109   0.770   1.258
 2155SOL    HW2 7365   4.080   0.818   1.104
 2156SOL     OW 7366   5.354   2.018   5.024
 2156SOL    HW1 7367   5.376   2.055   5.115
 2156SOL    HW2 7368   5.425   1.954   4.996
 2157SOL     OW 7369   3.820   6.135   4.165
 2157SOL    HW1 7370   3.758   6.112   4.240
 2157SOL    HW2 7371   3.777   6.203   4.105
 2158SOL     OW 7372   2.990   0.263   0.405
 2158SOL    HW1 7373   2.940   0.307   0.480
 2158SOL    HW2 7374   2.927   0.208   0.351
 2159SOL     OW 7375   0.612   0.866   5.261
 2159SOL    HW1 7376   0.670   0.787   5.239
 2159SOL    HW2 7377   0.639   0.903   5.350
 2160SOL     OW 7378   5.352   6.984   6.944
 2160SOL    HW1 7379   5.363   6.943   0.018
 2160SOL    HW2 7380   5.441   6.995   6.901
 2161SOL     OW 7381   1.726   3.255   0.950
 2161SOL    HW1 7382   1.738   3.349   0.917
 2161SOL    HW2 7383   1.796   3.196   0.910
 2162SOL     OW 7384   1.607   0.613   1.562
 2162SOL    HW1 7385   1.545   0.680   1.520
 2162SOL    HW2 7386   1.587   0.522   1.525
 2163SOL     OW 7387   1.476   3.476   3.036
 2163SOL    HW1 7388   1.474   3.384   3.077
 2163SOL    HW2 7389   1.406   3.533   3.079
 2164SOL     OW 7390   2.067   3.422   2.415
 2164SOL    HW1 7391   2.112   3.338   2.444
 2164SOL    HW2 7392   1.969   3.406   2.406
 2165SOL     OW 7393   6.467   1.152   4.515
 2165SOL    HW1 7394   6.482   1.077   4.450
 2165SOL    HW2 7395   6.543   1.217   4.509
 2166SOL     OW 7396   0.130   3.383   2.532
 2166SOL    HW1 7397   0.034   3.386   2.560
 2166SOL    HW2 7398   0.134   3.376   2.432
 2167SOL     OW 7399   2.008   1.847   2.975
 2167SOL    HW1 7400   2.046   1.940   2.978
 2167SOL    HW2 7401   1.936   1.838   3.045
 2168SOL     OW 7402   1.834   1.693   3.374
 2168SOL    HW1 7403   1.770   1.713   3.448
 2168SOL    HW2 7404   1.799   1.729   3.288
 2169SOL     OW 7405   6.767   6.673   1.578
 2169SOL    HW1 7406   6.706   6.624   1.639
 2169SOL    HW2 7407   6.726   6.761   1.553
 2170SOL     OW 7408   1.119   3.577   5.979
 2170SOL    HW1 7409   1.214   3.562   5.951
 2170SOL    HW2 7410   1.102   3.675   5.990
 2171SOL     OW 7411   6.626   6.049   1.226
 2171SOL    HW1 7412   6.670   6.139   1.226
 2171SOL    HW2 7413   6.535   6.057   1.268
 2172SOL     OW 7414   2.464   1.708   5.228
 2172SOL    HW1 7415   2.446   1.625   5.281
 2172SOL    HW2 7416   2.535   1.762   5.274
 2173SOL     OW 7417   5.112   0.782   5.163
 2173SOL    HW1 7418   5.116   0.850   5.090
 2173SOL    HW2 7419   5.158   0.818   5.245
 2174SOL     OW 7420   5.665   0.184   6.066
 2174SOL    HW1 7421   5.648   0.282   6.056
 2174SOL    HW2 7422   5.672   0.161   6.163
 2175SOL     OW 7423   2.669   3.903   5.289
 2175SOL    HW1 7424   2.637   3.899   5.384
 2175SOL    HW2 7425   2.592   3.924   5.228
 2176SOL     OW 7426   5.361   2.287   2.669
 2176SOL    HW1 7427   5.392   2.192   2.675
 2176SOL    HW2 7428   5.408   2.342   2.737
 2177SOL     OW 7429   1.159   1.016   4.709
 2177SOL    HW1 7430   1.171   0.969   4.622
 2177SOL    HW2 7431   1.243   1.010   4.762
 2178SOL     OW 7432   1.286   1.818   2.929
 2178SOL    HW1 7433   1.295   1.898   2.988
 2178SOL    HW2 7434   1.373   1.768   2.926
 2179SOL     OW 7435   2.098   4.140   6.667
 2179SOL    HW1 7436   2.084   4.230   6.625
 2179SOL    HW2 7437   2.195   4.116   6.663
 2180SOL     OW 7438   0.777   5.713   2.597
 2180SOL    HW1 7439   0.868   5.753   2.586
 2180SOL    HW2 7440   0.776   5.622   2.554
 2181SOL     OW 7441   4.098   4.844   4.776
 2181SOL    HW1 7442   4.007   4.859   4.739
 2181SOL    HW2 7443   4.100   4.874   4.872
 2182SOL     OW 7444   0.482   6.166   1.635
 2182SOL    HW1 7445   0.520   6.120   1.555
 2182SOL    HW2 7446   0.537   6.247   1.656
 2183SOL     OW 7447   3.167   3.211   6.616
 2183SOL    HW1 7448   3.116   3.263   6.547
 2183SOL    HW2 7449   3.200   3.273   6.688
 2184SOL     OW 7450   6.373   1.201   0.779
 2184SOL    HW1 7451   6.314   1.277   0.806
 2184SOL    HW2 7452   6.469   1.231   0.781
 2185SOL     OW 7453   0.703   0.890   5.936
 2185SOL    HW1 7454   0.668   0.827   5.867
 2185SOL    HW2 7455   0.770   0.952   5.894
 2186SOL     OW 7456   6.555   5.876   5.387
 2186SOL    HW1 7457   6.461   5.854   5.359
 2186SOL    HW2 7458   6.576   5.969   5.360
 2187SOL     OW 7459   6.321   5.022   1.630
 2187SOL    HW1 7460   6.326   5.121   1.636
 2187SOL    HW2 7461   6.401   4.987   1.581
 2188SOL     OW 7462   2.618   1.002   0.323
 2188SOL    HW1 7463   2.685   1.008   0.397
 2188SOL    HW2 7464   2.605   0.906   0.298
 2189SOL     OW 7465   2.021   1.196   1.746
 2189SOL    HW1 7466   2.023   1.279   1.690
 2189SOL    HW2 7467   2.040   1.116   1.688
 2190SOL     OW 7468   6.765   3.863   1.551
 2190SOL    HW1 7469   6.816   3.938   1.593
 2190SOL    HW2 7470   6.803   3.776   1.584
 2191SOL     OW 7471   3.112   0.612   6.734
 2191SOL    HW1 7472   3.020   0.580   6.710
 2191SOL    HW2 7473   3.120   0.618   6.834
 2192SOL     OW 7474   5.015   1.721   1.774
 2192SOL    HW1 7475   5.071   1.789   1.822
 2192SOL    HW2 7476   4.920   1.731   1.801
 2193SOL     OW 7477   2.466   0.116   5.207
 2193SOL    HW1 7478   2.475   0.184   5.280
 2193SOL    HW2 7479   2.398   0.048   5.233
 2194SOL     OW 7480   0.625   3.893   6.282
 2194SOL    HW1 7481   0.576   3.859   6.362
 2194SOL    HW2 7482   0.604   3.835   6.203
 2195SOL     OW 7483   0.291   3.855   4.713
 2195SOL    HW1 7484   0.285   3.924   4.641
 2195SOL    HW2 7485   0.229   3.779   4.691
 2196SOL     OW 7486   3.577   0.937   6.801
 2196SOL    HW1 7487   3.524   0.853   6.814
 2196SOL    HW2 7488   3.559   0.973   6.709
 2197SOL     OW 7489   3.545   5.891   5.950
 2197SOL    HW1 7490   3.555   5.914   6.047
 2197SOL    HW2 7491   3.515   5.796   5.942
 2198SOL     OW 7492   1.090   0.868   6.732
 2198SOL    HW1 7493   1.142   0.794   6.775
 2198SOL    HW2 7494   1.141   0.954   6.741
 2199SOL     OW 7495   4.314   6.778   3.773
 2199SOL    HW1 7496   4.387   6.730   3.726
 2199SOL    HW2 7497   4.320   6.760   3.871
 2200SOL     OW 7498   2.848   2.294   3.869
 2200SOL    HW1 7499   2.944   2.311   3.890
 2200SOL    HW2 7500   2.807   2.237   3.941
 2201SOL     OW 7501   5.569   3.681   5.225
 2201SOL    HW1 7502   5.593   3.586   5.207
 2201SOL    HW2 7503   5.528   3.721   5.143
 2202SOL     OW 7504   3.732   0.296   2.709
 2202SOL    HW1 7505   3.815   0.278   2.657
 2202SOL    HW2 7506   3.678   0.212   2.716
 2203SOL     OW 7507   1.486   4.995   1.075
 2203SOL    HW1 7508   1.495   4.950   1.163
 2203SOL    HW2 7509   1.552   4.957   1.010
 2204SOL     OW 7510   6.168   2.618   0.697
 2204SOL    HW1 7511   6.119   2.531   0.702
 2204SOL    HW2 7512   6.188   2.639   0.601
 2205SOL     OW 7513   6.857   5.399   0.850
 2205SOL    HW1 7514   6.840   5.491   0.887
 2205SOL    HW2 7515   6.770   5.351   0.839
 2206SOL     OW 7516   3.752   2.678   5.580
 2206SOL    HW1 7517   3.755   2.598   5.640
 2206SOL    HW2 7518   3.708   2.654   5.494
 2207SOL     OW 7519   4.896   5.961   1.573
 2207SOL    HW1 7520   4.963   5.980   1.645
 2207SOL    HW2 7521   4.926   6.003   1.488
 2208SOL     OW 7522   0.095   6.711   3.100
 2208SOL    HW1 7523   0.081   6.671   3.190
 2208SOL    HW2 7524   0.052   6.655   3.030
 2209SOL     OW 7525   3.129   5.985   4.133
 2209SOL    HW1 7526   3.068   6.063   4.146
 2209SOL    HW2 7527   3.223   6.018   4.127
 2210SOL     OW 7528   4.601   0.180   1.507
 2210SOL    HW1 7529   4.532   0.161   1.437
 2210SOL    HW2 7530   4.586   0.271   1.544
 2211SOL     OW 7531   1.415   1.792   0.986
 2211SOL    HW1 7532   1.344   1.787   0.916
 2211SOL    HW2 7533   1.380   1.837   1.068
 2212SOL     OW 7534   3.019   5.836   6.602
 2212SOL    HW1 7535   2.954   5.913   6.609
 2212SOL    HW2 7536   2.996   5.767   6.671
 2213SOL     OW 7537   3.582   1.840   4.849
 2213SOL    HW1 7538   3.491   1.859   4.886
 2213SOL    HW2 7539   3.603   1.743   4.861
 2214SOL     OW 7540   4.031   4.236   6.599
 2214SOL    HW1 7541   3.971   4.312   6.625
 2214SOL    HW2 7542   4.106   4.270   6.543
 2215SOL     OW 7543   3.663   6.865   0.539
 2215SOL    HW1 7544   3.683   6.772   0.570
 2215SOL    HW2 7545   3.605   6.911   0.606
 2216SOL     OW 7546   0.194   6.681   6.478
 2216SOL    HW1 7547   0.171   6.584   6.484
 2216SOL    HW2 7548   0.195   6.721   6.569
 2217SOL     OW 7549   4.412   1.645   3.729
 2217SOL    HW1 7550   4.389   1.556   3.767
 2217SOL    HW2 7551   4.427   1.638   3.631
 2218SOL     OW 7552   6.945   5.393   5.240
 2218SOL    HW1 7553   6.876   5.460   5.211
 2218SOL    HW2 7554   6.961   5.328   5.165
 2219SOL     OW 7555   5.349   1.164   0.686
 2219SOL    HW1 7556   5.285   1.218   0.631
 2219SOL    HW2 7557   5.358   1.205   0.776
 2220SOL     OW 7558   0.156   5.874   4.093
 2220SOL    HW1 7559   0.222   5.914   4.156
 2220SOL    HW2 7560   0.071   5.853   4.142
 2221SOL     OW 7561   6.169   1.225   4.313
 2221SOL    HW1 7562   6.160   1.135   4.356
 2221SOL    HW2 7563   6.266   1.246   4.299
 2222SOL     OW 7564   4.561   0.265   2.864
 2222SOL    HW1 7565   4.524   0.193   2.805
 2222SOL    HW2 7566   4.608   0.333   2.809
 2223SOL     OW 7567   0.914   6.633   5.152
 2223SOL    HW1 7568   0.988   6.640   5.085
 2223SOL    HW2 7569   0.829   6.665   5.111
 2224SOL     OW 7570   4.990   3.923   0.423
 2224SOL    HW1 7571   4.901   3.897   0.460
 2224SOL    HW2 7572   5.061   3.865   0.463
 2225SOL     OW 7573   6.943   6.459   1.782
 2225SOL    HW1 7574   6.940   6.536   1.845
 2225SOL    HW2 7575   6.993   6.485   1.699
 2226SOL     OW 7576   2.390   4.733   6.853
 2226SOL    HW1 7577   2.328   4.766   6.925
 2226SOL    HW2 7578   2.404   4.805   6.785
 2227SOL     OW 7579   4.075   1.739   1.882
 2227SOL    HW1 7580   4.132   1.821   1.889
 2227SOL    HW2 7581   4.009   1.738   1.957
 2228SOL     OW 7582   5.470   5.193   6.634
 2228SOL    HW1 7583   5.392   5.156   6.584
 2228SOL    HW2 7584   5.460   5.292   6.644
 2229SOL     OW 7585   3.029   3.173   4.010
 2229SOL    HW1 7586   2.994   3.226   3.933
 2229SOL    HW2 7587   3.020   3.227   4.094
 2230SOL     OW 7588   6.508   0.520   6.718
 2230SOL    HW1 7589   6.456   0.477   6.791
 2230SOL    HW2 7590   6.597   0.548   6.752
 2231SOL     OW 7591   1.378   6.766   6.101
 2231SOL    HW1 7592   1.315   6.689   6.109
 2231SOL    HW2 7593   1.427   6.778   6.188
 2232SOL     OW 7594   1.954   0.468   5.789
 2232SOL    HW1 7595   1.930   0.558   5.826
 2232SOL    HW2 7596   2.014   0.420   5.853
 2233SOL     OW 7597   2.695   4.631   0.592
 2233SOL    HW1 7598   2.696   4.727   0.618
 2233SOL    HW2 7599   2.652   4.577   0.664
 2234SOL     OW 7600   4.983   2.133   1.717
 2234SOL    HW1 7601   4.891   2.097   1.699
 2234SOL    HW2 7602   5.024   2.162   1.630
 2235SOL     OW 7603   0.599   1.674   3.350
 2235SOL    HW1 7604   0.690   1.714   3.361
 2235SOL    HW2 7605   0.600   1.608   3.276
 2236SOL     OW 7606   2.828   4.793   5.559
 2236SOL    HW1 7607   2.922   4.765   5.574
 2236SOL    HW2 7608   2.799   4.855   5.632
 2237SOL     OW 7609   6.339   5.779   5.869
 2237SOL    HW1 7610   6.243   5.796   5.848
 2237SOL    HW2 7611   6.392   5.861   5.851
 2238SOL     OW 7612   5.962   3.575   2.056
 2238SOL    HW1 7613   5.888   3.611   2.112
 2238SOL    HW2 7614   5.939   3.482   2.027
 2239SOL     OW 7615   4.741   6.357   2.858
 2239SOL    HW1 7616   4.652   6.321   2.887
 2239SOL    HW2 7617   4.727   6.438   2.802
 2240SOL     OW 7618   4.967   4.989   1.745
 2240SOL    HW1 7619   4.879   5.011   1.703
 2240SOL    HW2 7620   4.976   4.889   1.753
 2241SOL     OW 7621   0.378   1.528   2.825
 2241SOL    HW1 7622   0.364   1.583   2.908
 2241SOL    HW2 7623   0.470   1.488   2.826
 2242SOL     OW 7624   5.334   2.256   3.894
 2242SOL    HW1 7625   5.410   2.195   3.917
 2242SOL    HW2 7626   5.268   2.256   3.969
 2243SOL     OW 7627   2.464   6.809   0.736
 2243SOL    HW1 7628   2.493   6.726   0.782
 2243SOL    HW2 7629   2.364   6.815   0.737
 2244SOL     OW 7630   2.202   1.614   0.532
 2244SOL    HW1 7631   2.186   1.712   0.520
 2244SOL    HW2 7632   2.239   1.575   0.448
 2245SOL     OW 7633   0.262   0.844   0.116
 2245SOL    HW1 7634   0.354   0.844   0.155
 2245SOL    HW2 7635   0.222   0.753   0.126
 2246SOL     OW 7636   3.791   2.138   5.185
 2246SOL    HW1 7637   3.822   2.199   5.258
 2246SOL    HW2 7638   3.694   2.118   5.199
 2247SOL     OW 7639   3.122   3.052   2.240
 2247SOL    HW1 7640   3.106   3.141   2.282
 2247SOL    HW2 7641   3.074   3.047   2.153
 2248SOL     OW 7642   4.646   4.036   5.384
 2248SOL    HW1 7643   4.550   4.009   5.384
 2248SOL    HW2 7644   4.703   3.954   5.375
 2249SOL     OW 7645   2.000   6.559   2.894
 2249SOL    HW1 7646   2.025   6.476   2.845
 2249SOL    HW2 7647   2.048   6.562   2.982
 2250SOL     OW 7648   4.466   5.870   6.539
 2250SOL    HW1 7649   4.516   5.927   6.603
 2250SOL    HW2 7650   4.499   5.886   6.446
 2251SOL     OW 7651   4.845   6.488   4.763
 2251SOL    HW1 7652   4.872   6.506   4.858
 2251SOL    HW2 7653   4.904   6.539   4.701
 2252SOL     OW 7654   3.962   1.173   2.329
 2252SOL    HW1 7655   3.870   1.193   2.294
 2252SOL    HW2 7656   4.028   1.232   2.282
 2253SOL     OW 7657   0.099   3.318   1.192
 2253SOL    HW1 7658   0.040   3.389   1.229
 2253SOL    HW2 7659   0.060   3.228   1.212
 2254SOL     OW 7660   4.019   3.419   2.915
 2254SOL    HW1 7661   3.926   3.441   2.887
 2254SOL    HW2 7662   4.017   3.356   2.992
 2255SOL     OW 7663   1.953   3.104   6.591
 2255SOL    HW1 7664   1.952   3.060   6.501
 2255SOL    HW2 7665   1.929   3.201   6.581
 2256SOL     OW 7666   5.517   0.110   1.360
 2256SOL    HW1 7667   5.441   0.050   1.333
 2256SOL    HW2 7668   5.489   0.166   1.438
 2257SOL     OW 7669   6.643   0.751   5.594
 2257SOL    HW1 7670   6.726   0.724   5.643
 2257SOL    HW2 7671   6.564   0.707   5.636
 2258SOL     OW 7672   2.581   6.107   4.162
 2258SOL    HW1 7673   2.626   6.065   4.240
 2258SOL    HW2 7674   2.630   6.083   4.078
 2259SOL     OW 7675   6.078   2.115   5.242
 2259SOL    HW1 7676   6.086   2.094   5.144
 2259SOL    HW2 7677   6.125   2.044   5.295
 2260SOL     OW 7678   0.671   3.760   1.551
 2260SOL    HW1 7679   0.629   3.809   1.627
 2260SOL    HW2 7680   0.731   3.823   1.501
 2261SOL     OW 7681   5.354   3.998   0.325
 2261SOL    HW1 7682   5.324   4.091   0.304
 2261SOL    HW2 7683   5.296   3.932   0.277
 2262SOL     OW 7684   6.628   0.138   4.645
 2262SOL    HW1 7685   6.639   0.220   4.702
 2262SOL    HW2 7686   6.702   0.134   4.578
 2263SOL     OW 7687   2.076   4.508   6.324
 2263SOL    HW1 7688   2.116   4.594   6.291
 2263SOL    HW2 7689   2.055   4.449   6.246
 2264SOL     OW 7690   3.269   0.085   5.710
 2264SOL    HW1 7691   3.231   7.009   5.708
 2264SOL    HW2 7692   3.298   0.108   5.803
 2265SOL     OW 7693   6.682   6.516   4.291
 2265SOL    HW1 7694   6.682   6.599   4.347
 2265SOL    HW2 7695   6.732   6.444   4.340
 2266SOL     OW 7696   4.122   3.023   6.739
 2266SOL    HW1 7697   4.043   2.983   6.693
 2266SOL    HW2 7698   4.202   3.017   6.679
 2267SOL     OW 7699   5.659   2.927   4.467
 2267SOL    HW1 7700   5.695   2.958   4.379
 2267SOL    HW2 7701   5.697   2.837   4.489
 2268SOL     OW 7702   1.499   5.882   4.550
 2268SOL    HW1 7703   1.570   5.846   4.609
 2268SOL    HW2 7704   1.522   5.864   4.455
 2269SOL     OW 7705   1.909   2.382   5.356
 2269SOL    HW1 7706   1.975   2.401   5.283
 2269SOL    HW2 7707   1.918   2.286   5.384
 2270SOL     OW 7708   4.489   1.628   6.196
 2270SOL    HW1 7709   4.495   1.531   6.219
 2270SOL    HW2 7710   4.404   1.645   6.146
 2271SOL     OW 7711   4.640   5.401   5.416
 2271SOL    HW1 7712   4.667   5.429   5.324
 2271SOL    HW2 7713   4.617   5.304   5.416
 2272SOL     OW 7714   5.198   1.105   5.890
 2272SOL    HW1 7715   5.279   1.159   5.867
 2272SOL    HW2 7716   5.225   1.010   5.910
 2273SOL     OW 7717   1.117   2.546   3.198
 2273SOL    HW1 7718   1.196   2.583   3.149
 2273SOL    HW2 7719   1.123   2.569   3.295
 2274SOL     OW 7720   0.876   1.487   6.945
 2274SOL    HW1 7721   0.937   1.566   6.951
 2274SOL    HW2 7722   0.782   1.518   6.931
 2275SOL     OW 7723   5.657   4.064   2.883
 2275SOL    HW1 7724   5.578   4.084   2.827
 2275SOL    HW2 7725   5.738   4.052   2.825
 2276SOL     OW 7726   2.017   1.956   1.024
 2276SOL    HW1 7727   2.089   1.907   0.975
 2276SOL    HW2 7728   2.055   1.998   1.106
 2277SOL     OW 7729   3.892   3.043   3.636
 2277SOL    HW1 7730   3.840   3.128   3.622
 2277SOL    HW2 7731   3.849   2.970   3.583
 2278SOL     OW 7732   0.426   2.630   4.004
 2278SOL    HW1 7733   0.493   2.701   3.979
 2278SOL    HW2 7734   0.460   2.541   3.974
 2279SOL     OW 7735   0.742   5.906   5.276
 2279SOL    HW1 7736   0.764   5.972   5.347
 2279SOL    HW2 7737   0.826   5.867   5.240
 2280SOL     OW 7738   4.458   2.095   5.888
 2280SOL    HW1 7739   4.442   2.032   5.812
 2280SOL    HW2 7740   4.426   2.186   5.862
 2281SOL     OW 7741   5.827   6.666   2.410
 2281SOL    HW1 7742   5.908   6.659   2.468
 2281SOL    HW2 7743   5.782   6.577   2.405
 2282SOL     OW 7744   3.853   6.757   5.549
 2282SOL    HW1 7745   3.791   6.834   5.564
 2282SOL    HW2 7746   3.867   6.744   5.451
 2283SOL     OW 7747   0.149   0.600   3.894
 2283SOL    HW1 7748   0.212   0.627   3.967
 2283SOL    HW2 7749   0.070   0.661   3.893
 2284SOL     OW 7750   1.253   2.563   0.072
 2284SOL    HW1 7751   1.327   2.602   0.126
 2284SOL    HW2 7752   1.166   2.584   0.114
 2285SOL     OW 7753   1.756   4.304   6.583
 2285SOL    HW1 7754   1.698   4.293   6.502
 2285SOL    HW2 7755   1.839   4.355   6.557
 2286SOL     OW 7756   4.852   4.654   3.245
 2286SOL    HW1 7757   4.925   4.610   3.297
 2286SOL    HW2 7758   4.864   4.753   3.247
 2287SOL     OW 7759   1.090   1.312   3.221
 2287SOL    HW1 7760   1.046   1.386   3.170
 2287SOL    HW2 7761   1.068   1.320   3.318
 2288SOL     OW 7762   6.900   5.503   2.720
 2288SOL    HW1 7763   6.935   5.526   2.630
 2288SOL    HW2 7764   6.800   5.498   2.717
 2289SOL     OW 7765   0.146   5.747   0.785
 2289SOL    HW1 7766   0.102   5.696   0.858
 2289SOL    HW2 7767   0.229   5.700   0.755
 2290SOL     OW 7768   0.840   5.459   0.278
 2290SOL    HW1 7769   0.824   5.369   0.237
 2290SOL    HW2 7770   0.791   5.529   0.226
 2291SOL     OW 7771   2.060   1.653   6.928
 2291SOL    HW1 7772   2.029   1.715   7.000
 2291SOL    HW2 7773   2.121   1.584   6.967
 2292SOL     OW 7774   2.212   1.562   4.662
 2292SOL    HW1 7775   2.252   1.652   4.643
 2292SOL    HW2 7776   2.248   1.495   4.598
 2293SOL     OW 7777   5.329   4.253   2.650
 2293SOL    HW1 7778   5.256   4.221   2.709
 2293SOL    HW2 7779   5.306   4.344   2.615
 2294SOL     OW 7780   3.253   6.211   6.742
 2294SOL    HW1 7781   3.278   6.273   6.815
 2294SOL    HW2 7782   3.323   6.213   6.671
 2295SOL     OW 7783   0.827   2.213   1.225
 2295SOL    HW1 7784   0.914   2.248   1.260
 2295SOL    HW2 7785   0.757   2.222   1.296
 2296SOL     OW 7786   3.283   6.594   0.778
 2296SOL    HW1 7787   3.230   6.663   0.728
 2296SOL    HW2 7788   3.249   6.588   0.872
 2297SOL     OW 7789   4.294   6.389   6.380
 2297SOL    HW1 7790   4.223   6.318   6.380
 2297SOL    HW2 7791   4.266   6.465   6.439
 2298SOL     OW 7792   4.106   3.091   6.454
 2298SOL    HW1 7793   4.053   3.008   6.470
 2298SOL    HW2 7794   4.048   3.162   6.414
 2299SOL     OW 7795   4.282   6.536   0.124
 2299SOL    HW1 7796   4.238   6.612   0.075
 2299SOL    HW2 7797   4.216   6.495   0.187
 2300SOL     OW 7798   1.460   4.448   1.576
 2300SOL    HW1 7799   1.508   4.536   1.573
 2300SOL    HW2 7800   1.452   4.418   1.671
 2301SOL     OW 7801   4.044   3.608   1.708
 2301SOL    HW1 7802   3.961   3.585   1.657
 2301SOL    HW2 7803   4.065   3.533   1.771
 2302SOL     OW 7804   2.512   5.940   3.065
 2302SOL    HW1 7805   2.525   5.912   2.970
 2302SOL    HW2 7806   2.601   5.958   3.108
 2303SOL     OW 7807   0.562   3.183   4.950
 2303SOL    HW1 7808   0.645   3.130   4.967
 2303SOL    HW2 7809   0.565   3.267   5.003
 2304SOL     OW 7810   2.460   0.677   3.954
 2304SOL    HW1 7811   2.445   0.769   3.918
 2304SOL    HW2 7812   2.462   0.680   4.054
 2305SOL     OW 7813   3.835   5.177   1.597
 2305SOL    HW1 7814   3.745   5.220   1.606
 2305SOL    HW2 7815   3.824   5.083   1.562
 2306SOL     OW 7816   0.617   3.635   0.588
 2306SOL    HW1 7817   0.700   3.679   0.623
 2306SOL    HW2 7818   0.552   3.623   0.663
 2307SOL     OW 7819   0.047   1.715   2.928
 2307SOL    HW1 7820   7.015   1.696   2.843
 2307SOL    HW2 7821   0.096   1.802   2.920
 2308SOL     OW 7822   0.157   0.319   0.234
 2308SOL    HW1 7823   0.220   0.246   0.209
 2308SOL    HW2 7824   0.126   0.306   0.329
 2309SOL     OW 7825   3.492   5.361   6.064
 2309SOL    HW1 7826   3.505   5.319   6.153
 2309SOL    HW2 7827   3.425   5.307   6.012
 2310SOL     OW 7828   5.752   1.798   2.844
 2310SOL    HW1 7829   5.670   1.852   2.828
 2310SOL    HW2 7830   5.758   1.773   2.941
 2311SOL     OW 7831   2.847   0.197   2.936
 2311SOL    HW1 7832   2.898   0.195   2.850
 2311SOL    HW2 7833   2.753   0.168   2.920
 2312SOL     OW 7834   2.322   1.077   2.589
 2312SOL    HW1 7835   2.395   1.145   2.581
 2312SOL    HW2 7836   2.244   1.107   2.535
 2313SOL     OW 7837   5.498   4.201   1.522
 2313SOL    HW1 7838   5.488   4.275   1.590
 2313SOL    HW2 7839   5.416   4.144   1.524
 2314SOL     OW 7840   6.453   0.132   3.093
 2314SOL    HW1 7841   6.530   0.172   3.143
 2314SOL    HW2 7842   6.374   0.192   3.101
 2315SOL     OW 7843   4.083   6.027   5.359
 2315SOL    HW1 7844   4.014   6.014   5.430
 2315SOL    HW2 7845   4.105   5.939   5.317
 2316SOL     OW 7846   2.743   1.682   6.040
 2316SOL    HW1 7847   2.827   1.691   5.986
 2316SOL    HW2 7848   2.733   1.762   6.099
 2317SOL     OW 7849   0.013   5.660   3.312
 2317SOL    HW1 7850   7.000   5.678   3.407
 2317SOL    HW2 7851   0.046   5.745   3.271
 2318SOL     OW 7852   1.645   4.852   5.361
 2318SOL    HW1 7853   1.621   4.932   5.416
 2318SOL    HW2 7854   1.578   4.779   5.376
 2319SOL     OW 7855   2.488   4.814   3.783
 2319SOL    HW1 7856   2.495   4.717   3.809
 2319SOL    HW2 7857   2.394   4.844   3.795
 2320SOL     OW 7858   1.287   2.571   5.247
 2320SOL    HW1 7859   1.353   2.632   5.290
 2320SOL    HW2 7860   1.309   2.476   5.271
 2321SOL     OW 7861   2.477   4.761   5.827
 2321SOL    HW1 7862   2.437   4.794   5.742
 2321SOL    HW2 7863   2.561   4.711   5.808
 2322SOL     OW 7864   1.302   3.913   1.582
 2322SOL    HW1 7865   1.343   3.834   1.626
 2322SOL    HW2 7866   1.322   3.912   1.484
 2323SOL     OW 7867   2.224   5.370   1.680
 2323SOL    HW1 7868   2.322   5.387   1.685
 2323SOL    HW2 7869   2.207   5.273   1.662
 2324SOL     OW 7870   6.941   5.262   2.346
 2324SOL    HW1 7871   6.938   5.292   2.442
 2324SOL    HW2 7872   6.853   5.280   2.303
 2325SOL     OW 7873   0.094   5.031   1.761
 2325SOL    HW1 7874   0.012   4.990   1.723
 2325SOL    HW2 7875   0.093   5.130   1.744
 2326SOL     OW 7876   1.726   0.590   6.771
 2326SOL    HW1 7877   1.663   0.516   6.795
 2326SOL    HW2 7878   1.812   0.579   6.822
 2327SOL     OW 7879   0.405   0.477   2.443
 2327SOL    HW1 7880   0.494   0.453   2.481
 2327SOL    HW2 7881   0.344   0.397   2.449
 2328SOL     OW 7882   2.381   2.676   2.728
 2328SOL    HW1 7883   2.387   2.665   2.827
 2328SOL    HW2 7884   2.445   2.613   2.683
 2329SOL     OW 7885   0.420   4.976   3.287
 2329SOL    HW1 7886   0.339   4.994   3.231
 2329SOL    HW2 7887   0.473   5.060   3.297
 2330SOL     OW 7888   6.500   2.629   0.417
 2330SOL    HW1 7889   6.411   2.629   0.462
 2330SOL    HW2 7890   6.498   2.692   0.339
 2331SOL     OW 7891   4.152   6.362   0.741
 2331SOL    HW1 7892   4.181   6.272   0.773
 2331SOL    HW2 7893   4.103   6.409   0.815
 2332SOL     OW 7894   5.311   6.612   6.084
 2332SOL    HW1 7895   5.323   6.612   6.183
 2332SOL    HW2 7896   5.310   6.706   6.050
 2333SOL     OW 7897   0.172   4.607   2.597
 2333SOL    HW1 7898   0.138   4.514   2.610
 2333SOL    HW2 7899   0.161   4.659   2.682
 2334SOL     OW 7900   3.239   1.313   6.353
 2334SOL    HW1 7901   3.230   1.368   6.437
 2334SOL    HW2 7902   3.156   1.321   6.299
 2335SOL     OW 7903   6.323   1.365   3.299
 2335SOL    HW1 7904   6.238   1.348   3.349
 2335SOL    HW2 7905   6.376   1.436   3.346
 2336SOL     OW 7906   2.025   2.122   2.961
 2336SOL    HW1 7907   1.966   2.202   2.967
 2336SOL    HW2 7908   2.083   2.130   2.880
 2337SOL     OW 7909   4.543   1.648   1.187
 2337SOL    HW1 7910   4.489   1.715   1.237
 2337SOL    HW2 7911   4.498   1.559   1.191
 2338SOL     OW 7912   6.884   3.944   3.927
 2338SOL    HW1 7913   6.880   4.042   3.949
 2338SOL    HW2 7914   6.813   3.922   3.860
 2339SOL     OW 7915   3.631   2.926   2.771
 2339SOL    HW1 7916   3.719   2.931   2.725
 2339SOL    HW2 7917   3.563   2.887   2.709
 2340SOL     OW 7918   2.044   5.431   6.318
 2340SOL    HW1 7919   1.962   5.466   6.364
 2340SOL    HW2 7920   2.021   5.347   6.269
 2341SOL     OW 7921   2.385   4.359   3.589
 2341SOL    HW1 7922   2.414   4.433   3.528
 2341SOL    HW2 7923   2.433   4.367   3.677
 2342SOL     OW 7924   3.127   6.932   3.922
 2342SOL    HW1 7925   3.136   0.012   3.946
 2342SOL    HW2 7926   3.051   6.892   3.974
 2343SOL     OW 7927   1.324   6.965   1.928
 2343SOL    HW1 7928   1.340   6.899   2.001
 2343SOL    HW2 7929   1.389   0.024   1.935
 2344SOL     OW 7930   5.497   3.800   0.814
 2344SOL    HW1 7931   5.401   3.802   0.841
 2344SOL    HW2 7932   5.536   3.891   0.823
 2345SOL     OW 7933   2.922   5.738   5.100
 2345SOL    HW1 7934   2.834   5.693   5.114
 2345SOL    HW2 7935   2.982   5.680   5.046
 2346SOL     OW 7936   4.001   4.024   6.787
 2346SOL    HW1 7937   4.020   4.082   6.707
 2346SOL    HW2 7938   3.976   4.082   6.865
 2347SOL     OW 7939   1.059   2.315   2.477
 2347SOL    HW1 7940   1.054   2.413   2.456
 2347SOL    HW2 7941   1.109   2.302   2.562
 2348SOL     OW 7942   0.042   5.074   2.705
 2348SOL    HW1 7943   0.008   5.040   2.618
 2348SOL    HW2 7944   0.141   5.085   2.701
 2349SOL     OW 7945   0.396   4.285   6.313
 2349SOL    HW1 7946   0.377   4.355   6.245
 2349SOL    HW2 7947   0.354   4.199   6.285
 2350SOL     OW 7948   5.765   3.744   6.872
 2350SOL    HW1 7949   5.846   3.708   6.826
 2350SOL    HW2 7950   5.703   3.669   6.894
 2351SOL     OW 7951   2.966   5.289   3.024
 2351SOL    HW1 7952   2.973   5.216   3.093
 2351SOL    HW2 7953   2.991   5.252   2.935
 2352SOL     OW 7954   0.170   2.774   3.852
 2352SOL    HW1 7955   0.251   2.799   3.799
 2352SOL    HW2 7956   0.166   2.674   3.860
 2353SOL     OW 7957   3.515   5.733   5.016
 2353SOL    HW1 7958   3.575   5.656   5.037
 2353SOL    HW2 7959   3.535   5.767   4.924
 2354SOL     OW 7960   2.059   1.915   3.727
 2354SOL    HW1 7961   2.093   1.944   3.638
 2354SOL    HW2 7962   2.062   1.992   3.791
 2355SOL     OW 7963   2.601   6.013   5.304
 2355SOL    HW1 7964   2.525   6.078   5.301
 2355SOL    HW2 7965   2.655   6.028   5.387
 2356SOL     OW 7966   6.981   3.341   0.055
 2356SOL    HW1 7967   6.950   3.374   0.144
 2356SOL    HW2 7968   0.059   3.370   0.040
 2357SOL     OW 7969   2.452   6.760   2.270
 2357SOL    HW1 7970   2.537   6.747   2.322
 2357SOL    HW2 7971   2.385   6.808   2.327
 2358SOL     OW 7972   3.551   4.718   6.571
 2358SOL    HW1 7973   3.580   4.808   6.538
 2358SOL    HW2 7974   3.478   4.729   6.638
 2359SOL     OW 7975   1.671   0.098   4.611
 2359SOL    HW1 7976   1.704   0.121   4.702
 2359SOL    HW2 7977   1.724   0.147   4.542
 2360SOL     OW 7978   6.240   3.699   0.309
 2360SOL    HW1 7979   6.293   3.738   0.384
 2360SOL    HW2 7980   6.146   3.732   0.314
 2361SOL     OW 7981   3.456   1.233   6.543
 2361SOL    HW1 7982   3.458   1.298   6.619
 2361SOL    HW2 7983   3.426   1.279   6.460
 2362SOL     OW 7984   3.769   5.395   3.599
 2362SOL    HW1 7985   3.858   5.441   3.602
 2362SOL    HW2 7986   3.719   5.424   3.518
 2363SOL     OW 7987   3.808   1.185   4.473
 2363SOL    HW1 7988   3.750   1.163   4.395
 2363SOL    HW2 7989   3.903   1.159   4.453
 2364SOL     OW 7990   1.176   2.552   1.172
 2364SOL    HW1 7991   1.198   2.469   1.121
 2364SOL    HW2 7992   1.215   2.632   1.125
 2365SOL     OW 7993   5.496   2.073   6.563
 2365SOL    HW1 7994   5.433   1.995   6.571
 2365SOL    HW2 7995   5.443   2.157   6.547
 2366SOL     OW 7996   3.787   5.244   0.692
 2366SOL    HW1 7997   3.859   5.303   0.729
 2366SOL    HW2 7998   3.796   5.152   0.731
 2367SOL     OW 7999   2.535   3.097   6.943
 2367SOL    HW1 8000   2.480   3.046   7.009
 2367SOL    HW2 8001   2.590   3.033   6.889
 2368SOL     OW 8002   6.491   5.807   2.855
 2368SOL    HW1 8003   6.482   5.716   2.895
 2368SOL    HW2 8004   6.527   5.799   2.762
 2369SOL     OW 8005   2.117   0.561   3.313
 2369SOL    HW1 8006   2.149   0.655   3.324
 2369SOL    HW2 8007   2.051   0.540   3.385
 2370SOL     OW 8008   5.581   2.262   6.818
 2370SOL    HW1 8009   5.561   2.196   6.891
 2370SOL    HW2 8010   5.630   2.215   6.744
 2371SOL     OW 8011   2.495   6.430   1.810
 2371SOL    HW1 8012   2.561   6.478   1.751
 2371SOL    HW2 8013   2.479   6.485   1.892
 2372SOL     OW 8014   6.584   3.509   2.525
 2372SOL    HW1 8015   6.485   3.518   2.534
 2372SOL    HW2 8016   6.625   3.599   2.517
 2373SOL     OW 8017   2.383   3.215   6.529
 2373SOL    HW1 8018   2.326   3.157   6.471
 2373SOL    HW2 8019   2.340   3.225   6.619
 2374SOL     OW 8020   6.225   2.620   4.728
 2374SOL    HW1 8021   6.219   2.719   4.728
 2374SOL    HW2 8022   6.173   2.583   4.805
 2375SOL     OW 8023   3.285   5.879   5.061
 2375SOL    HW1 8024   3.319   5.971   5.079
 2375SOL    HW2 8025   3.361   5.820   5.032
 2376SOL     OW 8026   6.368   3.274   4.731
 2376SOL    HW1 8027   6.434   3.334   4.776
 2376SOL    HW2 8028   6.339   3.316   4.644
 2377SOL     OW 8029   3.125   3.515   3.898
 2377SOL    HW1 8030   3.141   3.473   3.808
 2377SOL    HW2 8031   3.211   3.518   3.949
 2378SOL     OW 8032   5.286   2.308   6.858
 2378SOL    HW1 8033   5.378   2.287   6.824
 2378SOL    HW2 8034   5.226   2.330   6.781
 2379SOL     OW 8035   6.480   0.066   0.619
 2379SOL    HW1 8036   6.423   0.007   0.562
 2379SOL    HW2 8037   6.464   0.162   0.595
 2380SOL     OW 8038   5.795   1.993   1.462
 2380SOL    HW1 8039   5.848   1.916   1.496
 2380SOL    HW2 8040   5.702   1.963   1.441
 2381SOL     OW 8041   1.621   6.446   3.417
 2381SOL    HW1 8042   1.689   6.394   3.470
 2381SOL    HW2 8043   1.640   6.436   3.320
 2382SOL     OW 8044   2.035   3.396   4.993
 2382SOL    HW1 8045   2.049   3.355   5.083
 2382SOL    HW2 8046   1.947   3.443   4.990
 2383SOL     OW 8047   6.221   6.069   1.047
 2383SOL    HW1 8048   6.281   6.140   1.009
 2383SOL    HW2 8049   6.137   6.064   0.992
 2384SOL     OW 8050   4.582   1.677   1.670
 2384SOL    HW1 8051   4.673   1.636   1.665
 2384SOL    HW2 8052   4.557   1.688   1.767
 2385SOL     OW 8053   0.733   1.980   6.031
 2385SOL    HW1 8054   0.648   1.931   6.051
 2385SOL    HW2 8055   0.717   2.079   6.036
 2386SOL     OW 8056   5.249   5.671   4.241
 2386SOL    HW1 8057   5.243   5.768   4.220
 2386SOL    HW2 8058   5.337   5.652   4.285
 2387SOL     OW 8059   1.687   1.713   3.600
 2387SOL    HW1 8060   1.600   1.670   3.625
 2387SOL    HW2 8061   1.711   1.783   3.667
 2388SOL     OW 8062   6.199   2.139   4.351
 2388SOL    HW1 8063   6.154   2.197   4.418
 2388SOL    HW2 8064   6.243   2.062   4.398
 2389SOL     OW 8065   4.047   5.224   2.916
 2389SOL    HW1 8066   4.113   5.297   2.936
 2389SOL    HW2 8067   3.985   5.255   2.844
 2390SOL     OW 8068   3.272   4.224   1.717
 2390SOL    HW1 8069   3.330   4.223   1.635
 2390SOL    HW2 8070   3.274   4.133   1.759
 2391SOL     OW 8071   4.112   5.018   5.640
 2391SOL    HW1 8072   4.159   4.931   5.624
 2391SOL    HW2 8073   4.180   5.092   5.640
 2392SOL     OW 8074   3.788   1.025   6.544
 2392SOL    HW1 8075   3.801   1.092   6.471
 2392SOL    HW2 8076   3.822   1.063   6.630
 2393SOL     OW 8077   4.199   4.762   5.849
 2393SOL    HW1 8078   4.266   4.764   5.923
 2393SOL    HW2 8079   4.122   4.823   5.872
 2394SOL     OW 8080   0.630   4.346   4.894
 2394SOL    HW1 8081   0.691   4.342   4.973
 2394SOL    HW2 8082   0.562   4.418   4.908
 2395SOL     OW 8083   4.053   0.103   5.943
 2395SOL    HW1 8084   4.134   0.046   5.939
 2395SOL    HW2 8085   4.057   0.173   5.871
 2396SOL     OW 8086   4.260   4.320   0.657
 2396SOL    HW1 8087   4.229   4.412   0.632
 2396SOL    HW2 8088   4.219   4.253   0.594
 2397SOL     OW 8089   0.131   3.635   4.707
 2397SOL    HW1 8090   0.127   3.629   4.806
 2397SOL    HW2 8091   0.142   3.544   4.668
 2398SOL     OW 8092   4.097   4.461   5.801
 2398SOL    HW1 8093   4.159   4.410   5.861
 2398SOL    HW2 8094   4.139   4.549   5.778
 2399SOL     OW 8095   4.314   1.985   1.627
 2399SOL    HW1 8096   4.249   1.912   1.603
 2399SOL    HW2 8097   4.264   2.068   1.649
 2400SOL     OW 8098   2.530   5.480   1.632
 2400SOL    HW1 8099   2.518   5.405   1.566
 2400SOL    HW2 8100   2.612   5.532   1.607
 2401SOL     OW 8101   6.766   6.325   5.766
 2401SOL    HW1 8102   6.773   6.422   5.789
 2401SOL    HW2 8103   6.758   6.314   5.667
 2402SOL     OW 8104   6.862   6.447   4.617
 2402SOL    HW1 8105   6.947   6.501   4.615
 2402SOL    HW2 8106   6.857   6.392   4.533
 2403SOL     OW 8107   0.540   1.746   5.431
 2403SOL    HW1 8108   0.598   1.826   5.448
 2403SOL    HW2 8109   0.593   1.663   5.447
 2404SOL     OW 8110   0.854   0.183   0.429
 2404SOL    HW1 8111   0.902   0.253   0.377
 2404SOL    HW2 8112   0.843   0.214   0.524
 2405SOL     OW 8113   2.773   3.887   1.599
 2405SOL    HW1 8114   2.781   3.835   1.514
 2405SOL    HW2 8115   2.786   3.825   1.677
 2406SOL     OW 8116   4.831   1.101   1.016
 2406SOL    HW1 8117   4.927   1.129   1.019
 2406SOL    HW2 8118   4.791   1.131   0.929
 2407SOL     OW 8119   5.548   0.831   3.625
 2407SOL    HW1 8120   5.468   0.890   3.612
 2407SOL    HW2 8121   5.587   0.847   3.716
 2408SOL     OW 8122   4.647   4.390   2.151
 2408SOL    HW1 8123   4.571   4.431   2.202
 2408SOL    HW2 8124   4.611   4.334   2.077
 2409SOL     OW 8125   1.452   4.121   0.476
 2409SOL    HW1 8126   1.361   4.150   0.447
 2409SOL    HW2 8127   1.467   4.026   0.448
 2410SOL     OW 8128   3.875   2.919   2.591
 2410SOL    HW1 8129   3.805   2.896   2.524
 2410SOL    HW2 8130   3.966   2.913   2.548
 2411SOL     OW 8131   5.083   0.158   4.413
 2411SOL    HW1 8132   5.119   0.130   4.325
 2411SOL    HW2 8133   4.985   0.142   4.416
 2412SOL     OW 8134   4.268   3.257   0.861
 2412SOL    HW1 8135   4.366   3.264   0.882
 2412SOL    HW2 8136   4.249   3.304   0.775
 2413SOL     OW 8137   4.757   0.243   2.314
 2413SOL    HW1 8138   4.812   0.160   2.324
 2413SOL    HW2 8139   4.812   0.315   2.272
 2414SOL     OW 8140   5.437   3.378   4.252
 2414SOL    HW1 8141   5.464   3.347   4.343
 2414SOL    HW2 8142   5.339   3.398   4.251
 2415SOL     OW 8143   4.491   1.378   3.650
 2415SOL    HW1 8144   4.547   1.309   3.696
 2415SOL    HW2 8145   4.486   1.358   3.552
 2416SOL     OW 8146   4.741   1.977   5.815
 2416SOL    HW1 8147   4.780   1.979   5.906
 2416SOL    HW2 8148   4.709   2.069   5.790
 2417SOL     OW 8149   3.033   3.885   3.887
 2417SOL    HW1 8150   3.019   3.900   3.789
 2417SOL    HW2 8151   3.010   3.790   3.910
 2418SOL     OW 8152   3.511   2.876   3.304
 2418SOL    HW1 8153   3.432   2.884   3.365
 2418SOL    HW2 8154   3.482   2.841   3.215
 2419SOL     OW 8155   0.238   0.044   2.569
 2419SOL    HW1 8156   0.158   0.004   2.613
 2419SOL    HW2 8157   0.310   0.061   2.637
 2420SOL     OW 8158   2.372   0.059   2.028
 2420SOL    HW1 8159   2.463   0.052   2.068
 2420SOL    HW2 8160   2.348   6.990   1.983
 2421SOL     OW 8161   3.340   2.135   3.502
 2421SOL    HW1 8162   3.246   2.165   3.484
 2421SOL    HW2 8163   3.399   2.164   3.427
 2422SOL     OW 8164   4.554   1.423   0.926
 2422SOL    HW1 8165   4.615   1.360   0.879
 2422SOL    HW2 8166   4.506   1.480   0.859
 2423SOL     OW 8167   2.250   4.969   2.347
 2423SOL    HW1 8168   2.310   4.926   2.280
 2423SOL    HW2 8169   2.296   5.047   2.388
 2424SOL     OW 8170   5.924   0.360   1.030
 2424SOL    HW1 8171   5.904   0.454   1.056
 2424SOL    HW2 8172   5.844   0.303   1.047
 2425SOL     OW 8173   6.640   6.900   4.281
 2425SOL    HW1 8174   6.688   6.831   4.227
 2425SOL    HW2 8175   6.542   6.879   4.282
 2426SOL     OW 8176   2.795   5.103   4.129
 2426SOL    HW1 8177   2.891   5.077   4.135
 2426SOL    HW2 8178   2.757   5.069   4.043
 2427SOL     OW 8179   6.074   6.974   5.433
 2427SOL    HW1 8180   6.125   6.968   5.519
 2427SOL    HW2 8181   6.094   6.894   5.377
 2428SOL     OW 8182   6.288   0.237   0.389
 2428SOL    HW1 8183   6.378   0.275   0.407
 2428SOL    HW2 8184   6.225   0.310   0.363
 2429SOL     OW 8185   4.926   5.367   2.000
 2429SOL    HW1 8186   4.920   5.428   1.921
 2429SOL    HW2 8187   5.013   5.381   2.047
 2430SOL     OW 8188   5.446   0.717   2.768
 2430SOL    HW1 8189   5.377   0.721   2.695
 2430SOL    HW2 8190   5.419   0.649   2.835
 2431SOL     OW 8191   4.426   0.315   2.178
 2431SOL    HW1 8192   4.465   0.407   2.176
 2431SOL    HW2 8193   4.497   0.249   2.204
 2432SOL     OW 8194   2.258   6.211   2.592
 2432SOL    HW1 8195   2.225   6.217   2.498
 2432SOL    HW2 8196   2.313   6.129   2.603
 2433SOL     OW 8197   3.861   0.502   0.774
 2433SOL    HW1 8198   3.780   0.552   0.802
 2433SOL    HW2 8199   3.846   0.462   0.683
 2434SOL     OW 8200   3.555   3.751   5.596
 2434SOL    HW1 8201   3.503   3.767   5.511
 2434SOL    HW2 8202   3.630   3.688   5.578
 2435SOL     OW 8203   6.018   6.014   5.366
 2435SOL    HW1 8204   6.005   5.961   5.282
 2435SOL    HW2 8205   6.066   5.958   5.434
 2436SOL     OW 8206   2.818   5.241   0.749
 2436SOL    HW1 8207   2.812   5.341   0.752
 2436SOL    HW2 8208   2.831   5.206   0.841
 2437SOL     OW 8209   6.607   0.370   5.839
 2437SOL    HW1 8210   6.508   0.358   5.830
 2437SOL    HW2 8211   6.628   0.466   5.855
 2438SOL     OW 8212   2.701   2.921   1.181
 2438SOL    HW1 8213   2.682   3.018   1.192
 2438SOL    HW2 8214   2.656   2.869   1.254
 2439SOL     OW 8215   5.844   4.260   5.438
 2439SOL    HW1 8216   5.898   4.232   5.518
 2439SOL    HW2 8217   5.809   4.179   5.391
 2440SOL     OW 8218   6.055   5.056   6.014
 2440SOL    HW1 8219   6.031   5.016   6.103
 2440SOL    HW2 8220   6.094   4.986   5.955
 2441SOL     OW 8221   6.297   1.991   0.618
 2441SOL    HW1 8222   6.304   1.903   0.665
 2441SOL    HW2 8223   6.370   2.052   0.650
 2442SOL     OW 8224   6.970   2.677   5.741
 2442SOL    HW1 8225   6.935   2.716   5.656
 2442SOL    HW2 8226   6.940   2.581   5.749
 2443SOL     OW 8227   2.580   4.917   5.478
 2443SOL    HW1 8228   2.599   4.937   5.382
 2443SOL    HW2 8229   2.660   4.872   5.519
 2444SOL     OW 8230   3.488   3.047   5.541
 2444SOL    HW1 8231   3.439   2.960   5.545
 2444SOL    HW2 8232   3.579   3.036   5.581
 2445SOL     OW 8233   0.269   0.048   0.522
 2445SOL    HW1 8234   0.252   7.007   0.602
 2445SOL    HW2 8235   0.224   0.137   0.535
 2446SOL     OW 8236   5.492   3.367   6.226
 2446SOL    HW1 8237   5.498   3.291   6.161
 2446SOL    HW2 8238   5.556   3.438   6.201
 2447SOL     OW 8239   0.701   2.784   6.855
 2447SOL    HW1 8240   0.658   2.857   6.802
 2447SOL    HW2 8241   0.691   2.697   6.806
 2448SOL     OW 8242   0.266   0.511   4.429
 2448SOL    HW1 8243   0.172   0.521   4.462
 2448SOL    HW2 8244   0.272   0.434   4.366
 2449SOL     OW 8245   0.673   3.063   4.672
 2449SOL    HW1 8246   0.677   2.974   4.628
 2449SOL    HW2 8247   0.578   3.085   4.694
 2450SOL     OW 8248   1.697   3.291   1.597
 2450SOL    HW1 8249   1.727   3.360   1.662
 2450SOL    HW2 8250   1.761   3.286   1.520
 2451SOL     OW 8251   2.610   6.658   4.512
 2451SOL    HW1 8252   2.638   6.571   4.472
 2451SOL    HW2 8253   2.599   6.727   4.440
 2452SOL     OW 8254   2.306   2.286   4.110
 2452SOL    HW1 8255   2.264   2.254   4.195
 2452SOL    HW2 8256   2.357   2.370   4.128
 2453SOL     OW 8257   0.365   3.246   1.866
 2453SOL    HW1 8258   0.417   3.190   1.801
 2453SOL    HW2 8259   0.286   3.193   1.900
 2454SOL     OW 8260   2.371   6.998   1.463
 2454SOL    HW1 8261   2.457   6.949   1.459
 2454SOL    HW2 8262   2.364   0.044   1.385
 2455SOL     OW 8263   5.086   3.628   1.348
 2455SOL    HW1 8264   5.134   3.592   1.268
 2455SOL    HW2 8265   5.110   3.573   1.428
 2456SOL     OW 8266   2.913   6.901   1.061
 2456SOL    HW1 8267   2.872   6.815   1.095
 2456SOL    HW2 8268   2.845   6.951   1.008
 2457SOL     OW 8269   5.755   5.896   1.089
 2457SOL    HW1 8270   5.729   5.976   1.036
 2457SOL    HW2 8271   5.691   5.884   1.165
 2458SOL     OW 8272   0.507   5.800   2.625
 2458SOL    HW1 8273   0.463   5.777   2.712
 2458SOL    HW2 8274   0.594   5.751   2.618
 2459SOL     OW 8275   0.562   1.487   0.317
 2459SOL    HW1 8276   0.631   1.543   0.271
 2459SOL    HW2 8277   0.525   1.421   0.252
 2460SOL     OW 8278   2.956   4.945   1.420
 2460SOL    HW1 8279   2.893   5.018   1.449
 2460SOL    HW2 8280   3.023   4.929   1.492
 2461SOL     OW 8281   4.849   1.278   3.168
 2461SOL    HW1 8282   4.789   1.251   3.243
 2461SOL    HW2 8283   4.922   1.337   3.203
 2462SOL     OW 8284   2.712   3.823   6.250
 2462SOL    HW1 8285   2.651   3.902   6.258
 2462SOL    HW2 8286   2.789   3.835   6.313
 2463SOL     OW 8287   0.723   2.462   5.100
 2463SOL    HW1 8288   0.745   2.461   5.003
 2463SOL    HW2 8289   0.762   2.544   5.143
 2464SOL     OW 8290   1.419   4.001   0.739
 2464SOL    HW1 8291   1.494   3.960   0.790
 2464SOL    HW2 8292   1.344   3.936   0.730
 2465SOL     OW 8293   6.003   5.136   2.256
 2465SOL    HW1 8294   6.029   5.097   2.344
 2465SOL    HW2 8295   5.934   5.207   2.270
 2466SOL     OW 8296   3.576   1.224   1.705
 2466SOL    HW1 8297   3.581   1.308   1.652
 2466SOL    HW2 8298   3.509   1.235   1.779
 2467SOL     OW 8299   0.169   1.521   5.157
 2467SOL    HW1 8300   0.165   1.426   5.189
 2467SOL    HW2 8301   0.187   1.522   5.059
 2468SOL     OW 8302   6.676   4.361   0.457
 2468SOL    HW1 8303   6.614   4.358   0.535
 2468SOL    HW2 8304   6.652   4.439   0.399
 2469SOL     OW 8305   3.007   3.183   5.880
 2469SOL    HW1 8306   2.982   3.152   5.972
 2469SOL    HW2 8307   3.026   3.281   5.883
 2470SOL     OW 8308   5.418   2.510   0.769
 2470SOL    HW1 8309   5.515   2.514   0.790
 2470SOL    HW2 8310   5.367   2.556   0.842
 2471SOL     OW 8311   0.502   1.021   3.325
 2471SOL    HW1 8312   0.592   1.020   3.282
 2471SOL    HW2 8313   0.438   0.969   3.269
 2472SOL     OW 8314   5.569   1.335   3.667
 2472SOL    HW1 8315   5.488   1.387   3.690
 2472SOL    HW2 8316   5.564   1.305   3.572
 2473SOL     OW 8317   0.487   6.345   5.257
 2473SOL    HW1 8318   0.424   6.281   5.212
 2473SOL    HW2 8319   0.480   6.333   5.357
 2474SOL     OW 8320   6.160   6.725   4.440
 2474SOL    HW1 8321   6.100   6.647   4.457
 2474SOL    HW2 8322   6.106   6.808   4.436
 2475SOL     OW 8323   4.198   2.182   6.211
 2475SOL    HW1 8324   4.260   2.258   6.191
 2475SOL    HW2 8325   4.200   2.117   6.135
 2476SOL     OW 8326   0.367   1.343   3.719
 2476SOL    HW1 8327   0.415   1.417   3.673
 2476SOL    HW2 8328   0.375   1.259   3.664
 2477SOL     OW 8329   4.521   5.087   2.054
 2477SOL    HW1 8330   4.520   5.015   2.124
 2477SOL    HW2 8331   4.615   5.117   2.039
 2478SOL     OW 8332   0.184   6.891   2.866
 2478SOL    HW1 8333   0.154   6.870   2.959
 2478SOL    HW2 8334   0.280   6.918   2.867
 2479SOL     OW 8335   0.451   2.139   6.872
 2479SOL    HW1 8336   0.463   2.235   6.898
 2479SOL    HW2 8337   0.541   2.098   6.855
 2480SOL     OW 8338   0.035   5.274   1.660
 2480SOL    HW1 8339   0.030   5.356   1.716
 2480SOL    HW2 8340   6.967   5.264   1.607
 2481SOL     OW 8341   3.955   5.011   2.162
 2481SOL    HW1 8342   3.873   5.017   2.220
 2481SOL    HW2 8343   3.934   4.960   2.079
 2482SOL     OW 8344   5.319   2.609   4.497
 2482SOL    HW1 8345   5.350   2.565   4.581
 2482SOL    HW2 8346   5.221   2.591   4.484
 2483SOL     OW 8347   0.521   2.964   0.197
 2483SOL    HW1 8348   0.615   2.998   0.196
 2483SOL    HW2 8349   0.483   2.971   0.105
 2484SOL     OW 8350   4.004   3.976   6.129
 2484SOL    HW1 8351   4.003   3.937   6.221
 2484SOL    HW2 8352   3.920   3.951   6.081
 2485SOL     OW 8353   0.301   6.191   0.126
 2485SOL    HW1 8354   0.206   6.177   0.097
 2485SOL    HW2 8355   0.311   6.162   0.221
 2486SOL     OW 8356   0.874   4.875   3.743
 2486SOL    HW1 8357   0.964   4.893   3.782
 2486SOL    HW2 8358   0.807   4.938   3.783
 2487SOL     OW 8359   3.612   1.487   1.622
 2487SOL    HW1 8360   3.672   1.558   1.660
 2487SOL    HW2 8361   3.633   1.474   1.525
 2488SOL     OW 8362   2.763   6.145   6.436
 2488SOL    HW1 8363   2.846   6.197   6.417
 2488SOL    HW2 8364   2.783   6.047   6.437
 2489SOL     OW 8365   0.274   6.199   3.984
 2489SOL    HW1 8366   0.174   6.198   3.973
 2489SOL    HW2 8367   0.304   6.112   4.023
 2490SOL     OW 8368   5.471   3.003   1.870
 2490SOL    HW1 8369   5.545   2.994   1.937
 2490SOL    HW2 8370   5.391   2.955   1.904
 2491SOL     OW 8371   0.034   4.285   2.840
 2491SOL    HW1 8372   0.069   4.317   2.752
 2491SOL    HW2 8373   0.100   4.222   2.881
 2492SOL     OW 8374   3.778   1.278   6.113
 2492SOL    HW1 8375   3.755   1.184   6.089
 2492SOL    HW2 8376   3.863   1.305   6.068
 2493SOL     OW 8377   0.096   0.899   5.024
 2493SOL    HW1 8378   0.128   0.976   4.969
 2493SOL    HW2 8379   0.121   0.813   4.978
 2494SOL     OW 8380   4.376   5.190   0.773
 2494SOL    HW1 8381   4.367   5.250   0.694
 2494SOL    HW2 8382   4.460   5.137   0.765
 2495SOL     OW 8383   0.012   1.030   2.770
 2495SOL    HW1 8384   6.931   1.051   2.782
 2495SOL    HW2 8385   0.026   0.931   2.772
 2496SOL     OW 8386   1.491   5.427   0.159
 2496SOL    HW1 8387   1.562   5.400   0.094
 2496SOL    HW2 8388   1.408   5.452   0.108
 2497SOL     OW 8389   5.584   0.299   6.890
 2497SOL    HW1 8390   5.539   0.358   6.957
 2497SOL    HW2 8391   5.674   0.338   6.867
 2498SOL     OW 8392   1.117   3.278   4.837
 2498SOL    HW1 8393   1.158   3.313   4.922
 2498SOL    HW2 8394   1.027   3.239   4.858
 2499SOL     OW 8395   5.154   0.816   6.958
 2499SOL    HW1 8396   5.058   0.819   6.930
 2499SOL    HW2 8397   5.161   0.774   0.032
 2500SOL     OW 8398   4.100   3.985   6.487
 2500SOL    HW1 8399   4.063   4.069   6.525
 2500SOL    HW2 8400   4.026   3.919   6.475
 2501SOL     OW 8401   6.517   5.134   1.037
 2501SOL    HW1 8402   6.571   5.182   0.968
 2501SOL    HW2 8403   6.444   5.195   1.069
 2502SOL     OW 8404   0.464   0.114   3.690
 2502SOL    HW1 8405   0.518   0.100   3.773
 2502SOL    HW2 8406   0.416   0.202   3.695
 2503SOL     OW 8407   5.438   6.837   4.037
 2503SOL    HW1 8408   5.451   6.740   4.020
 2503SOL    HW2 8409   5.400   6.850   4.128
 2504SOL     OW 8410   2.148   4.308   3.199
 2504SOL    HW1 8411   2.074   4.320   3.134
 2504SOL    HW2 8412   2.235   4.297   3.149
 2505SOL     OW 8413   5.221   4.330   4.891
 2505SOL    HW1 8414   5.182   4.241   4.869
 2505SOL    HW2 8415   5.211   4.391   4.812
 2506SOL     OW 8416   0.230   0.814   0.685
 2506SOL    HW1 8417   0.191   0.893   0.731
 2506SOL    HW2 8418   0.193   0.808   0.592
 2507SOL     OW 8419   6.298   6.716   0.004
 2507SOL    HW1 8420   6.235   6.784   0.042
 2507SOL    HW2 8421   6.253   6.668   6.944
 2508SOL     OW 8422   1.818   2.300   1.685
 2508SOL    HW1 8423   1.792   2.325   1.591
 2508SOL    HW2 8424   1.917   2.309   1.695
 2509SOL     OW 8425   5.788   1.171   3.419
 2509SOL    HW1 8426   5.715   1.103   3.410
 2509SOL    HW2 8427   5.759   1.257   3.377
 2510SOL     OW 8428   3.757   5.869   2.434
 2510SOL    HW1 8429   3.827   5.867   2.505
 2510SOL    HW2 8430   3.777   5.799   2.365
 2511SOL     OW 8431   1.060   6.749   3.320
 2511SOL    HW1 8432   1.048   6.654   3.294
 2511SOL    HW2 8433   0.971   6.795   3.322
 2512SOL     OW 8434   5.855   3.870   4.384
 2512SOL    HW1 8435   5.755   3.872   4.374
 2512SOL    HW2 8436   5.897   3.864   4.294
 2513SOL     OW 8437   6.923   4.245   0.565
 2513SOL    HW1 8438   6.842   4.284   0.522
 2513SOL    HW2 8439   6.896   4.198   0.649
 2514SOL     OW 8440   0.246   2.543   3.681
 2514SOL    HW1 8441   0.178   2.577   3.616
 2514SOL    HW2 8442   0.241   2.443   3.684
 2515SOL     OW 8443   1.258   4.511   0.076
 2515SOL    HW1 8444   1.315   4.524   7.011
 2515SOL    HW2 8445   1.306   4.546   0.156
 2516SOL     OW 8446   5.484   6.637   3.727
 2516SOL    HW1 8447   5.561   6.684   3.683
 2516SOL    HW2 8448   5.458   6.557   3.673
 2517SOL     OW 8449   1.694   5.585   1.065
 2517SOL    HW1 8450   1.664   5.498   1.026
 2517SOL    HW2 8451   1.715   5.572   1.162
 2518SOL     OW 8452   2.297   2.922   7.004
 2518SOL    HW1 8453   2.220   2.977   6.971
 2518SOL    HW2 8454   2.272   2.881   0.076
 2519SOL     OW 8455   5.736   3.937   5.028
 2519SOL    HW1 8456   5.787   3.938   4.942
 2519SOL    HW2 8457   5.669   3.862   5.027
 2520SOL     OW 8458   3.411   5.585   2.334
 2520SOL    HW1 8459   3.390   5.509   2.272
 2520SOL    HW2 8460   3.357   5.576   2.417
 2521SOL     OW 8461   5.327   6.377   5.922
 2521SOL    HW1 8462   5.243   6.332   5.953
 2521SOL    HW2 8463   5.342   6.460   5.975
 2522SOL     OW 8464   2.465   4.945   4.534
 2522SOL    HW1 8465   2.432   4.891   4.612
 2522SOL    HW2 8466   2.397   4.941   4.461
 2523SOL     OW 8467   1.022   2.314   5.328
 2523SOL    HW1 8468   1.047   2.350   5.418
 2523SOL    HW2 8469   1.104   2.277   5.284
 2524SOL     OW 8470   1.705   6.914   4.233
 2524SOL    HW1 8471   1.669   6.879   4.147
 2524SOL    HW2 8472   1.744   7.005   4.219
 2525SOL     OW 8473   2.581   4.695   2.688
 2525SOL    HW1 8474   2.675   4.725   2.705
 2525SOL    HW2 8475   2.574   4.657   2.596
 2526SOL     OW 8476   1.830   2.322   4.665
 2526SOL    HW1 8477   1.858   2.369   4.749
 2526SOL    HW2 8478   1.788   2.387   4.603
 2527SOL     OW 8479   6.792   0.065   4.420
 2527SOL    HW1 8480   6.725   7.013   4.389
 2527SOL    HW2 8481   6.769   0.154   4.381
 2528SOL     OW 8482   5.677   5.677   0.145
 2528SOL    HW1 8483   5.742   5.640   0.211
 2528SOL    HW2 8484   5.701   5.772   0.125
 2529SOL     OW 8485   4.820   4.220   5.551
 2529SOL    HW1 8486   4.842   4.210   5.648
 2529SOL    HW2 8487   4.748   4.155   5.526
 2530SOL     OW 8488   0.873   6.269   3.270
 2530SOL    HW1 8489   0.854   6.366   3.286
 2530SOL    HW2 8490   0.789   6.222   3.242
 2531SOL     OW 8491   4.896   1.539   6.639
 2531SOL    HW1 8492   4.921   1.489   6.556
 2531SOL    HW2 8493   4.920   1.635   6.629
 2532SOL     OW 8494   0.811   4.737   5.705
 2532SOL    HW1 8495   0.862   4.669   5.758
 2532SOL    HW2 8496   0.829   4.724   5.607
 2533SOL     OW 8497   5.562   0.048   5.643
 2533SOL    HW1 8498   5.574   0.017   5.549
 2533SOL    HW2 8499   5.645   0.094   5.674
 2534SOL     OW 8500   6.776   1.924   3.373
 2534SOL    HW1 8501   6.754   2.019   3.351
 2534SOL    HW2 8502   6.732   1.863   3.306
 2535SOL     OW 8503   2.781   1.404   2.676
 2535SOL    HW1 8504   2.681   1.407   2.687
 2535SOL    HW2 8505   2.820   1.490   2.710
 2536SOL     OW 8506   6.816   0.556   4.589
 2536SOL    HW1 8507   6.767   0.634   4.551
 2536SOL    HW2 8508   6.754   0.501   4.644
 2537SOL     OW 8509   3.841   6.101   2.705
 2537SOL    HW1 8510   3.766   6.089   2.640
 2537SOL    HW2 8511   3.880   6.192   2.695
 2538SOL     OW 8512   0.647   4.781   5.435
 2538SOL    HW1 8513   0.651   4.849   5.509
 2538SOL    HW2 8514   0.593   4.818   5.360
 2539SOL     OW 8515   2.250   0.371   5.213
 2539SOL    HW1 8516   2.152   0.363   5.232
 2539SOL    HW2 8517   2.263   0.428   5.132
 2540SOL     OW 8518   4.830   1.968   2.074
 2540SOL    HW1 8519   4.784   1.904   2.136
 2540SOL    HW2 8520   4.795   2.060   2.090
 2541SOL     OW 8521   1.238   1.178   6.154
 2541SOL    HW1 8522   1.204   1.095   6.197
 2541SOL    HW2 8523   1.165   1.247   6.150
 2542SOL     OW 8524   3.600   1.922   4.087
 2542SOL    HW1 8525   3.613   1.860   4.164
 2542SOL    HW2 8526   3.589   1.868   4.003
 2543SOL     OW 8527   6.571   0.987   4.972
 2543SOL    HW1 8528   6.602   0.894   4.951
 2543SOL    HW2 8529   6.511   1.019   4.899
 2544SOL     OW 8530   0.194   6.284   1.770
 2544SOL    HW1 8531   0.261   6.239   1.711
 2544SOL    HW2 8532   0.131   6.338   1.714
 2545SOL     OW 8533   6.826   1.327   0.405
 2545SOL    HW1 8534   6.846   1.421   0.379
 2545SOL    HW2 8535   6.728   1.311   0.401
 2546SOL     OW 8536   6.274   3.488   2.503
 2546SOL    HW1 8537   6.243   3.515   2.594
 2546SOL    HW2 8538   6.278   3.388   2.498
 2547SOL     OW 8539   5.811   3.881   0.920
 2547SOL    HW1 8540   5.856   3.966   0.893
 2547SOL    HW2 8541   5.849   3.848   1.007
 2548SOL     OW 8542   6.294   0.732   5.497
 2548SOL    HW1 8543   6.326   0.826   5.510
 2548SOL    HW2 8544   6.356   0.669   5.544
 2549SOL     OW 8545   2.534   5.242   0.692
 2549SOL    HW1 8546   2.632   5.260   0.686
 2549SOL    HW2 8547   2.518   5.167   0.756
 2550SOL     OW 8548   3.792   6.708   1.172
 2550SOL    HW1 8549   3.824   6.803   1.178
 2550SOL    HW2 8550   3.866   6.646   1.199
 2551SOL     OW 8551   3.375   4.930   1.218
 2551SOL    HW1 8552   3.452   4.955   1.160
 2551SOL    HW2 8553   3.319   5.011   1.237
 2552SOL     OW 8554   2.227   4.425   1.589
 2552SOL    HW1 8555   2.219   4.469   1.500
 2552SOL    HW2 8556   2.136   4.394   1.619
 2553SOL     OW 8557   4.787   0.859   6.953
 2553SOL    HW1 8558   4.806   0.816   0.025
 2553SOL    HW2 8559   4.708   0.920   6.962
 2554SOL     OW 8560   0.888   5.458   1.307
 2554SOL    HW1 8561   0.911   5.368   1.344
 2554SOL    HW2 8562   0.917   5.463   1.212
 2555SOL     OW 8563   0.710   6.504   4.782
 2555SOL    HW1 8564   0.645   6.484   4.709
 2555SOL    HW2 8565   0.688   6.450   4.863
 2556SOL     OW 8566   4.461   0.162   1.275
 2556SOL    HW1 8567   4.493   0.071   1.247
 2556SOL    HW2 8568   4.369   0.155   1.312
 2557SOL     OW 8569   2.698   1.010   0.029
 2557SOL    HW1 8570   2.673   0.932   0.087
 2557SOL    HW2 8571   2.715   0.979   6.952
 2558SOL     OW 8572   5.318   1.852   1.046
 2558SOL    HW1 8573   5.248   1.794   1.003
 2558SOL    HW2 8574   5.316   1.943   1.004
 2559SOL     OW 8575   6.453   5.212   3.530
 2559SOL    HW1 8576   6.465   5.129   3.585
 2559SOL    HW2 8577   6.448   5.292   3.590
 2560SOL     OW 8578   4.803   2.494   2.281
 2560SOL    HW1 8579   4.725   2.527   2.228
 2560SOL    HW2 8580   4.871   2.568   2.289
 2561SOL     OW 8581   3.372   0.143   4.726
 2561SOL    HW1 8582   3.432   0.201   4.781
 2561SOL    HW2 8583   3.379   0.169   4.630
 2562SOL     OW 8584   1.684   6.578   4.992
 2562SOL    HW1 8585   1.769   6.531   5.014
 2562SOL    HW2 8586   1.610   6.511   4.984
 2563SOL     OW 8587   3.923   2.722   6.304
 2563SOL    HW1 8588   3.839   2.776   6.307
 2563SOL    HW2 8589   3.907   2.633   6.346
 2564SOL     OW 8590   1.069   1.249   0.465
 2564SOL    HW1 8591   1.071   1.345   0.435
 2564SOL    HW2 8592   1.151   1.230   0.519
 2565SOL     OW 8593   0.460   0.699   0.879
 2565SOL    HW1 8594   0.417   0.716   0.790
 2565SOL    HW2 8595   0.557   0.723   0.874
 2566SOL     OW 8596   2.931   0.884   0.948
 2566SOL    HW1 8597   2.991   0.907   1.025
 2566SOL    HW2 8598   2.893   0.968   0.909
 2567SOL     OW 8599   1.942   0.890   6.266
 2567SOL    HW1 8600   1.942   0.972   6.209
 2567SOL    HW2 8601   1.873   0.826   6.232
 2568SOL     OW 8602   1.686   5.190   1.208
 2568SOL    HW1 8603   1.615   5.132   1.167
 2568SOL    HW2 8604   1.683   5.281   1.166
 2569SOL     OW 8605   1.722   6.406   6.721
 2569SOL    HW1 8606   1.653   6.477   6.715
 2569SOL    HW2 8607   1.702   6.333   6.655
 2570SOL     OW 8608   0.923   6.495   4.045
 2570SOL    HW1 8609   0.825   6.503   4.027
 2570SOL    HW2 8610   0.953   6.574   4.099
 2571SOL     OW 8611   3.916   3.723   3.283
 2571SOL    HW1 8612   4.007   3.683   3.277
 2571SOL    HW2 8613   3.854   3.674   3.222
 2572SOL     OW 8614   2.490   5.707   2.534
 2572SOL    HW1 8615   2.463   5.661   2.618
 2572SOL    HW2 8616   2.423   5.688   2.462
 2573SOL     OW 8617   6.867   1.070   3.105
 2573SOL    HW1 8618   6.955   1.100   3.141
 2573SOL    HW2 8619   6.877   0.980   3.062
 2574SOL     OW 8620   0.087   3.104   2.224
 2574SOL    HW1 8621   0.110   3.068   2.134
 2574SOL    HW2 8622   0.128   3.047   2.295
 2575SOL     OW 8623   4.661   3.507   5.690
 2575SOL    HW1 8624   4.735   3.569   5.717
 2575SOL    HW2 8625   4.631   3.455   5.770
 2576SOL     OW 8626   0.741   0.400   3.094
 2576SOL    HW1 8627   0.756   0.323   3.156
 2576SOL    HW2 8628   0.653   0.390   3.049
 2577SOL     OW 8629   1.604   4.709   1.584
 2577SOL    HW1 8630   1.703   4.697   1.589
 2577SOL    HW2 8631   1.572   4.761   1.663
 2578SOL     OW 8632   4.559   2.567   5.001
 2578SOL    HW1 8633   4.545   2.482   4.951
 2578SOL    HW2 8634   4.657   2.588   5.003
 2579SOL     OW 8635   0.195   1.299   6.520
 2579SOL    HW1 8636   0.231   1.392   6.519
 2579SOL    HW2 8637   0.270   1.234   6.526
 2580SOL     OW 8638   1.857   1.353   5.476
 2580SOL    HW1 8639   1.771   1.404   5.476
 2580SOL    HW2 8640   1.933   1.414   5.499
 2581SOL     OW 8641   6.164   6.268   4.260
 2581SOL    HW1 8642   6.099   6.200   4.294
 2581SOL    HW2 8643   6.203   6.319   4.336
 2582SOL     OW 8644   6.873   4.697   3.050
 2582SOL    HW1 8645   6.939   4.632   3.086
 2582SOL    HW2 8646   6.812   4.651   2.986
 2583SOL     OW 8647   2.876   1.222   0.044
 2583SOL    HW1 8648   2.859   1.312   0.085
 2583SOL    HW2 8649   2.800   1.161   0.064
 2584SOL     OW 8650   4.165   0.837   3.203
 2584SOL    HW1 8651   4.205   0.929   3.201
 2584SOL    HW2 8652   4.222   0.777   3.260
 2585SOL     OW 8653   4.000   0.899   2.080
 2585SOL    HW1 8654   3.908   0.860   2.083
 2585SOL    HW2 8655   4.053   0.863   2.157
 2586SOL     OW 8656   0.073   1.220   4.237
 2586SOL    HW1 8657   0.130   1.219   4.319
 2586SOL    HW2 8658   0.030   1.131   4.225
 2587SOL     OW 8659   6.654   5.334   2.819
 2587SOL    HW1 8660   6.729   5.342   2.885
 2587SOL    HW2 8661   6.588   5.408   2.835
 2588SOL     OW 8662   4.595   6.877   2.653
 2588SOL    HW1 8663   4.538   6.821   2.594
 2588SOL    HW2 8664   4.542   6.953   2.689
 2589SOL     OW 8665   4.592   6.171   1.524
 2589SOL    HW1 8666   4.585   6.090   1.466
 2589SOL    HW2 8667   4.609   6.143   1.619
 2590SOL     OW 8668   3.532   6.141   3.717
 2590SOL    HW1 8669   3.530   6.045   3.745
 2590SOL    HW2 8670   3.559   6.148   3.621
 2591SOL     OW 8671   6.037   0.234   0.736
 2591SOL    HW1 8672   6.136   0.243   0.748
 2591SOL    HW2 8673   6.018   0.182   0.653
 2592SOL     OW 8674   2.875   4.709   1.660
 2592SOL    HW1 8675   2.864   4.639   1.731
 2592SOL    HW2 8676   2.971   4.713   1.632
 2593SOL     OW 8677   3.524   0.003   3.452
 2593SOL    HW1 8678   3.607   0.057   3.435
 2593SOL    HW2 8679   3.486   0.028   3.541
 2594SOL     OW 8680   1.041   5.866   6.391
 2594SOL    HW1 8681   1.126   5.918   6.400
 2594SOL    HW2 8682   0.975   5.899   6.459
 2595SOL     OW 8683   6.812   2.964   4.169
 2595SOL    HW1 8684   6.896   2.952   4.116
 2595SOL    HW2 8685   6.831   2.946   4.266
 2596SOL     OW 8686   3.715   1.861   1.085
 2596SOL    HW1 8687   3.637   1.807   1.056
 2596SOL    HW2 8688   3.772   1.808   1.148
 2597SOL     OW 8689   2.334   2.540   6.246
 2597SOL    HW1 8690   2.268   2.473   6.279
 2597SOL    HW2 8691   2.296   2.589   6.168
 2598SOL     OW 8692   6.962   0.808   3.045
 2598SOL    HW1 8693   6.950   0.802   3.144
 2598SOL    HW2 8694   6.904   0.740   3.000
 2599SOL     OW 8695   4.854   5.692   6.430
 2599SOL    HW1 8696   4.871   5.599   6.397
 2599SOL    HW2 8697   4.876   5.698   6.527
 2600SOL     OW 8698   0.466   2.496   4.704
 2600SOL    HW1 8699   0.401   2.571   4.692
 2600SOL    HW2 8700   0.494   2.461   4.615
 2601SOL     OW 8701   4.037   3.817   5.044
 2601SOL    HW1 8702   4.063   3.739   4.987
 2601SOL    HW2 8703   3.941   3.839   5.029
 2602SOL     OW 8704   6.021   6.406   6.216
 2602SOL    HW1 8705   6.043   6.469   6.291
 2602SOL    HW2 8706   6.105   6.365   6.181
 2603SOL     OW 8707   1.136   2.178   6.517
 2603SOL    HW1 8708   1.210   2.131   6.468
 2603SOL    HW2 8709   1.089   2.241   6.455
 2604SOL     OW 8710   5.929   1.830   0.964
 2604SOL    HW1 8711   5.944   1.919   0.921
 2604SOL    HW2 8712   5.831   1.810   0.965
 2605SOL     OW 8713   6.181   3.420   4.572
 2605SOL    HW1 8714   6.173   3.439   4.474
 2605SOL    HW2 8715   6.176   3.505   4.624
 2606SOL     OW 8716   6.667   4.368   1.010
 2606SOL    HW1 8717   6.672   4.278   1.055
 2606SOL    HW2 8718   6.759   4.395   0.980
 2607SOL     OW 8719   1.245   1.473   4.235
 2607SOL    HW1 8720   1.154   1.433   4.244
 2607SOL    HW2 8721   1.237   1.572   4.223
 2608SOL     OW 8722   5.046   0.017   0.513
 2608SOL    HW1 8723   4.988   6.954   0.533
 2608SOL    HW2 8724   5.104   0.037   0.591
 2609SOL     OW 8725   0.749   2.723   3.368
 2609SOL    HW1 8726   0.775   2.797   3.306
 2609SOL    HW2 8727   0.653   2.733   3.395
 2610SOL     OW 8728   5.529   6.077   4.326
 2610SOL    HW1 8729   5.489   6.032   4.405
 2610SOL    HW2 8730   5.483   6.165   4.311
 2611SOL     OW 8731   2.424   5.523   2.056
 2611SOL    HW1 8732   2.516   5.559   2.040
 2611SOL    HW2 8733   2.357   5.594   2.037
 2612SOL     OW 8734   0.409   6.837   5.371
 2612SOL    HW1 8735   0.449   6.912   5.423
 2612SOL    HW2 8736   0.361   6.874   5.291
 2613SOL     OW 8737   3.488   0.961   0.918
 2613SOL    HW1 8738   3.455   0.920   0.834
 2613SOL    HW2 8739   3.576   1.006   0.901
 2614SOL     OW 8740   6.605   6.217   6.511
 2614SOL    HW1 8741   6.694   6.246   6.545
 2614SOL    HW2 8742   6.536   6.233   6.581
 2615SOL     OW 8743   5.728   4.219   1.351
 2615SOL    HW1 8744   5.804   4.187   1.407
 2615SOL    HW2 8745   5.642   4.199   1.397
 2616SOL     OW 8746   4.058   3.264   2.112
 2616SOL    HW1 8747   4.033   3.171   2.141
 2616SOL    HW2 8748   4.076   3.320   2.193
 2617SOL     OW 8749   2.775   6.673   1.195
 2617SOL    HW1 8750   2.682   6.707   1.211
 2617SOL    HW2 8751   2.771   6.585   1.148
 2618SOL     OW 8752   0.875   6.738   0.285
 2618SOL    HW1 8753   0.935   6.745   0.364
 2618SOL    HW2 8754   0.796   6.681   0.308
 2619SOL     OW 8755   6.256   1.375   1.310
 2619SOL    HW1 8756   6.168   1.328   1.313
 2619SOL    HW2 8757   6.305   1.360   1.395
 2620SOL     OW 8758   1.355   5.489   3.984
 2620SOL    HW1 8759   1.271   5.539   3.963
 2620SOL    HW2 8760   1.428   5.518   3.921
 2621SOL     OW 8761   0.572   5.380   4.093
 2621SOL    HW1 8762   0.477   5.408   4.080
 2621SOL    HW2 8763   0.580   5.281   4.081
 2622SOL     OW 8764   2.412   2.372   5.337
 2622SOL    HW1 8765   2.508   2.376   5.365
 2622SOL    HW2 8766   2.364   2.453   5.371
 2623SOL     OW 8767   3.313   0.172   6.489
 2623SOL    HW1 8768   3.359   0.211   6.568
 2623SOL    HW2 8769   3.231   0.122   6.519
 2624SOL     OW 8770   6.521   2.326   3.931
 2624SOL    HW1 8771   6.604   2.372   3.962
 2624SOL    HW2 8772   6.469   2.296   4.011
 2625SOL     OW 8773   3.748   0.267   5.830
 2625SOL    HW1 8774   3.769   0.359   5.863
 2625SOL    HW2 8775   3.679   0.272   5.759
 2626SOL     OW 8776   1.983   0.220   2.723
 2626SOL    HW1 8777   1.985   0.166   2.807
 2626SOL    HW2 8778   1.973   0.317   2.745
 2627SOL     OW 8779   0.883   0.507   4.826
 2627SOL    HW1 8780   0.809   0.544   4.882
 2627SOL    HW2 8781   0.860   0.519   4.729
 2628SOL     OW 8782   3.373   6.328   6.974
 2628SOL    HW1 8783   3.339   6.420   6.994
 2628SOL    HW2 8784   3.382   6.277   0.043
 2629SOL     OW 8785   2.743   3.576   1.702
 2629SOL    HW1 8786   2.825   3.594   1.647
 2629SOL    HW2 8787   2.769   3.559   1.797
 2630SOL     OW 8788   2.571   2.500   2.650
 2630SOL    HW1 8789   2.660   2.493   2.605
 2630SOL    HW2 8790   2.567   2.436   2.727
 2631SOL     OW 8791   4.012   6.130   4.483
 2631SOL    HW1 8792   3.917   6.101   4.478
 2631SOL    HW2 8793   4.040   6.170   4.396
 2632SOL     OW 8794   4.702   1.108   1.260
 2632SOL    HW1 8795   4.657   1.020   1.274
 2632SOL    HW2 8796   4.741   1.112   1.169
 2633SOL     OW 8797   6.958   2.739   6.701
 2633SOL    HW1 8798   0.001   2.673   6.655
 2633SOL    HW2 8799   7.004   2.772   6.784
 2634SOL     OW 8800   3.318   5.173   0.967
 2634SOL    HW1 8801   3.306   5.192   0.870
 2634SOL    HW2 8802   3.394   5.110   0.980
 2635SOL     OW 8803   6.342   4.482   3.487
 2635SOL    HW1 8804   6.410   4.409   3.485
 2635SOL    HW2 8805   6.289   4.482   3.402
 2636SOL     OW 8806   5.767   6.144   5.357
 2636SOL    HW1 8807   5.860   6.107   5.357
 2636SOL    HW2 8808   5.757   6.209   5.432
 2637SOL     OW 8809   5.364   6.222   2.442
 2637SOL    HW1 8810   5.411   6.241   2.355
 2637SOL    HW2 8811   5.396   6.286   2.512
 2638SOL     OW 8812   5.267   5.831   0.815
 2638SOL    HW1 8813   5.299   5.766   0.747
 2638SOL    HW2 8814   5.179   5.869   0.786
 2639SOL     OW 8815   6.874   6.444   6.290
 2639SOL    HW1 8816   6.790   6.490   6.319
 2639SOL    HW2 8817   6.948   6.465   6.353
 2640SOL     OW 8818   6.452   6.968   6.501
 2640SOL    HW1 8819   6.395   7.012   6.570
 2640SOL    HW2 8820   6.479   0.019   6.432
 2641SOL     OW 8821   6.580   5.658   0.269
 2641SOL    HW1 8822   6.677   5.667   0.244
 2641SOL    HW2 8823   6.572   5.648   0.368
 2642SOL     OW 8824   6.443   0.494   3.843
 2642SOL    HW1 8825   6.384   0.527   3.917
 2642SOL    HW2 8826   6.507   0.426   3.879
 2643SOL     OW 8827   2.154   0.150   2.241
 2643SOL    HW1 8828   2.190   0.092   2.168
 2643SOL    HW2 8829   2.110   0.231   2.201
 2644SOL     OW 8830   6.724   5.855   5.094
 2644SOL    HW1 8831   6.678   5.942   5.113
 2644SOL    HW2 8832   6.802   5.871   5.035
 2645SOL     OW 8833   5.730   5.708   6.199
 2645SOL    HW1 8834   5.813   5.704   6.255
 2645SOL    HW2 8835   5.748   5.663   6.112
 2646SOL     OW 8836   5.831   5.926   6.912
 2646SOL    HW1 8837   5.824   5.859   6.838
 2646SOL    HW2 8838   5.928   5.941   6.934
 2647SOL     OW 8839   3.161   3.375   0.051
 2647SOL    HW1 8840   3.184   3.368   6.970
 2647SOL    HW2 8841   3.062   3.377   0.062
 2648SOL     OW 8842   3.976   1.395   3.535
 2648SOL    HW1 8843   4.065   1.397   3.580
 2648SOL    HW2 8844   3.989   1.394   3.436
 2649SOL     OW 8845   3.224   3.368   5.270
 2649SOL    HW1 8846   3.150   3.372   5.204
 2649SOL    HW2 8847   3.205   3.297   5.338
 2650SOL     OW 8848   6.987   6.609   2.873
 2650SOL    HW1 8849   0.061   6.571   2.851
 2650SOL    HW2 8850   6.926   6.599   2.794
 2651SOL     OW 8851   0.959   0.073   3.650
 2651SOL    HW1 8852   1.038   0.111   3.602
 2651SOL    HW2 8853   0.896   0.146   3.675
 2652SOL     OW 8854   2.974   3.201   2.885
 2652SOL    HW1 8855   3.029   3.221   2.966
 2652SOL    HW2 8856   2.896   3.144   2.910
 2653SOL     OW 8857   6.898   6.327   0.083
 2653SOL    HW1 8858   6.964   6.380   0.031
 2653SOL    HW2 8859   6.808   6.372   0.079
 2654SOL     OW 8860   6.446   1.598   6.007
 2654SOL    HW1 8861   6.514   1.562   6.070
 2654SOL    HW2 8862   6.485   1.602   5.915
 2655SOL     OW 8863   5.398   5.226   4.745
 2655SOL    HW1 8864   5.359   5.191   4.830
 2655SOL    HW2 8865   5.483   5.275   4.765
 2656SOL     OW 8866   5.638   3.423   5.170
 2656SOL    HW1 8867   5.554   3.371   5.153
 2656SOL    HW2 8868   5.667   3.409   5.265
 2657SOL     OW 8869   3.291   2.046   6.002
 2657SOL    HW1 8870   3.347   2.127   5.985
 2657SOL    HW2 8871   3.194   2.071   5.993
 2658SOL     OW 8872   6.217   4.189   5.160
 2658SOL    HW1 8873   6.165   4.271   5.185
 2658SOL    HW2 8874   6.312   4.200   5.190
 2659SOL     OW 8875   6.548   1.459   3.858
 2659SOL    HW1 8876   6.577   1.475   3.764
 2659SOL    HW2 8877   6.559   1.363   3.881
 2660SOL     OW 8878   0.095   2.247   3.225
 2660SOL    HW1 8879   0.077   2.337   3.263
 2660SOL    HW2 8880   0.034   2.230   3.147
 2661SOL     OW 8881   3.693   6.988   2.748
 2661SOL    HW1 8882   3.595   6.984   2.731
 2661SOL    HW2 8883   3.743   6.974   2.663
 2662SOL     OW 8884   3.719   0.985   3.919
 2662SOL    HW1 8885   3.708   0.899   3.869
 2662SOL    HW2 8886   3.671   1.058   3.870
 2663SOL     OW 8887   0.261   4.464   2.963
 2663SOL    HW1 8888   0.175   4.417   2.942
 2663SOL    HW2 8889   0.338   4.410   2.929
 2664SOL     OW 8890   4.143   4.079   1.694
 2664SOL    HW1 8891   4.084   4.158   1.674
 2664SOL    HW2 8892   4.229   4.112   1.734
 2665SOL     OW 8893   4.732   0.262   4.637
 2665SOL    HW1 8894   4.729   0.349   4.588
 2665SOL    HW2 8895   4.652   0.255   4.697
 2666SOL     OW 8896   5.139   6.464   1.824
 2666SOL    HW1 8897   5.163   6.433   1.916
 2666SOL    HW2 8898   5.222   6.494   1.776
 2667SOL     OW 8899   2.235   5.089   2.962
 2667SOL    HW1 8900   2.188   5.177   2.961
 2667SOL    HW2 8901   2.189   5.026   2.900
 2668SOL     OW 8902   6.576   2.247   5.401
 2668SOL    HW1 8903   6.630   2.244   5.316
 2668SOL    HW2 8904   6.635   2.223   5.478
 2669SOL     OW 8905   4.156   5.778   5.234
 2669SOL    HW1 8906   4.133   5.697   5.289
 2669SOL    HW2 8907   4.107   5.775   5.147
 2670SOL     OW 8908   2.750   0.100   4.906
 2670SOL    HW1 8909   2.823   0.034   4.923
 2670SOL    HW2 8910   2.749   0.123   4.808
 2671SOL     OW 8911   3.144   4.479   6.303
 2671SOL    HW1 8912   3.194   4.393   6.293
 2671SOL    HW2 8913   3.070   4.482   6.236
 2672SOL     OW 8914   1.052   4.015   0.286
 2672SOL    HW1 8915   1.131   3.963   0.254
 2672SOL    HW2 8916   0.977   3.951   0.307
 2673SOL     OW 8917   4.121   2.206   3.564
 2673SOL    HW1 8918   4.100   2.265   3.642
 2673SOL    HW2 8919   4.162   2.120   3.597
 2674SOL     OW 8920   6.304   5.778   5.345
 2674SOL    HW1 8921   6.277   5.681   5.345
 2674SOL    HW2 8922   6.275   5.820   5.431
 2675SOL     OW 8923   0.669   4.192   5.271
 2675SOL    HW1 8924   0.641   4.140   5.191
 2675SOL    HW2 8925   0.637   4.146   5.354
 2676SOL     OW 8926   4.570   0.045   1.857
 2676SOL    HW1 8927   4.578   7.008   1.772
 2676SOL    HW2 8928   4.484   0.096   1.856
 2677SOL     OW 8929   2.556   4.554   2.450
 2677SOL    HW1 8930   2.479   4.507   2.407
 2677SOL    HW2 8931   2.621   4.584   2.380
 2678SOL     OW 8932   6.608   6.534   6.380
 2678SOL    HW1 8933   6.620   6.633   6.378
 2678SOL    HW2 8934   6.589   6.505   6.474
 2679SOL     OW 8935   2.501   5.231   1.465
 2679SOL    HW1 8936   2.599   5.229   1.486
 2679SOL    HW2 8937   2.450   5.192   1.541
 2680SOL     OW 8938   1.467   2.607   1.447
 2680SOL    HW1 8939   1.506   2.659   1.371
 2680SOL    HW2 8940   1.370   2.591   1.430
 2681SOL     OW 8941   1.866   1.811   2.089
 2681SOL    HW1 8942   1.774   1.811   2.127
 2681SOL    HW2 8943   1.875   1.886   2.023
 2682SOL     OW 8944   6.371   2.654   4.089
 2682SOL    HW1 8945   6.287   2.650   4.035
 2682SOL    HW2 8946   6.446   2.687   4.032
 2683SOL     OW 8947   1.297   0.398   0.568
 2683SOL    HW1 8948   1.283   0.456   0.488
 2683SOL    HW2 8949   1.251   0.439   0.647
 2684SOL     OW 8950   2.456   5.353   3.053
 2684SOL    HW1 8951   2.462   5.439   3.104
 2684SOL    HW2 8952   2.381   5.358   2.988
 2685SOL     OW 8953   5.192   5.938   5.201
 2685SOL    HW1 8954   5.166   5.848   5.238
 2685SOL    HW2 8955   5.155   6.010   5.260
 2686SOL     OW 8956   1.230   3.077   4.382
 2686SOL    HW1 8957   1.191   3.151   4.436
 2686SOL    HW2 8958   1.162   3.044   4.316
 2687SOL     OW 8959   4.724   4.432   3.580
 2687SOL    HW1 8960   4.702   4.420   3.483
 2687SOL    HW2 8961   4.771   4.519   3.593
 2688SOL     OW 8962   3.734   4.881   5.792
 2688SOL    HW1 8963   3.641   4.917   5.798
 2688SOL    HW2 8964   3.741   4.817   5.716
 2689SOL     OW 8965   0.042   3.238   4.125
 2689SOL    HW1 8966   0.109   3.184   4.176
 2689SOL    HW2 8967   6.967   3.219   4.161
 2690SOL     OW 8968   3.281   3.046   3.040
 2690SOL    HW1 8969   3.209   3.099   3.084
 2690SOL    HW2 8970   3.270   3.053   2.940
 2691SOL     OW 8971   1.063   6.117   1.956
 2691SOL    HW1 8972   1.119   6.175   1.897
 2691SOL    HW2 8973   1.021   6.045   1.901
 2692SOL     OW 8974   0.223   5.327   3.204
 2692SOL    HW1 8975   0.197   5.234   3.176
 2692SOL    HW2 8976   0.195   5.392   3.134
 2693SOL     OW 8977   1.759   3.498   3.090
 2693SOL    HW1 8978   1.667   3.530   3.068
 2693SOL    HW2 8979   1.825   3.566   3.058
 2694SOL     OW 8980   2.424   1.128   3.063
 2694SOL    HW1 8981   2.406   1.165   2.972
 2694SOL    HW2 8982   2.338   1.119   3.113
 2695SOL     OW 8983   4.198   2.286   2.498
 2695SOL    HW1 8984   4.176   2.272   2.595
 2695SOL    HW2 8985   4.121   2.253   2.442
 2696SOL     OW 8986   4.100   3.894   5.296
 2696SOL    HW1 8987   4.109   3.863   5.201
 2696SOL    HW2 8988   4.045   3.977   5.298
 2697SOL     OW 8989   2.870   1.735   4.741
 2697SOL    HW1 8990   2.956   1.697   4.776
 2697SOL    HW2 8991   2.797   1.719   4.808
 2698SOL     OW 8992   1.991   2.974   6.319
 2698SOL    HW1 8993   1.970   2.942   6.226
 2698SOL    HW2 8994   1.946   2.915   6.386
 2699SOL     OW 8995   2.463   5.988   2.667
 2699SOL    HW1 8996   2.534   5.950   2.727
 2699SOL    HW2 8997   2.430   5.917   2.607
 2700SOL     OW 8998   1.652   4.287   2.996
 2700SOL    HW1 8999   1.608   4.295   2.906
 2700SOL    HW2 9000   1.609   4.212   3.047
 2701SOL     OW 9001   3.742   0.455   5.412
 2701SOL    HW1 9002   3.801   0.508   5.351
 2701SOL    HW2 9003   3.682   0.517   5.462
 2702SOL     OW 9004   6.942   6.235   2.680
 2702SOL    HW1 9005   6.866   6.298   2.700
 2702SOL    HW2 9006   6.961   6.236   2.582
 2703SOL     OW 9007   1.569   1.844   3.377
 2703SOL    HW1 9008   1.623   1.804   3.451
 2703SOL    HW2 9009   1.628   1.863   3.299
 2704SOL     OW 9010   1.219   6.557   0.084
 2704SOL    HW1 9011   1.270   6.502   0.018
 2704SOL    HW2 9012   1.123   6.560   0.058
 2705SOL     OW 9013   0.295   4.124   2.864
 2705SOL    HW1 9014   0.371   4.156   2.808
 2705SOL    HW2 9015   0.296   4.024   2.869
 2706SOL     OW 9016   6.659   2.230   2.672
 2706SOL    HW1 9017   6.734   2.166   2.686
 2706SOL    HW2 9018   6.692   2.324   2.684
 2707SOL     OW 9019   2.370   1.265   5.895
 2707SOL    HW1 9020   2.386   1.179   5.847
 2707SOL    HW2 9021   2.278   1.298   5.875
 2708SOL     OW 9022   1.534   4.376   0.673
 2708SOL    HW1 9023   1.501   4.351   0.582
 2708SOL    HW2 9024   1.484   4.323   0.742
 2709SOL     OW 9025   4.227   6.760   1.591
 2709SOL    HW1 9026   4.152   6.703   1.624
 2709SOL    HW2 9027   4.313   6.726   1.628
 2710SOL     OW 9028   6.489   3.921   2.656
 2710SOL    HW1 9029   6.574   3.876   2.628
 2710SOL    HW2 9030   6.447   3.966   2.577
 2711SOL     OW 9031   1.309   6.839   2.169
 2711SOL    HW1 9032   1.357   6.768   2.220
 2711SOL    HW2 9033   1.323   6.928   2.213
 2712SOL     OW 9034   3.680   5.131   2.793
 2712SOL    HW1 9035   3.701   5.210   2.851
 2712SOL    HW2 9036   3.598   5.150   2.739
 2713SOL     OW 9037   2.076   2.508   5.123
 2713SOL    HW1 9038   2.072   2.574   5.199
 2713SOL    HW2 9039   2.166   2.513   5.080
 2714SOL     OW 9040   5.234   0.162   6.031
 2714SOL    HW1 9041   5.196   0.236   6.087
 2714SOL    HW2 9042   5.295   0.105   6.087
 2715SOL     OW 9043   5.892   6.980   0.306
 2715SOL    HW1 9044   5.832   6.900   0.316
 2715SOL    HW2 9045   5.842   0.038   0.262
 2716SOL     OW 9046   6.797   6.494   2.677
 2716SOL    HW1 9047   6.757   6.455   2.594
 2716SOL    HW2 9048   6.836   6.584   2.655
 2717SOL     OW 9049   0.550   0.147   3.217
 2717SOL    HW1 9050   0.617   0.098   3.161
 2717SOL    HW2 9051   0.462   0.149   3.169
 2718SOL     OW 9052   0.562   4.471   3.312
 2718SOL    HW1 9053   0.604   4.525   3.385
 2718SOL    HW2 9054   0.630   4.407   3.275
 2719SOL     OW 9055   4.356   4.714   2.893
 2719SOL    HW1 9056   4.321   4.663   2.971
 2719SOL    HW2 9057   4.456   4.710   2.893
 2720SOL     OW 9058   0.573   6.184   3.987
 2720SOL    HW1 9059   0.668   6.208   3.965
 2720SOL    HW2 9060   0.516   6.265   3.979
 2721SOL     OW 9061   5.313   6.548   3.941
 2721SOL    HW1 9062   5.327   6.561   3.843
 2721SOL    HW2 9063   5.343   6.456   3.968
 2722SOL     OW 9064   1.340   6.126   1.321
 2722SOL    HW1 9065   1.340   6.062   1.244
 2722SOL    HW2 9066   1.434   6.137   1.354
 2723SOL     OW 9067   2.364   1.790   4.621
 2723SOL    HW1 9068   2.296   1.854   4.658
 2723SOL    HW2 9069   2.364   1.797   4.521
 2724SOL     OW 9070   3.459   6.217   6.571
 2724SOL    HW1 9071   3.515   6.232   6.652
 2724SOL    HW2 9072   3.517   6.217   6.489
 2725SOL     OW 9073   2.616   4.846   3.557
 2725SOL    HW1 9074   2.704   4.881   3.589
 2725SOL    HW2 9075   2.565   4.808   3.634
 2726SOL     OW 9076   4.689   6.580   2.694
 2726SOL    HW1 9077   4.727   6.669   2.717
 2726SOL    HW2 9078   4.723   6.550   2.605
 2727SOL     OW 9079   2.099   5.444   3.229
 2727SOL    HW1 9080   2.052   5.532   3.218
 2727SOL    HW2 9081   2.119   5.429   3.326
 2728SOL     OW 9082   3.456   6.666   5.186
 2728SOL    HW1 9083   3.515   6.745   5.199
 2728SOL    HW2 9084   3.383   6.689   5.122
 2729SOL     OW 9085   6.805   4.765   2.559
 2729SOL    HW1 9086   6.878   4.820   2.518
 2729SOL    HW2 9087   6.759   4.818   2.631
 2730SOL     OW 9088   1.127   4.656   1.870
 2730SOL    HW1 9089   1.163   4.693   1.956
 2730SOL    HW2 9090   1.027   4.667   1.868
 2731SOL     OW 9091   3.145   3.830   1.108
 2731SOL    HW1 9092   3.238   3.868   1.101
 2731SOL    HW2 9093   3.080   3.905   1.120
 2732SOL     OW 9094   5.477   3.141   4.563
 2732SOL    HW1 9095   5.500   3.081   4.487
 2732SOL    HW2 9096   5.560   3.177   4.605
 2733SOL     OW 9097   2.252   0.533   6.159
 2733SOL    HW1 9098   2.235   0.620   6.112
 2733SOL    HW2 9099   2.269   0.550   6.256
 2734SOL     OW 9100   2.678   0.100   3.955
 2734SOL    HW1 9101   2.578   0.105   3.948
 2734SOL    HW2 9102   2.709   0.011   3.922
 2735SOL     OW 9103   1.209   5.045   0.961
 2735SOL    HW1 9104   1.148   5.114   0.999
 2735SOL    HW2 9105   1.298   5.051   1.005
 2736SOL     OW 9106   3.180   6.976   6.595
 2736SOL    HW1 9107   3.265   6.969   6.648
 2736SOL    HW2 9108   3.113   6.911   6.631
 2737SOL     OW 9109   4.207   3.147   5.755
 2737SOL    HW1 9110   4.193   3.194   5.668
 2737SOL    HW2 9111   4.203   3.213   5.830
 2738SOL     OW 9112   5.841   4.407   4.256
 2738SOL    HW1 9113   5.873   4.320   4.217
 2738SOL    HW2 9114   5.920   4.460   4.287
 2739SOL     OW 9115   4.986   4.195   0.368
 2739SOL    HW1 9116   5.016   4.111   0.413
 2739SOL    HW2 9117   4.904   4.176   0.314
 2740SOL     OW 9118   6.264   2.476   3.506
 2740SOL    HW1 9119   6.295   2.480   3.601
 2740SOL    HW2 9120   6.176   2.523   3.497
 2741SOL     OW 9121   1.692   3.060   4.633
 2741SOL    HW1 9122   1.749   3.024   4.560
 2741SOL    HW2 9123   1.749   3.093   4.708
 2742SOL     OW 9124   3.023   6.333   5.544
 2742SOL    HW1 9125   2.941   6.314   5.598
 2742SOL    HW2 9126   3.007   6.309   5.449
 2743SOL     OW 9127   5.954   4.345   0.373
 2743SOL    HW1 9128   5.908   4.268   0.330
 2743SOL    HW2 9129   5.938   4.343   0.471
 2744SOL     OW 9130   4.347   0.684   0.711
 2744SOL    HW1 9131   4.323   0.613   0.645
 2744SOL    HW2 9132   4.281   0.683   0.786
 2745SOL     OW 9133   1.995   5.867   1.140
 2745SOL    HW1 9134   1.935   5.819   1.205
 2745SOL    HW2 9135   1.978   5.965   1.146
 2746SOL     OW 9136   1.026   2.466   6.141
 2746SOL    HW1 9137   1.036   2.435   6.046
 2746SOL    HW2 9138   0.992   2.559   6.142
 2747SOL     OW 9139   5.388   5.526   3.908
 2747SOL    HW1 9140   5.440   5.577   3.975
 2747SOL    HW2 9141   5.409   5.560   3.816
 2748SOL     OW 9142   4.960   0.991   4.602
 2748SOL    HW1 9143   5.038   1.015   4.544
 2748SOL    HW2 9144   4.979   0.904   4.648
 2749SOL     OW 9145   4.901   4.385   3.784
 2749SOL    HW1 9146   4.860   4.338   3.862
 2749SOL    HW2 9147   4.830   4.412   3.719
 2750SOL     OW 9148   0.675   6.652   0.625
 2750SOL    HW1 9149   0.674   6.752   0.613
 2750SOL    HW2 9150   0.675   6.608   0.535
 2751SOL     OW 9151   1.734   0.289   6.847
 2751SOL    HW1 9152   1.726   0.190   6.847
 2751SOL    HW2 9153   1.809   0.316   6.908
 2752SOL     OW 9154   6.852   6.588   5.809
 2752SOL    HW1 9155   6.914   6.618   5.881
 2752SOL    HW2 9156   6.899   6.588   5.721
 2753SOL     OW 9157   3.509   5.033   5.388
 2753SOL    HW1 9158   3.559   4.980   5.320
 2753SOL    HW2 9159   3.567   5.049   5.467
 2754SOL     OW 9160   0.853   5.939   4.065
 2754SOL    HW1 9161   0.767   5.918   4.112
 2754SOL    HW2 9162   0.840   6.021   4.009
 2755SOL     OW 9163   4.542   5.654   2.601
 2755SOL    HW1 9164   4.500   5.657   2.510
 2755SOL    HW2 9165   4.637   5.685   2.594
 2756SOL     OW 9166   0.763   2.921   5.554
 2756SOL    HW1 9167   0.763   2.825   5.525
 2756SOL    HW2 9168   0.726   2.929   5.646
 2757SOL     OW 9169   4.717   3.960   6.849
 2757SOL    HW1 9170   4.681   3.961   6.756
 2757SOL    HW2 9171   4.649   3.923   6.911
 2758SOL     OW 9172   6.808   6.687   1.965
 2758SOL    HW1 9173   6.847   6.752   1.900
 2758SOL    HW2 9174   6.866   6.683   2.047
 2759SOL     OW 9175   3.382   3.601   5.217
 2759SOL    HW1 9176   3.340   3.514   5.243
 2759SOL    HW2 9177   3.368   3.616   5.119
 2760SOL     OW 9178   5.710   5.351   2.563
 2760SOL    HW1 9179   5.624   5.394   2.592
 2760SOL    HW2 9180   5.740   5.286   2.632
 2761SOL     OW 9181   1.504   3.319   3.306
 2761SOL    HW1 9182   1.579   3.374   3.343
 2761SOL    HW2 9183   1.438   3.299   3.379
 2762SOL     OW 9184   3.863   1.648   1.271
 2762SOL    HW1 9185   3.781   1.603   1.305
 2762SOL    HW2 9186   3.941   1.587   1.278
 2763SOL     OW 9187   5.896   1.416   3.642
 2763SOL    HW1 9188   5.946   1.370   3.715
 2763SOL    HW2 9189   5.798   1.414   3.663
 2764SOL     OW 9190   0.220   2.984   3.592
 2764SOL    HW1 9191   0.276   2.947   3.666
 2764SOL    HW2 9192   0.243   2.939   3.506
 2765SOL     OW 9193   6.301   6.127   5.672
 2765SOL    HW1 9194   6.274   6.223   5.685
 2765SOL    HW2 9195   6.356   6.097   5.750
 2766SOL     OW 9196   4.368   0.500   0.513
 2766SOL    HW1 9197   4.317   0.418   0.490
 2766SOL    HW2 9198   4.466   0.482   0.505
 2767SOL     OW 9199   0.399   5.517   6.261
 2767SOL    HW1 9200   0.371   5.488   6.169
 2767SOL    HW2 9201   0.368   5.450   6.328
 2768SOL     OW 9202   3.389   6.415   1.511
 2768SOL    HW1 9203   3.471   6.465   1.536
 2768SOL    HW2 9204   3.377   6.417   1.411
 2769SOL     OW 9205   0.545   4.390   5.666
 2769SOL    HW1 9206   0.563   4.310   5.723
 2769SOL    HW2 9207   0.456   4.428   5.689
 2770SOL     OW 9208   2.276   0.122   0.652
 2770SOL    HW1 9209   2.263   0.022   0.653
 2770SOL    HW2 9210   2.208   0.163   0.591
 2771SOL     OW 9211   4.385   6.502   5.524
 2771SOL    HW1 9212   4.400   6.410   5.489
 2771SOL    HW2 9213   4.473   6.544   5.546
 2772SOL     OW 9214   5.040   1.433   3.274
 2772SOL    HW1 9215   4.969   1.434   3.344
 2772SOL    HW2 9216   5.126   1.401   3.314
 2773SOL     OW 9217   5.806   2.309   5.792
 2773SOL    HW1 9218   5.777   2.221   5.828
 2773SOL    HW2 9219   5.813   2.304   5.692
 2774SOL     OW 9220   6.317   0.321   3.657
 2774SOL    HW1 9221   6.232   0.374   3.654
 2774SOL    HW2 9222   6.361   0.333   3.746
 2775SOL     OW 9223   6.990   2.371   4.630
 2775SOL    HW1 9224   6.992   2.452   4.689
 2775SOL    HW2 9225   6.908   2.373   4.573
 2776SOL     OW 9226   4.806   4.386   6.208
 2776SOL    HW1 9227   4.753   4.470   6.226
 2776SOL    HW2 9228   4.903   4.408   6.203
 2777SOL     OW 9229   2.160   2.478   6.607
 2777SOL    HW1 9230   2.118   2.535   6.678
 2777SOL    HW2 9231   2.249   2.515   6.584
 2778SOL     OW 9232   3.452   0.414   6.277
 2778SOL    HW1 9233   3.362   0.386   6.244
 2778SOL    HW2 9234   3.442   0.488   6.345
 2779SOL     OW 9235   5.063   0.969   1.861
 2779SOL    HW1 9236   5.101   0.974   1.954
 2779SOL    HW2 9237   4.970   1.005   1.862
 2780SOL     OW 9238   0.043   1.086   5.302
 2780SOL    HW1 9239   0.120   1.147   5.283
 2780SOL    HW2 9240   0.043   1.011   5.236
 2781SOL     OW 9241   6.944   0.388   3.111
 2781SOL    HW1 9242   6.883   0.367   3.187
 2781SOL    HW2 9243   0.021   0.399   3.145
 2782SOL     OW 9244   5.353   0.245   5.579
 2782SOL    HW1 9245   5.266   0.229   5.531
 2782SOL    HW2 9246   5.402   0.159   5.588
 2783SOL     OW 9247   5.610   2.923   1.633
 2783SOL    HW1 9248   5.520   2.921   1.678
 2783SOL    HW2 9249   5.618   3.005   1.577
 2784SOL     OW 9250   0.164   2.852   1.638
 2784SOL    HW1 9251   0.199   2.874   1.547
 2784SOL    HW2 9252   0.098   2.921   1.666
 2785SOL     OW 9253   5.175   3.573   2.879
 2785SOL    HW1 9254   5.208   3.549   2.787
 2785SOL    HW2 9255   5.131   3.663   2.876
 2786SOL     OW 9256   0.757   5.777   0.524
 2786SOL    HW1 9257   0.708   5.802   0.606
 2786SOL    HW2 9258   0.762   5.677   0.516
 2787SOL     OW 9259   0.311   5.836   6.108
 2787SOL    HW1 9260   0.354   5.925   6.101
 2787SOL    HW2 9261   0.259   5.817   6.025
 2788SOL     OW 9262   2.828   6.710   0.104
 2788SOL    HW1 9263   2.863   6.655   0.180
 2788SOL    HW2 9264   2.843   6.807   0.124
 2789SOL     OW 9265   1.752   2.099   4.192
 2789SOL    HW1 9266   1.673   2.149   4.227
 2789SOL    HW2 9267   1.740   2.082   4.094
 2790SOL     OW 9268   0.221   5.465   1.477
 2790SOL    HW1 9269   0.225   5.374   1.434
 2790SOL    HW2 9270   0.125   5.491   1.491
 2791SOL     OW 9271   0.757   3.513   4.817
 2791SOL    HW1 9272   0.691   3.484   4.748
 2791SOL    HW2 9273   0.829   3.567   4.774
 2792SOL     OW 9274   3.065   1.751   6.384
 2792SOL    HW1 9275   3.069   1.787   6.291
 2792SOL    HW2 9276   3.149   1.703   6.405
 2793SOL     OW 9277   3.558   3.740   6.702
 2793SOL    HW1 9278   3.472   3.755   6.752
 2793SOL    HW2 9279   3.587   3.826   6.660
 2794SOL     OW 9280   1.824   1.945   6.926
 2794SOL    HW1 9281   1.794   2.038   6.944
 2794SOL    HW2 9282   1.896   1.920   6.990
 2795SOL     OW 9283   1.206   6.837   1.192
 2795SOL    HW1 9284   1.193   6.773   1.117
 2795SOL    HW2 9285   1.246   6.922   1.156
 2796SOL     OW 9286   2.117   5.956   6.756
 2796SOL    HW1 9287   2.127   5.859   6.737
 2796SOL    HW2 9288   2.032   5.990   6.716
 2797SOL     OW 9289   4.914   4.042   4.085
 2797SOL    HW1 9290   4.970   4.051   4.167
 2797SOL    HW2 9291   4.845   4.115   4.083
 2798SOL     OW 9292   5.065   1.977   1.928
 2798SOL    HW1 9293   5.028   2.031   1.852
 2798SOL    HW2 9294   4.990   1.948   1.987
 2799SOL     OW 9295   3.572   6.520   5.414
 2799SOL    HW1 9296   3.536   6.562   5.331
 2799SOL    HW2 9297   3.530   6.563   5.494
 2800SOL     OW 9298   4.705   0.609   6.447
 2800SOL    HW1 9299   4.689   0.663   6.529
 2800SOL    HW2 9300   4.617   0.578   6.410
 2801SOL     OW 9301   0.474   4.410   3.752
 2801SOL    HW1 9302   0.469   4.451   3.843
 2801SOL    HW2 9303   0.395   4.438   3.698
 2802SOL     OW 9304   1.254   5.045   4.596
 2802SOL    HW1 9305   1.178   5.108   4.610
 2802SOL    HW2 9306   1.218   4.952   4.583
 2803SOL     OW 9307   3.785   2.269   6.617
 2803SOL    HW1 9308   3.846   2.191   6.610
 2803SOL    HW2 9309   3.763   2.286   6.713
 2804SOL     OW 9310   6.387   2.688   3.800
 2804SOL    HW1 9311   6.360   2.592   3.812
 2804SOL    HW2 9312   6.484   2.692   3.774
 2805SOL     OW 9313   4.156   4.564   0.594
 2805SOL    HW1 9314   4.189   4.657   0.576
 2805SOL    HW2 9315   4.077   4.546   0.535
 2806SOL     OW 9316   0.147   3.197   5.431
 2806SOL    HW1 9317   0.174   3.101   5.430
 2806SOL    HW2 9318   0.172   3.240   5.343
 2807SOL     OW 9319   4.714   1.458   3.955
 2807SOL    HW1 9320   4.768   1.467   4.038
 2807SOL    HW2 9321   4.617   1.469   3.976
 2808SOL     OW 9322   0.970   6.169   5.341
 2808SOL    HW1 9323   0.931   6.124   5.420
 2808SOL    HW2 9324   0.986   6.101   5.269
 2809SOL     OW 9325   0.854   5.991   1.256
 2809SOL    HW1 9326   0.832   6.034   1.168
 2809SOL    HW2 9327   0.920   5.918   1.243
 2810SOL     OW 9328   0.918   6.096   2.991
 2810SOL    HW1 9329   0.891   6.068   2.899
 2810SOL    HW2 9330   0.875   6.183   3.014
 2811SOL     OW 9331   0.552   1.081   0.778
 2811SOL    HW1 9332   0.584   1.174   0.763
 2811SOL    HW2 9333   0.457   1.082   0.808
 2812SOL     OW 9334   1.620   1.299   0.981
 2812SOL    HW1 9335   1.709   1.294   1.026
 2812SOL    HW2 9336   1.630   1.346   0.893
 2813SOL     OW 9337   0.269   2.401   0.866
 2813SOL    HW1 9338   0.216   2.322   0.897
 2813SOL    HW2 9339   0.245   2.481   0.922
 2814SOL     OW 9340   2.819   4.543   6.677
 2814SOL    HW1 9341   2.914   4.536   6.645
 2814SOL    HW2 9342   2.796   4.638   6.694
 2815SOL     OW 9343   0.035   5.288   4.362
 2815SOL    HW1 9344   0.000   5.204   4.320
 2815SOL    HW2 9345   0.056   5.271   4.458
 2816SOL     OW 9346   1.282   5.088   5.157
 2816SOL    HW1 9347   1.304   5.081   5.060
 2816SOL    HW2 9348   1.227   5.171   5.172
 2817SOL     OW 9349   2.544   0.970   2.275
 2817SOL    HW1 9350   2.593   0.996   2.358
 2817SOL    HW2 9351   2.517   0.874   2.281
 2818SOL     OW 9352   1.409   1.022   6.980
 2818SOL    HW1 9353   1.342   1.027   0.038
 2818SOL    HW2 9354   1.496   1.061   7.012
 2819SOL     OW 9355   0.557   0.151   6.605
 2819SOL    HW1 9356   0.609   0.223   6.559
 2819SOL    HW2 9357   0.618   0.099   6.665
 2820SOL     OW 9358   2.410   1.829   6.584
 2820SOL    HW1 9359   2.331   1.772   6.608
 2820SOL    HW2 9360   2.413   1.841   6.484
 2821SOL     OW 9361   3.224   2.628   5.768
 2821SOL    HW1 9362   3.276   2.671   5.841
 2821SOL    HW2 9363   3.132   2.666   5.765
 2822SOL     OW 9364   4.155   2.792   0.647
 2822SOL    HW1 9365   4.167   2.869   0.710
 2822SOL    HW2 9366   4.204   2.712   0.681
 2823SOL     OW 9367   5.526   3.820   1.916
 2823SOL    HW1 9368   5.537   3.795   2.012
 2823SOL    HW2 9369   5.582   3.761   1.859
 2824SOL     OW 9370   0.918   4.352   5.530
 2824SOL    HW1 9371   0.930   4.301   5.445
 2824SOL    HW2 9372   0.837   4.411   5.522
 2825SOL     OW 9373   5.239   2.197   5.875
 2825SOL    HW1 9374   5.227   2.281   5.823
 2825SOL    HW2 9375   5.181   2.125   5.837
 2826SOL     OW 9376   2.716   3.638   6.625
 2826SOL    HW1 9377   2.748   3.554   6.580
 2826SOL    HW2 9378   2.692   3.617   6.720
 2827SOL     OW 9379   5.848   1.460   6.750
 2827SOL    HW1 9380   5.784   1.509   6.691
 2827SOL    HW2 9381   5.834   1.362   6.740
 2828SOL     OW 9382   1.245   4.197   0.790
 2828SOL    HW1 9383   1.315   4.149   0.736
 2828SOL    HW2 9384   1.154   4.171   0.758
 2829SOL     OW 9385   3.341   3.666   1.874
 2829SOL    HW1 9386   3.395   3.661   1.790
 2829SOL    HW2 9387   3.381   3.735   1.935
 2830SOL     OW 9388   3.454   5.829   4.754
 2830SOL    HW1 9389   3.458   5.753   4.690
 2830SOL    HW2 9390   3.507   5.906   4.719
 2831SOL     OW 9391   6.584   1.722   1.930
 2831SOL    HW1 9392   6.522   1.651   1.899
 2831SOL    HW2 9393   6.594   1.716   2.030
 2832SOL     OW 9394   1.352   3.443   2.114
 2832SOL    HW1 9395   1.377   3.405   2.203
 2832SOL    HW2 9396   1.434   3.473   2.066
 2833SOL     OW 9397   6.859   2.723   2.938
 2833SOL    HW1 9398   6.877   2.789   2.865
 2833SOL    HW2 9399   6.900   2.635   2.913
 2834SOL     OW 9400   3.866   0.572   4.317
 2834SOL    HW1 9401   3.822   0.636   4.380
 2834SOL    HW2 9402   3.936   0.620   4.265
 2835SOL     OW 9403   6.836   1.237   0.004
 2835SOL    HW1 9404   6.869   1.143   0.010
 2835SOL    HW2 9405   6.908   1.300   0.033
 2836SOL     OW 9406   2.877   5.611   2.269
 2836SOL    HW1 9407   2.908   5.558   2.347
 2836SOL    HW2 9408   2.916   5.574   2.185
 2837SOL     OW 9409   5.300   4.151   1.959
 2837SOL    HW1 9410   5.384   4.182   2.005
 2837SOL    HW2 9411   5.318   4.067   1.908
 2838SOL     OW 9412   6.939   3.521   6.162
 2838SOL    HW1 9413   6.909   3.432   6.197
 2838SOL    HW2 9414   6.892   3.540   6.076
 2839SOL     OW 9415   6.097   2.736   6.455
 2839SOL    HW1 9416   6.078   2.784   6.370
 2839SOL    HW2 9417   6.013   2.726   6.508
 2840SOL     OW 9418   5.832   6.377   4.788
 2840SOL    HW1 9419   5.756   6.402   4.848
 2840SOL    HW2 9420   5.805   6.391   4.693
 2841SOL     OW 9421   5.538   4.076   2.628
 2841SOL    HW1 9422   5.470   4.148   2.612
 2841SOL    HW2 9423   5.493   3.987   2.631
 2842SOL     OW 9424   0.815   6.863   3.297
 2842SOL    HW1 9425   0.746   6.896   3.361
 2842SOL    HW2 9426   0.791   6.891   3.204
 2843SOL     OW 9427   2.367   2.799   4.456
 2843SOL    HW1 9428   2.270   2.780   4.475
 2843SOL    HW2 9429   2.424   2.747   4.520
 2844SOL     OW 9430   5.259   3.652   0.591
 2844SOL    HW1 9431   5.301   3.578   0.539
 2844SOL    HW2 9432   5.234   3.619   0.683
 2845SOL     OW 9433   3.186   1.840   1.570
 2845SOL    HW1 9434   3.182   1.906   1.645
 2845SOL    HW2 9435   3.226   1.755   1.604
 2846SOL     OW 9436   5.229   6.784   6.747
 2846SOL    HW1 9437   5.199   6.808   6.655
 2846SOL    HW2 9438   5.258   6.866   6.796
 2847SOL     OW 9439   5.098   4.938   1.259
 2847SOL    HW1 9440   5.119   4.914   1.164
 2847SOL    HW2 9441   5.145   5.023   1.283
 2848SOL     OW 9442   0.638   3.825   6.632
 2848SOL    HW1 9443   0.681   3.747   6.587
 2848SOL    HW2 9444   0.687   3.909   6.607
 2849SOL     OW 9445   5.191   0.225   1.526
 2849SOL    HW1 9446   5.190   0.221   1.626
 2849SOL    HW2 9447   5.159   0.315   1.496
 2850SOL     OW 9448   0.888   1.218   1.491
 2850SOL    HW1 9449   0.803   1.261   1.522
 2850SOL    HW2 9450   0.936   1.280   1.429
 2851SOL     OW 9451   3.656   2.996   1.698
 2851SOL    HW1 9452   3.600   3.079   1.700
 2851SOL    HW2 9453   3.676   2.972   1.603
 2852SOL     OW 9454   0.377   5.184   5.362
 2852SOL    HW1 9455   0.445   5.245   5.401
 2852SOL    HW2 9456   0.286   5.212   5.391
 2853SOL     OW 9457   0.288   4.270   4.935
 2853SOL    HW1 9458   0.357   4.339   4.914
 2853SOL    HW2 9459   0.199   4.299   4.899
 2854SOL     OW 9460   3.026   0.541   6.196
 2854SOL    HW1 9461   3.003   0.446   6.173
 2854SOL    HW2 9462   3.118   0.561   6.163
 2855SOL     OW 9463   1.969   1.432   4.306
 2855SOL    HW1 9464   1.951   1.352   4.364
 2855SOL    HW2 9465   1.935   1.514   4.352
 2856SOL     OW 9466   1.090   5.590   4.452
 2856SOL    HW1 9467   1.110   5.687   4.464
 2856SOL    HW2 9468   1.160   5.548   4.393
 2857SOL     OW 9469   6.562   3.949   0.746
 2857SOL    HW1 9470   6.649   3.927   0.703
 2857SOL    HW2 9471   6.578   3.983   0.839
 2858SOL     OW 9472   5.847   4.518   3.492
 2858SOL    HW1 9473   5.919   4.451   3.504
 2858SOL    HW2 9474   5.768   4.476   3.447
 2859SOL     OW 9475   6.042   4.994   1.416
 2859SOL    HW1 9476   6.091   5.078   1.440
 2859SOL    HW2 9477   6.108   4.925   1.384
 2860SOL     OW 9478   1.097   6.969   3.085
 2860SOL    HW1 9479   1.190   6.975   3.120
 2860SOL    HW2 9480   1.040   6.919   3.150
 2861SOL     OW 9481   5.235   4.175   5.570
 2861SOL    HW1 9482   5.172   4.239   5.526
 2861SOL    HW2 9483   5.186   4.091   5.595
 2862SOL     OW 9484   4.427   0.918   0.816
 2862SOL    HW1 9485   4.481   0.978   0.757
 2862SOL    HW2 9486   4.387   0.845   0.760
 2863SOL     OW 9487   5.734   2.343   5.445
 2863SOL    HW1 9488   5.704   2.264   5.392
 2863SOL    HW2 9489   5.660   2.372   5.506
 2864SOL     OW 9490   4.130   4.177   1.166
 2864SOL    HW1 9491   4.129   4.078   1.183
 2864SOL    HW2 9492   4.037   4.207   1.143
 2865SOL     OW 9493   5.409   5.187   5.826
 2865SOL    HW1 9494   5.500   5.223   5.847
 2865SOL    HW2 9495   5.408   5.152   5.732
 2866SOL     OW 9496   3.631   4.848   1.057
 2866SOL    HW1 9497   3.617   4.754   1.087
 2866SOL    HW2 9498   3.728   4.869   1.055
 2867SOL     OW 9499   6.793   5.938   2.608
 2867SOL    HW1 9500   6.793   5.865   2.676
 2867SOL    HW2 9501   6.867   6.002   2.627
 2868SOL     OW 9502   0.282   6.988   5.187
 2868SOL    HW1 9503   0.231   6.963   5.105
 2868SOL    HW2 9504   0.266   0.068   5.209
 2869SOL     OW 9505   6.092   4.666   5.120
 2869SOL    HW1 9506   6.084   4.669   5.020
 2869SOL    HW2 9507   6.010   4.626   5.159
 2870SOL     OW 9508   1.219   1.342   1.533
 2870SOL    HW1 9509   1.164   1.284   1.473
 2870SOL    HW2 9510   1.299   1.377   1.483
 2871SOL     OW 9511   4.532   1.336   3.383
 2871SOL    HW1 9512   4.502   1.300   3.295
 2871SOL    HW2 9513   4.621   1.296   3.406
 2872SOL     OW 9514   3.033   1.933   2.295
 2872SOL    HW1 9515   2.943   1.888   2.297
 2872SOL    HW2 9516   3.043   1.982   2.208
 2873SOL     OW 9517   0.937   0.090   2.332
 2873SOL    HW1 9518   0.909   0.012   2.388
 2873SOL    HW2 9519   0.872   0.165   2.343
 2874SOL     OW 9520   2.039   1.539   3.505
 2874SOL    HW1 9521   2.073   1.602   3.575
 2874SOL    HW2 9522   1.966   1.584   3.453
 2875SOL     OW 9523   2.401   0.057   3.445
 2875SOL    HW1 9524   2.442   6.996   3.493
 2875SOL    HW2 9525   2.374   0.127   3.511
 2876SOL     OW 9526   1.215   6.678   0.963
 2876SOL    HW1 9527   1.239   6.656   0.868
 2876SOL    HW2 9528   1.160   6.604   1.001
 2877SOL     OW 9529   1.816   3.132   4.873
 2877SOL    HW1 9530   1.908   3.111   4.906
 2877SOL    HW2 9531   1.754   3.137   4.951
 2878SOL     OW 9532   3.640   2.871   4.918
 2878SOL    HW1 9533   3.705   2.938   4.883
 2878SOL    HW2 9534   3.547   2.901   4.899
 2879SOL     OW 9535   5.098   5.132   6.916
 2879SOL    HW1 9536   5.137   5.210   6.868
 2879SOL    HW2 9537   5.141   5.123   7.006
 2880SOL     OW 9538   1.214   2.067   3.461
 2880SOL    HW1 9539   1.230   1.987   3.404
 2880SOL    HW2 9540   1.116   2.078   3.476
 2881SOL     OW 9541   5.186   5.169   0.680
 2881SOL    HW1 9542   5.111   5.202   0.736
 2881SOL    HW2 9543   5.266   5.229   0.691
 2882SOL     OW 9544   4.287   6.611   6.773
 2882SOL    HW1 9545   4.323   6.700   6.804
 2882SOL    HW2 9546   4.362   6.546   6.767
 2883SOL     OW 9547   5.568   6.183   3.461
 2883SOL    HW1 9548   5.552   6.219   3.553
 2883SOL    HW2 9549   5.486   6.137   3.429
 2884SOL     OW 9550   6.136   5.299   3.850
 2884SOL    HW1 9551   6.171   5.350   3.771
 2884SOL    HW2 9552   6.209   5.287   3.917
 2885SOL     OW 9553   0.412   2.884   3.740
 2885SOL    HW1 9554   0.477   2.819   3.702
 2885SOL    HW2 9555   0.453   2.930   3.819
 2886SOL     OW 9556   2.383   4.456   4.923
 2886SOL    HW1 9557   2.347   4.378   4.872
 2886SOL    HW2 9558   2.341   4.460   5.013
 2887SOL     OW 9559   6.697   5.567   2.444
 2887SOL    HW1 9560   6.701   5.474   2.480
 2887SOL    HW2 9561   6.744   5.570   2.355
 2888SOL     OW 9562   4.996   6.602   6.779
 2888SOL    HW1 9563   4.954   6.643   6.860
 2888SOL    HW2 9564   5.094   6.621   6.781
 2889SOL     OW 9565   4.564   6.317   4.340
 2889SOL    HW1 9566   4.619   6.302   4.423
 2889SOL    HW2 9567   4.480   6.263   4.347
 2890SOL     OW 9568   1.381   2.357   0.262
 2890SOL    HW1 9569   1.351   2.445   0.298
 2890SOL    HW2 9570   1.317   2.327   0.191
 2891SOL     OW 9571   0.992   1.341   5.263
 2891SOL    HW1 9572   0.900   1.317   5.293
 2891SOL    HW2 9573   0.987   1.419   5.201
 2892SOL     OW 9574   5.579   4.641   2.129
 2892SOL    HW1 9575   5.536   4.627   2.040
 2892SOL    HW2 9576   5.625   4.730   2.130
 2893SOL     OW 9577   6.797   5.246   4.782
 2893SOL    HW1 9578   6.776   5.148   4.786
 2893SOL    HW2 9579   6.812   5.273   4.687
 2894SOL     OW 9580   1.573   5.362   0.987
 2894SOL    HW1 9581   1.548   5.359   0.890
 2894SOL    HW2 9582   1.492   5.345   1.043
 2895SOL     OW 9583   4.421   6.499   6.099
 2895SOL    HW1 9584   4.500   6.451   6.137
 2895SOL    HW2 9585   4.390   6.452   6.016
 2896SOL     OW 9586   6.391   0.534   5.211
 2896SOL    HW1 9587   6.309   0.539   5.154
 2896SOL    HW2 9588   6.445   0.454   5.185
 2897SOL     OW 9589   3.491   5.572   3.484
 2897SOL    HW1 9590   3.468   5.476   3.501
 2897SOL    HW2 9591   3.511   5.617   3.571
 2898SOL     OW 9592   5.329   2.918   3.393
 2898SOL    HW1 9593   5.408   2.947   3.448
 2898SOL    HW2 9594   5.356   2.842   3.334
 2899SOL     OW 9595   6.307   3.252   0.796
 2899SOL    HW1 9596   6.219   3.234   0.754
 2899SOL    HW2 9597   6.377   3.261   0.725
 2900SOL     OW 9598   2.480   2.699   5.755
 2900SOL    HW1 9599   2.540   2.755   5.813
 2900SOL    HW2 9600   2.524   2.682   5.668
 2901SOL     OW 9601   1.241   3.980   2.282
 2901SOL    HW1 9602   1.234   3.922   2.201
 2901SOL    HW2 9603   1.151   3.990   2.325
 2902SOL     OW 9604   5.746   5.961   3.751
 2902SOL    HW1 9605   5.770   6.054   3.721
 2902SOL    HW2 9606   5.687   5.918   3.683
 2903SOL     OW 9607   6.974   4.973   0.289
 2903SOL    HW1 9608   0.006   5.038   0.231
 2903SOL    HW2 9609   6.877   4.973   0.266
 2904SOL     OW 9610   2.791   4.771   4.845
 2904SOL    HW1 9611   2.742   4.852   4.879
 2904SOL    HW2 9612   2.793   4.701   4.917
 2905SOL     OW 9613   0.930   5.195   1.401
 2905SOL    HW1 9614   1.001   5.133   1.433
 2905SOL    HW2 9615   0.854   5.194   1.465
 2906SOL     OW 9616   0.144   6.299   5.688
 2906SOL    HW1 9617   0.074   6.261   5.748
 2906SOL    HW2 9618   0.211   6.350   5.742
 2907SOL     OW 9619   0.041   0.820   5.611
 2907SOL    HW1 9620   0.137   0.793   5.611
 2907SOL    HW2 9621   7.000   0.738   5.616
 2908SOL     OW 9622   4.591   6.838   3.971
 2908SOL    HW1 9623   4.674   6.799   3.931
 2908SOL    HW2 9624   4.551   6.903   3.907
 2909SOL     OW 9625   6.838   0.132   2.002
 2909SOL    HW1 9626   6.771   0.173   1.941
 2909SOL    HW2 9627   6.845   0.187   2.086
 2910SOL     OW 9628   1.258   0.935   4.461
 2910SOL    HW1 9629   1.326   0.863   4.444
 2910SOL    HW2 9630   1.262   1.002   4.387
 2911SOL     OW 9631   0.270   3.676   5.490
 2911SOL    HW1 9632   0.359   3.694   5.533
 2911SOL    HW2 9633   0.283   3.618   5.409
 2912SOL     OW 9634   0.679   1.942   2.251
 2912SOL    HW1 9635   0.657   2.014   2.185
 2912SOL    HW2 9636   0.696   1.856   2.203
 2913SOL     OW 9637   0.885   6.575   2.793
 2913SOL    HW1 9638   0.817   6.550   2.723
 2913SOL    HW2 9639   0.934   6.657   2.763
 2914SOL     OW 9640   3.967   4.596   1.292
 2914SOL    HW1 9641   3.924   4.519   1.339
 2914SOL    HW2 9642   3.901   4.670   1.282
 2915SOL     OW 9643   2.232   0.538   3.876
 2915SOL    HW1 9644   2.309   0.570   3.930
 2915SOL    HW2 9645   2.161   0.503   3.937
 2916SOL     OW 9646   0.811   5.395   6.752
 2916SOL    HW1 9647   0.783   5.299   6.751
 2916SOL    HW2 9648   0.798   5.434   6.660
 2917SOL     OW 9649   2.503   0.165   3.200
 2917SOL    HW1 9650   2.531   0.258   3.177
 2917SOL    HW2 9651   2.454   0.165   3.287
 2918SOL     OW 9652   5.067   2.522   1.522
 2918SOL    HW1 9653   5.028   2.610   1.550
 2918SOL    HW2 9654   5.103   2.475   1.602
 2919SOL     OW 9655   0.582   6.166   4.793
 2919SOL    HW1 9656   0.594   6.194   4.888
 2919SOL    HW2 9657   0.671   6.150   4.752
 2920SOL     OW 9658   2.772   2.318   1.666
 2920SOL    HW1 9659   2.789   2.352   1.758
 2920SOL    HW2 9660   2.789   2.390   1.599
 2921SOL     OW 9661   0.915   6.415   3.580
 2921SOL    HW1 9662   0.955   6.460   3.659
 2921SOL    HW2 9663   0.987   6.392   3.514
 2922SOL     OW 9664   3.847   4.878   3.742
 2922SOL    HW1 9665   3.750   4.854   3.734
 2922SOL    HW2 9666   3.858   4.949   3.812
 2923SOL     OW 9667   1.284   5.517   4.266
 2923SOL    HW1 9668   1.325   5.537   4.177
 2923SOL    HW2 9669   1.321   5.431   4.301
 2924SOL     OW 9670   5.178   1.437   6.238
 2924SOL    HW1 9671   5.198   1.473   6.147
 2924SOL    HW2 9672   5.252   1.462   6.301
 2925SOL     OW 9673   5.512   6.617   4.603
 2925SOL    HW1 9674   5.561   6.651   4.684
 2925SOL    HW2 9675   5.523   6.681   4.528
 2926SOL     OW 9676   6.597   2.537   4.608
 2926SOL    HW1 9677   6.551   2.622   4.633
 2926SOL    HW2 9678   6.654   2.506   4.685
 2927SOL     OW 9679   1.082   1.732   2.550
 2927SOL    HW1 9680   1.069   1.753   2.646
 2927SOL    HW2 9681   1.092   1.633   2.538
 2928SOL     OW 9682   5.383   3.204   0.654
 2928SOL    HW1 9683   5.475   3.203   0.617
 2928SOL    HW2 9684   5.351   3.299   0.660
 2929SOL     OW 9685   2.530   1.560   3.259
 2929SOL    HW1 9686   2.527   1.625   3.183
 2929SOL    HW2 9687   2.437   1.536   3.286
 2930SOL     OW 9688   0.378   3.581   4.092
 2930SOL    HW1 9689   0.387   3.595   4.190
 2930SOL    HW2 9690   0.450   3.630   4.044
 2931SOL     OW 9691   6.032   4.618   5.882
 2931SOL    HW1 9692   6.012   4.546   5.948
 2931SOL    HW2 9693   6.026   4.581   5.789
 2932SOL     OW 9694   6.388   5.563   1.151
 2932SOL    HW1 9695   6.374   5.645   1.095
 2932SOL    HW2 9696   6.340   5.486   1.110
 2933SOL     OW 9697   0.903   0.303   6.909
 2933SOL    HW1 9698   0.854   0.306   6.822
 2933SOL    HW2 9699   0.840   0.275   6.982
 2934SOL     OW 9700   5.298   5.389   1.689
 2934SOL    HW1 9701   5.356   5.308   1.693
 2934SOL    HW2 9702   5.276   5.420   1.781
 2935SOL     OW 9703   0.798   3.264   5.578
 2935SOL    HW1 9704   0.880   3.220   5.541
 2935SOL    HW2 9705   0.719   3.239   5.523
 2936SOL     OW 9706   4.470   6.635   2.220
 2936SOL    HW1 9707   4.486   6.657   2.123
 2936SOL    HW2 9708   4.478   6.536   2.233
 2937SOL     OW 9709   6.097   3.640   3.239
 2937SOL    HW1 9710   6.185   3.622   3.194
 2937SOL    HW2 9711   6.030   3.670   3.171
 2938SOL     OW 9712   0.272   4.990   6.953
 2938SOL    HW1 9713   0.337   4.925   6.913
 2938SOL    HW2 9714   0.214   4.942   0.003
 2939SOL     OW 9715   6.779   6.042   1.713
 2939SOL    HW1 9716   6.751   5.968   1.774
 2939SOL    HW2 9717   6.750   6.021   1.620
 2940SOL     OW 9718   4.677   6.522   4.191
 2940SOL    HW1 9719   4.628   6.439   4.217
 2940SOL    HW2 9720   4.686   6.582   4.270
 2941SOL     OW 9721   2.662   4.887   3.120
 2941SOL    HW1 9722   2.565   4.878   3.143
 2941SOL    HW2 9723   2.706   4.798   3.126
 2942SOL     OW 9724   3.438   2.081   1.892
 2942SOL    HW1 9725   3.483   2.161   1.852
 2942SOL    HW2 9726   3.500   2.002   1.886
 2943SOL     OW 9727   6.642   3.521   3.616
 2943SOL    HW1 9728   6.554   3.498   3.658
 2943SOL    HW2 9729   6.714   3.467   3.660
 2944SOL     OW 9730   1.743   6.037   2.937
 2944SOL    HW1 9731   1.644   6.027   2.928
 2944SOL    HW2 9732   1.767   6.134   2.933
 2945SOL     OW 9733   5.716   3.657   1.383
 2945SOL    HW1 9734   5.632   3.607   1.362
 2945SOL    HW2 9735   5.776   3.657   1.304
 2946SOL     OW 9736   3.268   2.951   4.489
 2946SOL    HW1 9737   3.228   2.936   4.398
 2946SOL    HW2 9738   3.200   2.996   4.548
 2947SOL     OW 9739   6.255   5.263   0.303
 2947SOL    HW1 9740   6.309   5.260   0.219
 2947SOL    HW2 9741   6.312   5.292   0.379
 2948SOL     OW 9742   6.772   4.126   1.107
 2948SOL    HW1 9743   6.700   4.064   1.074
 2948SOL    HW2 9744   6.861   4.081   1.098
 2949SOL     OW 9745   1.361   6.739   0.726
 2949SOL    HW1 9746   1.431   6.738   0.654
 2949SOL    HW2 9747   1.325   6.832   0.736
 2950SOL     OW 9748   5.847   5.738   2.638
 2950SOL    HW1 9749   5.885   5.827   2.660
 2950SOL    HW2 9750   5.918   5.668   2.644
 2951SOL     OW 9751   0.835   2.400   0.977
 2951SOL    HW1 9752   0.736   2.396   0.966
 2951SOL    HW2 9753   0.862   2.344   1.055
 2952SOL     OW 9754   0.138   1.503   4.121
 2952SOL    HW1 9755   0.156   1.566   4.197
 2952SOL    HW2 9756   0.129   1.410   4.157
 2953SOL     OW 9757   1.980   6.337   3.317
 2953SOL    HW1 9758   1.952   6.355   3.411
 2953SOL    HW2 9759   2.024   6.418   3.279
 2954SOL     OW 9760   0.674   4.202   5.977
 2954SOL    HW1 9761   0.592   4.145   5.988
 2954SOL    HW2 9762   0.699   4.205   5.880
 2955SOL     OW 9763   1.653   4.591   6.584
 2955SOL    HW1 9764   1.639   4.495   6.609
 2955SOL    HW2 9765   1.644   4.648   6.666
 2956SOL     OW 9766   5.466   4.157   4.585
 2956SOL    HW1 9767   5.445   4.255   4.585
 2956SOL    HW2 9768   5.386   4.107   4.618
 2957SOL     OW 9769   2.317   5.684   1.667
 2957SOL    HW1 9770   2.383   5.612   1.689
 2957SOL    HW2 9771   2.231   5.642   1.637
 2958SOL     OW 9772   1.376   4.852   2.375
 2958SOL    HW1 9773   1.389   4.753   2.370
 2958SOL    HW2 9774   1.375   4.890   2.283
 2959SOL     OW 9775   0.161   4.221   3.881
 2959SOL    HW1 9776   0.202   4.195   3.969
 2959SOL    HW2 9777   0.144   4.319   3.879
 2960SOL     OW 9778   4.598   6.328   1.238
 2960SOL    HW1 9779   4.630   6.393   1.306
 2960SOL    HW2 9780   4.524   6.273   1.276
 2961SOL     OW 9781   5.313   2.693   1.709
 2961SOL    HW1 9782   5.246   2.695   1.783
 2961SOL    HW2 9783   5.350   2.601   1.700
 2962SOL     OW 9784   6.866   0.205   3.746
 2962SOL    HW1 9785   6.877   0.113   3.709
 2962SOL    HW2 9786   6.951   0.256   3.736
 2963SOL     OW 9787   1.687   0.945   5.357
 2963SOL    HW1 9788   1.746   1.023   5.335
 2963SOL    HW2 9789   1.682   0.883   5.279
 2964SOL     OW 9790   1.463   0.190   6.342
 2964SOL    HW1 9791   1.410   0.111   6.371
 2964SOL    HW2 9792   1.505   0.172   6.253
 2965SOL     OW 9793   5.854   0.511   6.028
 2965SOL    HW1 9794   5.819   0.476   6.115
 2965SOL    HW2 9795   5.811   0.599   6.007
 2966SOL     OW 9796   3.944   5.295   2.679
 2966SOL    HW1 9797   3.872   5.278   2.611
 2966SOL    HW2 9798   4.018   5.347   2.637
 2967SOL     OW 9799   5.579   6.980   4.969
 2967SOL    HW1 9800   5.618   0.031   4.906
 2967SOL    HW2 9801   5.552   6.898   4.919
 2968SOL     OW 9802   1.400   3.993   1.311
 2968SOL    HW1 9803   1.396   4.074   1.369
 2968SOL    HW2 9804   1.355   4.012   1.224
 2969SOL     OW 9805   4.743   2.817   4.378
 2969SOL    HW1 9806   4.818   2.773   4.328
 2969SOL    HW2 9807   4.778   2.854   4.464
 2970SOL     OW 9808   2.549   2.978   5.560
 2970SOL    HW1 9809   2.491   3.058   5.544
 2970SOL    HW2 9810   2.592   2.950   5.474
 2971SOL     OW 9811   4.524   3.825   7.015
 2971SOL    HW1 9812   4.529   3.834   0.098
 2971SOL    HW2 9813   4.430   3.839   6.984
 2972SOL     OW 9814   0.020   5.771   6.671
 2972SOL    HW1 9815   0.105   5.823   6.672
 2972SOL    HW2 9816   6.998   5.772   6.579
 2973SOL     OW 9817   5.555   0.835   4.270
 2973SOL    HW1 9818   5.478   0.840   4.334
 2973SOL    HW2 9819   5.547   0.909   4.203
 2974SOL     OW 9820   5.655   6.396   1.850
 2974SOL    HW1 9821   5.718   6.457   1.801
 2974SOL    HW2 9822   5.585   6.451   1.896
 2975SOL     OW 9823   6.873   3.439   4.884
 2975SOL    HW1 9824   6.805   3.401   4.947
 2975SOL    HW2 9825   6.854   3.536   4.869
 2976SOL     OW 9826   3.505   0.818   1.730
 2976SOL    HW1 9827   3.460   0.832   1.642
 2976SOL    HW2 9828   3.502   0.721   1.755
 2977SOL     OW 9829   1.590   1.392   1.785
 2977SOL    HW1 9830   1.611   1.428   1.695
 2977SOL    HW2 9831   1.491   1.386   1.796
 2978SOL     OW 9832   3.155   5.609   0.449
 2978SOL    HW1 9833   3.155   5.514   0.481
 2978SOL    HW2 9834   3.236   5.623   0.391
 2979SOL     OW 9835   2.921   0.753   5.478
 2979SOL    HW1 9836   2.908   0.849   5.453
 2979SOL    HW2 9837   2.912   0.696   5.396
 2980SOL     OW 9838   3.417   2.951   4.105
 2980SOL    HW1 9839   3.455   2.894   4.178
 2980SOL    HW2 9840   3.461   3.041   4.106
 2981SOL     OW 9841   3.149   1.801   2.006
 2981SOL    HW1 9842   3.053   1.798   1.976
 2981SOL    HW2 9843   3.190   1.887   1.976
 2982SOL     OW 9844   1.595   0.984   0.689
 2982SOL    HW1 9845   1.525   1.043   0.728
 2982SOL    HW2 9846   1.583   0.977   0.590
 2983SOL     OW 9847   6.511   2.634   6.211
 2983SOL    HW1 9848   6.565   2.709   6.249
 2983SOL    HW2 9849   6.537   2.548   6.254
 2984SOL     OW 9850   0.486   6.121   1.364
 2984SOL    HW1 9851   0.541   6.201   1.345
 2984SOL    HW2 9852   0.511   6.047   1.302
 2985SOL     OW 9853   6.445   0.683   5.957
 2985SOL    HW1 9854   6.471   0.672   6.053
 2985SOL    HW2 9855   6.440   0.781   5.936
 2986SOL     OW 9856   3.379   3.090   2.064
 2986SOL    HW1 9857   3.425   3.135   1.988
 2986SOL    HW2 9858   3.291   3.135   2.082
 2987SOL     OW 9859   2.173   5.508   4.823
 2987SOL    HW1 9860   2.139   5.520   4.916
 2987SOL    HW2 9861   2.209   5.415   4.812
 2988SOL     OW 9862   6.778   1.987   6.048
 2988SOL    HW1 9863   6.830   2.017   5.968
 2988SOL    HW2 9864   6.803   2.043   6.127
 2989SOL     OW 9865   5.735   3.403   5.435
 2989SOL    HW1 9866   5.743   3.502   5.420
 2989SOL    HW2 9867   5.684   3.386   5.520
 2990SOL     OW 9868   5.571   1.104   5.543
 2990SOL    HW1 9869   5.529   1.023   5.583
 2990SOL    HW2 9870   5.515   1.184   5.564
 2991SOL     OW 9871   6.805   3.692   0.211
 2991SOL    HW1 9872   6.759   3.668   0.125
 2991SOL    HW2 9873   6.862   3.615   0.240
 2992SOL     OW 9874   0.548   3.609   5.537
 2992SOL    HW1 9875   0.643   3.584   5.515
 2992SOL    HW2 9876   0.495   3.525   5.553
 2993SOL     OW 9877   2.786   4.927   0.625
 2993SOL    HW1 9878   2.773   4.953   0.721
 2993SOL    HW2 9879   2.880   4.895   0.612
 2994SOL     OW 9880   2.937   4.808   4.608
 2994SOL    HW1 9881   2.862   4.873   4.602
 2994SOL    HW2 9882   2.933   4.760   4.696
 2995SOL     OW 9883   4.913   0.596   1.768
 2995SOL    HW1 9884   4.891   0.608   1.671
 2995SOL    HW2 9885   4.863   0.517   1.804
 2996SOL     OW 9886   6.533   0.807   4.111
 2996SOL    HW1 9887   6.609   0.769   4.059
 2996SOL    HW2 9888   6.452   0.811   4.053
 2997SOL     OW 9889   4.933   6.062   4.515
 2997SOL    HW1 9890   4.860   6.029   4.575
 2997SOL    HW2 9891   4.894   6.090   4.427
 2998SOL     OW 9892   2.596   0.737   1.715
 2998SOL    HW1 9893   2.624   0.711   1.623
 2998SOL    HW2 9894   2.673   0.725   1.778
 2999SOL     OW 9895   1.256   4.553   0.396
 2999SOL    HW1 9896   1.161   4.586   0.397
 2999SOL    HW2 9897   1.290   4.551   0.490
 3000SOL     OW 9898   2.361   3.719   5.307
 3000SOL    HW1 9899   2.283   3.681   5.258
 3000SOL    HW2 9900   2.399   3.795   5.256
 3001SOL     OW 9901   4.319   0.690   6.271
 3001SOL    HW1 9902   4.252   0.646   6.212
 3001SOL    HW2 9903   4.407   0.641   6.265
 3002SOL     OW 9904   1.354   2.126   2.227
 3002SOL    HW1 9905   1.410   2.188   2.281
 3002SOL    HW2 9906   1.329   2.046   2.282
 3003SOL     OW 9907   1.035   5.792   0.554
 3003SOL    HW1 9908   0.940   5.791   0.522
 3003SOL    HW2 9909   1.086   5.863   0.505
 3004SOL     OW 9910   3.396   6.829   3.973
 3004SOL    HW1 9911   3.376   6.732   3.989
 3004SOL    HW2 9912   3.311   6.882   3.972
 3005SOL     OW 9913   2.927   1.842   0.394
 3005SOL    HW1 9914   3.001   1.777   0.411
 3005SOL    HW2 9915   2.895   1.833   0.300
 3006SOL     OW 9916   5.664   1.145   5.879
 3006SOL    HW1 9917   5.709   1.162   5.966
 3006SOL    HW2 9918   5.569   1.175   5.884
 3007SOL     OW 9919   6.063   5.785   5.860
 3007SOL    HW1 9920   5.999   5.841   5.913
 3007SOL    HW2 9921   6.046   5.689   5.879
 3008SOL     OW 9922   4.717   4.003   5.744
 3008SOL    HW1 9923   4.626   3.986   5.708
 3008SOL    HW2 9924   4.713   4.012   5.844
 3009SOL     OW 9925   5.501   3.153   2.147
 3009SOL    HW1 9926   5.537   3.150   2.240
 3009SOL    HW2 9927   5.559   3.098   2.087
 3010SOL     OW 9928   4.599   5.423   1.675
 3010SOL    HW1 9929   4.693   5.448   1.699
 3010SOL    HW2 9930   4.585   5.436   1.577
 3011SOL     OW 9931   5.515   6.849   0.608
 3011SOL    HW1 9932   5.578   6.794   0.554
 3011SOL    HW2 9933   5.431   6.798   0.624
 3012SOL     OW 9934   2.264   1.116   4.521
 3012SOL    HW1 9935   2.290   1.020   4.529
 3012SOL    HW2 9936   2.263   1.142   4.425
 3013SOL     OW 9937   1.114   5.045   5.559
 3013SOL    HW1 9938   1.150   5.120   5.504
 3013SOL    HW2 9939   1.014   5.053   5.565
 3014SOL     OW 9940   4.011   0.365   0.079
 3014SOL    HW1 9941   3.986   0.454   0.118
 3014SOL    HW2 9942   3.989   0.365   6.998
 3015SOL     OW 9943   2.781   6.863   6.032
 3015SOL    HW1 9944   2.819   6.911   5.953
 3015SOL    HW2 9945   2.850   6.802   6.070
 3016SOL     OW 9946   2.855   0.706   4.010
 3016SOL    HW1 9947   2.853   0.628   3.948
 3016SOL    HW2 9948   2.850   0.674   4.104
 3017SOL     OW 9949   0.818   6.090   0.105
 3017SOL    HW1 9950   0.744   6.036   0.145
 3017SOL    HW2 9951   0.838   6.057   0.013
 3018SOL     OW 9952   3.197   2.039   1.802
 3018SOL    HW1 9953   3.290   2.070   1.822
 3018SOL    HW2 9954   3.145   2.115   1.762
 3019SOL     OW 9955   1.209   0.676   5.368
 3019SOL    HW1 9956   1.188   0.623   5.286
 3019SOL    HW2 9957   1.167   0.767   5.361
 3020SOL     OW 9958   4.838   5.032   6.875
 3020SOL    HW1 9959   4.846   4.933   6.889
 3020SOL    HW2 9960   4.925   5.076   6.896
 3021SOL     OW 9961   5.046   6.713   4.245
 3021SOL    HW1 9962   4.985   6.749   4.174
 3021SOL    HW2 9963   4.996   6.700   4.330
 3022SOL     OW 9964   4.582   6.576   4.626
 3022SOL    HW1 9965   4.608   6.617   4.539
 3022SOL    HW2 9966   4.664   6.541   4.672
 3023SOL     OW 9967   5.207   4.578   5.443
 3023SOL    HW1 9968   5.168   4.605   5.354
 3023SOL    HW2 9969   5.151   4.505   5.482
 3024SOL     OW 9970   6.819   0.925   0.510
 3024SOL    HW1 9971   6.754   0.861   0.469
 3024SOL    HW2 9972   6.838   0.898   0.605
 3025SOL     OW 9973   3.974   5.413   0.794
 3025SOL    HW1 9974   3.944   5.484   0.858
 3025SOL    HW2 9975   4.047   5.448   0.736
 3026SOL     OW 9976   0.169   0.502   2.208
 3026SOL    HW1 9977   0.108   0.425   2.187
 3026SOL    HW2 9978   0.248   0.469   2.258
 3027SOL     OW 9979   3.881   6.653   0.784
 3027SOL    HW1 9980   3.919   6.674   0.694
 3027SOL    HW2 9981   3.782   6.643   0.777
 3028SOL     OW 9982   3.676   3.214   4.410
 3028SOL    HW1 9983   3.715   3.284   4.469
 3028SOL    HW2 9984   3.741   3.138   4.401
 3029SOL     OW 9985   0.158   2.712   5.204
 3029SOL    HW1 9986   0.189   2.617   5.200
 3029SOL    HW2 9987   0.087   2.722   5.274
 3030SOL     OW 9988   1.296   3.097   6.365
 3030SOL    HW1 9989   1.377   3.128   6.315
 3030SOL    HW2 9990   1.257   3.017   6.319
 3031SOL     OW 9991   0.594   5.140   0.045
 3031SOL    HW1 9992   0.526   5.110   0.112
 3031SOL    HW2 9993   0.547   5.172   6.979
 3032SOL     OW 9994   3.150   6.864   3.624
 3032SOL    HW1 9995   3.097   6.911   3.553
 3032SOL    HW2 9996   3.133   6.907   3.713
 3033SOL     OW 9997   1.555   1.366   6.483
 3033SOL    HW1 9998   1.550   1.343   6.386
 3033SOL    HW2 9999   1.576   1.463   6.493
 3034SOL     OW10000   5.354   3.476   3.619
 3034SOL    HW110001   5.361   3.523   3.707
 3034SOL    HW210002   5.392   3.534   3.547
 3035SOL     OW10003   6.913   3.733   6.963
 3035SOL    HW110004   6.895   3.763   6.869
 3035SOL    HW210005   6.952   3.809   7.015
 3036SOL     OW10006   3.376   2.296   5.898
 3036SOL    HW110007   3.455   2.241   5.871
 3036SOL    HW210008   3.322   2.319   5.818
 3037SOL     OW10009   0.843   4.939   6.455
 3037SOL    HW110010   0.801   4.874   6.518
 3037SOL    HW210011   0.930   4.972   6.493
 3038SOL     OW10012   5.803   4.936   5.524
 3038SOL    HW110013   5.749   4.883   5.458
 3038SOL    HW210014   5.792   4.897   5.615
 3039SOL     OW10015   5.573   3.223   5.986
 3039SOL    HW110016   5.480   3.187   5.980
 3039SOL    HW210017   5.637   3.147   5.995
 3040SOL     OW10018   3.668   6.176   6.084
 3040SOL    HW110019   3.629   6.266   6.103
 3040SOL    HW210020   3.635   6.111   6.151
 3041SOL     OW10021   1.800   5.468   6.425
 3041SOL    HW110022   1.739   5.438   6.499
 3041SOL    HW210023   1.745   5.498   6.347
 3042SOL     OW10024   0.329   5.137   4.347
 3042SOL    HW110025   0.297   5.165   4.437
 3042SOL    HW210026   0.367   5.217   4.299
 3043SOL     OW10027   3.283   4.459   1.373
 3043SOL    HW110028   3.315   4.518   1.298
 3043SOL    HW210029   3.229   4.514   1.436
 3044SOL     OW10030   3.828   3.501   4.751
 3044SOL    HW110031   3.888   3.435   4.796
 3044SOL    HW210032   3.814   3.474   4.655
 3045SOL     OW10033   5.375   1.337   2.549
 3045SOL    HW110034   5.401   1.433   2.535
 3045SOL    HW210035   5.439   1.294   2.613
 3046SOL     OW10036   5.767   5.303   1.315
 3046SOL    HW110037   5.801   5.211   1.295
 3046SOL    HW210038   5.695   5.327   1.250
 3047SOL     OW10039   5.829   1.891   4.004
 3047SOL    HW110040   5.777   1.827   4.061
 3047SOL    HW210041   5.898   1.937   4.060
 3048SOL     OW10042   4.312   5.057   1.461
 3048SOL    HW110043   4.312   4.972   1.408
 3048SOL    HW210044   4.217   5.084   1.479
 3049SOL     OW10045   0.359   1.888   2.165
 3049SOL    HW110046   0.383   1.982   2.188
 3049SOL    HW210047   0.329   1.884   2.069
 3050SOL     OW10048   3.503   2.308   6.586
 3050SOL    HW110049   3.601   2.310   6.606
 3050SOL    HW210050   3.488   2.322   6.488
 3051SOL     OW10051   2.716   5.347   6.078
 3051SOL    HW110052   2.756   5.263   6.040
 3051SOL    HW210053   2.764   5.426   6.042
 3052SOL     OW10054   5.929   5.748   3.245
 3052SOL    HW110055   5.917   5.784   3.152
 3052SOL    HW210056   5.853   5.779   3.302
 3053SOL     OW10057   0.881   4.115   6.762
 3053SOL    HW110058   0.899   4.101   6.665
 3053SOL    HW210059   0.875   4.027   6.808
 3054SOL     OW10060   5.823   0.009   3.027
 3054SOL    HW110061   5.792   0.092   3.073
 3054SOL    HW210062   5.765   7.008   2.948
 3055SOL     OW10063   4.706   6.690   0.461
 3055SOL    HW110064   4.662   6.610   0.502
 3055SOL    HW210065   4.642   6.767   0.461
 3056SOL     OW10066   4.464   1.797   0.679
 3056SOL    HW110067   4.450   1.822   0.583
 3056SOL    HW210068   4.523   1.865   0.723
 3057SOL     OW10069   6.406   3.873   3.624
 3057SOL    HW110070   6.381   3.806   3.694
 3057SOL    HW210071   6.331   3.939   3.613
 3058SOL     OW10072   0.277   4.981   5.825
 3058SOL    HW110073   0.223   5.031   5.893
 3058SOL    HW210074   0.327   5.046   5.768
 3059SOL     OW10075   1.546   2.493   2.974
 3059SOL    HW110076   1.464   2.516   3.027
 3059SOL    HW210077   1.520   2.457   2.885
 3060SOL     OW10078   5.606   3.965   3.151
 3060SOL    HW110079   5.605   3.870   3.122
 3060SOL    HW210080   5.632   4.023   3.074
 3061SOL     OW10081   5.906   6.453   2.763
 3061SOL    HW110082   5.833   6.521   2.757
 3061SOL    HW210083   5.879   6.381   2.827
 3062SOL     OW10084   3.966   5.192   1.047
 3062SOL    HW110085   4.025   5.179   0.968
 3062SOL    HW210086   4.017   5.241   1.118
 3063SOL     OW10087   6.775   4.864   0.630
 3063SOL    HW110088   6.777   4.894   0.725
 3063SOL    HW210089   6.729   4.933   0.575
 3064SOL     OW10090   4.682   1.774   6.328
 3064SOL    HW110091   4.770   1.742   6.293
 3064SOL    HW210092   4.612   1.763   6.257
 3065SOL     OW10093   5.521   1.067   6.416
 3065SOL    HW110094   5.556   1.000   6.482
 3065SOL    HW210095   5.433   1.036   6.382
 3066SOL     OW10096   5.093   0.140   5.788
 3066SOL    HW110097   5.155   0.149   5.866
 3066SOL    HW210098   4.998   0.139   5.819
 3067SOL     OW10099   1.614   1.588   4.628
 3067SOL    HW110100   1.630   1.642   4.711
 3067SOL    HW210101   1.516   1.576   4.614
 3068SOL     OW10102   5.941   0.037   1.159
 3068SOL    HW110103   6.018   0.099   1.173
 3068SOL    HW210104   5.914   0.039   1.063
 3069SOL     OW10105   5.589   6.243   3.788
 3069SOL    HW110106   5.627   6.328   3.753
 3069SOL    HW210107   5.652   6.203   3.854
 3070SOL     OW10108   2.608   1.035   0.820
 3070SOL    HW110109   2.706   1.045   0.838
 3070SOL    HW210110   2.582   1.092   0.742
 3071SOL     OW10111   5.638   4.648   5.095
 3071SOL    HW110112   5.566   4.580   5.109
 3071SOL    HW210113   5.610   4.713   5.025
 3072SOL     OW10114   1.446   6.939   5.347
 3072SOL    HW110115   1.501   6.963   5.427
 3072SOL    HW210116   1.419   6.843   5.353
 3073SOL     OW10117   6.740   5.225   2.132
 3073SOL    HW110118   6.643   5.204   2.131
 3073SOL    HW210119   6.792   5.143   2.107
 3074SOL     OW10120   3.142   3.046   1.849
 3074SOL    HW110121   3.220   3.087   1.802
 3074SOL    HW210122   3.164   2.951   1.875
 3075SOL     OW10123   4.096   5.123   1.596
 3075SOL    HW110124   4.017   5.179   1.575
 3075SOL    HW210125   4.079   5.071   1.680
 3076SOL     OW10126   2.059   1.559   3.821
 3076SOL    HW110127   2.076   1.462   3.806
 3076SOL    HW210128   2.123   1.613   3.765
 3077SOL     OW10129   0.268   3.455   2.046
 3077SOL    HW110130   0.280   3.363   2.007
 3077SOL    HW210131   0.346   3.477   2.104
 3078SOL     OW10132   0.214   3.613   1.848
 3078SOL    HW110133   0.280   3.604   1.773
 3078SOL    HW210134   0.231   3.541   1.916
 3079SOL     OW10135   1.509   4.023   4.131
 3079SOL    HW110136   1.422   3.974   4.130
 3079SOL    HW210137   1.494   4.119   4.105
 3080SOL     OW10138   3.739   4.529   1.664
 3080SOL    HW110139   3.706   4.435   1.667
 3080SOL    HW210140   3.673   4.588   1.712
 3081SOL     OW10141   2.189   2.922   5.809
 3081SOL    HW110142   2.150   2.964   5.727
 3081SOL    HW210143   2.129   2.848   5.840
 3082SOL     OW10144   5.313   3.834   5.219
 3082SOL    HW110145   5.362   3.762   5.268
 3082SOL    HW210146   5.214   3.822   5.233
 3083SOL     OW10147   4.134   5.872   1.092
 3083SOL    HW110148   4.200   5.922   1.037
 3083SOL    HW210149   4.181   5.828   1.169
 3084SOL     OW10150   0.054   5.209   3.981
 3084SOL    HW110151   0.031   5.305   3.970
 3084SOL    HW210152   0.078   5.169   3.892
 3085SOL     OW10153   6.367   5.833   0.030
 3085SOL    HW110154   6.385   5.914   6.991
 3085SOL    HW210155   6.428   5.832   0.110
 3086SOL     OW10156   5.795   6.607   6.486
 3086SOL    HW110157   5.738   6.580   6.408
 3086SOL    HW210158   5.768   6.699   6.516
 3087SOL     OW10159   3.136   0.423   2.417
 3087SOL    HW110160   3.136   0.512   2.463
 3087SOL    HW210161   3.046   0.381   2.427
 3088SOL     OW10162   2.421   3.585   5.538
 3088SOL    HW110163   2.411   3.642   5.457
 3088SOL    HW210164   2.516   3.587   5.568
 3089SOL     OW10165   3.992   6.419   6.559
 3089SOL    HW110166   3.998   6.325   6.526
 3089SOL    HW210167   4.066   6.474   6.519
 3090SOL     OW10168   1.089   2.596   1.893
 3090SOL    HW110169   1.082   2.588   1.993
 3090SOL    HW210170   1.039   2.677   1.863
 3091SOL     OW10171   1.216   2.268   0.050
 3091SOL    HW110172   1.241   2.362   0.025
 3091SOL    HW210173   1.157   2.229   6.996
 3092SOL     OW10174   5.670   1.311   2.607
 3092SOL    HW110175   5.717   1.379   2.665
 3092SOL    HW210176   5.614   1.251   2.665
 3093SOL     OW10177   6.191   5.186   6.879
 3093SOL    HW110178   6.169   5.184   6.781
 3093SOL    HW210179   6.109   5.163   6.931
 3094SOL     OW10180   2.070   1.585   5.953
 3094SOL    HW110181   2.113   1.495   5.956
 3094SOL    HW210182   1.978   1.577   5.915
 3095SOL     OW10183   1.670   3.780   4.827
 3095SOL    HW110184   1.760   3.737   4.816
 3095SOL    HW210185   1.675   3.875   4.796
 3096SOL     OW10186   1.746   2.946   4.363
 3096SOL    HW110187   1.650   2.962   4.338
 3096SOL    HW210188   1.803   3.015   4.320
 3097SOL     OW10189   5.441   2.902   5.846
 3097SOL    HW110190   5.356   2.929   5.801
 3097SOL    HW210191   5.421   2.833   5.916
 3098SOL     OW10192   1.829   3.318   2.326
 3098SOL    HW110193   1.825   3.373   2.242
 3098SOL    HW210194   1.837   3.221   2.302
 3099SOL     OW10195   0.900   6.480   5.393
 3099SOL    HW110196   0.996   6.464   5.415
 3099SOL    HW210197   0.890   6.568   5.347
 3100SOL     OW10198   6.190   4.803   2.281
 3100SOL    HW110199   6.120   4.778   2.348
 3100SOL    HW210200   6.152   4.796   2.189
 3101SOL     OW10201   4.972   0.292   4.788
 3101SOL    HW110202   5.043   0.340   4.737
 3101SOL    HW210203   4.890   0.285   4.732
 3102SOL     OW10204   5.920   4.872   2.104
 3102SOL    HW110205   5.989   4.804   2.077
 3102SOL    HW210206   5.960   4.935   2.171
 3103SOL     OW10207   1.806   2.227   2.043
 3103SOL    HW110208   1.861   2.310   2.049
 3103SOL    HW210209   1.856   2.158   1.989
 3104SOL     OW10210   5.587   2.125   5.360
 3104SOL    HW110211   5.488   2.141   5.353
 3104SOL    HW210212   5.605   2.065   5.438
 3105SOL     OW10213   5.187   3.992   0.828
 3105SOL    HW110214   5.090   4.015   0.837
 3105SOL    HW210215   5.210   3.984   0.731
 3106SOL     OW10216   5.482   2.058   5.835
 3106SOL    HW110217   5.576   2.057   5.870
 3106SOL    HW210218   5.428   2.124   5.887
 3107SOL     OW10219   3.985   2.163   4.426
 3107SOL    HW110220   3.947   2.163   4.518
 3107SOL    HW210221   3.916   2.131   4.361
 3108SOL     OW10222   1.771   4.324   3.532
 3108SOL    HW110223   1.840   4.397   3.527
 3108SOL    HW210224   1.698   4.351   3.594
 3109SOL     OW10225   6.791   5.709   3.088
 3109SOL    HW110226   6.703   5.688   3.131
 3109SOL    HW210227   6.866   5.684   3.149
 3110SOL     OW10228   0.977   5.449   3.707
 3110SOL    HW110229   0.959   5.379   3.639
 3110SOL    HW210230   0.897   5.458   3.767
 3111SOL     OW10231   6.509   4.259   3.488
 3111SOL    HW110232   6.572   4.257   3.410
 3111SOL    HW210233   6.548   4.208   3.564
 3112SOL     OW10234   3.903   0.969   0.276
 3112SOL    HW110235   3.870   0.957   0.369
 3112SOL    HW210236   3.834   0.937   0.211
 3113SOL     OW10237   1.384   6.996   3.197
 3113SOL    HW110238   1.352   6.943   3.276
 3113SOL    HW210239   1.476   0.015   3.216
 3114SOL     OW10240   4.652   5.838   5.735
 3114SOL    HW110241   4.667   5.892   5.653
 3114SOL    HW210242   4.619   5.747   5.710
 3115SOL     OW10243   4.683   5.339   4.470
 3115SOL    HW110244   4.729   5.281   4.537
 3115SOL    HW210245   4.698   5.435   4.494
 3116SOL     OW10246   1.172   1.942   6.194
 3116SOL    HW110247   1.090   1.994   6.168
 3116SOL    HW210248   1.253   1.989   6.160
 3117SOL     OW10249   3.715   0.188   1.060
 3117SOL    HW110250   3.683   0.242   0.983
 3117SOL    HW210251   3.641   0.179   1.127
 3118SOL     OW10252   0.751   1.937   3.649
 3118SOL    HW110253   0.764   1.838   3.657
 3118SOL    HW210254   0.699   1.970   3.728
 3119SOL     OW10255   4.842   6.048   4.068
 3119SOL    HW110256   4.848   5.975   4.136
 3119SOL    HW210257   4.835   6.136   4.115
 3120SOL     OW10258   2.685   5.746   0.341
 3120SOL    HW110259   2.700   5.818   0.273
 3120SOL    HW210260   2.762   5.684   0.342
 3121SOL     OW10261   4.124   2.287   3.843
 3121SOL    HW110262   4.096   2.203   3.890
 3121SOL    HW210263   4.194   2.333   3.898
 3122SOL     OW10264   5.616   4.196   5.787
 3122SOL    HW110265   5.686   4.141   5.741
 3122SOL    HW210266   5.657   4.242   5.865
 3123SOL     OW10267   1.786   2.340   2.689
 3123SOL    HW110268   1.808   2.395   2.769
 3123SOL    HW210269   1.850   2.361   2.615
 3124SOL     OW10270   5.050   6.606   5.346
 3124SOL    HW110271   4.987   6.600   5.269
 3124SOL    HW210272   5.078   6.701   5.359
 3125SOL     OW10273   1.251   1.334   5.613
 3125SOL    HW110274   1.350   1.324   5.602
 3125SOL    HW210275   1.215   1.255   5.663
 3126SOL     OW10276   4.848   4.623   6.025
 3126SOL    HW110277   4.902   4.628   6.109
 3126SOL    HW210278   4.755   4.657   6.042
 3127SOL     OW10279   6.448   1.695   5.505
 3127SOL    HW110280   6.499   1.675   5.421
 3127SOL    HW210281   6.383   1.621   5.522
 3128SOL     OW10282   3.672   0.884   1.144
 3128SOL    HW110283   3.661   0.917   1.237
 3128SOL    HW210284   3.594   0.911   1.088
 3129SOL     OW10285   4.405   4.400   0.194
 3129SOL    HW110286   4.426   4.306   0.167
 3129SOL    HW210287   4.435   4.414   0.289
 3130SOL     OW10288   0.739   5.950   1.718
 3130SOL    HW110289   0.649   5.913   1.697
 3130SOL    HW210290   0.770   6.008   1.643
 3131SOL     OW10291   6.797   3.349   2.735
 3131SOL    HW110292   6.744   3.373   2.653
 3131SOL    HW210293   6.753   3.389   2.816
 3132SOL     OW10294   4.779   4.457   0.038
 3132SOL    HW110295   4.852   4.419   6.998
 3132SOL    HW210296   4.698   4.398   0.032
 3133SOL     OW10297   5.336   6.673   3.404
 3133SOL    HW110298   5.317   6.583   3.442
 3133SOL    HW210299   5.261   6.700   3.343
 3134SOL     OW10300   5.297   4.731   3.214
 3134SOL    HW110301   5.240   4.661   3.171
 3134SOL    HW210302   5.348   4.691   3.290
 3135SOL     OW10303   3.598   0.106   6.754
 3135SOL    HW110304   3.664   0.129   6.826
 3135SOL    HW210305   3.647   0.074   6.674
 3136SOL     OW10306   6.582   7.001   2.607
 3136SOL    HW110307   6.627   6.954   2.531
 3136SOL    HW210308   6.548   6.933   2.672
 3137SOL     OW10309   3.948   5.990   6.786
 3137SOL    HW110310   4.008   5.939   6.725
 3137SOL    HW210311   3.981   6.084   6.795
 3138SOL     OW10312   7.005   6.550   4.898
 3138SOL    HW110313   0.073   6.500   4.879
 3138SOL    HW210314   7.013   6.643   4.863
 3139SOL     OW10315   1.385   5.300   1.634
 3139SOL    HW110316   1.430   5.378   1.590
 3139SOL    HW210317   1.384   5.314   1.733
 3140SOL     OW10318   5.891   5.917   0.202
 3140SOL    HW110319   5.828   5.990   0.174
 3140SOL    HW210320   5.958   5.901   0.130
 3141SOL     OW10321   5.751   1.187   6.741
 3141SOL    HW110322   5.697   1.201   6.825
 3141SOL    HW210323   5.690   1.184   6.662
 3142SOL     OW10324   4.754   0.998   3.979
 3142SOL    HW110325   4.831   0.936   3.994
 3142SOL    HW210326   4.769   1.049   3.894
 3143SOL     OW10327   6.913   1.226   0.842
 3143SOL    HW110328   6.973   1.173   0.902
 3143SOL    HW210329   6.968   1.285   0.782
 3144SOL     OW10330   3.743   5.054   6.911
 3144SOL    HW110331   3.785   4.996   6.980
 3144SOL    HW210332   3.656   5.014   6.882
 3145SOL     OW10333   0.845   5.456   6.453
 3145SOL    HW110334   0.803   5.527   6.397
 3145SOL    HW210335   0.829   5.367   6.411
 3146SOL     OW10336   6.485   2.206   4.715
 3146SOL    HW110337   6.540   2.228   4.633
 3146SOL    HW210338   6.496   2.280   4.782
 3147SOL     OW10339   4.053   0.106   0.639
 3147SOL    HW110340   4.059   0.108   0.739
 3147SOL    HW210341   3.967   0.064   0.611
 3148SOL     OW10342   6.979   4.682   0.743
 3148SOL    HW110343   0.039   4.744   0.724
 3148SOL    HW210344   6.893   4.726   0.719
 3149SOL     OW10345   3.820   3.377   6.993
 3149SOL    HW110346   3.810   3.454   6.929
 3149SOL    HW210347   3.743   3.314   6.982
 3150SOL     OW10348   0.216   0.125   5.531
 3150SOL    HW110349   0.260   0.036   5.529
 3150SOL    HW210350   0.128   0.120   5.483
 3151SOL     OW10351   0.035   0.376   5.646
 3151SOL    HW110352   0.077   0.382   5.556
 3151SOL    HW210353   0.021   0.280   5.671
 3152SOL     OW10354   2.267   2.205   5.489
 3152SOL    HW110355   2.329   2.151   5.546
 3152SOL    HW210356   2.320   2.262   5.427
 3153SOL     OW10357   5.851   5.693   1.687
 3153SOL    HW110358   5.867   5.619   1.751
 3153SOL    HW210359   5.899   5.775   1.717
 3154SOL     OW10360   3.638   2.238   0.836
 3154SOL    HW110361   3.666   2.286   0.920
 3154SOL    HW210362   3.569   2.292   0.788
 3155SOL     OW10363   0.397   4.743   6.573
 3155SOL    HW110364   0.367   4.753   6.667
 3155SOL    HW210365   0.371   4.652   6.539
 3156SOL     OW10366   3.883   4.315   1.058
 3156SOL    HW110367   3.913   4.315   0.962
 3156SOL    HW210368   3.785   4.293   1.062
 3157SOL     OW10369   1.469   1.058   4.073
 3157SOL    HW110370   1.432   1.143   4.110
 3157SOL    HW210371   1.499   0.999   4.148
 3158SOL     OW10372   2.510   0.500   5.931
 3158SOL    HW110373   2.595   0.518   5.883
 3158SOL    HW210374   2.470   0.414   5.897
 3159SOL     OW10375   4.888   6.972   1.504
 3159SOL    HW110376   4.914   0.038   1.455
 3159SOL    HW210377   4.935   6.969   1.592
 3160SOL     OW10378   2.003   0.823   5.095
 3160SOL    HW110379   2.013   0.894   5.165
 3160SOL    HW210380   1.906   0.805   5.079
 3161SOL     OW10381   1.456   2.665   2.331
 3161SOL    HW110382   1.466   2.752   2.281
 3161SOL    HW210383   1.526   2.601   2.299
 3162SOL     OW10384   1.187   5.803   1.677
 3162SOL    HW110385   1.178   5.738   1.602
 3162SOL    HW210386   1.282   5.806   1.708
 3163SOL     OW10387   4.526   4.427   1.011
 3163SOL    HW110388   4.507   4.356   0.943
 3163SOL    HW210389   4.528   4.516   0.966
 3164SOL     OW10390   2.517   6.878   4.352
 3164SOL    HW110391   2.420   6.884   4.326
 3164SOL    HW210392   2.573   6.918   4.280
 3165SOL     OW10393   0.492   6.402   6.226
 3165SOL    HW110394   0.448   6.376   6.140
 3165SOL    HW210395   0.515   6.499   6.224
 3166SOL     OW10396   4.449   1.586   4.077
 3166SOL    HW110397   4.490   1.607   4.165
 3166SOL    HW210398   4.403   1.497   4.081
 3167SOL     OW10399   5.906   2.819   1.583
 3167SOL    HW110400   5.828   2.880   1.599
 3167SOL    HW210401   5.961   2.854   1.507
 3168SOL     OW10402   4.997   1.041   0.647
 3168SOL    HW110403   4.929   0.977   0.682
 3168SOL    HW210404   5.074   0.990   0.608
 3169SOL     OW10405   1.106   4.395   2.169
 3169SOL    HW110406   1.188   4.423   2.119
 3169SOL    HW210407   1.082   4.301   2.144
 3170SOL     OW10408   2.196   4.017   3.629
 3170SOL    HW110409   2.218   4.078   3.705
 3170SOL    HW210410   2.190   4.070   3.544
 3171SOL     OW10411   5.400   1.272   4.545
 3171SOL    HW110412   5.366   1.340   4.610
 3171SOL    HW210413   5.412   1.315   4.455
 3172SOL     OW10414   5.748   4.282   0.991
 3172SOL    HW110415   5.719   4.187   0.995
 3172SOL    HW210416   5.678   4.340   1.032
 3173SOL     OW10417   5.379   2.766   0.660
 3173SOL    HW110418   5.302   2.770   0.596
 3173SOL    HW210419   5.366   2.687   0.721
 3174SOL     OW10420   3.904   2.517   6.473
 3174SOL    HW110421   3.866   2.438   6.521
 3174SOL    HW210422   3.996   2.536   6.507
 3175SOL     OW10423   5.798   6.621   5.124
 3175SOL    HW110424   5.714   6.606   5.071
 3175SOL    HW210425   5.796   6.563   5.206
 3176SOL     OW10426   0.351   4.738   3.863
 3176SOL    HW110427   0.359   4.773   3.770
 3176SOL    HW210428   0.438   4.752   3.911
 3177SOL     OW10429   5.115   3.290   3.581
 3177SOL    HW110430   5.082   3.385   3.584
 3177SOL    HW210431   5.213   3.288   3.601
 3178SOL     OW10432   0.746   0.495   2.834
 3178SOL    HW110433   0.668   0.533   2.884
 3178SOL    HW210434   0.805   0.446   2.898
 3179SOL     OW10435   0.782   3.005   2.310
 3179SOL    HW110436   0.694   2.978   2.269
 3179SOL    HW210437   0.781   3.103   2.329
 3180SOL     OW10438   6.475   6.574   6.743
 3180SOL    HW110439   6.516   6.558   6.833
 3180SOL    HW210440   6.521   6.651   6.698
 3181SOL     OW10441   0.591   5.681   5.277
 3181SOL    HW110442   0.634   5.608   5.224
 3181SOL    HW210443   0.649   5.762   5.276
 3182SOL     OW10444   1.548   0.014   1.451
 3182SOL    HW110445   1.479   0.059   1.394
 3182SOL    HW210446   1.576   0.077   1.524
 3183SOL     OW10447   4.017   3.382   1.051
 3183SOL    HW110448   3.986   3.302   1.103
 3183SOL    HW210449   4.099   3.359   0.999
 3184SOL     OW10450   6.457   1.485   4.209
 3184SOL    HW110451   6.452   1.389   4.179
 3184SOL    HW210452   6.371   1.531   4.186
 3185SOL     OW10453   0.951   6.371   6.330
 3185SOL    HW110454   0.914   6.462   6.349
 3185SOL    HW210455   0.972   6.325   6.416
 3186SOL     OW10456   0.180   3.081   6.349
 3186SOL    HW110457   0.153   2.996   6.304
 3186SOL    HW210458   0.133   3.158   6.305
 3187SOL     OW10459   5.042   6.985   2.889
 3187SOL    HW110460   4.988   0.051   2.879
 3187SOL    HW210461   5.137   7.009   2.912
 3188SOL     OW10462   1.592   6.740   0.927
 3188SOL    HW110463   1.580   6.804   1.003
 3188SOL    HW210464   1.508   6.736   0.873
 3189SOL     OW10465   2.733   1.467   6.217
 3189SOL    HW110466   2.733   1.521   6.133
 3189SOL    HW210467   2.789   1.513   6.286
 3190SOL     OW10468   5.798   6.203   3.307
 3190SOL    HW110469   5.717   6.197   3.366
 3190SOL    HW210470   5.786   6.144   3.227
 3191SOL     OW10471   3.492   5.177   1.492
 3191SOL    HW110472   3.541   5.095   1.463
 3191SOL    HW210473   3.419   5.198   1.427
 3192SOL     OW10474   5.230   1.091   2.547
 3192SOL    HW110475   5.262   0.999   2.527
 3192SOL    HW210476   5.288   1.157   2.500
 3193SOL     OW10477   3.467   5.415   5.323
 3193SOL    HW110478   3.498   5.506   5.296
 3193SOL    HW210479   3.544   5.351   5.322
 3194SOL     OW10480   1.841   6.802   5.592
 3194SOL    HW110481   1.751   6.812   5.635
 3194SOL    HW210482   1.907   6.861   5.638
 3195SOL     OW10483   0.878   0.272   0.694
 3195SOL    HW110484   0.942   0.231   0.759
 3195SOL    HW210485   0.851   0.363   0.726
 3196SOL     OW10486   6.185   6.994   2.713
 3196SOL    HW110487   6.229   7.002   2.802
 3196SOL    HW210488   6.202   6.902   2.676
 3197SOL     OW10489   2.898   0.606   6.931
 3197SOL    HW110490   2.959   0.672   6.974
 3197SOL    HW210491   2.809   0.648   6.913
 3198SOL     OW10492   5.497   2.864   3.807
 3198SOL    HW110493   5.447   2.940   3.848
 3198SOL    HW210494   5.444   2.780   3.815
 3199SOL     OW10495   5.052   3.832   2.875
 3199SOL    HW110496   5.087   3.910   2.823
 3199SOL    HW210497   4.954   3.820   2.855
 3200SOL     OW10498   5.551   3.421   4.766
 3200SOL    HW110499   5.536   3.329   4.802
 3200SOL    HW210500   5.647   3.445   4.777
 3201SOL     OW10501   6.330   4.203   2.071
 3201SOL    HW110502   6.265   4.158   2.133
 3201SOL    HW210503   6.292   4.290   2.041
 3202SOL     OW10504   2.653   3.093   6.282
 3202SOL    HW110505   2.593   3.171   6.263
 3202SOL    HW210506   2.598   3.010   6.288
 3203SOL     OW10507   3.192   6.730   1.892
 3203SOL    HW110508   3.258   6.706   1.963
 3203SOL    HW210509   3.193   6.829   1.878
 3204SOL     OW10510   4.043   0.741   3.783
 3204SOL    HW110511   3.976   0.700   3.845
 3204SOL    HW210512   3.995   0.791   3.711
 3205SOL     OW10513   4.799   3.252   5.964
 3205SOL    HW110514   4.850   3.336   5.979
 3205SOL    HW210515   4.711   3.273   5.920
 3206SOL     OW10516   2.614   4.376   1.208
 3206SOL    HW110517   2.518   4.398   1.223
 3206SOL    HW210518   2.631   4.281   1.232
 3207SOL     OW10519   2.321   6.150   4.175
 3207SOL    HW110520   2.419   6.139   4.188
 3207SOL    HW210521   2.294   6.111   4.086
 3208SOL     OW10522   6.867   4.694   6.072
 3208SOL    HW110523   6.889   4.596   6.079
 3208SOL    HW210524   6.772   4.708   6.097
 3209SOL     OW10525   5.360   6.570   6.369
 3209SOL    HW110526   5.297   6.601   6.440
 3209SOL    HW210527   5.412   6.492   6.402
 3210SOL     OW10528   5.067   5.622   1.506
 3210SOL    HW110529   4.969   5.637   1.516
 3210SOL    HW210530   5.095   5.544   1.561
 3211SOL     OW10531   1.718   6.173   6.569
 3211SOL    HW110532   1.677   6.180   6.478
 3211SOL    HW210533   1.773   6.089   6.574
 3212SOL     OW10534   3.591   6.773   3.801
 3212SOL    HW110535   3.685   6.784   3.832
 3212SOL    HW210536   3.528   6.807   3.871
 3213SOL     OW10537   1.439   0.339   5.668
 3213SOL    HW110538   1.475   0.314   5.578
 3213SOL    HW210539   1.383   0.421   5.660
 3214SOL     OW10540   4.033   0.579   2.585
 3214SOL    HW110541   3.961   0.542   2.645
 3214SOL    HW210542   4.014   0.675   2.565
 3215SOL     OW10543   2.183   3.095   1.978
 3215SOL    HW110544   2.116   3.169   1.988
 3215SOL    HW210545   2.189   3.044   2.064
 3216SOL     OW10546   6.265   5.220   0.735
 3216SOL    HW110547   6.227   5.160   0.806
 3216SOL    HW210548   6.310   5.298   0.778
 3217SOL     OW10549   6.900   5.201   3.652
 3217SOL    HW110550   6.863   5.127   3.596
 3217SOL    HW210551   6.980   5.168   3.702
 3218SOL     OW10552   5.925   1.638   3.033
 3218SOL    HW110553   6.016   1.665   3.002
 3218SOL    HW210554   5.934   1.559   3.094
 3219SOL     OW10555   5.602   1.623   5.404
 3219SOL    HW110556   5.603   1.526   5.427
 3219SOL    HW210557   5.668   1.672   5.461
 3220SOL     OW10558   0.135   3.616   5.774
 3220SOL    HW110559   0.227   3.597   5.807
 3220SOL    HW210560   0.117   3.561   5.693
 3221SOL     OW10561   3.877   1.371   2.066
 3221SOL    HW110562   3.970   1.368   2.102
 3221SOL    HW210563   3.817   1.418   2.131
 3222SOL     OW10564   3.313   1.264   3.163
 3222SOL    HW110565   3.354   1.340   3.213
 3222SOL    HW210566   3.376   1.233   3.092
 3223SOL     OW10567   1.485   5.338   0.725
 3223SOL    HW110568   1.491   5.252   0.673
 3223SOL    HW210569   1.518   5.413   0.669
 3224SOL     OW10570   4.607   2.510   4.616
 3224SOL    HW110571   4.637   2.488   4.523
 3224SOL    HW210572   4.526   2.456   4.639
 3225SOL     OW10573   4.368   1.006   4.846
 3225SOL    HW110574   4.384   0.943   4.921
 3225SOL    HW210575   4.366   1.099   4.880
 3226SOL     OW10576   6.173   0.829   0.763
 3226SOL    HW110577   6.116   0.830   0.681
 3226SOL    HW210578   6.147   0.905   0.823
 3227SOL     OW10579   5.769   3.670   5.412
 3227SOL    HW110580   5.681   3.688   5.368
 3227SOL    HW210581   5.776   3.724   5.495
 3228SOL     OW10582   2.248   4.309   0.359
 3228SOL    HW110583   2.148   4.314   0.350
 3228SOL    HW210584   2.275   4.344   0.449
 3229SOL     OW10585   1.719   2.069   0.686
 3229SOL    HW110586   1.792   2.015   0.644
 3229SOL    HW210587   1.758   2.148   0.732
 3230SOL     OW10588   3.103   6.215   5.054
 3230SOL    HW110589   3.092   6.253   4.962
 3230SOL    HW210590   3.065   6.122   5.056
 3231SOL     OW10591   2.054   2.658   2.627
 3231SOL    HW110592   2.013   2.583   2.574
 3231SOL    HW210593   2.078   2.624   2.718
 3232SOL     OW10594   3.251   4.883   3.456
 3232SOL    HW110595   3.157   4.861   3.433
 3232SOL    HW210596   3.283   4.958   3.399
 3233SOL     OW10597   2.203   6.707   6.999
 3233SOL    HW110598   2.127   6.758   0.023
 3233SOL    HW210599   2.218   6.623   0.035
 3234SOL     OW10600   2.922   3.526   0.813
 3234SOL    HW110601   2.888   3.434   0.796
 3234SOL    HW210602   2.983   3.525   0.893
 3235SOL     OW10603   0.309   1.127   3.036
 3235SOL    HW110604   0.381   1.106   2.969
 3235SOL    HW210605   0.281   1.042   3.081
 3236SOL     OW10606   4.582   7.012   1.069
 3236SOL    HW110607   4.512   0.046   1.019
 3236SOL    HW210608   4.558   6.915   1.073
 3237SOL     OW10609   5.950   1.172   5.270
 3237SOL    HW110610   5.971   1.080   5.237
 3237SOL    HW210611   5.994   1.186   5.358
 3238SOL     OW10612   6.047   4.371   1.617
 3238SOL    HW110613   5.984   4.308   1.663
 3238SOL    HW210614   6.123   4.320   1.578
 3239SOL     OW10615   6.022   0.849   4.875
 3239SOL    HW110616   5.931   0.807   4.871
 3239SOL    HW210617   6.039   0.883   4.968
 3240SOL     OW10618   0.045   1.356   0.142
 3240SOL    HW110619   0.087   1.345   0.232
 3240SOL    HW210620   0.102   1.312   0.073
 3241SOL     OW10621   6.854   3.229   5.396
 3241SOL    HW110622   6.883   3.173   5.318
 3241SOL    HW210623   6.815   3.170   5.467
 3242SOL     OW10624   0.007   4.165   4.792
 3242SOL    HW110625   0.002   4.116   4.879
 3242SOL    HW210626   0.014   4.263   4.810
 3243SOL     OW10627   5.745   5.297   4.051
 3243SOL    HW110628   5.823   5.269   4.106
 3243SOL    HW210629   5.725   5.394   4.067
 3244SOL     OW10630   4.641   0.049   0.623
 3244SOL    HW110631   4.546   0.056   0.593
 3244SOL    HW210632   4.700   0.035   0.544
 3245SOL     OW10633   3.712   6.683   4.347
 3245SOL    HW110634   3.679   6.765   4.300
 3245SOL    HW210635   3.660   6.603   4.316
 3246SOL     OW10636   6.443   5.995   3.057
 3246SOL    HW110637   6.528   6.006   3.108
 3246SOL    HW210638   6.454   5.922   2.989
 3247SOL     OW10639   1.649   4.435   3.909
 3247SOL    HW110640   1.569   4.469   3.957
 3247SOL    HW210641   1.626   4.417   3.813
 3248SOL     OW10642   5.665   2.918   3.376
 3248SOL    HW110643   5.739   2.922   3.442
 3248SOL    HW210644   5.635   2.823   3.366
 3249SOL     OW10645   2.897   3.446   3.494
 3249SOL    HW110646   2.967   3.488   3.436
 3249SOL    HW210647   2.818   3.507   3.501
 3250SOL     OW10648   4.596   5.592   3.203
 3250SOL    HW110649   4.693   5.600   3.183
 3250SOL    HW210650   4.558   5.683   3.220
 3251SOL     OW10651   2.768   2.273   2.503
 3251SOL    HW110652   2.844   2.274   2.568
 3251SOL    HW210653   2.701   2.204   2.531
 3252SOL     OW10654   2.268   1.514   3.297
 3252SOL    HW110655   2.218   1.522   3.383
 3252SOL    HW210656   2.225   1.572   3.228
 3253SOL     OW10657   6.474   3.646   7.008
 3253SOL    HW110658   6.557   3.603   6.971
 3253SOL    HW210659   6.461   3.735   6.964
 3254SOL     OW10660   6.411   6.622   1.134
 3254SOL    HW110661   6.460   6.564   1.200
 3254SOL    HW210662   6.415   6.717   1.163
 3255SOL     OW10663   3.773   5.708   2.086
 3255SOL    HW110664   3.728   5.654   2.157
 3255SOL    HW210665   3.752   5.669   1.996
 3256SOL     OW10666   5.325   2.562   1.416
 3256SOL    HW110667   5.260   2.529   1.484
 3256SOL    HW210668   5.390   2.625   1.460
 3257SOL     OW10669   3.087   1.347   2.976
 3257SOL    HW110670   3.132   1.321   3.061
 3257SOL    HW210671   2.992   1.374   2.995
 3258SOL     OW10672   1.906   5.383   3.974
 3258SOL    HW110673   1.961   5.352   3.896
 3258SOL    HW210674   1.826   5.324   3.984
 3259SOL     OW10675   5.511   4.140   4.307
 3259SOL    HW110676   5.510   4.240   4.310
 3259SOL    HW210677   5.482   4.104   4.396
 3260SOL     OW10678   1.763   4.827   3.092
 3260SOL    HW110679   1.668   4.834   3.062
 3260SOL    HW210680   1.817   4.780   3.023
 3261SOL     OW10681   5.585   0.184   4.262
 3261SOL    HW110682   5.664   0.141   4.218
 3261SOL    HW210683   5.612   0.271   4.303
 3262SOL     OW10684   3.374   1.558   3.532
 3262SOL    HW110685   3.394   1.529   3.625
 3262SOL    HW210686   3.350   1.655   3.532
 3263SOL     OW10687   0.008   1.160   1.272
 3263SOL    HW110688   7.000   1.080   1.327
 3263SOL    HW210689   6.946   1.189   1.219
 3264SOL     OW10690   1.619   4.744   6.812
 3264SOL    HW110691   1.672   4.828   6.817
 3264SOL    HW210692   1.672   4.669   6.851
 3265SOL     OW10693   0.135   5.219   6.510
 3265SOL    HW110694   0.060   5.179   6.564
 3265SOL    HW210695   0.136   5.178   6.419
 3266SOL     OW10696   3.736   5.116   6.253
 3266SOL    HW110697   3.717   5.023   6.219
 3266SOL    HW210698   3.833   5.137   6.241
 3267SOL     OW10699   3.499   6.452   0.839
 3267SOL    HW110700   3.547   6.524   0.890
 3267SOL    HW210701   3.408   6.484   0.814
 3268SOL     OW10702   5.657   5.185   1.939
 3268SOL    HW110703   5.755   5.181   1.918
 3268SOL    HW210704   5.633   5.112   2.003
 3269SOL     OW10705   1.643   5.148   1.673
 3269SOL    HW110706   1.583   5.225   1.655
 3269SOL    HW210707   1.707   5.172   1.746
 3270SOL     OW10708   1.226   2.777   5.871
 3270SOL    HW110709   1.292   2.724   5.924
 3270SOL    HW210710   1.256   2.872   5.866
 3271SOL     OW10711   1.244   3.673   1.335
 3271SOL    HW110712   1.321   3.620   1.299
 3271SOL    HW210713   1.244   3.669   1.435
 3272SOL     OW10714   4.094   6.478   1.434
 3272SOL    HW110715   4.074   6.525   1.348
 3272SOL    HW210716   4.069   6.537   1.511
 3273SOL     OW10717   3.697   4.145   6.643
 3273SOL    HW110718   3.607   4.133   6.685
 3273SOL    HW210719   3.768   4.112   6.705
 3274SOL     OW10720   5.051   6.568   2.368
 3274SOL    HW110721   4.977   6.590   2.304
 3274SOL    HW210722   5.095   6.653   2.397
 3275SOL     OW10723   4.846   0.761   1.281
 3275SOL    HW110724   4.760   0.812   1.292
 3275SOL    HW210725   4.916   0.800   1.341
 3276SOL     OW10726   6.104   5.952   0.019
 3276SOL    HW110727   6.190   5.904   0.037
 3276SOL    HW210728   6.124   6.048   7.015
 3277SOL     OW10729   3.332   2.074   2.168
 3277SOL    HW110730   3.374   2.055   2.080
 3277SOL    HW210731   3.234   2.089   2.156
 3278SOL     OW10732   5.034   0.898   6.562
 3278SOL    HW110733   4.973   0.921   6.638
 3278SOL    HW210734   5.124   0.936   6.578
 3279SOL     OW10735   3.845   6.824   2.257
 3279SOL    HW110736   3.774   6.755   2.246
 3279SOL    HW210737   3.926   6.782   2.297
 3280SOL     OW10738   6.809   3.482   4.026
 3280SOL    HW110739   6.820   3.426   4.108
 3280SOL    HW210740   6.865   3.564   4.034
 3281SOL     OW10741   5.985   1.782   1.529
 3281SOL    HW110742   6.008   1.769   1.432
 3281SOL    HW210743   5.904   1.727   1.551
 3282SOL     OW10744   0.058   4.504   5.217
 3282SOL    HW110745   6.975   4.514   5.226
 3282SOL    HW210746   0.102   4.540   5.299
 3283SOL     OW10747   3.025   1.675   6.982
 3283SOL    HW110748   3.004   1.717   6.894
 3283SOL    HW210749   2.997   1.735   0.040
 3284SOL     OW10750   2.210   6.932   4.843
 3284SOL    HW110751   2.241   6.911   4.935
 3284SOL    HW210752   2.115   6.963   4.846
 3285SOL     OW10753   4.238   2.332   4.365
 3285SOL    HW110754   4.163   2.272   4.392
 3285SOL    HW210755   4.307   2.335   4.438
 3286SOL     OW10756   1.885   3.216   3.212
 3286SOL    HW110757   1.821   3.280   3.255
 3286SOL    HW210758   1.936   3.263   3.140
 3287SOL     OW10759   2.679   0.752   1.087
 3287SOL    HW110760   2.754   0.817   1.091
 3287SOL    HW210761   2.683   0.701   1.001
 3288SOL     OW10762   2.519   5.831   2.000
 3288SOL    HW110763   2.474   5.849   1.912
 3288SOL    HW210764   2.614   5.860   1.995
 3289SOL     OW10765   3.854   0.878   6.840
 3289SOL    HW110766   3.756   0.893   6.851
 3289SOL    HW210767   3.903   0.964   6.851
 3290SOL     OW10768   0.657   5.629   0.178
 3290SOL    HW110769   0.597   5.658   0.104
 3290SOL    HW210770   0.662   5.701   0.247
 3291SOL     OW10771   5.032   6.621   4.934
 3291SOL    HW110772   5.034   6.676   4.850
 3291SOL    HW210773   5.100   6.656   4.998
 3292SOL     OW10774   0.264   2.291   0.224
 3292SOL    HW110775   0.233   2.196   0.217
 3292SOL    HW210776   0.255   2.336   0.135
 3293SOL     OW10777   6.588   4.901   3.280
 3293SOL    HW110778   6.682   4.887   3.249
 3293SOL    HW210779   6.553   4.987   3.243
 3294SOL     OW10780   4.551   2.860   5.965
 3294SOL    HW110781   4.509   2.919   5.896
 3294SOL    HW210782   4.480   2.801   6.006
 3295SOL     OW10783   1.359   2.650   3.067
 3295SOL    HW110784   1.317   2.698   2.990
 3295SOL    HW210785   1.443   2.698   3.094
 3296SOL     OW10786   2.475   0.562   6.405
 3296SOL    HW110787   2.488   0.633   6.474
 3296SOL    HW210788   2.540   0.576   6.330
 3297SOL     OW10789   4.103   1.571   5.249
 3297SOL    HW110790   4.043   1.621   5.187
 3297SOL    HW210791   4.193   1.615   5.251
 3298SOL     OW10792   3.321   4.295   5.663
 3298SOL    HW110793   3.269   4.240   5.597
 3298SOL    HW210794   3.259   4.343   5.724
 3299SOL     OW10795   2.698   6.112   3.925
 3299SOL    HW110796   2.706   6.192   3.865
 3299SOL    HW210797   2.754   6.038   3.890
 3300SOL     OW10798   2.163   0.726   3.669
 3300SOL    HW110799   2.080   0.698   3.621
 3300SOL    HW210800   2.178   0.666   3.747
 3301SOL     OW10801   1.085   1.065   3.113
 3301SOL    HW110802   1.105   1.160   3.137
 3301SOL    HW210803   1.136   1.004   3.173
 3302SOL     OW10804   1.217   5.318   5.451
 3302SOL    HW110805   1.190   5.368   5.369
 3302SOL    HW210806   1.316   5.326   5.465
 3303SOL     OW10807   3.769   3.578   6.826
 3303SOL    HW110808   3.861   3.613   6.809
 3303SOL    HW210809   3.705   3.621   6.762
 3304SOL     OW10810   2.079   4.029   0.162
 3304SOL    HW110811   2.157   4.000   0.218
 3304SOL    HW210812   1.994   4.007   0.210
 3305SOL     OW10813   3.095   2.349   0.072
 3305SOL    HW110814   3.075   2.267   0.018
 3305SOL    HW210815   3.019   2.413   0.066
 3306SOL     OW10816   2.450   0.321   6.934
 3306SOL    HW110817   2.423   0.364   6.848
 3306SOL    HW210818   2.435   0.386   7.009
 3307SOL     OW10819   1.947   5.812   4.677
 3307SOL    HW110820   2.042   5.836   4.694
 3307SOL    HW210821   1.936   5.713   4.684
 3308SOL     OW10822   4.371   4.866   1.269
 3308SOL    HW110823   4.396   4.867   1.172
 3308SOL    HW210824   4.453   4.854   1.325
 3309SOL     OW10825   5.305   3.887   3.171
 3309SOL    HW110826   5.392   3.904   3.218
 3309SOL    HW210827   5.231   3.887   3.238
 3310SOL     OW10828   6.605   4.580   6.251
 3310SOL    HW110829   6.573   4.660   6.200
 3310SOL    HW210830   6.631   4.507   6.187
 3311SOL     OW10831   2.117   3.606   0.542
 3311SOL    HW110832   2.077   3.535   0.600
 3311SOL    HW210833   2.216   3.603   0.550
 3312SOL     OW10834   5.018   2.542   6.782
 3312SOL    HW110835   5.095   2.602   6.803
 3312SOL    HW210836   4.939   2.597   6.754
 3313SOL     OW10837   0.324   7.013   4.659
 3313SOL    HW110838   0.228   7.014   4.686
 3313SOL    HW210839   0.332   0.028   4.564
 3314SOL     OW10840   3.736   5.678   1.789
 3314SOL    HW110841   3.655   5.664   1.732
 3314SOL    HW210842   3.793   5.595   1.786
 3315SOL     OW10843   1.477   5.916   3.804
 3315SOL    HW110844   1.535   5.995   3.785
 3315SOL    HW210845   1.517   5.864   3.880
 3316SOL     OW10846   3.939   2.651   0.075
 3316SOL    HW110847   3.957   2.696   7.004
 3316SOL    HW210848   3.960   2.554   0.068
 3317SOL     OW10849   5.254   2.570   2.106
 3317SOL    HW110850   5.327   2.534   2.048
 3317SOL    HW210851   5.236   2.505   2.181
 3318SOL     OW10852   3.555   3.106   0.714
 3318SOL    HW110853   3.492   3.180   0.689
 3318SOL    HW210854   3.576   3.111   0.811
 3319SOL     OW10855   6.322   6.089   3.976
 3319SOL    HW110856   6.381   6.170   3.977
 3319SOL    HW210857   6.369   6.013   3.931
 3320SOL     OW10858   6.392   6.849   1.949
 3320SOL    HW110859   6.474   6.849   2.006
 3320SOL    HW210860   6.318   6.897   1.997
 3321SOL     OW10861   4.857   1.875   6.898
 3321SOL    HW110862   4.802   1.825   6.832
 3321SOL    HW210863   4.918   1.939   6.850
 3322SOL     OW10864   6.528   2.841   1.002
 3322SOL    HW110865   6.556   2.868   1.094
 3322SOL    HW210866   6.452   2.898   0.971
 3323SOL     OW10867   1.927   1.788   1.368
 3323SOL    HW110868   1.974   1.700   1.373
 3323SOL    HW210869   1.873   1.793   1.284
 3324SOL     OW10870   5.358   5.170   5.521
 3324SOL    HW110871   5.384   5.190   5.426
 3324SOL    HW210872   5.297   5.241   5.555
 3325SOL     OW10873   2.637   5.027   5.211
 3325SOL    HW110874   2.690   5.111   5.226
 3325SOL    HW210875   2.699   4.951   5.193
 3326SOL     OW10876   3.634   2.047   2.267
 3326SOL    HW110877   3.543   2.079   2.241
 3326SOL    HW210878   3.703   2.108   2.229
 3327SOL     OW10879   1.230   5.615   5.803
 3327SOL    HW110880   1.223   5.710   5.834
 3327SOL    HW210881   1.299   5.567   5.857
 3328SOL     OW10882   4.960   2.364   5.034
 3328SOL    HW110883   5.056   2.374   5.060
 3328SOL    HW210884   4.909   2.443   5.065
 3329SOL     OW10885   6.521   6.011   5.862
 3329SOL    HW110886   6.569   5.971   5.784
 3329SOL    HW210887   6.577   6.083   5.903
 3330SOL     OW10888   6.675   3.746   3.050
 3330SOL    HW110889   6.757   3.745   3.107
 3330SOL    HW210890   6.594   3.759   3.109
 3331SOL     OW10891   2.145   3.250   0.453
 3331SOL    HW110892   2.104   3.254   0.545
 3331SOL    HW210893   2.129   3.160   0.413
 3332SOL     OW10894   0.018   4.025   1.079
 3332SOL    HW110895   0.052   3.933   1.059
 3332SOL    HW210896   0.067   4.062   1.158
 3333SOL     OW10897   2.813   5.612   5.981
 3333SOL    HW110898   2.863   5.635   5.898
 3333SOL    HW210899   2.745   5.683   5.999
 3334SOL     OW10900   1.767   3.538   1.485
 3334SOL    HW110901   1.735   3.626   1.449
 3334SOL    HW210902   1.784   3.546   1.583
 3335SOL     OW10903   5.930   4.276   4.721
 3335SOL    HW110904   5.941   4.203   4.654
 3335SOL    HW210905   5.836   4.278   4.753
 3336SOL     OW10906   3.285   6.082   5.799
 3336SOL    HW110907   3.265   6.023   5.878
 3336SOL    HW210908   3.382   6.078   5.778
 3337SOL     OW10909   3.285   1.861   0.888
 3337SOL    HW110910   3.352   1.919   0.934
 3337SOL    HW210911   3.197   1.866   0.937
 3338SOL     OW10912   0.055   4.737   0.384
 3338SOL    HW110913   0.000   4.818   0.363
 3338SOL    HW210914   0.094   4.745   0.475
 3339SOL     OW10915   0.900   5.738   5.960
 3339SOL    HW110916   0.987   5.721   6.006
 3339SOL    HW210917   0.917   5.768   5.866
 3340SOL     OW10918   4.001   0.523   2.117
 3340SOL    HW110919   4.037   0.515   2.024
 3340SOL    HW210920   3.905   0.495   2.118
 3341SOL     OW10921   0.258   6.698   1.595
 3341SOL    HW110922   0.330   6.740   1.650
 3341SOL    HW210923   0.183   6.763   1.582
 3342SOL     OW10924   2.888   0.576   5.259
 3342SOL    HW110925   2.945   0.564   5.178
 3342SOL    HW210926   2.809   0.515   5.253
 3343SOL     OW10927   0.174   2.147   1.215
 3343SOL    HW110928   0.197   2.059   1.174
 3343SOL    HW210929   0.258   2.196   1.238
 3344SOL     OW10930   0.123   2.456   5.954
 3344SOL    HW110931   0.099   2.549   5.927
 3344SOL    HW210932   0.041   2.398   5.949
 3345SOL     OW10933   2.056   3.383   5.297
 3345SOL    HW110934   2.003   3.460   5.334
 3345SOL    HW210935   2.135   3.366   5.355
 3346SOL     OW10936   1.981   5.977   2.031
 3346SOL    HW110937   1.888   6.012   2.032
 3346SOL    HW210938   2.043   6.046   1.994
 3347SOL     OW10939   5.898   4.137   4.245
 3347SOL    HW110940   5.892   4.127   4.344
 3347SOL    HW210941   5.986   4.101   4.213
 3348SOL     OW10942   3.555   3.705   3.347
 3348SOL    HW110943   3.622   3.736   3.415
 3348SOL    HW210944   3.599   3.701   3.257
 3349SOL     OW10945   5.787   3.392   6.382
 3349SOL    HW110946   5.741   3.365   6.467
 3349SOL    HW210947   5.878   3.428   6.403
 3350SOL     OW10948   1.486   2.122   0.988
 3350SOL    HW110949   1.565   2.170   1.027
 3350SOL    HW210950   1.501   2.023   0.993
 3351SOL     OW10951   5.340   2.228   0.473
 3351SOL    HW110952   5.309   2.173   0.395
 3351SOL    HW210953   5.397   2.303   0.440
 3352SOL     OW10954   0.761   3.543   0.260
 3352SOL    HW110955   0.672   3.532   0.304
 3352SOL    HW210956   0.763   3.490   0.175
 3353SOL     OW10957   1.670   6.230   6.017
 3353SOL    HW110958   1.644   6.156   5.954
 3353SOL    HW210959   1.749   6.278   5.981
 3354SOL     OW10960   1.272   1.243   1.814
 3354SOL    HW110961   1.263   1.279   1.721
 3354SOL    HW210962   1.261   1.144   1.813
 3355SOL     OW10963   6.502   1.147   2.904
 3355SOL    HW110964   6.446   1.179   2.981
 3355SOL    HW210965   6.492   1.048   2.895
 3356SOL     OW10966   1.508   3.619   5.329
 3356SOL    HW110967   1.419   3.574   5.333
 3356SOL    HW210968   1.576   3.554   5.293
 3357SOL     OW10969   2.525   5.174   2.193
 3357SOL    HW110970   2.429   5.197   2.210
 3357SOL    HW210971   2.572   5.253   2.155
 3358SOL     OW10972   0.281   4.484   3.570
 3358SOL    HW110973   0.260   4.568   3.520
 3358SOL    HW210974   0.295   4.409   3.506
 3359SOL     OW10975   1.587   1.447   2.155
 3359SOL    HW110976   1.681   1.446   2.119
 3359SOL    HW210977   1.588   1.470   2.252
 3360SOL     OW10978   2.428   0.324   6.326
 3360SOL    HW110979   2.471   0.406   6.365
 3360SOL    HW210980   2.330   0.339   6.318
 3361SOL     OW10981   4.034   0.657   3.048
 3361SOL    HW110982   4.097   0.632   2.975
 3361SOL    HW210983   4.072   0.731   3.102
 3362SOL     OW10984   2.466   2.007   5.065
 3362SOL    HW110985   2.410   2.089   5.062
 3362SOL    HW210986   2.423   1.934   5.012
 3363SOL     OW10987   0.017   0.561   6.343
 3363SOL    HW110988   0.084   0.602   6.280
 3363SOL    HW210989   0.002   0.465   6.318
 3364SOL     OW10990   2.003   4.795   6.340
 3364SOL    HW110991   1.910   4.759   6.339
 3364SOL    HW210992   2.018   4.846   6.424
 3365SOL     OW10993   5.909   2.196   6.106
 3365SOL    HW110994   5.918   2.206   6.205
 3365SOL    HW210995   5.985   2.242   6.061
 3366SOL     OW10996   5.298   0.763   6.439
 3366SOL    HW110997   5.315   0.746   6.342
 3366SOL    HW210998   5.225   0.703   6.471
 3367SOL     OW10999   2.204   0.223   1.886
 3367SOL    HW111000   2.225   0.232   1.788
 3367SOL    HW211001   2.271   0.163   1.929
 3368SOL     OW11002   6.695   0.991   5.774
 3368SOL    HW111003   6.711   0.995   5.676
 3368SOL    HW211004   6.599   0.967   5.791
 3369SOL     OW11005   3.241   6.335   6.210
 3369SOL    HW111006   3.323   6.383   6.180
 3369SOL    HW211007   3.165   6.358   6.149
 3370SOL     OW11008   5.252   6.813   5.509
 3370SOL    HW111009   5.328   6.766   5.553
 3370SOL    HW211010   5.178   6.825   5.575
 3371SOL     OW11011   6.535   4.924   1.200
 3371SOL    HW111012   6.529   5.004   1.141
 3371SOL    HW211013   6.627   4.884   1.193
 3372SOL     OW11014   0.534   2.310   2.760
 3372SOL    HW111015   0.538   2.228   2.702
 3372SOL    HW211016   0.620   2.360   2.752
 3373SOL     OW11017   0.615   2.412   6.235
 3373SOL    HW111018   0.548   2.453   6.173
 3373SOL    HW211019   0.621   2.466   6.319
 3374SOL     OW11020   3.941   5.968   5.614
 3374SOL    HW111021   3.855   5.969   5.564
 3374SOL    HW211022   3.959   6.059   5.652
 3375SOL     OW11023   3.589   4.221   5.223
 3375SOL    HW111024   3.495   4.228   5.190
 3375SOL    HW211025   3.643   4.168   5.158
 3376SOL     OW11026   2.789   3.120   1.792
 3376SOL    HW111027   2.831   3.163   1.872
 3376SOL    HW211028   2.737   3.189   1.741
 3377SOL     OW11029   2.601   5.719   5.423
 3377SOL    HW111030   2.553   5.741   5.337
 3377SOL    HW211031   2.620   5.804   5.472
 3378SOL     OW11032   0.319   0.601   0.500
 3378SOL    HW111033   0.332   0.681   0.558
 3378SOL    HW211034   0.270   0.530   0.552
 3379SOL     OW11035   6.865   4.948   5.473
 3379SOL    HW111036   6.858   5.047   5.480
 3379SOL    HW211037   6.774   4.908   5.464
 3380SOL     OW11038   0.814   3.924   5.568
 3380SOL    HW111039   0.723   3.905   5.604
 3380SOL    HW211040   0.815   3.910   5.469
 3381SOL     OW11041   3.238   2.887   1.432
 3381SOL    HW111042   3.327   2.843   1.443
 3381SOL    HW211043   3.219   2.944   1.512
 3382SOL     OW11044   6.698   6.612   6.895
 3382SOL    HW111045   6.669   6.687   6.955
 3382SOL    HW211046   6.720   6.649   6.805
 3383SOL     OW11047   0.732   4.053   2.735
 3383SOL    HW111048   0.825   4.030   2.763
 3383SOL    HW211049   0.710   4.008   2.649
 3384SOL     OW11050   3.031   3.090   4.578
 3384SOL    HW111051   3.005   3.180   4.612
 3384SOL    HW211052   3.021   3.087   4.479
 3385SOL     OW11053   0.119   4.090   3.529
 3385SOL    HW111054   0.202   4.083   3.584
 3385SOL    HW211055   0.049   4.029   3.566
 3386SOL     OW11056   5.885   3.544   5.004
 3386SOL    HW111057   5.810   3.509   5.059
 3386SOL    HW211058   5.865   3.530   4.907
 3387SOL     OW11059   3.480   2.091   2.695
 3387SOL    HW111060   3.418   2.073   2.619
 3387SOL    HW211061   3.426   2.117   2.776
 3388SOL     OW11062   5.313   3.452   1.973
 3388SOL    HW111063   5.267   3.366   1.995
 3388SOL    HW211064   5.402   3.456   2.019
 3389SOL     OW11065   4.226   4.666   3.122
 3389SOL    HW111066   4.261   4.666   3.216
 3389SOL    HW211067   4.136   4.711   3.120
 3390SOL     OW11068   4.795   2.536   5.936
 3390SOL    HW111069   4.718   2.502   5.990
 3390SOL    HW211070   4.839   2.459   5.889
 3391SOL     OW11071   4.002   2.056   3.995
 3391SOL    HW111072   4.071   2.080   4.063
 3391SOL    HW211073   3.914   2.097   4.021
 3392SOL     OW11074   4.995   6.065   3.152
 3392SOL    HW111075   4.955   6.106   3.234
 3392SOL    HW211076   5.061   5.995   3.178
 3393SOL     OW11077   6.759   0.872   0.096
 3393SOL    HW111078   6.797   0.918   0.177
 3393SOL    HW211079   6.702   0.937   0.045
 3394SOL     OW11080   5.484   1.144   1.845
 3394SOL    HW111081   5.415   1.125   1.775
 3394SOL    HW211082   5.527   1.058   1.872
 3395SOL     OW11083   1.119   3.696   5.254
 3395SOL    HW111084   1.144   3.736   5.166
 3395SOL    HW211085   1.185   3.625   5.278
 3396SOL     OW11086   6.855   3.744   4.321
 3396SOL    HW111087   6.893   3.801   4.394
 3396SOL    HW211088   6.767   3.782   4.292
 3397SOL     OW11089   2.734   6.432   5.836
 3397SOL    HW111090   2.805   6.397   5.897
 3397SOL    HW211091   2.644   6.417   5.877
 3398SOL     OW11092   0.705   0.517   4.014
 3398SOL    HW111093   0.718   0.592   4.078
 3398SOL    HW211094   0.779   0.450   4.025
 3399SOL     OW11095   4.478   5.437   4.279
 3399SOL    HW111096   4.396   5.409   4.328
 3399SOL    HW211097   4.559   5.399   4.325
 3400SOL     OW11098   5.009   2.042   6.764
 3400SOL    HW111099   4.933   2.100   6.733
 3400SOL    HW211100   5.088   2.100   6.786
 3401SOL     OW11101   6.792   4.814   6.795
 3401SOL    HW111102   6.837   4.863   6.870
 3401SOL    HW211103   6.835   4.724   6.784
 3402SOL     OW11104   5.205   5.209   2.589
 3402SOL    HW111105   5.118   5.257   2.575
 3402SOL    HW211106   5.247   5.189   2.501
 3403SOL     OW11107   3.077   2.025   5.062
 3403SOL    HW111108   3.081   2.124   5.070
 3403SOL    HW211109   3.002   1.990   5.119
 3404SOL     OW11110   4.201   0.641   1.514
 3404SOL    HW111111   4.253   0.712   1.561
 3404SOL    HW211112   4.118   0.680   1.476
 3405SOL     OW11113   5.801   3.488   0.582
 3405SOL    HW111114   5.707   3.511   0.558
 3405SOL    HW211115   5.835   3.554   0.649
 3406SOL     OW11116   1.150   4.421   1.658
 3406SOL    HW111117   1.241   4.381   1.672
 3406SOL    HW211118   1.136   4.495   1.725
 3407SOL     OW11119   1.546   5.358   2.743
 3407SOL    HW111120   1.482   5.286   2.771
 3407SOL    HW211121   1.496   5.428   2.691
 3408SOL     OW11122   5.126   4.203   2.833
 3408SOL    HW111123   5.180   4.167   2.909
 3408SOL    HW211124   5.057   4.266   2.868
 3409SOL     OW11125   2.719   0.496   5.769
 3409SOL    HW111126   2.760   0.586   5.753
 3409SOL    HW211127   2.789   0.431   5.798
 3410SOL     OW11128   0.077   1.046   0.084
 3410SOL    HW111129   0.011   1.050   0.160
 3410SOL    HW211130   0.130   0.962   0.090
 3411SOL     OW11131   4.547   2.605   2.470
 3411SOL    HW111132   4.614   2.541   2.507
 3411SOL    HW211133   4.590   2.693   2.451
 3412SOL     OW11134   3.981   5.232   6.855
 3412SOL    HW111135   4.074   5.199   6.841
 3412SOL    HW211136   3.923   5.155   6.883
 3413SOL     OW11137   4.524   1.630   2.256
 3413SOL    HW111138   4.488   1.713   2.299
 3413SOL    HW211139   4.450   1.580   2.212
 3414SOL     OW11140   3.721   1.264   5.205
 3414SOL    HW111141   3.702   1.359   5.180
 3414SOL    HW211142   3.635   1.213   5.210
 3415SOL     OW11143   0.756   5.409   4.358
 3415SOL    HW111144   0.709   5.385   4.273
 3415SOL    HW211145   0.842   5.357   4.364
 3416SOL     OW11146   2.135   5.015   5.930
 3416SOL    HW111147   2.129   4.938   5.993
 3416SOL    HW211148   2.043   5.047   5.908
 3417SOL     OW11149   5.913   0.758   1.492
 3417SOL    HW111150   5.850   0.835   1.490
 3417SOL    HW211151   5.892   0.695   1.417
 3418SOL     OW11152   3.229   2.093   6.281
 3418SOL    HW111153   3.260   2.046   6.198
 3418SOL    HW211154   3.145   2.144   6.262
 3419SOL     OW11155   4.479   3.742   0.469
 3419SOL    HW111156   4.477   3.812   0.541
 3419SOL    HW211157   4.442   3.656   0.505
 3420SOL     OW11158   4.228   1.919   3.661
 3420SOL    HW111159   4.250   1.890   3.568
 3420SOL    HW211160   4.157   1.859   3.699
 3421SOL     OW11161   0.688   6.552   3.951
 3421SOL    HW111162   0.643   6.475   3.908
 3421SOL    HW211163   0.657   6.637   3.909
 3422SOL     OW11164   3.338   2.060   2.466
 3422SOL    HW111165   3.317   1.964   2.487
 3422SOL    HW211166   3.344   2.073   2.367
 3423SOL     OW11167   2.720   0.880   2.084
 3423SOL    HW111168   2.728   0.783   2.105
 3423SOL    HW211169   2.650   0.922   2.143
 3424SOL     OW11170   4.342   0.742   2.067
 3424SOL    HW111171   4.345   0.820   2.004
 3424SOL    HW211172   4.318   0.659   2.016
 3425SOL     OW11173   5.098   4.483   1.715
 3425SOL    HW111174   5.033   4.455   1.786
 3425SOL    HW211175   5.174   4.419   1.712
 3426SOL     OW11176   4.260   3.616   0.579
 3426SOL    HW111177   4.253   3.516   0.579
 3426SOL    HW211178   4.188   3.653   0.520
 3427SOL     OW11179   0.675   1.356   0.520
 3427SOL    HW111180   0.714   1.412   0.593
 3427SOL    HW211181   0.638   1.416   0.449
 3428SOL     OW11182   4.248   4.730   3.457
 3428SOL    HW111183   4.269   4.723   3.555
 3428SOL    HW211184   4.250   4.826   3.429
 3429SOL     OW11185   0.448   3.008   6.956
 3429SOL    HW111186   0.427   3.098   6.917
 3429SOL    HW211187   0.459   2.941   6.882
 3430SOL     OW11188   1.007   6.206   6.549
 3430SOL    HW111189   1.098   6.167   6.534
 3430SOL    HW211190   0.941   6.132   6.560
 3431SOL     OW11191   0.920   6.433   6.710
 3431SOL    HW111192   0.957   6.374   6.638
 3431SOL    HW211193   0.864   6.378   6.773
 3432SOL     OW11194   2.414   2.212   6.823
 3432SOL    HW111195   2.349   2.284   6.848
 3432SOL    HW211196   2.365   2.127   6.806
 3433SOL     OW11197   4.519   0.766   4.192
 3433SOL    HW111198   4.447   0.801   4.252
 3433SOL    HW211199   4.601   0.822   4.202
 3434SOL     OW11200   4.672   1.926   3.382
 3434SOL    HW111201   4.723   1.990   3.324
 3434SOL    HW211202   4.626   1.859   3.324
 3435SOL     OW11203   0.621   1.479   6.623
 3435SOL    HW111204   0.626   1.395   6.678
 3435SOL    HW211205   0.553   1.540   6.662
 3436SOL     OW11206   4.577   0.039   3.443
 3436SOL    HW111207   4.671   0.052   3.413
 3436SOL    HW211208   4.514   0.069   3.371
 3437SOL     OW11209   4.572   0.477   6.222
 3437SOL    HW111210   4.515   0.427   6.157
 3437SOL    HW211211   4.648   0.521   6.173
 3438SOL     OW11212   1.392   4.076   6.561
 3438SOL    HW111213   1.351   4.152   6.611
 3438SOL    HW211214   1.474   4.044   6.610
 3439SOL     OW11215   2.572   6.888   3.500
 3439SOL    HW111216   2.660   6.902   3.546
 3439SOL    HW211217   2.582   6.815   3.432
 3440SOL     OW11218   3.424   2.103   0.633
 3440SOL    HW111219   3.479   2.082   0.552
 3440SOL    HW211220   3.457   2.048   0.710
 3441SOL     OW11221   3.843   0.939   4.315
 3441SOL    HW111222   3.753   0.978   4.300
 3441SOL    HW211223   3.836   0.863   4.379
 3442SOL     OW11224   1.217   4.777   2.963
 3442SOL    HW111225   1.269   4.710   2.910
 3442SOL    HW211226   1.236   4.765   3.060
 3443SOL     OW11227   6.003   0.336   3.945
 3443SOL    HW111228   5.940   0.380   4.009
 3443SOL    HW211229   6.039   0.404   3.881
 3444SOL     OW11230   4.059   5.253   0.418
 3444SOL    HW111231   4.037   5.249   0.320
 3444SOL    HW211232   4.023   5.338   0.457
 3445SOL     OW11233   5.925   5.089   4.691
 3445SOL    HW111234   6.001   5.038   4.730
 3445SOL    HW211235   5.891   5.041   4.610
 3446SOL     OW11236   3.140   6.461   3.036
 3446SOL    HW111237   3.221   6.500   2.991
 3446SOL    HW211238   3.060   6.517   3.014
 3447SOL     OW11239   6.648   4.899   6.316
 3447SOL    HW111240   6.721   4.875   6.380
 3447SOL    HW211241   6.561   4.903   6.365
 3448SOL     OW11242   3.596   2.217   1.259
 3448SOL    HW111243   3.641   2.268   1.333
 3448SOL    HW211244   3.502   2.195   1.286
 3449SOL     OW11245   5.973   5.983   2.705
 3449SOL    HW111246   5.993   6.071   2.662
 3449SOL    HW211247   6.018   5.980   2.795
 3450SOL     OW11248   0.867   2.377   1.529
 3450SOL    HW111249   0.886   2.337   1.619
 3450SOL    HW211250   0.947   2.368   1.471
 3451SOL     OW11251   1.420   5.252   4.059
 3451SOL    HW111252   1.394   5.337   4.014
 3451SOL    HW211253   1.433   5.269   4.157
 3452SOL     OW11254   6.532   2.398   0.266
 3452SOL    HW111255   6.629   2.399   0.293
 3452SOL    HW211256   6.478   2.449   0.332
 3453SOL     OW11257   6.259   6.223   6.096
 3453SOL    HW111258   6.277   6.262   6.006
 3453SOL    HW211259   6.343   6.180   6.131
 3454SOL     OW11260   0.838   1.293   0.255
 3454SOL    HW111261   0.795   1.300   0.345
 3454SOL    HW211262   0.874   1.382   0.227
 3455SOL     OW11263   2.260   2.489   4.484
 3455SOL    HW111264   2.251   2.415   4.550
 3455SOL    HW211265   2.353   2.488   4.446
 3456SOL     OW11266   6.384   0.183   1.083
 3456SOL    HW111267   6.429   0.160   0.996
 3456SOL    HW211268   6.449   0.175   1.158
 3457SOL     OW11269   2.550   5.823   3.569
 3457SOL    HW111270   2.517   5.917   3.568
 3457SOL    HW211271   2.472   5.761   3.583
 3458SOL     OW11272   5.398   5.336   0.632
 3458SOL    HW111273   5.368   5.431   0.624
 3458SOL    HW211274   5.496   5.331   0.616
 3459SOL     OW11275   6.965   6.283   3.412
 3459SOL    HW111276   6.880   6.251   3.455
 3459SOL    HW211277   6.960   6.266   3.313
 3460SOL     OW11278   3.666   3.406   5.738
 3460SOL    HW111279   3.758   3.372   5.756
 3460SOL    HW211280   3.651   3.414   5.640
 3461SOL     OW11281   3.315   5.970   2.951
 3461SOL    HW111282   3.331   6.052   3.006
 3461SOL    HW211283   3.221   5.970   2.919
 3462SOL     OW11284   4.846   3.272   3.091
 3462SOL    HW111285   4.868   3.255   3.187
 3462SOL    HW211286   4.800   3.192   3.052
 3463SOL     OW11287   2.419   2.701   0.899
 3463SOL    HW111288   2.492   2.690   0.965
 3463SOL    HW211289   2.402   2.614   0.853
 3464SOL     OW11290   4.625   2.161   6.145
 3464SOL    HW111291   4.552   2.148   6.077
 3464SOL    HW211292   4.629   2.257   6.171
 3465SOL     OW11293   2.020   4.354   1.799
 3465SOL    HW111294   2.085   4.393   1.865
 3465SOL    HW211295   1.927   4.360   1.835
 3466SOL     OW11296   6.632   4.425   4.027
 3466SOL    HW111297   6.714   4.370   4.017
 3466SOL    HW211298   6.577   4.420   3.944
 3467SOL     OW11299   2.971   3.018   1.069
 3467SOL    HW111300   2.951   2.972   0.983
 3467SOL    HW211301   2.900   2.997   1.136
 3468SOL     OW11302   3.538   1.792   0.651
 3468SOL    HW111303   3.477   1.760   0.723
 3468SOL    HW211304   3.485   1.811   0.569
 3469SOL     OW11305   3.605   6.067   5.758
 3469SOL    HW111306   3.596   5.989   5.820
 3469SOL    HW211307   3.668   6.134   5.797
 3470SOL     OW11308   1.243   3.278   1.660
 3470SOL    HW111309   1.323   3.338   1.648
 3470SOL    HW211310   1.166   3.333   1.691
 3471SOL     OW11311   5.207   3.579   4.722
 3471SOL    HW111312   5.191   3.489   4.683
 3471SOL    HW211313   5.122   3.614   4.762
 3472SOL     OW11314   4.179   1.658   2.900
 3472SOL    HW111315   4.201   1.742   2.850
 3472SOL    HW211316   4.101   1.613   2.858
 3473SOL     OW11317   6.691   4.759   1.597
 3473SOL    HW111318   6.691   4.745   1.696
 3473SOL    HW211319   6.681   4.671   1.551
 3474SOL     OW11320   5.600   4.817   4.400
 3474SOL    HW111321   5.515   4.862   4.372
 3474SOL    HW211322   5.637   4.765   4.323
 3475SOL     OW11323   0.051   4.809   4.149
 3475SOL    HW111324   0.044   4.823   4.050
 3475SOL    HW211325   0.139   4.843   4.182
 3476SOL     OW11326   1.579   1.214   3.611
 3476SOL    HW111327   1.596   1.306   3.576
 3476SOL    HW211328   1.599   1.210   3.709
 3477SOL     OW11329   1.012   4.165   2.096
 3477SOL    HW111330   1.005   4.095   2.025
 3477SOL    HW211331   1.026   4.121   2.185
 3478SOL     OW11332   2.080   1.097   1.419
 3478SOL    HW111333   2.170   1.133   1.442
 3478SOL    HW211334   2.084   1.045   1.334
 3479SOL     OW11335   1.370   5.065   4.849
 3479SOL    HW111336   1.321   5.057   4.762
 3479SOL    HW211337   1.432   4.988   4.860
 3480SOL     OW11338   1.359   4.563   6.843
 3480SOL    HW111339   1.415   4.646   6.830
 3480SOL    HW211340   1.291   4.558   6.771
 3481SOL     OW11341   6.073   0.934   5.139
 3481SOL    HW111342   6.050   0.858   5.200
 3481SOL    HW211343   6.165   0.967   5.159
 3482SOL     OW11344   5.826   3.336   5.943
 3482SOL    HW111345   5.727   3.330   5.955
 3482SOL    HW211346   5.851   3.427   5.911
 3483SOL     OW11347   5.591   3.061   5.447
 3483SOL    HW111348   5.496   3.088   5.431
 3483SOL    HW211349   5.612   3.074   5.544
 3484SOL     OW11350   1.553   3.669   5.031
 3484SOL    HW111351   1.575   3.723   4.949
 3484SOL    HW211352   1.503   3.726   5.096
 3485SOL     OW11353   6.638   3.015   6.793
 3485SOL    HW111354   6.642   3.112   6.816
 3485SOL    HW211355   6.704   2.995   6.720
 3486SOL     OW11356   2.183   6.015   5.003
 3486SOL    HW111357   2.088   6.040   5.023
 3486SOL    HW211358   2.240   6.097   5.007
 3487SOL     OW11359   4.774   0.908   6.452
 3487SOL    HW111360   4.776   0.863   6.363
 3487SOL    HW211361   4.864   0.948   6.471
 3488SOL     OW11362   5.809   0.346   5.077
 3488SOL    HW111363   5.739   0.325   5.146
 3488SOL    HW211364   5.873   0.269   5.070
 3489SOL     OW11365   2.862   6.175   0.793
 3489SOL    HW111366   2.791   6.235   0.830
 3489SOL    HW211367   2.878   6.100   0.858
 3490SOL     OW11368   3.451   0.077   0.139
 3490SOL    HW111369   3.372   0.112   0.189
 3490SOL    HW211370   3.478   7.005   0.176
 3491SOL     OW11371   4.290   4.790   6.155
 3491SOL    HW111372   4.237   4.866   6.118
 3491SOL    HW211373   4.332   4.816   6.242
 3492SOL     OW11374   6.083   4.085   2.225
 3492SOL    HW111375   6.084   4.114   2.321
 3492SOL    HW211376   6.032   4.152   2.171
 3493SOL     OW11377   6.651   2.988   5.523
 3493SOL    HW111378   6.734   2.979   5.579
 3493SOL    HW211379   6.609   2.898   5.512
 3494SOL     OW11380   4.326   1.653   2.578
 3494SOL    HW111381   4.371   1.572   2.617
 3494SOL    HW211382   4.395   1.724   2.562
 3495SOL     OW11383   0.724   2.827   2.801
 3495SOL    HW111384   0.700   2.818   2.704
 3495SOL    HW211385   0.641   2.842   2.855
 3496SOL     OW11386   5.743   5.530   0.759
 3496SOL    HW111387   5.678   5.531   0.835
 3496SOL    HW211388   5.813   5.460   0.775
 3497SOL     OW11389   3.174   6.827   2.421
 3497SOL    HW111390   3.133   6.770   2.350
 3497SOL    HW211391   3.101   6.867   2.477
 3498SOL     OW11392   2.011   2.606   1.143
 3498SOL    HW111393   2.012   2.632   1.046
 3498SOL    HW211394   2.046   2.681   1.198
 3499SOL     OW11395   6.378   5.904   4.863
 3499SOL    HW111396   6.325   5.982   4.896
 3499SOL    HW211397   6.406   5.847   4.941
 3500SOL     OW11398   2.223   2.196   4.347
 3500SOL    HW111399   2.135   2.180   4.390
 3500SOL    HW211400   2.291   2.218   4.417
 3501SOL     OW11401   1.634   0.517   5.158
 3501SOL    HW111402   1.652   0.527   5.256
 3501SOL    HW211403   1.641   0.420   5.133
 3502SOL     OW11404   4.739   2.799   2.449
 3502SOL    HW111405   4.814   2.735   2.463
 3502SOL    HW211406   4.760   2.885   2.495
 3503SOL     OW11407   6.211   6.471   6.639
 3503SOL    HW111408   6.236   6.374   6.645
 3503SOL    HW211409   6.287   6.528   6.669
 3504SOL     OW11410   1.154   0.606   0.071
 3504SOL    HW111411   1.228   0.654   0.024
 3504SOL    HW211412   1.080   0.589   0.007
 3505SOL     OW11413   5.253   4.602   6.108
 3505SOL    HW111414   5.340   4.552   6.109
 3505SOL    HW211415   5.221   4.611   6.014
 3506SOL     OW11416   4.508   4.935   4.814
 3506SOL    HW111417   4.534   4.894   4.727
 3506SOL    HW211418   4.439   5.006   4.798
 3507SOL     OW11419   3.077   0.655   0.895
 3507SOL    HW111420   3.164   0.661   0.945
 3507SOL    HW211421   3.021   0.735   0.918
 3508SOL     OW11422   3.294   1.764   5.205
 3508SOL    HW111423   3.257   1.788   5.294
 3508SOL    HW211424   3.324   1.669   5.205
 3509SOL     OW11425   3.321   5.661   6.375
 3509SOL    HW111426   3.401   5.665   6.435
 3509SOL    HW211427   3.265   5.582   6.399
 3510SOL     OW11428   2.557   1.384   0.321
 3510SOL    HW111429   2.596   1.372   0.412
 3510SOL    HW211430   2.624   1.427   0.261
 3511SOL     OW11431   3.011   4.295   1.656
 3511SOL    HW111432   2.958   4.349   1.721
 3511SOL    HW211433   3.108   4.300   1.678
 3512SOL     OW11434   0.416   5.151   5.653
 3512SOL    HW111435   0.456   5.241   5.638
 3512SOL    HW211436   0.488   5.081   5.646
 3513SOL     OW11437   6.236   1.623   0.322
 3513SOL    HW111438   6.257   1.719   0.341
 3513SOL    HW211439   6.217   1.575   0.408
 3514SOL     OW11440   3.684   1.230   2.291
 3514SOL    HW111441   3.622   1.163   2.330
 3514SOL    HW211442   3.681   1.224   2.191
 3515SOL     OW11443   0.166   5.509   4.245
 3515SOL    HW111444   0.113   5.429   4.273
 3515SOL    HW211445   0.229   5.483   4.172
 3516SOL     OW11446   4.360   0.425   1.479
 3516SOL    HW111447   4.286   0.489   1.501
 3516SOL    HW211448   4.324   0.332   1.475
 3517SOL     OW11449   5.897   0.476   1.354
 3517SOL    HW111450   5.941   0.498   1.268
 3517SOL    HW211451   5.859   0.383   1.350
 3518SOL     OW11452   4.845   0.765   5.264
 3518SOL    HW111453   4.929   0.763   5.210
 3518SOL    HW211454   4.869   0.765   5.361
 3519SOL     OW11455   3.480   0.640   1.192
 3519SOL    HW111456   3.448   0.731   1.166
 3519SOL    HW211457   3.452   0.621   1.286
 3520SOL     OW11458   2.664   5.892   4.944
 3520SOL    HW111459   2.724   5.832   4.889
 3520SOL    HW211460   2.584   5.840   4.973
 3521SOL     OW11461   2.445   3.102   0.283
 3521SOL    HW111462   2.541   3.122   0.264
 3521SOL    HW211463   2.387   3.146   0.214
 3522SOL     OW11464   0.217   5.724   6.335
 3522SOL    HW111465   0.244   5.779   6.255
 3522SOL    HW211466   0.283   5.650   6.347
 3523SOL     OW11467   2.153   5.626   0.014
 3523SOL    HW111468   2.169   5.716   0.055
 3523SOL    HW211469   2.239   5.591   6.992
 3524SOL     OW11470   5.322   1.025   3.631
 3524SOL    HW111471   5.242   1.048   3.687
 3524SOL    HW211472   5.336   1.097   3.563
 3525SOL     OW11473   6.684   3.623   2.787
 3525SOL    HW111474   6.668   3.572   2.872
 3525SOL    HW211475   6.603   3.616   2.729
 3526SOL     OW11476   0.445   6.907   2.912
 3526SOL    HW111477   0.524   6.941   2.862
 3526SOL    HW211478   0.454   6.809   2.928
 3527SOL     OW11479   0.372   2.482   6.083
 3527SOL    HW111480   0.298   2.470   6.017
 3527SOL    HW211481   0.346   2.441   6.170
 3528SOL     OW11482   2.237   5.779   4.780
 3528SOL    HW111483   2.230   5.681   4.795
 3528SOL    HW211484   2.277   5.823   4.861
 3529SOL     OW11485   4.264   5.401   0.923
 3529SOL    HW111486   4.228   5.464   0.855
 3529SOL    HW211487   4.308   5.324   0.877
 3530SOL     OW11488   6.515   6.564   1.676
 3530SOL    HW111489   6.500   6.560   1.775
 3530SOL    HW211490   6.428   6.556   1.629
 3531SOL     OW11491   5.447   1.887   0.204
 3531SOL    HW111492   5.405   1.888   0.113
 3531SOL    HW211493   5.392   1.831   0.265
 3532SOL     OW11494   2.071   1.427   2.036
 3532SOL    HW111495   1.978   1.459   2.017
 3532SOL    HW211496   2.070   1.328   2.051
 3533SOL     OW11497   1.004   1.572   3.120
 3533SOL    HW111498   1.022   1.613   3.209
 3533SOL    HW211499   0.914   1.602   3.087
 3534SOL     OW11500   0.136   1.649   0.996
 3534SOL    HW111501   0.218   1.596   1.019
 3534SOL    HW211502   0.133   1.664   0.898
 3535SOL     OW11503   2.759   5.528   4.629
 3535SOL    HW111504   2.794   5.615   4.663
 3535SOL    HW211505   2.717   5.477   4.703
 3536SOL     OW11506   3.955   2.083   2.644
 3536SOL    HW111507   4.002   1.995   2.645
 3536SOL    HW211508   3.859   2.070   2.620
 3537SOL     OW11509   2.260   6.702   2.984
 3537SOL    HW111510   2.255   6.633   2.911
 3537SOL    HW211511   2.284   6.790   2.945
 3538SOL     OW11512   3.230   5.306   3.554
 3538SOL    HW111513   3.299   5.292   3.484
 3538SOL    HW211514   3.245   5.241   3.629
 3539SOL     OW11515   3.788   3.457   4.474
 3539SOL    HW111516   3.723   3.515   4.425
 3539SOL    HW211517   3.879   3.468   4.435
 3540SOL     OW11518   1.840   2.380   3.414
 3540SOL    HW111519   1.773   2.307   3.431
 3540SOL    HW211520   1.801   2.447   3.351
 3541SOL     OW11521   3.546   4.153   4.311
 3541SOL    HW111522   3.572   4.250   4.312
 3541SOL    HW211523   3.598   4.106   4.240
 3542SOL     OW11524   0.239   5.188   1.458
 3542SOL    HW111525   0.259   5.091   1.447
 3542SOL    HW211526   0.164   5.200   1.522
 3543SOL     OW11527   6.321   2.775   5.023
 3543SOL    HW111528   6.358   2.719   5.098
 3543SOL    HW211529   6.228   2.802   5.045
 3544SOL     OW11530   1.736   5.856   0.119
 3544SOL    HW111531   1.831   5.883   0.135
 3544SOL    HW211532   1.735   5.769   0.069
 3545SOL     OW11533   3.087   5.237   0.270
 3545SOL    HW111534   3.071   5.150   0.224
 3545SOL    HW211535   3.056   5.312   0.212
 3546SOL     OW11536   6.549   4.685   2.734
 3546SOL    HW111537   6.545   4.635   2.820
 3546SOL    HW211538   6.523   4.780   2.749
 3547SOL     OW11539   5.005   4.789   4.515
 3547SOL    HW111540   5.071   4.790   4.590
 3547SOL    HW211541   5.054   4.790   4.428
 3548SOL     OW11542   4.684   2.981   5.547
 3548SOL    HW111543   4.759   2.915   5.549
 3548SOL    HW211544   4.703   3.052   5.480
 3549SOL     OW11545   6.033   3.828   2.482
 3549SOL    HW111546   6.042   3.927   2.466
 3549SOL    HW211547   5.982   3.814   2.567
 3550SOL     OW11548   6.024   1.877   2.490
 3550SOL    HW111549   6.038   1.927   2.575
 3550SOL    HW211550   5.926   1.870   2.471
 3551SOL     OW11551   2.565   6.893   3.157
 3551SOL    HW111552   2.522   6.975   3.194
 3551SOL    HW211553   2.643   6.919   3.101
 3552SOL     OW11554   0.070   4.516   3.140
 3552SOL    HW111555   0.035   4.454   3.211
 3552SOL    HW211556   0.169   4.527   3.152
 3553SOL     OW11557   5.763   2.247   3.012
 3553SOL    HW111558   5.808   2.252   2.923
 3553SOL    HW211559   5.831   2.234   3.083
 3554SOL     OW11560   3.726   5.574   6.830
 3554SOL    HW111561   3.643   5.624   6.854
 3554SOL    HW211562   3.747   5.587   6.734
 3555SOL     OW11563   0.594   3.139   3.436
 3555SOL    HW111564   0.629   3.095   3.518
 3555SOL    HW211565   0.665   3.197   3.397
 3556SOL     OW11566   4.255   0.973   6.175
 3556SOL    HW111567   4.302   0.886   6.193
 3556SOL    HW211568   4.186   0.959   6.103
 3557SOL     OW11569   0.874   0.952   4.263
 3557SOL    HW111570   0.863   0.995   4.353
 3557SOL    HW211571   0.839   1.014   4.192
 3558SOL     OW11572   6.966   5.537   1.536
 3558SOL    HW111573   6.915   5.515   1.453
 3558SOL    HW211574   6.906   5.581   1.602
 3559SOL     OW11575   0.895   1.064   5.847
 3559SOL    HW111576   0.863   1.062   5.752
 3559SOL    HW211577   0.950   0.983   5.865
 3560SOL     OW11578   6.782   6.264   1.944
 3560SOL    HW111579   6.781   6.187   1.880
 3560SOL    HW211580   6.821   6.344   1.899
 3561SOL     OW11581   4.398   4.559   4.112
 3561SOL    HW111582   4.467   4.531   4.045
 3561SOL    HW211583   4.437   4.554   4.203
 3562SOL     OW11584   4.806   2.435   3.026
 3562SOL    HW111585   4.751   2.382   2.961
 3562SOL    HW211586   4.769   2.528   3.034
 3563SOL     OW11587   4.550   0.597   1.371
 3563SOL    HW111588   4.473   0.543   1.405
 3563SOL    HW211589   4.605   0.541   1.309
 3564SOL     OW11590   6.885   4.141   2.999
 3564SOL    HW111591   6.930   4.207   2.939
 3564SOL    HW211592   6.826   4.081   2.945
 3565SOL     OW11593   1.790   0.517   4.886
 3565SOL    HW111594   1.879   0.516   4.932
 3565SOL    HW211595   1.718   0.521   4.955
 3566SOL     OW11596   1.030   3.868   6.001
 3566SOL    HW111597   1.015   3.864   5.903
 3566SOL    HW211598   0.982   3.947   6.040
 3567SOL     OW11599   0.220   2.630   1.046
 3567SOL    HW111600   0.141   2.685   1.072
 3567SOL    HW211601   0.264   2.593   1.128
 3568SOL     OW11602   5.382   3.809   3.736
 3568SOL    HW111603   5.359   3.873   3.662
 3568SOL    HW211604   5.342   3.842   3.821
 3569SOL     OW11605   3.568   3.221   4.143
 3569SOL    HW111606   3.626   3.238   4.063
 3569SOL    HW211607   3.620   3.236   4.226
 3570SOL     OW11608   0.483   2.300   5.350
 3570SOL    HW111609   0.572   2.278   5.388
 3570SOL    HW211610   0.480   2.396   5.321
 3571SOL     OW11611   2.435   6.628   4.707
 3571SOL    HW111612   2.500   6.632   4.631
 3571SOL    HW211613   2.404   6.534   4.720
 3572SOL     OW11614   4.977   4.710   1.763
 3572SOL    HW111615   5.019   4.625   1.733
 3572SOL    HW211616   4.957   4.704   1.861
 3573SOL     OW11617   0.687   4.485   3.592
 3573SOL    HW111618   0.743   4.403   3.600
 3573SOL    HW211619   0.620   4.488   3.667
 3574SOL     OW11620   1.970   1.563   5.615
 3574SOL    HW111621   2.066   1.536   5.620
 3574SOL    HW211622   1.962   1.649   5.565
 3575SOL     OW11623   5.112   0.110   6.974
 3575SOL    HW111624   5.145   0.190   0.009
 3575SOL    HW211625   5.189   0.050   6.954
 3576SOL     OW11626   1.421   2.337   0.576
 3576SOL    HW111627   1.448   2.285   0.495
 3576SOL    HW211628   1.367   2.416   0.548
 3577SOL     OW11629   1.965   2.798   5.029
 3577SOL    HW111630   2.043   2.859   5.037
 3577SOL    HW211631   1.952   2.747   5.114
 3578SOL     OW11632   3.443   2.780   6.304
 3578SOL    HW111633   3.385   2.736   6.374
 3578SOL    HW211634   3.405   2.760   6.214
 3579SOL     OW11635   0.703   3.692   1.912
 3579SOL    HW111636   0.649   3.760   1.862
 3579SOL    HW211637   0.656   3.604   1.910
 3580SOL     OW11638   0.105   4.125   1.910
 3580SOL    HW111639   0.068   4.218   1.913
 3580SOL    HW211640   0.204   4.129   1.896
 3581SOL     OW11641   1.391   0.331   2.680
 3581SOL    HW111642   1.434   0.420   2.696
 3581SOL    HW211643   1.309   0.345   2.624
 3582SOL     OW11644   4.236   5.381   6.205
 3582SOL    HW111645   4.229   5.453   6.136
 3582SOL    HW211646   4.270   5.297   6.163
 3583SOL     OW11647   0.953   4.878   1.229
 3583SOL    HW111648   1.011   4.830   1.164
 3583SOL    HW211649   1.004   4.894   1.314
 3584SOL     OW11650   6.449   4.915   4.845
 3584SOL    HW111651   6.467   4.850   4.918
 3584SOL    HW211652   6.518   4.988   4.847
 3585SOL     OW11653   3.373   1.441   3.802
 3585SOL    HW111654   3.432   1.493   3.864
 3585SOL    HW211655   3.281   1.435   3.840
 3586SOL     OW11656   0.203   1.959   5.085
 3586SOL    HW111657   0.232   1.875   5.131
 3586SOL    HW211658   0.232   1.957   4.990
 3587SOL     OW11659   3.237   0.269   6.191
 3587SOL    HW111660   3.141   0.256   6.167
 3587SOL    HW211661   3.259   0.217   6.273
 3588SOL     OW11662   6.102   4.660   4.843
 3588SOL    HW111663   6.082   4.639   4.748
 3588SOL    HW211664   6.188   4.616   4.870
 3589SOL     OW11665   0.642   0.210   5.911
 3589SOL    HW111666   0.588   0.127   5.895
 3589SOL    HW211667   0.676   0.211   6.005
 3590SOL     OW11668   0.075   5.291   6.038
 3590SOL    HW111669   0.160   5.243   6.060
 3590SOL    HW211670   0.032   5.324   6.122
 3591SOL     OW11671   5.966   1.033   6.774
 3591SOL    HW111672   5.886   1.088   6.798
 3591SOL    HW211673   6.046   1.091   6.767
 3592SOL     OW11674   1.337   6.586   1.306
 3592SOL    HW111675   1.426   6.591   1.350
 3592SOL    HW211676   1.308   6.678   1.278
 3593SOL     OW11677   4.132   3.103   5.273
 3593SOL    HW111678   4.097   3.152   5.353
 3593SOL    HW211679   4.204   3.040   5.301
 3594SOL     OW11680   4.840   4.677   5.183
 3594SOL    HW111681   4.934   4.708   5.197
 3594SOL    HW211682   4.823   4.595   5.237
 3595SOL     OW11683   5.774   6.374   4.492
 3595SOL    HW111684   5.691   6.341   4.536
 3595SOL    HW211685   5.852   6.319   4.522
 3596SOL     OW11686   4.155   1.899   3.310
 3596SOL    HW111687   4.253   1.919   3.306
 3596SOL    HW211688   4.107   1.959   3.246
 3597SOL     OW11689   3.263   3.684   5.449
 3597SOL    HW111690   3.243   3.631   5.367
 3597SOL    HW211691   3.295   3.775   5.423
 3598SOL     OW11692   0.118   5.343   4.903
 3598SOL    HW111693   0.134   5.441   4.919
 3598SOL    HW211694   0.055   5.308   4.974
 3599SOL     OW11695   2.762   1.198   5.105
 3599SOL    HW111696   2.749   1.258   5.027
 3599SOL    HW211697   2.708   1.231   5.182
 3600SOL     OW11698   3.121   3.982   6.885
 3600SOL    HW111699   3.069   3.929   6.952
 3600SOL    HW211700   3.090   4.077   6.886
 3601SOL     OW11701   4.600   0.860   5.194
 3601SOL    HW111702   4.688   0.826   5.228
 3601SOL    HW211703   4.579   0.817   5.106
 3602SOL     OW11704   1.594   2.023   1.348
 3602SOL    HW111705   1.688   2.055   1.358
 3602SOL    HW211706   1.552   2.016   1.438
 3603SOL     OW11707   2.486   0.355   5.359
 3603SOL    HW111708   2.522   0.441   5.396
 3603SOL    HW211709   2.394   0.370   5.323
 3604SOL     OW11710   0.102   0.409   3.704
 3604SOL    HW111711   0.026   0.435   3.645
 3604SOL    HW211712   0.131   0.488   3.758
 3605SOL     OW11713   1.166   6.539   4.620
 3605SOL    HW111714   1.092   6.607   4.622
 3605SOL    HW211715   1.242   6.572   4.675
 3606SOL     OW11716   2.045   0.351   2.065
 3606SOL    HW111717   1.951   0.385   2.060
 3606SOL    HW211718   2.075   0.323   1.974
 3607SOL     OW11719   6.329   1.734   3.215
 3607SOL    HW111720   6.383   1.815   3.191
 3607SOL    HW211721   6.376   1.683   3.287
 3608SOL     OW11722   2.975   1.624   5.898
 3608SOL    HW111723   3.024   1.537   5.896
 3608SOL    HW211724   2.956   1.655   5.805
 3609SOL     OW11725   3.664   0.676   5.145
 3609SOL    HW111726   3.625   0.768   5.136
 3609SOL    HW211727   3.760   0.683   5.169
 3610SOL     OW11728   1.629   0.476   5.803
 3610SOL    HW111729   1.551   0.423   5.769
 3610SOL    HW211730   1.708   0.461   5.743
 3611SOL     OW11731   5.848   4.512   2.680
 3611SOL    HW111732   5.751   4.491   2.679
 3611SOL    HW211733   5.867   4.582   2.748
 3612SOL     OW11734   5.435   1.350   0.141
 3612SOL    HW111735   5.368   1.307   0.202
 3612SOL    HW211736   5.471   1.433   0.184
 3613SOL     OW11737   3.958   6.558   3.020
 3613SOL    HW111738   3.870   6.528   2.981
 3613SOL    HW211739   3.992   6.636   2.967
 3614SOL     OW11740   3.517   5.745   6.924
 3614SOL    HW111741   3.483   5.819   6.865
 3614SOL    HW211742   3.454   5.668   6.920
 3615SOL     OW11743   5.489   2.506   5.629
 3615SOL    HW111744   5.464   2.538   5.537
 3615SOL    HW211745   5.468   2.409   5.637
 3616SOL     OW11746   1.582   2.123   0.425
 3616SOL    HW111747   1.605   2.133   0.522
 3616SOL    HW211748   1.608   2.206   0.375
 3617SOL     OW11749   4.085   5.965   6.069
 3617SOL    HW111750   4.181   5.980   6.046
 3617SOL    HW211751   4.044   5.903   6.002
 3618SOL     OW11752   0.987   5.240   4.318
 3618SOL    HW111753   0.993   5.141   4.331
 3618SOL    HW211754   1.023   5.265   4.228
 3619SOL     OW11755   5.880   2.572   1.961
 3619SOL    HW111756   5.946   2.541   2.030
 3619SOL    HW211757   5.793   2.524   1.974
 3620SOL     OW11758   5.788   6.118   4.675
 3620SOL    HW111759   5.799   6.207   4.720
 3620SOL    HW211760   5.693   6.089   4.682
 3621SOL     OW11761   3.685   3.121   3.889
 3621SOL    HW111762   3.777   3.083   3.897
 3621SOL    HW211763   3.670   3.154   3.796
 3622SOL     OW11764   1.430   5.922   6.254
 3622SOL    HW111765   1.400   6.010   6.219
 3622SOL    HW211766   1.529   5.913   6.240
 3623SOL     OW11767   1.121   5.920   5.821
 3623SOL    HW111768   1.032   5.964   5.810
 3623SOL    HW211769   1.184   5.954   5.751
 3624SOL     OW11770   2.502   2.259   2.036
 3624SOL    HW111771   2.576   2.262   2.104
 3624SOL    HW211772   2.452   2.173   2.045
 3625SOL     OW11773   6.802   2.277   0.732
 3625SOL    HW111774   6.779   2.344   0.803
 3625SOL    HW211775   6.896   2.246   0.745
 3626SOL     OW11776   1.800   3.083   5.578
 3626SOL    HW111777   1.785   3.179   5.553
 3626SOL    HW211778   1.725   3.052   5.636
 3627SOL     OW11779   3.493   1.749   2.332
 3627SOL    HW111780   3.403   1.760   2.374
 3627SOL    HW211781   3.547   1.832   2.347
 3628SOL     OW11782   6.074   1.685   1.907
 3628SOL    HW111783   6.132   1.652   1.832
 3628SOL    HW211784   6.128   1.741   1.969
 3629SOL     OW11785   1.847   1.564   4.505
 3629SOL    HW111786   1.888   1.648   4.540
 3629SOL    HW211787   1.756   1.552   4.544
 3630SOL     OW11788   6.668   2.004   2.097
 3630SOL    HW111789   6.756   1.957   2.091
 3630SOL    HW211790   6.627   1.986   2.187
 3631SOL     OW11791   1.989   6.497   2.453
 3631SOL    HW111792   1.920   6.449   2.508
 3631SOL    HW211793   1.945   6.535   2.371
 3632SOL     OW11794   4.913   3.521   2.112
 3632SOL    HW111795   4.928   3.470   2.027
 3632SOL    HW211796   4.821   3.504   2.146
 3633SOL     OW11797   4.143   4.424   0.099
 3633SOL    HW111798   4.073   4.491   0.124
 3633SOL    HW211799   4.222   4.435   0.159
 3634SOL     OW11800   3.029   5.071   6.612
 3634SOL    HW111801   3.056   5.004   6.543
 3634SOL    HW211802   3.026   5.162   6.571
 3635SOL     OW11803   0.864   6.627   2.000
 3635SOL    HW111804   0.793   6.613   2.069
 3635SOL    HW211805   0.954   6.622   2.043
 3636SOL     OW11806   0.389   5.399   5.992
 3636SOL    HW111807   0.356   5.308   6.017
 3636SOL    HW211808   0.314   5.453   5.954
 3637SOL     OW11809   5.876   3.090   0.228
 3637SOL    HW111810   5.944   3.034   0.181
 3637SOL    HW211811   5.870   3.179   0.183
 3638SOL     OW11812   6.838   3.389   3.167
 3638SOL    HW111813   6.753   3.402   3.116
 3638SOL    HW211814   6.828   3.310   3.229
 3639SOL     OW11815   3.997   3.216   4.159
 3639SOL    HW111816   3.935   3.182   4.088
 3639SOL    HW211817   3.996   3.153   4.236
 3640SOL     OW11818   4.205   2.242   1.687
 3640SOL    HW111819   4.260   2.321   1.713
 3640SOL    HW211820   4.112   2.271   1.665
 3641SOL     OW11821   6.239   3.666   2.298
 3641SOL    HW111822   6.150   3.706   2.320
 3641SOL    HW211823   6.252   3.581   2.350
 3642SOL     OW11824   5.002   3.606   6.721
 3642SOL    HW111825   4.956   3.690   6.693
 3642SOL    HW211826   4.935   3.542   6.759
 3643SOL     OW11827   4.176   6.172   5.121
 3643SOL    HW111828   4.115   6.242   5.160
 3643SOL    HW211829   4.179   6.093   5.182
 3644SOL     OW11830   3.064   0.673   1.992
 3644SOL    HW111831   3.102   0.728   1.917
 3644SOL    HW211832   2.964   0.672   1.986
 3645SOL     OW11833   1.350   3.909   3.507
 3645SOL    HW111834   1.332   4.005   3.482
 3645SOL    HW211835   1.388   3.860   3.429
 3646SOL     OW11836   1.643   5.237   6.238
 3646SOL    HW111837   1.603   5.329   6.236
 3646SOL    HW211838   1.698   5.227   6.322
 3647SOL     OW11839   3.032   6.883   6.983
 3647SOL    HW111840   3.126   6.850   6.982
 3647SOL    HW211841   2.977   6.830   6.919
 3648SOL     OW11842   4.662   4.917   3.117
 3648SOL    HW111843   4.750   4.945   3.154
 3648SOL    HW211844   4.654   4.948   3.022
 3649SOL     OW11845   5.718   2.247   0.514
 3649SOL    HW111846   5.653   2.322   0.522
 3649SOL    HW211847   5.699   2.178   0.584
 3650SOL     OW11848   5.193   5.686   6.187
 3650SOL    HW111849   5.201   5.654   6.093
 3650SOL    HW211850   5.205   5.609   6.250
 3651SOL     OW11851   0.863   2.026   5.780
 3651SOL    HW111852   0.939   1.962   5.788
 3651SOL    HW211853   0.799   2.012   5.857
 3652SOL     OW11854   4.459   1.866   2.376
 3652SOL    HW111855   4.403   1.926   2.320
 3652SOL    HW211856   4.524   1.921   2.430
 3653SOL     OW11857   1.803   1.360   0.516
 3653SOL    HW111858   1.851   1.292   0.571
 3653SOL    HW211859   1.861   1.390   0.440
 3654SOL     OW11860   4.567   6.747   1.980
 3654SOL    HW111861   4.521   6.835   1.985
 3654SOL    HW211862   4.643   6.753   1.915
 3655SOL     OW11863   1.036   0.434   3.804
 3655SOL    HW111864   1.007   0.518   3.757
 3655SOL    HW211865   1.006   0.354   3.752
 3656SOL     OW11866   0.110   0.027   1.355
 3656SOL    HW111867   0.134   6.959   1.308
 3656SOL    HW211868   0.023   0.062   1.320
 3657SOL     OW11869   5.627   5.274   6.135
 3657SOL    HW111870   5.557   5.208   6.163
 3657SOL    HW211871   5.608   5.305   6.042
 3658SOL     OW11872   1.858   4.678   5.469
 3658SOL    HW111873   1.802   4.754   5.436
 3658SOL    HW211874   1.874   4.614   5.394
 3659SOL     OW11875   0.523   2.927   6.707
 3659SOL    HW111876   0.528   3.007   6.648
 3659SOL    HW211877   0.441   2.874   6.685
 3660SOL     OW11878   4.214   5.275   5.638
 3660SOL    HW111879   4.174   5.293   5.548
 3660SOL    HW211880   4.281   5.345   5.660
 3661SOL     OW11881   0.207   1.379   4.535
 3661SOL    HW111882   0.287   1.419   4.580
 3661SOL    HW211883   0.171   1.444   4.468
 3662SOL     OW11884   3.171   1.790   5.465
 3662SOL    HW111885   3.118   1.721   5.515
 3662SOL    HW211886   3.114   1.869   5.447
 3663SOL     OW11887   2.361   2.662   6.717
 3663SOL    HW111888   2.358   2.696   6.623
 3663SOL    HW211889   2.337   2.736   6.780
 3664SOL     OW11890   3.070   1.846   1.065
 3664SOL    HW111891   3.126   1.825   1.146
 3664SOL    HW211892   3.021   1.932   1.081
 3665SOL     OW11893   6.852   5.219   5.457
 3665SOL    HW111894   6.790   5.273   5.515
 3665SOL    HW211895   6.909   5.281   5.402
 3666SOL     OW11896   2.088   3.624   4.179
 3666SOL    HW111897   2.131   3.603   4.266
 3666SOL    HW211898   2.116   3.558   4.110
 3667SOL     OW11899   1.709   6.979   0.811
 3667SOL    HW111900   1.679   6.899   0.863
 3667SOL    HW211901   1.690   0.046   0.863
 3668SOL     OW11902   5.785   1.379   0.920
 3668SOL    HW111903   5.852   1.307   0.939
 3668SOL    HW211904   5.775   1.389   0.821
 3669SOL     OW11905   0.295   0.906   2.646
 3669SOL    HW111906   0.245   0.834   2.598
 3669SOL    HW211907   0.239   0.989   2.650
 3670SOL     OW11908   2.275   6.797   1.646
 3670SOL    HW111909   2.340   6.802   1.723
 3670SOL    HW211910   2.303   6.862   1.575
 3671SOL     OW11911   0.170   0.680   4.864
 3671SOL    HW111912   0.140   0.635   4.779
 3671SOL    HW211913   0.200   0.610   4.929
 3672SOL     OW11914   4.036   6.836   3.626
 3672SOL    HW111915   4.041   6.763   3.559
 3672SOL    HW211916   4.106   6.822   3.696
 3673SOL     OW11917   3.135   0.706   1.604
 3673SOL    HW111918   3.131   0.760   1.688
 3673SOL    HW211919   3.101   0.613   1.623
 3674SOL     OW11920   0.612   4.439   6.123
 3674SOL    HW111921   0.641   4.345   6.103
 3674SOL    HW211922   0.693   4.498   6.128
 3675SOL     OW11923   0.104   0.798   4.190
 3675SOL    HW111924   0.017   0.821   4.232
 3675SOL    HW211925   0.111   0.842   4.100
 3676SOL     OW11926   3.635   0.914   5.313
 3676SOL    HW111927   3.701   0.957   5.374
 3676SOL    HW211928   3.563   0.871   5.367
 3677SOL     OW11929   1.654   1.266   4.351
 3677SOL    HW111930   1.744   1.221   4.356
 3677SOL    HW211931   1.649   1.338   4.421
 3678SOL     OW11932   1.967   1.043   3.465
 3678SOL    HW111933   1.907   1.120   3.441
 3678SOL    HW211934   2.056   1.079   3.495
 3679SOL     OW11935   3.355   0.532   2.740
 3679SOL    HW111936   3.444   0.578   2.748
 3679SOL    HW211937   3.326   0.500   2.831
 3680SOL     OW11938   3.100   2.090   4.526
 3680SOL    HW111939   3.110   2.046   4.614
 3680SOL    HW211940   3.191   2.116   4.491
 3681SOL     OW11941   0.977   6.752   4.209
 3681SOL    HW111942   0.994   6.748   4.308
 3681SOL    HW211943   1.064   6.752   4.160
 3682SOL     OW11944   5.377   2.334   1.222
 3682SOL    HW111945   5.400   2.402   1.290
 3682SOL    HW211946   5.282   2.346   1.193
 3683SOL     OW11947   6.640   1.237   0.762
 3683SOL    HW111948   6.719   1.196   0.808
 3683SOL    HW211949   6.654   1.233   0.663
 3684SOL     OW11950   2.769   6.202   5.642
 3684SOL    HW111951   2.773   6.146   5.724
 3684SOL    HW211952   2.698   6.272   5.653
 3685SOL     OW11953   2.078   5.947   3.891
 3685SOL    HW111954   2.144   5.903   3.830
 3685SOL    HW211955   2.053   5.883   3.964
 3686SOL     OW11956   6.863   3.969   0.197
 3686SOL    HW111957   6.907   3.978   0.287
 3686SOL    HW211958   6.816   3.881   0.191
 3687SOL     OW11959   6.109   4.507   4.398
 3687SOL    HW111960   6.165   4.451   4.338
 3687SOL    HW211961   6.162   4.587   4.427
 3688SOL     OW11962   6.662   2.899   1.524
 3688SOL    HW111963   6.618   2.870   1.609
 3688SOL    HW211964   6.738   2.837   1.503
 3689SOL     OW11965   1.068   0.879   5.919
 3689SOL    HW111966   1.073   0.915   6.012
 3689SOL    HW211967   1.083   0.780   5.921
 3690SOL     OW11968   5.774   4.705   1.803
 3690SOL    HW111969   5.872   4.705   1.782
 3690SOL    HW211970   5.728   4.771   1.745
 3691SOL     OW11971   1.570   2.551   0.635
 3691SOL    HW111972   1.534   2.458   0.626
 3691SOL    HW211973   1.669   2.549   0.622
 3692SOL     OW11974   1.037   3.157   5.492
 3692SOL    HW111975   1.068   3.090   5.426
 3692SOL    HW211976   1.053   3.123   5.585
 3693SOL     OW11977   0.075   1.509   2.530
 3693SOL    HW111978   0.102   1.471   2.618
 3693SOL    HW211979   0.066   1.436   2.463
 3694SOL     OW11980   6.725   6.867   2.375
 3694SOL    HW111981   6.744   6.938   2.307
 3694SOL    HW211982   6.668   6.796   2.334
 3695SOL     OW11983   6.054   3.801   3.543
 3695SOL    HW111984   5.974   3.819   3.600
 3695SOL    HW211985   6.128   3.864   3.568
 3696SOL     OW11986   4.461   0.508   4.127
 3696SOL    HW111987   4.424   0.530   4.037
 3696SOL    HW211988   4.496   0.591   4.170
 3697SOL     OW11989   6.468   5.550   2.701
 3697SOL    HW111990   6.460   5.551   2.801
 3697SOL    HW211991   6.422   5.470   2.665
 3698SOL     OW11992   2.016   6.975   3.920
 3698SOL    HW111993   2.051   0.009   3.841
 3698SOL    HW211994   2.053   6.882   3.919
 3699SOL     OW11995   2.506   2.469   3.511
 3699SOL    HW111996   2.430   2.406   3.527
 3699SOL    HW211997   2.469   2.559   3.487
 3700SOL     OW11998   0.916   5.004   4.899
 3700SOL    HW111999   0.991   4.971   4.956
 3700SOL    HW212000   0.943   4.999   4.803
 3701SOL     OW12001   0.378   1.209   2.119
 3701SOL    HW112002   0.360   1.151   2.198
 3701SOL    HW212003   0.447   1.166   2.061
 3702SOL     OW12004   6.814   4.382   3.492
 3702SOL    HW112005   6.741   4.402   3.427
 3702SOL    HW212006   6.902   4.381   3.444
 3703SOL     OW12007   1.143   1.646   3.421
 3703SOL    HW112008   1.211   1.574   3.435
 3703SOL    HW212009   1.182   1.719   3.365
 3704SOL     OW12010   6.280   0.354   0.835
 3704SOL    HW112011   6.244   0.442   0.865
 3704SOL    HW212012   6.279   0.290   0.912
 3705SOL     OW12013   6.251   4.226   3.778
 3705SOL    HW112014   6.295   4.179   3.854
 3705SOL    HW212015   6.165   4.267   3.810
 3706SOL     OW12016   0.796   5.191   6.338
 3706SOL    HW112017   0.764   5.117   6.398
 3706SOL    HW212018   0.808   5.155   6.246
 3707SOL     OW12019   1.011   4.722   3.280
 3707SOL    HW112020   1.002   4.650   3.349
 3707SOL    HW212021   1.107   4.748   3.270
 3708SOL     OW12022   1.388   6.328   0.456
 3708SOL    HW112023   1.468   6.303   0.511
 3708SOL    HW212024   1.386   6.273   0.373
 3709SOL     OW12025   0.850   1.715   2.390
 3709SOL    HW112026   0.915   1.755   2.454
 3709SOL    HW212027   0.859   1.761   2.301
 3710SOL     OW12028   1.911   3.673   4.796
 3710SOL    HW112029   1.944   3.580   4.781
 3710SOL    HW212030   1.988   3.734   4.813
 3711SOL     OW12031   2.040   5.573   5.039
 3711SOL    HW112032   1.990   5.499   5.084
 3711SOL    HW212033   1.976   5.642   5.006
 3712SOL     OW12034   3.016   5.482   4.372
 3712SOL    HW112035   3.060   5.401   4.333
 3712SOL    HW212036   3.066   5.513   4.452
 3713SOL     OW12037   6.019   0.139   5.108
 3713SOL    HW112038   6.050   0.160   5.201
 3713SOL    HW212039   5.971   0.052   5.108
 3714SOL     OW12040   0.264   4.192   6.883
 3714SOL    HW112041   0.212   4.109   6.900
 3714SOL    HW212042   0.350   4.169   6.838
 3715SOL     OW12043   6.481   4.427   3.789
 3715SOL    HW112044   6.522   4.456   3.703
 3715SOL    HW212045   6.447   4.334   3.781
 3716SOL     OW12046   5.579   5.774   5.667
 3716SOL    HW112047   5.593   5.820   5.755
 3716SOL    HW212048   5.594   5.839   5.593
 3717SOL     OW12049   4.377   0.444   1.107
 3717SOL    HW112050   4.439   0.399   1.171
 3717SOL    HW212051   4.407   0.538   1.092
 3718SOL     OW12052   5.689   6.847   6.536
 3718SOL    HW112053   5.752   6.921   6.515
 3718SOL    HW212054   5.611   6.851   6.474
 3719SOL     OW12055   2.891   4.427   0.532
 3719SOL    HW112056   2.983   4.432   0.569
 3719SOL    HW212057   2.839   4.508   0.561
 3720SOL     OW12058   6.983   2.777   1.163
 3720SOL    HW112059   6.944   2.764   1.072
 3720SOL    HW212060   6.970   2.872   1.191
 3721SOL     OW12061   6.035   0.215   5.386
 3721SOL    HW112062   6.111   0.280   5.394
 3721SOL    HW212063   6.066   0.125   5.416
 3722SOL     OW12064   5.881   6.562   1.786
 3722SOL    HW112065   5.923   6.543   1.874
 3722SOL    HW212066   5.915   6.650   1.751
 3723SOL     OW12067   4.957   3.967   6.368
 3723SOL    HW112068   4.991   4.061   6.356
 3723SOL    HW212069   4.881   3.951   6.305
 3724SOL     OW12070   0.185   4.423   4.490
 3724SOL    HW112071   0.122   4.458   4.421
 3724SOL    HW212072   0.260   4.375   4.445
 3725SOL     OW12073   1.260   5.525   0.069
 3725SOL    HW112074   1.195   5.480   0.009
 3725SOL    HW212075   1.220   5.535   0.160
 3726SOL     OW12076   6.326   3.804   5.575
 3726SOL    HW112077   6.397   3.811   5.646
 3726SOL    HW212078   6.239   3.835   5.612
 3727SOL     OW12079   6.771   2.423   3.865
 3727SOL    HW112080   6.712   2.396   3.789
 3727SOL    HW212081   6.843   2.484   3.832
 3728SOL     OW12082   2.126   4.084   0.897
 3728SOL    HW112083   2.171   4.166   0.862
 3728SOL    HW212084   2.175   4.003   0.864
 3729SOL     OW12085   0.305   6.854   5.704
 3729SOL    HW112086   0.253   6.878   5.786
 3729SOL    HW212087   0.403   6.858   5.723
 3730SOL     OW12088   5.021   5.139   4.797
 3730SOL    HW112089   4.964   5.063   4.828
 3730SOL    HW212090   5.078   5.171   4.873
 3731SOL     OW12091   0.369   2.236   0.656
 3731SOL    HW112092   0.365   2.328   0.694
 3731SOL    HW212093   0.277   2.195   0.658
 3732SOL     OW12094   3.809   3.081   6.758
 3732SOL    HW112095   3.729   3.034   6.721
 3732SOL    HW212096   3.803   3.178   6.739
 3733SOL     OW12097   1.384   0.821   3.533
 3733SOL    HW112098   1.385   0.921   3.521
 3733SOL    HW212099   1.439   0.797   3.613
 3734SOL     OW12100   3.777   6.892   1.861
 3734SOL    HW112101   3.808   6.977   1.903
 3734SOL    HW212102   3.718   6.912   1.783
 3735SOL     OW12103   4.521   0.583   2.981
 3735SOL    HW112104   4.467   0.531   3.047
 3735SOL    HW212105   4.497   0.554   2.888
 3736SOL     OW12106   0.203   1.335   0.357
 3736SOL    HW112107   0.161   1.416   0.399
 3736SOL    HW212108   0.263   1.290   0.424
 3737SOL     OW12109   5.982   2.207   3.157
 3737SOL    HW112110   6.021   2.116   3.144
 3737SOL    HW212111   6.056   2.274   3.166
 3738SOL     OW12112   0.427   0.525   1.071
 3738SOL    HW112113   0.434   0.586   0.992
 3738SOL    HW212114   0.422   0.579   1.155
 3739SOL     OW12115   2.972   4.285   6.785
 3739SOL    HW112116   2.873   4.272   6.791
 3739SOL    HW212117   3.011   4.288   6.877
 3740SOL     OW12118   5.687   6.107   6.677
 3740SOL    HW112119   5.722   6.068   6.762
 3740SOL    HW212120   5.756   6.096   6.605
 3741SOL     OW12121   5.240   3.729   0.247
 3741SOL    HW112122   5.155   3.685   0.276
 3741SOL    HW212123   5.315   3.699   0.306
 3742SOL     OW12124   4.575   5.625   0.940
 3742SOL    HW112125   4.564   5.631   0.841
 3742SOL    HW212126   4.598   5.716   0.976
 3743SOL     OW12127   2.800   3.992   0.779
 3743SOL    HW112128   2.715   4.043   0.793
 3743SOL    HW212129   2.781   3.894   0.781
 3744SOL     OW12130   6.452   6.029   2.558
 3744SOL    HW112131   6.361   6.026   2.518
 3744SOL    HW212132   6.484   5.935   2.575
 3745SOL     OW12133   5.011   2.594   2.839
 3745SOL    HW112134   4.996   2.509   2.890
 3745SOL    HW212135   5.007   2.575   2.741
 3746SOL     OW12136   5.379   0.350   4.826
 3746SOL    HW112137   5.308   0.280   4.830
 3746SOL    HW212138   5.374   0.398   4.738
 3747SOL     OW12139   2.942   6.030   5.311
 3747SOL    HW112140   2.932   6.129   5.300
 3747SOL    HW212141   2.871   5.984   5.257
 3748SOL     OW12142   5.091   2.403   3.831
 3748SOL    HW112143   5.179   2.369   3.864
 3748SOL    HW212144   5.058   2.343   3.759
 3749SOL     OW12145   6.631   6.646   2.251
 3749SOL    HW112146   6.540   6.687   2.255
 3749SOL    HW212147   6.634   6.580   2.177
 3750SOL     OW12148   5.638   4.038   1.172
 3750SOL    HW112149   5.661   4.117   1.229
 3750SOL    HW212150   5.706   3.965   1.188
 3751SOL     OW12151   0.905   4.311   1.891
 3751SOL    HW112152   0.931   4.238   1.955
 3751SOL    HW212153   0.814   4.345   1.915
 3752SOL     OW12154   0.569   6.631   6.111
 3752SOL    HW112155   0.504   6.700   6.142
 3752SOL    HW212156   0.660   6.652   6.146
 3753SOL     OW12157   0.246   0.517   5.061
 3753SOL    HW112158   0.284   0.586   5.123
 3753SOL    HW212159   0.206   0.443   5.114
 3754SOL     OW12160   6.487   6.273   1.546
 3754SOL    HW112161   6.587   6.282   1.548
 3754SOL    HW212162   6.446   6.362   1.525
 3755SOL     OW12163   4.840   2.804   2.770
 3755SOL    HW112164   4.881   2.860   2.697
 3755SOL    HW212165   4.902   2.728   2.792
 3756SOL     OW12166   3.272   0.244   6.941
 3756SOL    HW112167   3.310   0.152   6.957
 3756SOL    HW212168   3.185   0.236   6.893
 3757SOL     OW12169   3.881   4.950   6.698
 3757SOL    HW112170   3.831   4.982   6.778
 3757SOL    HW212171   3.857   5.006   6.619
 3758SOL     OW12172   6.907   0.529   2.621
 3758SOL    HW112173   6.923   0.624   2.646
 3758SOL    HW212174   6.978   0.471   2.661
 3759SOL     OW12175   4.961   5.217   0.816
 3759SOL    HW112176   4.884   5.157   0.797
 3759SOL    HW212177   4.956   5.297   0.756
 3760SOL     OW12178   1.899   1.966   5.731
 3760SOL    HW112179   1.946   2.054   5.740
 3760SOL    HW212180   1.847   1.947   5.814
 3761SOL     OW12181   6.895   6.306   4.364
 3761SOL    HW112182   6.908   6.207   4.366
 3761SOL    HW212183   6.974   6.350   4.321
 3762SOL     OW12184   0.962   3.199   0.296
 3762SOL    HW112185   0.975   3.224   0.391
 3762SOL    HW212186   0.886   3.251   0.257
 3763SOL     OW12187   6.621   3.628   5.634
 3763SOL    HW112188   6.708   3.632   5.683
 3763SOL    HW212189   6.550   3.672   5.690
 3764SOL     OW12190   2.915   6.776   4.064
 3764SOL    HW112191   2.949   6.688   4.098
 3764SOL    HW212192   2.823   6.792   4.098
 3765SOL     OW12193   5.879   1.571   3.410
 3765SOL    HW112194   5.910   1.531   3.496
 3765SOL    HW212195   5.950   1.632   3.374
 3766SOL     OW12196   1.633   0.793   5.138
 3766SOL    HW112197   1.613   0.695   5.139
 3766SOL    HW212198   1.556   0.842   5.099
 3767SOL     OW12199   0.666   4.461   0.194
 3767SOL    HW112200   0.700   4.436   0.285
 3767SOL    HW212201   0.714   4.408   0.125
 3768SOL     OW12202   4.229   6.863   1.312
 3768SOL    HW112203   4.211   6.960   1.325
 3768SOL    HW212204   4.234   6.818   1.402
 3769SOL     OW12205   4.584   0.004   4.910
 3769SOL    HW112206   4.562   6.957   4.836
 3769SOL    HW212207   4.591   6.970   4.996
 3770SOL     OW12208   2.534   2.270   0.736
 3770SOL    HW112209   2.485   2.356   0.722
 3770SOL    HW212210   2.617   2.270   0.681
 3771SOL     OW12211   4.476   1.925   5.372
 3771SOL    HW112212   4.510   1.987   5.442
 3771SOL    HW212213   4.441   1.842   5.416
 3772SOL     OW12214   4.944   0.497   2.412
 3772SOL    HW112215   4.869   0.542   2.364
 3772SOL    HW212216   5.025   0.494   2.353
 3773SOL     OW12217   6.608   1.886   0.497
 3773SOL    HW112218   6.637   1.795   0.525
 3773SOL    HW212219   6.572   1.936   0.576
 3774SOL     OW12220   1.033   2.144   2.247
 3774SOL    HW112221   0.936   2.145   2.225
 3774SOL    HW212222   1.056   2.221   2.306
 3775SOL     OW12223   5.651   3.163   3.632
 3775SOL    HW112224   5.681   3.241   3.688
 3775SOL    HW212225   5.728   3.102   3.614
 3776SOL     OW12226   2.938   2.832   6.652
 3776SOL    HW112227   3.036   2.846   6.655
 3776SOL    HW212228   2.894   2.907   6.602
 3777SOL     OW12229   1.086   3.858   3.049
 3777SOL    HW112230   1.181   3.887   3.039
 3777SOL    HW212231   1.079   3.759   3.040
 3778SOL     OW12232   2.778   6.566   2.006
 3778SOL    HW112233   2.696   6.621   2.023
 3778SOL    HW212234   2.801   6.514   2.088
 3779SOL     OW12235   2.045   4.663   0.133
 3779SOL    HW112236   1.996   4.706   0.209
 3779SOL    HW212237   2.017   4.567   0.125
 3780SOL     OW12238   2.830   0.312   3.949
 3780SOL    HW112239   2.791   0.224   3.977
 3780SOL    HW212240   2.759   0.369   3.909
 3781SOL     OW12241   2.759   5.491   5.131
 3781SOL    HW112242   2.709   5.475   5.216
 3781SOL    HW212243   2.854   5.463   5.142
 3782SOL     OW12244   2.663   1.187   2.883
 3782SOL    HW112245   2.740   1.135   2.919
 3782SOL    HW212246   2.677   1.205   2.786
 3783SOL     OW12247   5.088   5.668   5.142
 3783SOL    HW112248   5.178   5.627   5.148
 3783SOL    HW212249   5.022   5.601   5.107
 3784SOL     OW12250   4.947   2.243   4.287
 3784SOL    HW112251   4.856   2.225   4.252
 3784SOL    HW212252   4.957   2.206   4.379
 3785SOL     OW12253   1.259   1.663   2.114
 3785SOL    HW112254   1.316   1.581   2.113
 3785SOL    HW212255   1.297   1.730   2.177
 3786SOL     OW12256   3.256   6.277   2.661
 3786SOL    HW112257   3.186   6.275   2.589
 3786SOL    HW212258   3.246   6.196   2.719
 3787SOL     OW12259   4.422   1.170   4.061
 3787SOL    HW112260   4.390   1.257   4.098
 3787SOL    HW212261   4.469   1.118   4.133
 3788SOL     OW12262   6.396   3.463   2.155
 3788SOL    HW112263   6.347   3.518   2.222
 3788SOL    HW212264   6.473   3.515   2.118
 3789SOL     OW12265   1.378   5.554   2.312
 3789SOL    HW112266   1.450   5.532   2.247
 3789SOL    HW212267   1.291   5.516   2.280
 3790SOL     OW12268   2.081   3.325   3.054
 3790SOL    HW112269   2.083   3.293   2.959
 3790SOL    HW212270   2.087   3.425   3.056
 3791SOL     OW12271   6.344   0.831   2.515
 3791SOL    HW112272   6.259   0.784   2.493
 3791SOL    HW212273   6.336   0.928   2.493
 3792SOL     OW12274   0.376   6.948   6.142
 3792SOL    HW112275   0.340   6.885   6.211
 3792SOL    HW212276   0.381   0.024   6.180
 3793SOL     OW12277   1.353   6.436   3.078
 3793SOL    HW112278   1.337   6.387   2.993
 3793SOL    HW212279   1.278   6.419   3.141
 3794SOL     OW12280   4.028   6.626   3.438
 3794SOL    HW112281   4.086   6.667   3.367
 3794SOL    HW212282   3.968   6.558   3.397
 3795SOL     OW12283   5.453   0.082   0.920
 3795SOL    HW112284   5.516   0.058   0.846
 3795SOL    HW212285   5.501   0.140   0.986
 3796SOL     OW12286   1.214   3.226   0.963
 3796SOL    HW112287   1.302   3.191   0.933
 3796SOL    HW212288   1.162   3.153   1.007
 3797SOL     OW12289   0.050   5.397   1.922
 3797SOL    HW112290   0.113   5.470   1.949
 3797SOL    HW212291   0.069   5.316   1.978
 3798SOL     OW12292   0.807   3.975   1.166
 3798SOL    HW112293   0.799   3.906   1.093
 3798SOL    HW212294   0.835   3.930   1.251
 3799SOL     OW12295   1.412   0.505   4.975
 3799SOL    HW112296   1.336   0.566   4.997
 3799SOL    HW212297   1.474   0.497   5.053
 3800SOL     OW12298   5.309   2.641   5.334
 3800SOL    HW112299   5.383   2.579   5.307
 3800SOL    HW212300   5.329   2.733   5.299
 3801SOL     OW12301   6.862   6.870   6.639
 3801SOL    HW112302   6.854   6.869   6.539
 3801SOL    HW212303   6.889   6.961   6.670
 3802SOL     OW12304   1.420   2.327   5.335
 3802SOL    HW112305   1.445   2.230   5.334
 3802SOL    HW212306   1.500   2.382   5.356
 3803SOL     OW12307   4.058   1.139   1.354
 3803SOL    HW112308   4.028   1.159   1.447
 3803SOL    HW212309   4.157   1.150   1.348
 3804SOL     OW12310   4.880   2.906   5.018
 3804SOL    HW112311   4.893   2.986   5.076
 3804SOL    HW212312   4.968   2.881   4.976
 3805SOL     OW12313   1.816   3.688   1.937
 3805SOL    HW112314   1.903   3.728   1.967
 3805SOL    HW212315   1.744   3.758   1.940
 3806SOL     OW12316   3.526   1.360   0.872
 3806SOL    HW112317   3.503   1.306   0.791
 3806SOL    HW212318   3.607   1.322   0.916
 3807SOL     OW12319   1.585   0.210   3.017
 3807SOL    HW112320   1.643   0.289   2.996
 3807SOL    HW212321   1.507   0.208   2.953
 3808SOL     OW12322   2.894   0.404   0.825
 3808SOL    HW112323   2.972   0.413   0.888
 3808SOL    HW212324   2.821   0.355   0.871
 3809SOL     OW12325   3.889   0.292   6.761
 3809SOL    HW112326   3.957   0.222   6.738
 3809SOL    HW212327   3.931   0.382   6.752
 3810SOL     OW12328   2.161   3.433   6.151
 3810SOL    HW112329   2.180   3.452   6.247
 3810SOL    HW212330   2.193   3.341   6.129
 3811SOL     OW12331   1.264   0.682   5.968
 3811SOL    HW112332   1.297   0.715   5.880
 3811SOL    HW212333   1.214   0.596   5.955
 3812SOL     OW12334   5.434   0.920   5.746
 3812SOL    HW112335   5.440   0.847   5.677
 3812SOL    HW212336   5.526   0.951   5.769
 3813SOL     OW12337   3.877   4.875   1.951
 3813SOL    HW112338   3.778   4.859   1.953
 3813SOL    HW212339   3.920   4.807   1.893
 3814SOL     OW12340   1.961   0.709   2.020
 3814SOL    HW112341   1.914   0.621   2.026
 3814SOL    HW212342   1.915   0.766   1.951
 3815SOL     OW12343   5.625   1.952   1.749
 3815SOL    HW112344   5.682   2.021   1.795
 3815SOL    HW212345   5.555   1.998   1.694
 3816SOL     OW12346   0.189   6.499   1.326
 3816SOL    HW112347   0.213   6.414   1.278
 3816SOL    HW212348   0.271   6.554   1.339
 3817SOL     OW12349   4.755   1.347   5.714
 3817SOL    HW112350   4.693   1.402   5.771
 3817SOL    HW212351   4.840   1.330   5.763
 3818SOL     OW12352   4.621   5.333   3.063
 3818SOL    HW112353   4.705   5.326   3.009
 3818SOL    HW212354   4.628   5.412   3.125
 3819SOL     OW12355   6.267   4.568   6.088
 3819SOL    HW112356   6.242   4.488   6.034
 3819SOL    HW212357   6.358   4.556   6.127
 3820SOL     OW12358   4.993   6.234   3.388
 3820SOL    HW112359   5.029   6.327   3.392
 3820SOL    HW212360   4.960   6.207   3.478
 3821SOL     OW12361   6.993   4.461   1.456
 3821SOL    HW112362   0.023   4.432   1.540
 3821SOL    HW212363   6.904   4.415   1.449
 3822SOL     OW12364   0.767   4.740   1.612
 3822SOL    HW112365   0.821   4.711   1.533
 3822SOL    HW212366   0.681   4.690   1.614
 3823SOL     OW12367   2.580   3.200   5.782
 3823SOL    HW112368   2.640   3.279   5.792
 3823SOL    HW212369   2.602   3.151   5.698
 3824SOL     OW12370   6.887   2.099   6.276
 3824SOL    HW112371   6.971   2.148   6.299
 3824SOL    HW212372   6.841   2.071   6.361
 3825SOL     OW12373   6.276   6.364   5.863
 3825SOL    HW112374   6.317   6.453   5.884
 3825SOL    HW212375   6.176   6.372   5.864
 3826SOL     OW12376   6.829   1.988   1.091
 3826SOL    HW112377   6.786   2.071   1.055
 3826SOL    HW212378   6.758   1.925   1.122
 3827SOL     OW12379   5.647   2.336   1.050
 3827SOL    HW112380   5.736   2.356   1.092
 3827SOL    HW212381   5.574   2.355   1.116
 3828SOL     OW12382   4.319   1.057   1.503
 3828SOL    HW112383   4.322   1.157   1.505
 3828SOL    HW212384   4.358   1.024   1.417
 3829SOL     OW12385   1.168   4.822   3.575
 3829SOL    HW112386   1.134   4.898   3.520
 3829SOL    HW212387   1.111   4.741   3.558
 3830SOL     OW12388   3.283   0.544   5.286
 3830SOL    HW112389   3.309   0.470   5.347
 3830SOL    HW212390   3.209   0.514   5.226
 3831SOL     OW12391   4.823   1.531   1.941
 3831SOL    HW112392   4.799   1.623   1.910
 3831SOL    HW212393   4.742   1.488   1.982
 3832SOL     OW12394   5.466   6.942   2.622
 3832SOL    HW112395   5.401   6.962   2.549
 3832SOL    HW212396   5.524   6.865   2.594
 3833SOL     OW12397   1.497   6.485   1.539
 3833SOL    HW112398   1.503   6.392   1.577
 3833SOL    HW212399   1.417   6.531   1.577
 3834SOL     OW12400   2.752   2.825   0.753
 3834SOL    HW112401   2.834   2.882   0.758
 3834SOL    HW212402   2.769   2.738   0.800
 3835SOL     OW12403   3.568   5.704   4.054
 3835SOL    HW112404   3.604   5.612   4.066
 3835SOL    HW212405   3.626   5.756   3.991
 3836SOL     OW12406   1.440   3.128   5.455
 3836SOL    HW112407   1.471   3.203   5.513
 3836SOL    HW212408   1.466   3.147   5.360
 3837SOL     OW12409   3.215   3.421   6.766
 3837SOL    HW112410   3.171   3.511   6.756
 3837SOL    HW212411   3.314   3.433   6.763
 3838SOL     OW12412   5.956   3.004   5.137
 3838SOL    HW112413   5.911   3.061   5.207
 3838SOL    HW212414   6.040   3.049   5.106
 3839SOL     OW12415   0.215   6.194   6.222
 3839SOL    HW112416   0.244   6.246   6.302
 3839SOL    HW212417   0.116   6.194   6.215
 3840SOL     OW12418   2.432   0.744   3.556
 3840SOL    HW112419   2.341   0.712   3.582
 3840SOL    HW212420   2.488   0.756   3.638
 3841SOL     OW12421   0.901   3.853   4.500
 3841SOL    HW112422   0.920   3.939   4.547
 3841SOL    HW212423   0.983   3.824   4.450
 3842SOL     OW12424   1.646   5.279   7.001
 3842SOL    HW112425   1.700   5.344   6.949
 3842SOL    HW212426   1.706   5.220   0.039
 3843SOL     OW12427   5.617   4.160   0.441
 3843SOL    HW112428   5.522   4.183   0.463
 3843SOL    HW212429   5.641   4.198   0.352
 3844SOL     OW12430   2.673   4.383   5.850
 3844SOL    HW112431   2.630   4.401   5.939
 3844SOL    HW212432   2.613   4.414   5.777
 3845SOL     OW12433   3.386   3.406   3.403
 3845SOL    HW112434   3.370   3.403   3.305
 3845SOL    HW212435   3.367   3.316   3.443
 3846SOL     OW12436   6.845   4.224   3.939
 3846SOL    HW112437   6.857   4.216   3.840
 3846SOL    HW212438   6.932   4.253   3.981
 3847SOL     OW12439   0.766   6.930   0.825
 3847SOL    HW112440   0.848   6.942   0.769
 3847SOL    HW212441   0.757   7.008   0.887
 3848SOL     OW12442   2.746   5.661   1.664
 3848SOL    HW112443   2.836   5.621   1.680
 3848SOL    HW212444   2.701   5.677   1.752
 3849SOL     OW12445   2.401   1.468   6.071
 3849SOL    HW112446   2.357   1.390   6.025
 3849SOL    HW212447   2.434   1.438   6.161
 3850SOL     OW12448   1.893   3.850   1.551
 3850SOL    HW112449   1.909   3.764   1.600
 3850SOL    HW212450   1.938   3.925   1.599
 3851SOL     OW12451   2.886   2.725   1.183
 3851SOL    HW112452   2.924   2.699   1.094
 3851SOL    HW212453   2.821   2.799   1.171
 3852SOL     OW12454   4.227   1.172   5.090
 3852SOL    HW112455   4.276   1.214   5.014
 3852SOL    HW212456   4.129   1.185   5.078
 3853SOL     OW12457   1.175   3.020   1.771
 3853SOL    HW112458   1.239   2.943   1.769
 3853SOL    HW212459   1.223   3.104   1.744
 3854SOL     OW12460   1.492   3.037   4.315
 3854SOL    HW112461   1.544   3.121   4.328
 3854SOL    HW212462   1.394   3.055   4.329
 3855SOL     OW12463   6.831   1.590   5.049
 3855SOL    HW112464   6.863   1.626   4.961
 3855SOL    HW212465   6.770   1.513   5.033
 3856SOL     OW12466   0.818   6.283   5.728
 3856SOL    HW112467   0.759   6.313   5.653
 3856SOL    HW212468   0.810   6.347   5.805
 3857SOL     OW12469   0.869   0.397   6.366
 3857SOL    HW112470   0.918   0.328   6.419
 3857SOL    HW212471   0.930   0.475   6.349
 3858SOL     OW12472   2.689   5.422   0.056
 3858SOL    HW112473   2.682   5.393   0.152
 3858SOL    HW212474   2.785   5.419   0.027
 3859SOL     OW12475   6.231   2.771   2.090
 3859SOL    HW112476   6.168   2.803   2.161
 3859SOL    HW212477   6.241   2.671   2.097
 3860SOL     OW12478   2.367   6.129   5.308
 3860SOL    HW112479   2.323   6.196   5.249
 3860SOL    HW212480   2.327   6.039   5.293
 3861SOL     OW12481   3.991   4.397   0.412
 3861SOL    HW112482   3.932   4.370   0.488
 3861SOL    HW212483   4.020   4.315   0.363
 3862SOL     OW12484   0.410   5.783   5.460
 3862SOL    HW112485   0.469   5.859   5.487
 3862SOL    HW212486   0.451   5.736   5.381
 3863SOL     OW12487   2.935   3.866   0.580
 3863SOL    HW112488   2.892   3.922   0.652
 3863SOL    HW212489   2.999   3.802   0.622
 3864SOL     OW12490   2.972   1.794   0.811
 3864SOL    HW112491   2.984   1.821   0.906
 3864SOL    HW212492   2.898   1.847   0.770
 3865SOL     OW12493   4.127   0.710   2.257
 3865SOL    HW112494   4.081   0.642   2.199
 3865SOL    HW212495   4.224   0.686   2.265
 3866SOL     OW12496   2.944   6.379   6.481
 3866SOL    HW112497   2.991   6.456   6.438
 3866SOL    HW212498   2.876   6.414   6.546
 3867SOL     OW12499   1.524   4.759   3.341
 3867SOL    HW112500   1.527   4.859   3.344
 3867SOL    HW212501   1.617   4.723   3.332
 3868SOL     OW12502   2.760   5.800   2.557
 3868SOL    HW112503   2.837   5.754   2.602
 3868SOL    HW212504   2.680   5.740   2.559
 3869SOL     OW12505   0.259   1.236   3.949
 3869SOL    HW112506   0.330   1.252   4.018
 3869SOL    HW212507   0.292   1.265   3.859
 3870SOL     OW12508   3.623   4.286   0.422
 3870SOL    HW112509   3.683   4.206   0.422
 3870SOL    HW212510   3.677   4.368   0.402
 3871SOL     OW12511   3.145   1.317   5.026
 3871SOL    HW112512   3.139   1.305   4.927
 3871SOL    HW212513   3.063   1.363   5.059
 3872SOL     OW12514   4.362   3.725   1.155
 3872SOL    HW112515   4.271   3.766   1.150
 3872SOL    HW212516   4.418   3.774   1.222
 3873SOL     OW12517   5.655   4.891   2.029
 3873SOL    HW112518   5.672   4.840   1.944
 3873SOL    HW212519   5.743   4.913   2.072
 3874SOL     OW12520   4.373   5.501   5.781
 3874SOL    HW112521   4.449   5.523   5.720
 3874SOL    HW212522   4.304   5.573   5.776
 3875SOL     OW12523   2.376   4.066   0.254
 3875SOL    HW112524   2.399   3.998   0.323
 3875SOL    HW212525   2.332   4.145   0.297
 3876SOL     OW12526   5.764   3.623   2.216
 3876SOL    HW112527   5.686   3.685   2.227
 3876SOL    HW212528   5.795   3.593   2.306
 3877SOL     OW12529   4.776   1.799   1.872
 3877SOL    HW112530   4.689   1.832   1.833
 3877SOL    HW212531   4.800   1.855   1.951
 3878SOL     OW12532   4.739   5.999   4.717
 3878SOL    HW112533   4.760   6.017   4.813
 3878SOL    HW212534   4.641   5.982   4.707
 3879SOL     OW12535   2.963   5.996   1.030
 3879SOL    HW112536   3.042   5.998   1.091
 3879SOL    HW212537   2.918   5.907   1.036
 3880SOL     OW12538   6.026   2.038   4.150
 3880SOL    HW112539   5.964   2.112   4.125
 3880SOL    HW212540   6.076   2.064   4.233
 3881SOL     OW12541   0.482   5.685   6.996
 3881SOL    HW112542   0.501   5.751   6.924
 3881SOL    HW212543   0.410   5.721   0.039
 3882SOL     OW12544   0.078   6.419   6.464
 3882SOL    HW112545   0.172   6.394   6.444
 3882SOL    HW212546   0.030   6.340   6.501
 3883SOL     OW12547   3.888   2.101   6.920
 3883SOL    HW112548   3.854   2.020   6.968
 3883SOL    HW212549   3.944   2.155   6.983
 3884SOL     OW12550   1.902   5.168   5.911
 3884SOL    HW112551   1.921   5.262   5.883
 3884SOL    HW212552   1.817   5.165   5.964
 3885SOL     OW12553   6.937   1.052   4.550
 3885SOL    HW112554   6.917   1.009   4.637
 3885SOL    HW212555   6.901   1.146   4.550
 3886SOL     OW12556   0.273   5.908   5.038
 3886SOL    HW112557   0.363   5.865   5.032
 3886SOL    HW212558   0.208   5.845   5.080
 3887SOL     OW12559   5.616   2.623   4.920
 3887SOL    HW112560   5.634   2.531   4.886
 3887SOL    HW212561   5.695   2.654   4.974
 3888SOL     OW12562   5.423   1.597   2.410
 3888SOL    HW112563   5.338   1.568   2.365
 3888SOL    HW212564   5.497   1.598   2.344
 3889SOL     OW12565   6.339   5.592   6.897
 3889SOL    HW112566   6.273   5.607   6.824
 3889SOL    HW212567   6.351   5.676   6.950
 3890SOL     OW12568   6.329   3.264   3.167
 3890SOL    HW112569   6.352   3.333   3.098
 3890SOL    HW212570   6.396   3.190   3.164
 3891SOL     OW12571   4.670   5.136   5.817
 3891SOL    HW112572   4.585   5.112   5.769
 3891SOL    HW212573   4.665   5.231   5.846
 3892SOL     OW12574   5.919   5.601   4.235
 3892SOL    HW112575   5.984   5.626   4.162
 3892SOL    HW212576   5.857   5.677   4.251
 3893SOL     OW12577   2.905   6.240   4.622
 3893SOL    HW112578   2.886   6.181   4.701
 3893SOL    HW212579   2.992   6.214   4.581
 3894SOL     OW12580   5.671   5.089   6.791
 3894SOL    HW112581   5.748   5.151   6.774
 3894SOL    HW212582   5.594   5.115   6.733
 3895SOL     OW12583   1.733   1.844   5.908
 3895SOL    HW112584   1.738   1.757   5.858
 3895SOL    HW212585   1.782   1.836   5.995
 3896SOL     OW12586   6.204   3.500   0.580
 3896SOL    HW112587   6.298   3.530   0.565
 3896SOL    HW212588   6.150   3.517   0.498
 3897SOL     OW12589   3.498   6.690   3.544
 3897SOL    HW112590   3.430   6.756   3.512
 3897SOL    HW212591   3.535   6.720   3.632
 3898SOL     OW12592   3.292   3.184   3.960
 3898SOL    HW112593   3.194   3.174   3.941
 3898SOL    HW212594   3.304   3.233   4.046
 3899SOL     OW12595   4.039   1.855   6.151
 3899SOL    HW112596   4.035   1.828   6.054
 3899SOL    HW212597   3.953   1.832   6.195
 3900SOL     OW12598   0.737   2.764   4.070
 3900SOL    HW112599   0.697   2.760   4.161
 3900SOL    HW212600   0.827   2.720   4.071
 3901SOL     OW12601   3.331   5.707   5.785
 3901SOL    HW112602   3.302   5.775   5.717
 3901SOL    HW212603   3.303   5.616   5.756
 3902SOL     OW12604   3.748   5.316   2.966
 3902SOL    HW112605   3.787   5.241   3.020
 3902SOL    HW212606   3.801   5.400   2.982
 3903SOL     OW12607   3.787   3.744   6.072
 3903SOL    HW112608   3.763   3.716   5.979
 3903SOL    HW212609   3.726   3.817   6.102
 3904SOL     OW12610   1.969   6.364   6.830
 3904SOL    HW112611   2.015   6.451   6.809
 3904SOL    HW212612   1.881   6.361   6.783
 3905SOL     OW12613   4.567   0.075   5.811
 3905SOL    HW112614   4.507   0.110   5.883
 3905SOL    HW212615   4.517   0.009   5.755
 3906SOL     OW12616   6.707   5.900   4.374
 3906SOL    HW112617   6.655   5.912   4.459
 3906SOL    HW212618   6.665   5.828   4.319
 3907SOL     OW12619   0.408   1.642   4.495
 3907SOL    HW112620   0.490   1.637   4.551
 3907SOL    HW212621   0.423   1.589   4.411
 3908SOL     OW12622   2.276   0.755   4.198
 3908SOL    HW112623   2.280   0.744   4.297
 3908SOL    HW212624   2.189   0.719   4.163
 3909SOL     OW12625   5.337   3.936   1.766
 3909SOL    HW112626   5.244   3.900   1.774
 3909SOL    HW212627   5.397   3.889   1.831
 3910SOL     OW12628   2.533   2.773   1.344
 3910SOL    HW112629   2.541   2.742   1.439
 3910SOL    HW212630   2.446   2.821   1.332
 3911SOL     OW12631   6.977   1.512   1.198
 3911SOL    HW112632   6.915   1.563   1.257
 3911SOL    HW212633   0.016   1.576   1.145
 3912SOL     OW12634   4.320   4.079   0.477
 3912SOL    HW112635   4.390   4.148   0.460
 3912SOL    HW212636   4.334   4.037   0.566
 3913SOL     OW12637   4.198   5.291   1.172
 3913SOL    HW112638   4.203   5.342   1.087
 3913SOL    HW212639   4.257   5.334   1.241
 3914SOL     OW12640   0.091   1.019   0.862
 3914SOL    HW112641   0.081   0.930   0.907
 3914SOL    HW212642   0.180   1.058   0.885
 3915SOL     OW12643   5.615   0.296   5.282
 3915SOL    HW112644   5.683   0.265   5.348
 3915SOL    HW212645   5.553   0.362   5.326
 3916SOL     OW12646   1.789   2.224   2.302
 3916SOL    HW112647   1.852   2.278   2.356
 3916SOL    HW212648   1.806   2.239   2.204
 3917SOL     OW12649   4.467   5.428   2.181
 3917SOL    HW112650   4.516   5.443   2.095
 3917SOL    HW212651   4.471   5.511   2.236
 3918SOL     OW12652   4.394   6.778   1.110
 3918SOL    HW112653   4.351   6.722   1.039
 3918SOL    HW212654   4.326   6.801   1.180
 3919SOL     OW12655   5.342   5.655   3.113
 3919SOL    HW112656   5.373   5.687   3.023
 3919SOL    HW212657   5.420   5.616   3.163
 3920SOL     OW12658   3.701   1.726   5.888
 3920SOL    HW112659   3.747   1.789   5.826
 3920SOL    HW212660   3.619   1.770   5.926
 3921SOL     OW12661   1.599   2.750   5.974
 3921SOL    HW112662   1.629   2.817   6.042
 3921SOL    HW212663   1.582   2.663   6.019
 3922SOL     OW12664   5.163   2.323   4.103
 3922SOL    HW112665   5.125   2.279   4.184
 3922SOL    HW212666   5.098   2.317   4.028
 3923SOL     OW12667   5.585   0.632   1.210
 3923SOL    HW112668   5.546   0.550   1.251
 3923SOL    HW212669   5.604   0.700   1.281
 3924SOL     OW12670   5.181   4.789   4.304
 3924SOL    HW112671   5.249   4.859   4.323
 3924SOL    HW212672   5.128   4.815   4.223
 3925SOL     OW12673   3.450   5.401   1.675
 3925SOL    HW112674   3.447   5.340   1.596
 3925SOL    HW212675   3.359   5.440   1.690
 3926SOL     OW12676   1.484   5.921   5.459
 3926SOL    HW112677   1.503   6.019   5.468
 3926SOL    HW212678   1.543   5.870   5.522
 3927SOL     OW12679   5.774   6.990   5.412
 3927SOL    HW112680   5.739   6.965   5.322
 3927SOL    HW212681   5.865   0.016   5.402
 3928SOL     OW12682   4.433   5.762   2.836
 3928SOL    HW112683   4.433   5.692   2.908
 3928SOL    HW212684   4.458   5.720   2.749
 3929SOL     OW12685   1.744   0.750   5.542
 3929SOL    HW112686   1.716   0.832   5.492
 3929SOL    HW212687   1.720   0.759   5.638
 3930SOL     OW12688   2.248   5.931   4.497
 3930SOL    HW112689   2.237   5.876   4.580
 3930SOL    HW212690   2.258   5.871   4.418
 3931SOL     OW12691   0.700   2.512   0.071
 3931SOL    HW112692   0.739   2.594   0.029
 3931SOL    HW212693   0.706   2.519   0.170
 3932SOL     OW12694   2.217   4.022   2.853
 3932SOL    HW112695   2.245   4.118   2.849
 3932SOL    HW212696   2.266   3.971   2.782
 3933SOL     OW12697   1.737   6.522   1.414
 3933SOL    HW112698   1.657   6.466   1.436
 3933SOL    HW212699   1.749   6.592   1.484
 3934SOL     OW12700   1.796   6.554   1.780
 3934SOL    HW112701   1.793   6.628   1.712
 3934SOL    HW212702   1.864   6.576   1.850
 3935SOL     OW12703   0.584   1.877   4.844
 3935SOL    HW112704   0.489   1.849   4.832
 3935SOL    HW212705   0.588   1.976   4.858
 3936SOL     OW12706   6.640   4.129   3.690
 3936SOL    HW112707   6.736   4.156   3.700
 3936SOL    HW212708   6.623   4.047   3.745
 3937SOL     OW12709   1.156   6.973   0.088
 3937SOL    HW112710   1.117   0.047   0.105
 3937SOL    HW212711   1.226   6.953   0.157
 3938SOL     OW12712   0.803   3.876   6.865
 3938SOL    HW112713   0.751   3.831   6.793
 3938SOL    HW212714   0.778   3.837   6.954
 3939SOL     OW12715   1.995   6.355   3.898
 3939SOL    HW112716   2.052   6.303   3.834
 3939SOL    HW212717   1.981   6.301   3.981
 3940SOL     OW12718   2.157   6.041   6.417
 3940SOL    HW112719   2.086   6.013   6.352
 3940SOL    HW212720   2.215   5.963   6.438
 3941SOL     OW12721   5.446   5.429   2.644
 3941SOL    HW112722   5.373   5.381   2.594
 3941SOL    HW212723   5.437   5.528   2.630
 3942SOL     OW12724   6.468   6.777   6.293
 3942SOL    HW112725   6.389   6.780   6.233
 3942SOL    HW212726   6.447   6.823   6.379
 3943SOL     OW12727   1.663   4.285   0.347
 3943SOL    HW112728   1.644   4.289   0.249
 3943SOL    HW212729   1.614   4.208   0.387
 3944SOL     OW12730   4.595   3.458   6.981
 3944SOL    HW112731   4.578   3.401   0.045
 3944SOL    HW212732   4.517   3.452   6.919
 3945SOL     OW12733   7.012   0.888   3.344
 3945SOL    HW112734   6.943   0.943   3.392
 3945SOL    HW212735   0.016   0.807   3.399
 3946SOL     OW12736   6.185   2.421   1.046
 3946SOL    HW112737   6.178   2.464   1.136
 3946SOL    HW212738   6.193   2.491   0.975
 3947SOL     OW12739   5.660   6.460   2.446
 3947SOL    HW112740   5.641   6.427   2.353
 3947SOL    HW212741   5.614   6.402   2.513
 3948SOL     OW12742   2.290   1.169   4.780
 3948SOL    HW112743   2.336   1.087   4.816
 3948SOL    HW212744   2.269   1.154   4.683
 3949SOL     OW12745   5.997   6.895   2.208
 3949SOL    HW112746   5.955   6.805   2.217
 3949SOL    HW212747   5.952   6.960   2.270
 3950SOL     OW12748   2.541   4.960   1.270
 3950SOL    HW112749   2.585   5.050   1.271
 3950SOL    HW212750   2.608   4.890   1.292
 3951SOL     OW12751   6.629   2.584   3.584
 3951SOL    HW112752   6.639   2.683   3.591
 3951SOL    HW212753   6.719   2.541   3.593
 3952SOL     OW12754   5.840   4.379   6.710
 3952SOL    HW112755   5.763   4.355   6.768
 3952SOL    HW212756   5.894   4.298   6.689
 3953SOL     OW12757   3.416   3.877   5.804
 3953SOL    HW112758   3.407   3.807   5.875
 3953SOL    HW212759   3.473   3.842   5.729
 3954SOL     OW12760   1.279   3.489   5.312
 3954SOL    HW112761   1.291   3.408   5.254
 3954SOL    HW212762   1.271   3.461   5.407
 3955SOL     OW12763   5.749   3.518   0.142
 3955SOL    HW112764   5.815   3.569   0.198
 3955SOL    HW212765   5.669   3.495   0.198
 3956SOL     OW12766   0.030   2.742   4.971
 3956SOL    HW112767   6.991   2.824   4.987
 3956SOL    HW212768   0.084   2.721   5.052
 3957SOL     OW12769   0.800   2.516   2.171
 3957SOL    HW112770   0.799   2.579   2.248
 3957SOL    HW212771   0.742   2.552   2.098
 3958SOL     OW12772   5.566   5.820   1.281
 3958SOL    HW112773   5.500   5.782   1.215
 3958SOL    HW212774   5.567   5.763   1.363
 3959SOL     OW12775   2.696   5.124   1.845
 3959SOL    HW112776   2.659   5.092   1.933
 3959SOL    HW212777   2.769   5.062   1.816
 3960SOL     OW12778   6.235   2.591   0.430
 3960SOL    HW112779   6.227   2.680   0.386
 3960SOL    HW212780   6.207   2.519   0.367
 3961SOL     OW12781   0.121   1.304   1.058
 3961SOL    HW112782   0.059   1.377   1.084
 3961SOL    HW212783   0.108   1.225   1.118
 3962SOL     OW12784   6.705   0.346   6.134
 3962SOL    HW112785   6.672   0.369   6.043
 3962SOL    HW212786   6.765   0.420   6.168
 3963SOL     OW12787   5.174   4.110   4.187
 3963SOL    HW112788   5.236   4.038   4.217
 3963SOL    HW212789   5.178   4.118   4.087
 3964SOL     OW12790   5.699   4.773   0.388
 3964SOL    HW112791   5.623   4.838   0.388
 3964SOL    HW212792   5.719   4.745   0.482
 3965SOL     OW12793   3.301   3.931   0.765
 3965SOL    HW112794   3.229   4.000   0.762
 3965SOL    HW212795   3.298   3.875   0.682
 3966SOL     OW12796   6.611   3.348   5.880
 3966SOL    HW112797   6.522   3.312   5.908
 3966SOL    HW212798   6.621   3.339   5.781
 3967SOL     OW12799   2.240   6.480   0.120
 3967SOL    HW112800   2.192   6.487   0.207
 3967SOL    HW212801   2.266   6.384   0.103
 3968SOL     OW12802   4.719   2.259   0.546
 3968SOL    HW112803   4.655   2.303   0.608
 3968SOL    HW212804   4.668   2.201   0.481
 3969SOL     OW12805   0.015   6.394   0.947
 3969SOL    HW112806   6.934   6.400   0.968
 3969SOL    HW212807   0.060   6.480   0.973
 3970SOL     OW12808   5.809   4.548   3.950
 3970SOL    HW112809   5.846   4.635   3.917
 3970SOL    HW212810   5.824   4.540   4.049
 3971SOL     OW12811   0.932   5.850   3.680
 3971SOL    HW112812   1.005   5.913   3.704
 3971SOL    HW212813   0.854   5.900   3.643
 3972SOL     OW12814   1.168   0.444   5.905
 3972SOL    HW112815   1.191   0.350   5.881
 3972SOL    HW212816   1.133   0.446   5.999
 3973SOL     OW12817   3.821   3.186   2.593
 3973SOL    HW112818   3.803   3.165   2.496
 3973SOL    HW212819   3.873   3.110   2.633
 3974SOL     OW12820   5.093   0.635   6.534
 3974SOL    HW112821   5.049   0.724   6.539
 3974SOL    HW212822   5.024   0.565   6.512
 3975SOL     OW12823   0.091   6.789   4.445
 3975SOL    HW112824   0.178   6.832   4.420
 3975SOL    HW212825   0.026   6.799   4.369
 3976SOL     OW12826   0.965   2.679   5.853
 3976SOL    HW112827   1.053   2.725   5.867
 3976SOL    HW212828   0.907   2.735   5.795
 3977SOL     OW12829   3.282   5.028   5.550
 3977SOL    HW112830   3.252   4.933   5.548
 3977SOL    HW212831   3.363   5.039   5.492
 3978SOL     OW12832   5.549   3.032   6.617
 3978SOL    HW112833   5.456   3.034   6.652
 3978SOL    HW212834   5.581   2.938   6.610
 3979SOL     OW12835   1.138   5.983   3.122
 3979SOL    HW112836   1.064   6.034   3.077
 3979SOL    HW212837   1.103   5.897   3.157
 3980SOL     OW12838   5.198   4.067   4.628
 3980SOL    HW112839   5.196   3.980   4.580
 3980SOL    HW212840   5.129   4.128   4.589
 3981SOL     OW12841   6.941   1.301   6.328
 3981SOL    HW112842   6.844   1.284   6.346
 3981SOL    HW212843   6.959   1.399   6.331
 3982SOL     OW12844   2.174   3.240   4.461
 3982SOL    HW112845   2.208   3.200   4.546
 3982SOL    HW212846   2.175   3.340   4.468
 3983SOL     OW12847   3.142   0.777   3.952
 3983SOL    HW112848   3.042   0.774   3.952
 3983SOL    HW212849   3.176   0.737   4.037
 3984SOL     OW12850   1.823   5.547   2.146
 3984SOL    HW112851   1.878   5.464   2.151
 3984SOL    HW212852   1.863   5.617   2.206
 3985SOL     OW12853   1.948   2.322   1.281
 3985SOL    HW112854   2.034   2.272   1.270
 3985SOL    HW212855   1.967   2.420   1.285
 3986SOL     OW12856   6.962   2.338   2.546
 3986SOL    HW112857   6.896   2.367   2.616
 3986SOL    HW212858   0.003   2.264   2.582
 3987SOL     OW12859   1.026   4.349   5.259
 3987SOL    HW112860   0.950   4.398   5.216
 3987SOL    HW212861   1.112   4.391   5.232
 3988SOL     OW12862   5.066   6.860   2.169
 3988SOL    HW112863   5.001   6.793   2.206
 3988SOL    HW212864   5.018   6.921   2.106
 3989SOL     OW12865   4.172   1.245   5.797
 3989SOL    HW112866   4.193   1.291   5.711
 3989SOL    HW212867   4.248   1.184   5.821
 3990SOL     OW12868   6.024   0.875   3.980
 3990SOL    HW112869   6.035   0.910   4.073
 3990SOL    HW212870   6.026   0.952   3.916
 3991SOL     OW12871   0.031   1.886   3.390
 3991SOL    HW112872   6.954   1.922   3.379
 3991SOL    HW212873   0.092   1.960   3.418
 3992SOL     OW12874   5.445   3.882   6.200
 3992SOL    HW112875   5.372   3.910   6.137
 3992SOL    HW212876   5.411   3.811   6.261
 3993SOL     OW12877   1.556   0.745   3.741
 3993SOL    HW112878   1.580   0.694   3.659
 3993SOL    HW212879   1.634   0.747   3.804
 3994SOL     OW12880   3.359   1.850   3.406
 3994SOL    HW112881   3.352   1.946   3.434
 3994SOL    HW212882   3.456   1.826   3.394
 3995SOL     OW12883   1.667   3.515   2.399
 3995SOL    HW112884   1.592   3.474   2.347
 3995SOL    HW212885   1.737   3.445   2.417
 3996SOL     OW12886   6.512   6.386   4.954
 3996SOL    HW112887   6.612   6.387   4.948
 3996SOL    HW212888   6.477   6.479   4.943
 3997SOL     OW12889   5.554   3.866   4.299
 3997SOL    HW112890   5.566   3.962   4.276
 3997SOL    HW212891   5.557   3.855   4.399
 3998SOL     OW12892   5.152   2.070   3.741
 3998SOL    HW112893   5.092   2.116   3.675
 3998SOL    HW212894   5.215   2.137   3.781
 3999SOL     OW12895   5.020   2.508   0.931
 3999SOL    HW112896   5.019   2.409   0.944
 3999SOL    HW212897   4.962   2.552   1.000
 4000SOL     OW12898   2.227   4.791   3.343
 4000SOL    HW112899   2.143   4.746   3.311
 4000SOL    HW212900   2.217   4.890   3.333
 4001SOL     OW12901   0.523   6.055   4.436
 4001SOL    HW112902   0.552   5.959   4.442
 4001SOL    HW212903   0.473   6.080   4.519
 4002SOL     OW12904   3.842   3.780   4.845
 4002SOL    HW112905   3.892   3.827   4.772
 4002SOL    HW212906   3.827   3.685   4.819
 4003SOL     OW12907   2.625   1.087   4.643
 4003SOL    HW112908   2.723   1.070   4.635
 4003SOL    HW212909   2.603   1.173   4.598
 4004SOL     OW12910   1.958   4.205   4.807
 4004SOL    HW112911   1.889   4.210   4.735
 4004SOL    HW212912   1.914   4.212   4.897
 4005SOL     OW12913   4.997   2.610   0.660
 4005SOL    HW112914   5.025   2.576   0.750
 4005SOL    HW212915   5.003   2.710   0.658
 4006SOL     OW12916   6.806   5.423   1.866
 4006SOL    HW112917   6.901   5.399   1.885
 4006SOL    HW212918   6.802   5.515   1.827
 4007SOL     OW12919   0.747   1.378   1.866
 4007SOL    HW112920   0.820   1.441   1.842
 4007SOL    HW212921   0.700   1.411   1.948
 4008SOL     OW12922   3.660   0.970   1.393
 4008SOL    HW112923   3.702   0.994   1.480
 4008SOL    HW212924   3.562   0.954   1.407
 4009SOL     OW12925   3.703   2.381   1.057
 4009SOL    HW112926   3.799   2.356   1.075
 4009SOL    HW212927   3.646   2.347   1.131
 4010SOL     OW12928   2.017   4.545   1.251
 4010SOL    HW112929   2.074   4.624   1.274
 4010SOL    HW212930   1.978   4.558   1.160
 4011SOL     OW12931   6.183   0.152   5.824
 4011SOL    HW112932   6.169   0.112   5.915
 4011SOL    HW212933   6.194   0.079   5.757
 4012SOL     OW12934   5.876   5.533   1.924
 4012SOL    HW112935   5.915   5.570   2.008
 4012SOL    HW212936   5.899   5.435   1.916
 4013SOL     OW12937   6.824   1.804   6.984
 4013SOL    HW112938   6.786   1.786   0.058
 4013SOL    HW212939   6.884   1.728   6.957
 4014SOL     OW12940   3.401   5.786   2.768
 4014SOL    HW112941   3.377   5.855   2.836
 4014SOL    HW212942   3.394   5.695   2.809
 4015SOL     OW12943   4.641   5.955   5.980
 4015SOL    HW112944   4.655   5.900   5.898
 4015SOL    HW212945   4.706   6.031   5.980
 4016SOL     OW12946   5.162   5.243   4.562
 4016SOL    HW112947   5.161   5.247   4.662
 4016SOL    HW212948   5.251   5.207   4.531
 4017SOL     OW12949   1.804   5.951   5.793
 4017SOL    HW112950   1.876   5.925   5.728
 4017SOL    HW212951   1.829   5.919   5.884
 4018SOL     OW12952   4.370   5.567   1.112
 4018SOL    HW112953   4.447   5.621   1.077
 4018SOL    HW212954   4.341   5.501   1.043
 4019SOL     OW12955   6.862   3.506   2.160
 4019SOL    HW112956   6.840   3.410   2.145
 4019SOL    HW212957   6.918   3.515   2.243
 4020SOL     OW12958   6.890   5.831   4.148
 4020SOL    HW112959   6.831   5.827   4.228
 4020SOL    HW212960   6.846   5.786   4.070
 4021SOL     OW12961   4.386   4.914   6.373
 4021SOL    HW112962   4.410   4.898   6.469
 4021SOL    HW212963   4.436   4.995   6.340
 4022SOL     OW12964   3.416   6.763   1.158
 4022SOL    HW112965   3.325   6.765   1.116
 4022SOL    HW212966   3.484   6.738   1.089
 4023SOL     OW12967   0.664   1.988   4.571
 4023SOL    HW112968   0.649   1.998   4.473
 4023SOL    HW212969   0.576   1.971   4.616
 4024SOL     OW12970   7.003   6.523   5.576
 4024SOL    HW112971   0.074   6.568   5.595
 4024SOL    HW212972   0.002   6.425   5.562
 4025SOL     OW12973   0.098   4.823   3.870
 4025SOL    HW112974   0.034   4.762   3.825
 4025SOL    HW212975   0.191   4.786   3.863
 4026SOL     OW12976   0.317   6.611   4.251
 4026SOL    HW112977   0.346   6.702   4.279
 4026SOL    HW212978   0.389   6.545   4.272
 4027SOL     OW12979   3.614   5.218   4.982
 4027SOL    HW112980   3.581   5.209   5.076
 4027SOL    HW212981   3.536   5.224   4.920
 4028SOL     OW12982   5.218   1.481   4.377
 4028SOL    HW112983   5.198   1.482   4.279
 4028SOL    HW212984   5.213   1.574   4.413
 4029SOL     OW12985   1.179   6.942   0.740
 4029SOL    HW112986   1.231   0.005   0.708
 4029SOL    HW212987   1.122   6.969   0.818
 4030SOL     OW12988   0.661   1.872   1.924
 4030SOL    HW112989   0.624   1.795   1.871
 4030SOL    HW212990   0.625   1.958   1.888
 4031SOL     OW12991   5.976   5.927   0.464
 4031SOL    HW112992   5.905   5.907   0.531
 4031SOL    HW212993   5.936   5.925   0.372
 4032SOL     OW12994   5.091   1.323   2.676
 4032SOL    HW112995   5.092   1.423   2.672
 4032SOL    HW212996   5.181   1.289   2.704
 4033SOL     OW12997   1.956   2.995   2.768
 4033SOL    HW112998   1.961   3.095   2.766
 4033SOL    HW212999   2.048   2.957   2.756
 4034SOL     OW13000   1.555   2.627   4.962
 4034SOL    HW113001   1.615   2.549   4.943
 4034SOL    HW213002   1.479   2.627   4.896
 4035SOL     OW13003   4.480   2.206   1.953
 4035SOL    HW113004   4.466   2.289   1.900
 4035SOL    HW213005   4.408   2.197   2.023
 4036SOL     OW13006   3.688   6.094   3.467
 4036SOL    HW113007   3.684   6.128   3.373
 4036SOL    HW213008   3.740   6.157   3.523
 4037SOL     OW13009   2.087   2.221   6.536
 4037SOL    HW113010   2.023   2.150   6.566
 4037SOL    HW213011   2.084   2.298   6.599
 4038SOL     OW13012   3.181   4.880   6.013
 4038SOL    HW113013   3.253   4.829   5.964
 4038SOL    HW213014   3.213   4.904   6.105
 4039SOL     OW13015   5.988   4.602   1.458
 4039SOL    HW113016   6.029   4.602   1.367
 4039SOL    HW213017   6.020   4.523   1.509
 4040SOL     OW13018   3.636   0.437   5.023
 4040SOL    HW113019   3.655   0.524   5.068
 4040SOL    HW213020   3.657   0.362   5.085
 4041SOL     OW13021   1.360   5.354   1.926
 4041SOL    HW113022   1.440   5.362   1.986
 4041SOL    HW213023   1.332   5.445   1.895
 4042SOL     OW13024   6.988   1.688   3.220
 4042SOL    HW113025   6.994   1.699   3.121
 4042SOL    HW213026   0.009   1.770   3.265
 4043SOL     OW13027   4.598   2.449   6.192
 4043SOL    HW113028   4.621   2.529   6.247
 4043SOL    HW213029   4.499   2.443   6.180
 4044SOL     OW13030   4.588   4.484   3.042
 4044SOL    HW113031   4.525   4.525   3.109
 4044SOL    HW213032   4.552   4.395   3.013
 4045SOL     OW13033   4.484   1.529   5.178
 4045SOL    HW113034   4.510   1.509   5.084
 4045SOL    HW213035   4.440   1.449   5.218
 4046SOL     OW13036   5.354   1.686   3.905
 4046SOL    HW113037   5.452   1.669   3.893
 4046SOL    HW213038   5.337   1.785   3.909
 4047SOL     OW13039   3.468   2.572   6.643
 4047SOL    HW113040   3.475   2.484   6.598
 4047SOL    HW213041   3.544   2.584   6.707
 4048SOL     OW13042   5.022   1.962   2.964
 4048SOL    HW113043   4.941   1.976   2.907
 4048SOL    HW213044   5.044   1.864   2.966
 4049SOL     OW13045   4.134   3.890   1.082
 4049SOL    HW113046   4.091   3.803   1.106
 4049SOL    HW213047   4.098   3.921   0.993
 4050SOL     OW13048   7.005   4.992   2.424
 4050SOL    HW113049   6.961   5.072   2.382
 4050SOL    HW213050   0.024   4.932   2.353
 4051SOL     OW13051   5.261   0.357   5.145
 4051SOL    HW113052   5.290   0.263   5.167
 4051SOL    HW213053   5.285   0.417   5.222
 4052SOL     OW13054   5.237   1.921   3.949
 4052SOL    HW113055   5.177   1.947   4.025
 4052SOL    HW213056   5.194   1.947   3.863
 4053SOL     OW13057   0.979   4.715   3.993
 4053SOL    HW113058   1.075   4.714   3.963
 4053SOL    HW213059   0.926   4.655   3.933
 4054SOL     OW13060   4.492   3.874   1.347
 4054SOL    HW113061   4.439   3.952   1.381
 4054SOL    HW213062   4.583   3.876   1.387
 4055SOL     OW13063   0.113   4.480   0.296
 4055SOL    HW113064   0.211   4.465   0.295
 4055SOL    HW213065   0.094   4.578   0.297
 4056SOL     OW13066   5.407   3.184   6.842
 4056SOL    HW113067   5.346   3.198   6.920
 4056SOL    HW213068   5.499   3.165   6.874
 4057SOL     OW13069   0.129   3.956   6.940
 4057SOL    HW113070   0.053   3.966   6.876
 4057SOL    HW213071   0.098   3.978   0.017
 4058SOL     OW13072   3.321   0.477   4.575
 4058SOL    HW113073   3.329   0.570   4.611
 4058SOL    HW213074   3.361   0.413   4.640
 4059SOL     OW13075   0.640   1.433   3.685
 4059SOL    HW113076   0.587   1.487   3.620
 4059SOL    HW213077   0.674   1.350   3.639
 4060SOL     OW13078   0.162   5.930   4.372
 4060SOL    HW113079   0.219   5.999   4.327
 4060SOL    HW213080   0.079   5.974   4.408
 4061SOL     OW13081   0.706   5.237   1.614
 4061SOL    HW113082   0.665   5.148   1.594
 4061SOL    HW213083   0.668   5.273   1.699
 4062SOL     OW13084   1.815   3.767   0.839
 4062SOL    HW113085   1.727   3.813   0.846
 4062SOL    HW213086   1.874   3.816   0.775
 4063SOL     OW13087   3.893   0.447   1.031
 4063SOL    HW113088   3.874   0.477   0.938
 4063SOL    HW213089   3.840   0.365   1.052
 4064SOL     OW13090   1.995   1.053   5.795
 4064SOL    HW113091   1.912   1.094   5.760
 4064SOL    HW213092   1.972   0.986   5.866
 4065SOL     OW13093   2.233   0.768   1.196
 4065SOL    HW113094   2.186   0.701   1.253
 4065SOL    HW213095   2.293   0.721   1.131
 4066SOL     OW13096   0.554   3.728   3.934
 4066SOL    HW113097   0.564   3.799   3.864
 4066SOL    HW213098   0.572   3.638   3.893
 4067SOL     OW13099   5.857   4.990   0.662
 4067SOL    HW113100   5.859   5.071   0.721
 4067SOL    HW213101   5.788   4.926   0.696
 4068SOL     OW13102   2.435   2.732   5.186
 4068SOL    HW113103   2.414   2.820   5.144
 4068SOL    HW213104   2.511   2.743   5.251
 4069SOL     OW13105   4.846   5.947   6.438
 4069SOL    HW113106   4.828   5.977   6.531
 4069SOL    HW213107   4.841   5.847   6.433
 4070SOL     OW13108   1.463   3.562   4.105
 4070SOL    HW113109   1.413   3.628   4.049
 4070SOL    HW213110   1.489   3.483   4.050
 4071SOL     OW13111   1.626   1.101   4.960
 4071SOL    HW113112   1.722   1.096   4.987
 4071SOL    HW213113   1.616   1.167   4.886
 4072SOL     OW13114   3.102   6.186   2.465
 4072SOL    HW113115   3.085   6.188   2.367
 4072SOL    HW213116   3.035   6.128   2.510
 4073SOL     OW13117   4.211   5.142   6.736
 4073SOL    HW113118   4.263   5.059   6.717
 4073SOL    HW213119   4.180   5.183   6.651
 4074SOL     OW13120   1.933   5.700   2.804
 4074SOL    HW113121   1.903   5.762   2.731
 4074SOL    HW213122   1.868   5.704   2.880
 4075SOL     OW13123   6.339   0.788   0.063
 4075SOL    HW113124   6.383   0.877   0.048
 4075SOL    HW213125   6.254   0.783   0.011
 4076SOL     OW13126   2.297   5.685   3.617
 4076SOL    HW113127   2.219   5.722   3.567
 4076SOL    HW213128   2.299   5.725   3.709
 4077SOL     OW13129   3.113   0.900   1.805
 4077SOL    HW113130   3.028   0.949   1.788
 4077SOL    HW213131   3.148   0.925   1.896
 4078SOL     OW13132   3.545   4.975   2.090
 4078SOL    HW113133   3.573   5.065   2.056
 4078SOL    HW213134   3.596   4.904   2.040
 4079SOL     OW13135   0.073   2.292   3.649
 4079SOL    HW113136   0.071   2.201   3.692
 4079SOL    HW213137   0.138   2.291   3.573
 4080SOL     OW13138   6.948   2.000   5.146
 4080SOL    HW113139   0.024   1.962   5.140
 4080SOL    HW213140   6.929   2.024   5.241
 4081SOL     OW13141   0.773   3.534   3.928
 4081SOL    HW113142   0.767   3.568   4.022
 4081SOL    HW213143   0.800   3.609   3.868
 4082SOL     OW13144   0.395   3.872   0.242
 4082SOL    HW113145   0.321   3.920   0.193
 4082SOL    HW213146   0.376   3.875   0.340
 4083SOL     OW13147   6.598   2.537   5.060
 4083SOL    HW113148   6.568   2.488   4.978
 4083SOL    HW213149   6.698   2.547   5.058
 4084SOL     OW13150   6.588   1.006   4.306
 4084SOL    HW113151   6.583   0.925   4.247
 4084SOL    HW213152   6.615   1.085   4.251
 4085SOL     OW13153   2.535   6.194   0.657
 4085SOL    HW113154   2.567   6.107   0.620
 4085SOL    HW213155   2.519   6.258   0.582
 4086SOL     OW13156   1.192   4.082   1.092
 4086SOL    HW113157   1.246   4.160   1.060
 4086SOL    HW213158   1.099   4.089   1.054
 4087SOL     OW13159   2.244   1.729   2.722
 4087SOL    HW113160   2.314   1.764   2.659
 4087SOL    HW213161   2.287   1.706   2.809
 4088SOL     OW13162   6.528   1.576   0.330
 4088SOL    HW113163   6.429   1.595   0.327
 4088SOL    HW213164   6.542   1.477   0.331
 4089SOL     OW13165   1.165   1.538   5.391
 4089SOL    HW113166   1.167   1.448   5.435
 4089SOL    HW213167   1.236   1.543   5.321
 4090SOL     OW13168   2.713   4.745   6.181
 4090SOL    HW113169   2.633   4.789   6.140
 4090SOL    HW213170   2.791   4.751   6.119
 4091SOL     OW13171   4.019   6.868   1.023
 4091SOL    HW113172   4.073   6.928   0.963
 4091SOL    HW213173   3.980   6.794   0.968
 4092SOL     OW13174   0.059   1.687   4.345
 4092SOL    HW113175   0.037   1.682   4.442
 4092SOL    HW213176   0.093   1.779   4.323
 4093SOL     OW13177   5.610   6.824   4.414
 4093SOL    HW113178   5.552   6.904   4.420
 4093SOL    HW213179   5.668   6.818   4.495
 4094SOL     OW13180   3.037   4.276   5.312
 4094SOL    HW113181   3.001   4.364   5.280
 4094SOL    HW213182   2.978   4.202   5.280
 4095SOL     OW13183   1.782   3.369   5.602
 4095SOL    HW113184   1.775   3.436   5.528
 4095SOL    HW213185   1.867   3.385   5.654
 4096SOL     OW13186   4.306   4.862   2.384
 4096SOL    HW113187   4.279   4.833   2.476
 4096SOL    HW213188   4.284   4.790   2.318
 4097SOL     OW13189   3.303   4.065   3.561
 4097SOL    HW113190   3.286   4.120   3.642
 4097SOL    HW213191   3.304   3.968   3.586
 4098SOL     OW13192   0.671   3.252   2.564
 4098SOL    HW113193   0.698   3.261   2.468
 4098SOL    HW213194   0.577   3.221   2.570
 4099SOL     OW13195   2.541   6.185   1.659
 4099SOL    HW113196   2.519   6.258   1.724
 4099SOL    HW213197   2.554   6.224   1.568
 4100SOL     OW13198   3.810   6.408   3.373
 4100SOL    HW113199   3.818   6.334   3.440
 4100SOL    HW213200   3.870   6.390   3.295
 4101SOL     OW13201   4.576   1.019   6.873
 4101SOL    HW113202   4.568   1.024   6.773
 4101SOL    HW213203   4.565   1.110   6.912
 4102SOL     OW13204   5.322   1.178   0.359
 4102SOL    HW113205   5.384   1.137   0.426
 4102SOL    HW213206   5.266   1.107   0.317
 4103SOL     OW13207   0.287   0.221   2.301
 4103SOL    HW113208   0.233   0.155   2.352
 4103SOL    HW213209   0.336   0.175   2.228
 4104SOL     OW13210   1.748   4.840   2.487
 4104SOL    HW113211   1.723   4.798   2.574
 4104SOL    HW213212   1.839   4.809   2.459
 4105SOL     OW13213   5.503   4.957   0.419
 4105SOL    HW113214   5.426   4.932   0.478
 4105SOL    HW213215   5.519   5.055   0.426
 4106SOL     OW13216   0.123   3.646   4.989
 4106SOL    HW113217   0.195   3.624   5.055
 4106SOL    HW213218   0.039   3.598   5.014
 4107SOL     OW13219   6.570   0.580   0.701
 4107SOL    HW113220   6.538   0.673   0.719
 4107SOL    HW213221   6.579   0.531   0.788
 4108SOL     OW13222   6.780   2.622   5.430
 4108SOL    HW113223   6.727   2.701   5.400
 4108SOL    HW213224   6.719   2.555   5.473
 4109SOL     OW13225   2.881   6.482   3.666
 4109SOL    HW113226   2.787   6.464   3.695
 4109SOL    HW213227   2.907   6.575   3.690
 4110SOL     OW13228   4.247   3.381   5.627
 4110SOL    HW113229   4.257   3.454   5.560
 4110SOL    HW213230   4.237   3.421   5.718
 4111SOL     OW13231   4.185   3.525   6.313
 4111SOL    HW113232   4.264   3.581   6.338
 4111SOL    HW213233   4.215   3.451   6.252
 4112SOL     OW13234   3.789   0.747   4.495
 4112SOL    HW113235   3.852   0.739   4.572
 4112SOL    HW213236   3.710   0.802   4.522
 4113SOL     OW13237   4.229   5.420   4.839
 4113SOL    HW113238   4.205   5.473   4.758
 4113SOL    HW213239   4.168   5.341   4.846
 4114SOL     OW13240   3.710   2.006   2.541
 4114SOL    HW113241   3.634   2.066   2.568
 4114SOL    HW213242   3.719   2.007   2.441
 4115SOL     OW13243   5.643   5.029   2.423
 4115SOL    HW113244   5.718   4.969   2.394
 4115SOL    HW213245   5.648   5.116   2.374
 4116SOL     OW13246   3.374   1.145   2.701
 4116SOL    HW113247   3.354   1.143   2.799
 4116SOL    HW213248   3.293   1.177   2.651
 4117SOL     OW13249   0.431   5.643   1.867
 4117SOL    HW113250   0.497   5.585   1.914
 4117SOL    HW213251   0.478   5.698   1.798
 4118SOL     OW13252   2.708   6.959   0.729
 4118SOL    HW113253   2.617   6.917   0.719
 4118SOL    HW213254   2.778   6.889   0.718
 4119SOL     OW13255   4.640   0.812   3.300
 4119SOL    HW113256   4.721   0.816   3.242
 4119SOL    HW213257   4.661   0.762   3.384
 4120SOL     OW13258   4.442   0.821   2.292
 4120SOL    HW113259   4.410   0.787   2.203
 4120SOL    HW213260   4.434   0.920   2.294
 4121SOL     OW13261   6.874   2.536   5.048
 4121SOL    HW113262   6.918   2.475   5.114
 4121SOL    HW213263   6.939   2.606   5.017
 4122SOL     OW13264   1.852   5.601   6.702
 4122SOL    HW113265   1.794   5.664   6.754
 4122SOL    HW213266   1.814   5.591   6.610
 4123SOL     OW13267   4.715   4.240   5.976
 4123SOL    HW113268   4.763   4.280   6.055
 4123SOL    HW213269   4.667   4.312   5.926
 4124SOL     OW13270   4.531   6.640   3.635
 4124SOL    HW113271   4.622   6.627   3.675
 4124SOL    HW213272   4.494   6.551   3.608
 4125SOL     OW13273   5.406   0.913   0.879
 4125SOL    HW113274   5.377   0.908   0.784
 4125SOL    HW213275   5.388   1.005   0.915
 4126SOL     OW13276   2.263   4.897   4.358
 4126SOL    HW113277   2.275   4.905   4.259
 4126SOL    HW213278   2.191   4.960   4.387
 4127SOL     OW13279   6.091   3.992   5.017
 4127SOL    HW113280   6.120   4.057   5.086
 4127SOL    HW213281   6.093   3.900   5.054
 4128SOL     OW13282   0.746   2.248   2.271
 4128SOL    HW113283   0.782   2.337   2.244
 4128SOL    HW213284   0.683   2.260   2.348
 4129SOL     OW13285   5.725   2.225   6.473
 4129SOL    HW113286   5.671   2.152   6.514
 4129SOL    HW213287   5.807   2.185   6.431
 4130SOL     OW13288   6.296   3.149   1.252
 4130SOL    HW113289   6.215   3.166   1.308
 4130SOL    HW213290   6.353   3.231   1.249
 4131SOL     OW13291   6.947   3.822   3.280
 4131SOL    HW113292   6.906   3.737   3.314
 4131SOL    HW213293   6.983   3.874   3.358
 4132SOL     OW13294   4.764   2.114   4.626
 4132SOL    HW113295   4.786   2.209   4.648
 4132SOL    HW213296   4.843   2.056   4.644
 4133SOL     OW13297   2.693   2.415   1.329
 4133SOL    HW113298   2.771   2.473   1.352
 4133SOL    HW213299   2.718   2.352   1.257
 4134SOL     OW13300   1.696   1.763   0.129
 4134SOL    HW113301   1.676   1.831   0.057
 4134SOL    HW213302   1.712   1.810   0.215
 4135SOL     OW13303   1.481   0.772   1.003
 4135SOL    HW113304   1.505   0.867   1.024
 4135SOL    HW213305   1.511   0.750   0.910
 4136SOL     OW13306   0.834   1.789   3.347
 4136SOL    HW113307   0.860   1.703   3.390
 4136SOL    HW213308   0.890   1.863   3.383
 4137SOL     OW13309   3.949   3.824   5.528
 4137SOL    HW113310   3.950   3.728   5.555
 4137SOL    HW213311   4.011   3.836   5.450
 4138SOL     OW13312   4.227   5.535   2.507
 4138SOL    HW113313   4.201   5.612   2.566
 4138SOL    HW213314   4.286   5.472   2.558
 4139SOL     OW13315   2.627   0.768   0.170
 4139SOL    HW113316   2.560   0.702   0.137
 4139SOL    HW213317   2.689   0.723   0.234
 4140SOL     OW13318   4.299   2.111   5.241
 4140SOL    HW113319   4.354   2.155   5.170
 4140SOL    HW213320   4.350   2.036   5.282
 4141SOL     OW13321   5.113   5.257   0.417
 4141SOL    HW113322   5.136   5.185   0.482
 4141SOL    HW213323   5.193   5.314   0.400
 4142SOL     OW13324   6.870   2.512   1.348
 4142SOL    HW113325   6.928   2.477   1.274
 4142SOL    HW213326   6.781   2.537   1.311
 4143SOL     OW13327   0.556   2.694   1.651
 4143SOL    HW113328   0.518   2.688   1.744
 4143SOL    HW213329   0.650   2.661   1.652
 4144SOL     OW13330   4.805   0.364   1.901
 4144SOL    HW113331   4.799   0.269   1.869
 4144SOL    HW213332   4.717   0.410   1.886
 4145SOL     OW13333   3.520   6.914   2.955
 4145SOL    HW113334   3.592   6.910   2.886
 4145SOL    HW213335   3.470   7.000   2.947
 4146SOL     OW13336   4.725   5.515   0.232
 4146SOL    HW113337   4.687   5.532   0.141
 4146SOL    HW213338   4.655   5.473   0.289
 4147SOL     OW13339   2.904   2.363   5.748
 4147SOL    HW113340   2.880   2.425   5.674
 4147SOL    HW213341   2.850   2.385   5.829
 4148SOL     OW13342   6.168   0.351   2.973
 4148SOL    HW113343   6.119   0.362   2.887
 4148SOL    HW213344   6.139   0.266   3.018
 4149SOL     OW13345   5.169   4.411   1.410
 4149SOL    HW113346   5.141   4.392   1.504
 4149SOL    HW213347   5.129   4.497   1.379
 4150SOL     OW13348   4.886   0.522   5.827
 4150SOL    HW113349   4.883   0.432   5.872
 4150SOL    HW213350   4.816   0.526   5.757
 4151SOL     OW13351   0.418   5.577   0.491
 4151SOL    HW113352   0.320   5.569   0.475
 4151SOL    HW213353   0.466   5.505   0.442
 4152SOL     OW13354   3.579   4.110   1.335
 4152SOL    HW113355   3.666   4.126   1.382
 4152SOL    HW213356   3.503   4.133   1.396
 4153SOL     OW13357   5.778   5.585   5.968
 4153SOL    HW113358   5.875   5.567   5.982
 4153SOL    HW213359   5.763   5.620   5.875
 4154SOL     OW13360   4.431   2.377   5.871
 4154SOL    HW113361   4.507   2.403   5.811
 4154SOL    HW213362   4.345   2.397   5.824
 4155SOL     OW13363   1.466   3.156   0.970
 4155SOL    HW113364   1.549   3.204   0.940
 4155SOL    HW213365   1.442   3.186   1.062
 4156SOL     OW13366   6.320   0.089   5.206
 4156SOL    HW113367   6.281   7.014   5.219
 4156SOL    HW213368   6.297   0.122   5.115
 4157SOL     OW13369   3.117   1.054   4.126
 4157SOL    HW113370   3.106   1.008   4.038
 4157SOL    HW213371   3.196   1.017   4.175
 4158SOL     OW13372   0.822   0.280   3.729
 4158SOL    HW113373   0.803   0.376   3.711
 4158SOL    HW213374   0.751   0.242   3.788
 4159SOL     OW13375   0.586   3.477   5.068
 4159SOL    HW113376   0.669   3.462   5.122
 4159SOL    HW213377   0.611   3.504   4.975
 4160SOL     OW13378   1.179   0.898   0.682
 4160SOL    HW113379   1.267   0.853   0.697
 4160SOL    HW213380   1.169   0.920   0.584
 4161SOL     OW13381   6.263   1.883   0.328
 4161SOL    HW113382   6.251   1.911   0.423
 4161SOL    HW213383   6.333   1.940   0.285
 4162SOL     OW13384   0.208   6.394   4.793
 4162SOL    HW113385   0.185   6.298   4.804
 4162SOL    HW213386   0.191   6.423   4.699
 4163SOL     OW13387   6.395   1.032   5.211
 4163SOL    HW113388   6.466   1.022   5.281
 4163SOL    HW213389   6.438   1.031   5.120
 4164SOL     OW13390   2.551   6.754   6.189
 4164SOL    HW113391   2.516   6.835   6.236
 4164SOL    HW213392   2.644   6.772   6.156
 4165SOL     OW13393   2.861   6.032   2.414
 4165SOL    HW113394   2.883   5.951   2.359
 4165SOL    HW213395   2.825   6.002   2.503
 4166SOL     OW13396   6.079   2.523   1.305
 4166SOL    HW113397   5.998   2.521   1.246
 4166SOL    HW213398   6.082   2.609   1.355
 4167SOL     OW13399   2.001   3.101   1.190
 4167SOL    HW113400   1.926   3.035   1.193
 4167SOL    HW213401   1.965   3.193   1.207
 4168SOL     OW13402   1.489   4.329   1.019
 4168SOL    HW113403   1.563   4.263   1.024
 4168SOL    HW213404   1.501   4.398   1.090
 4169SOL     OW13405   6.313   3.639   4.735
 4169SOL    HW113406   6.342   3.722   4.688
 4169SOL    HW213407   6.312   3.654   4.834
 4170SOL     OW13408   4.028   1.986   5.142
 4170SOL    HW113409   3.953   2.030   5.192
 4170SOL    HW213410   4.113   2.034   5.162
 4171SOL     OW13411   5.460   3.568   1.328
 4171SOL    HW113412   5.481   3.634   1.256
 4171SOL    HW213413   5.466   3.613   1.417
 4172SOL     OW13414   2.468   1.179   0.157
 4172SOL    HW113415   2.511   1.250   0.213
 4172SOL    HW213416   2.524   1.097   0.157
 4173SOL     OW13417   5.231   3.488   6.185
 4173SOL    HW113418   5.298   3.421   6.214
 4173SOL    HW213419   5.262   3.533   6.102
 4174SOL     OW13420   5.220   1.012   4.513
 4174SOL    HW113421   5.260   1.030   4.423
 4174SOL    HW213422   5.268   1.066   4.582
 4175SOL     OW13423   3.018   1.861   3.399
 4175SOL    HW113424   3.085   1.902   3.337
 4175SOL    HW213425   3.007   1.920   3.479
 4176SOL     OW13426   5.976   5.279   2.826
 4176SOL    HW113427   5.928   5.197   2.857
 4176SOL    HW213428   6.074   5.265   2.832
 4177SOL     OW13429   6.374   4.808   3.102
 4177SOL    HW113430   6.301   4.874   3.123
 4177SOL    HW213431   6.462   4.846   3.132
 4178SOL     OW13432   3.920   3.340   5.774
 4178SOL    HW113433   3.947   3.244   5.773
 4178SOL    HW213434   3.932   3.377   5.866
 4179SOL     OW13435   6.604   2.775   6.928
 4179SOL    HW113436   6.650   2.853   6.885
 4179SOL    HW213437   6.512   2.765   6.889
 4180SOL     OW13438   4.412   3.675   1.680
 4180SOL    HW113439   4.485   3.735   1.648
 4180SOL    HW213440   4.323   3.720   1.667
 4181SOL     OW13441   6.627   0.791   0.362
 4181SOL    HW113442   6.579   0.710   0.396
 4181SOL    HW213443   6.678   0.768   0.279
 4182SOL     OW13444   5.317   0.936   3.936
 4182SOL    HW113445   5.270   1.013   3.894
 4182SOL    HW213446   5.399   0.968   3.984
 4183SOL     OW13447   2.060   1.512   1.370
 4183SOL    HW113448   2.018   1.426   1.339
 4183SOL    HW213449   2.144   1.492   1.421
 4184SOL     OW13450   4.316   5.034   0.117
 4184SOL    HW113451   4.284   5.101   0.049
 4184SOL    HW213452   4.404   4.996   0.088
 4185SOL     OW13453   6.973   6.810   4.212
 4185SOL    HW113454   6.892   6.767   4.171
 4185SOL    HW213455   0.037   6.793   4.155
 4186SOL     OW13456   3.718   4.241   1.728
 4186SOL    HW113457   3.629   4.284   1.738
 4186SOL    HW213458   3.720   4.156   1.780
 4187SOL     OW13459   4.036   4.830   6.438
 4187SOL    HW113460   4.101   4.892   6.394
 4187SOL    HW213461   3.992   4.773   6.369
 4188SOL     OW13462   5.157   6.176   4.186
 4188SOL    HW113463   5.234   6.216   4.137
 4188SOL    HW213464   5.106   6.248   4.232
 4189SOL     OW13465   1.756   3.463   3.371
 4189SOL    HW113466   1.789   3.535   3.433
 4189SOL    HW213467   1.757   3.497   3.277
 4190SOL     OW13468   2.655   6.924   1.445
 4190SOL    HW113469   2.721   6.849   1.442
 4190SOL    HW213470   2.617   6.938   1.354
 4191SOL     OW13471   0.674   2.564   2.743
 4191SOL    HW113472   0.715   2.656   2.741
 4191SOL    HW213473   0.588   2.567   2.793
 4192SOL     OW13474   5.950   0.858   2.904
 4192SOL    HW113475   5.966   0.862   3.003
 4192SOL    HW213476   6.031   0.819   2.859
 4193SOL     OW13477   2.103   6.746   2.549
 4193SOL    HW113478   2.131   6.763   2.454
 4193SOL    HW213479   2.062   6.655   2.555
 4194SOL     OW13480   5.844   0.995   3.620
 4194SOL    HW113481   5.837   1.070   3.554
 4194SOL    HW213482   5.909   1.021   3.692
 4195SOL     OW13483   5.264   1.167   3.087
 4195SOL    HW113484   5.295   1.260   3.071
 4195SOL    HW213485   5.164   1.164   3.080
 4196SOL     OW13486   4.486   2.240   3.580
 4196SOL    HW113487   4.488   2.337   3.606
 4196SOL    HW213488   4.469   2.184   3.660
 4197SOL     OW13489   5.116   4.094   4.871
 4197SOL    HW113490   5.028   4.056   4.898
 4197SOL    HW213491   5.129   4.080   4.772
 4198SOL     OW13492   6.053   4.114   5.955
 4198SOL    HW113493   6.083   4.175   6.028
 4198SOL    HW213494   6.131   4.062   5.920
 4199SOL     OW13495   3.117   4.165   5.534
 4199SOL    HW113496   3.145   4.069   5.531
 4199SOL    HW213497   3.084   4.193   5.444
 4200SOL     OW13498   2.659   0.258   6.212
 4200SOL    HW113499   2.631   0.227   6.121
 4200SOL    HW213500   2.578   0.273   6.268
 4201SOL     OW13501   5.761   6.882   4.622
 4201SOL    HW113502   5.736   6.965   4.672
 4201SOL    HW213503   5.846   6.898   4.572
 4202SOL     OW13504   5.272   3.503   5.430
 4202SOL    HW113505   5.177   3.470   5.433
 4202SOL    HW213506   5.314   3.475   5.344
 4203SOL     OW13507   4.609   5.232   4.033
 4203SOL    HW113508   4.630   5.219   4.130
 4203SOL    HW213509   4.612   5.329   4.011
 4204SOL     OW13510   1.876   4.165   0.773
 4204SOL    HW113511   1.953   4.144   0.833
 4204SOL    HW213512   1.848   4.260   0.787
 4205SOL     OW13513   2.632   6.286   3.321
 4205SOL    HW113514   2.710   6.326   3.273
 4205SOL    HW213515   2.649   6.189   3.337
 4206SOL     OW13516   5.345   6.280   4.023
 4206SOL    HW113517   5.445   6.282   4.022
 4206SOL    HW213518   5.311   6.269   3.930
 4207SOL     OW13519   0.685   0.777   0.104
 4207SOL    HW113520   0.714   0.736   0.191
 4207SOL    HW213521   0.755   0.841   0.073
 4208SOL     OW13522   1.261   2.628   0.790
 4208SOL    HW113523   1.174   2.596   0.753
 4208SOL    HW213524   1.331   2.558   0.777
 4209SOL     OW13525   3.179   0.854   5.070
 4209SOL    HW113526   3.179   0.848   5.170
 4209SOL    HW213527   3.268   0.886   5.039
 4210SOL     OW13528   4.224   2.552   0.303
 4210SOL    HW113529   4.313   2.554   0.349
 4210SOL    HW213530   4.152   2.551   0.372
 4211SOL     OW13531   5.386   3.574   4.478
 4211SOL    HW113532   5.339   3.536   4.399
 4211SOL    HW213533   5.357   3.525   4.561
 4212SOL     OW13534   6.353   6.371   2.348
 4212SOL    HW113535   6.394   6.410   2.265
 4212SOL    HW213536   6.414   6.388   2.426
 4213SOL     OW13537   0.842   6.944   1.129
 4213SOL    HW113538   0.884   7.001   1.199
 4213SOL    HW213539   0.744   6.938   1.145
 4214SOL     OW13540   3.090   5.205   5.071
 4214SOL    HW113541   3.149   5.239   5.144
 4214SOL    HW213542   3.136   5.215   4.984
 4215SOL     OW13543   0.886   5.949   5.512
 4215SOL    HW113544   0.928   5.858   5.505
 4215SOL    HW213545   0.879   5.975   5.609
 4216SOL     OW13546   2.796   3.162   5.254
 4216SOL    HW113547   2.708   3.126   5.224
 4216SOL    HW213548   2.852   3.183   5.174
 4217SOL     OW13549   6.962   0.907   3.662
 4217SOL    HW113550   6.899   0.955   3.600
 4217SOL    HW213551   0.039   0.918   3.629
 4218SOL     OW13552   3.495   6.395   2.375
 4218SOL    HW113553   3.580   6.422   2.329
 4218SOL    HW213554   3.517   6.334   2.452
 4219SOL     OW13555   5.425   0.146   3.142
 4219SOL    HW113556   5.384   0.091   3.214
 4219SOL    HW213557   5.436   0.090   3.060
 4220SOL     OW13558   0.550   4.006   3.462
 4220SOL    HW113559   0.467   3.951   3.448
 4220SOL    HW213560   0.536   4.097   3.424
 4221SOL     OW13561   5.533   6.191   5.821
 4221SOL    HW113562   5.467   6.257   5.855
 4221SOL    HW213563   5.518   6.103   5.865
 4222SOL     OW13564   3.120   3.104   0.114
 4222SOL    HW113565   3.077   3.075   0.029
 4222SOL    HW213566   3.142   3.202   0.108
 4223SOL     OW13567   2.934   3.846   2.636
 4223SOL    HW113568   3.018   3.812   2.593
 4223SOL    HW213569   2.861   3.848   2.568
 4224SOL     OW13570   4.002   2.308   5.939
 4224SOL    HW113571   4.051   2.355   6.013
 4224SOL    HW213572   3.909   2.343   5.934
 4225SOL     OW13573   5.082   0.665   4.381
 4225SOL    HW113574   4.989   0.656   4.345
 4225SOL    HW213575   5.139   0.594   4.340
 4226SOL     OW13576   1.604   1.477   3.217
 4226SOL    HW113577   1.514   1.499   3.179
 4226SOL    HW213578   1.673   1.484   3.145
 4227SOL     OW13579   5.290   3.934   6.569
 4227SOL    HW113580   5.297   4.013   6.508
 4227SOL    HW213581   5.376   3.883   6.565
 4228SOL     OW13582   5.175   5.254   3.415
 4228SOL    HW113583   5.109   5.295   3.352
 4228SOL    HW213584   5.198   5.162   3.384
 4229SOL     OW13585   4.440   4.831   5.368
 4229SOL    HW113586   4.438   4.786   5.458
 4229SOL    HW213587   4.347   4.860   5.344
 4230SOL     OW13588   3.453   0.785   5.471
 4230SOL    HW113589   3.454   0.767   5.570
 4230SOL    HW213590   3.475   0.700   5.422
 4231SOL     OW13591   3.745   6.615   6.248
 4231SOL    HW113592   3.835   6.620   6.291
 4231SOL    HW213593   3.739   6.685   6.176
 4232SOL     OW13594   2.447   4.256   1.467
 4232SOL    HW113595   2.366   4.266   1.523
 4232SOL    HW213596   2.487   4.345   1.448
 4233SOL     OW13597   5.577   6.403   1.003
 4233SOL    HW113598   5.610   6.464   1.076
 4233SOL    HW213599   5.508   6.341   1.041
 4234SOL     OW13600   3.785   3.840   5.224
 4234SOL    HW113601   3.847   3.886   5.287
 4234SOL    HW213602   3.822   3.751   5.199
 4235SOL     OW13603   0.313   3.971   4.951
 4235SOL    HW113604   0.316   3.917   4.867
 4235SOL    HW213605   0.297   4.067   4.929
 4236SOL     OW13606   0.772   3.758   5.039
 4236SOL    HW113607   0.848   3.725   4.983
 4236SOL    HW213608   0.740   3.684   5.097
 4237SOL     OW13609   6.170   4.124   5.491
 4237SOL    HW113610   6.163   4.186   5.413
 4237SOL    HW213611   6.086   4.128   5.545
 4238SOL     OW13612   4.805   4.422   4.614
 4238SOL    HW113613   4.821   4.382   4.704
 4238SOL    HW213614   4.739   4.497   4.623
 4239SOL     OW13615   5.043   5.664   5.567
 4239SOL    HW113616   4.985   5.666   5.649
 4239SOL    HW213617   5.137   5.689   5.592
 4240SOL     OW13618   2.543   5.158   6.765
 4240SOL    HW113619   2.633   5.121   6.784
 4240SOL    HW213620   2.548   5.221   6.687
 4241SOL     OW13621   4.544   2.153   0.775
 4241SOL    HW113622   4.486   2.131   0.853
 4241SOL    HW213623   4.592   2.071   0.745
 4242SOL     OW13624   1.765   0.499   2.045
 4242SOL    HW113625   1.776   0.432   2.118
 4242SOL    HW213626   1.672   0.492   2.007
 4243SOL     OW13627   1.278   2.778   2.855
 4243SOL    HW113628   1.275   2.869   2.896
 4243SOL    HW213629   1.216   2.775   2.776
 4244SOL     OW13630   3.196   0.615   0.651
 4244SOL    HW113631   3.131   0.622   0.727
 4244SOL    HW213632   3.276   0.673   0.669
 4245SOL     OW13633   6.719   1.744   1.142
 4245SOL    HW113634   6.778   1.697   1.076
 4245SOL    HW213635   6.626   1.708   1.134
 4246SOL     OW13636   4.745   2.587   3.645
 4246SOL    HW113637   4.776   2.501   3.605
 4246SOL    HW213638   4.814   2.620   3.710
 4247SOL     OW13639   1.948   5.189   6.678
 4247SOL    HW113640   2.010   5.205   6.601
 4247SOL    HW213641   1.989   5.123   6.740
 4248SOL     OW13642   2.206   0.835   3.365
 4248SOL    HW113643   2.182   0.830   3.268
 4248SOL    HW213644   2.130   0.874   3.417
 4249SOL     OW13645   5.559   0.423   5.979
 4249SOL    HW113646   5.492   0.417   5.905
 4249SOL    HW213647   5.607   0.510   5.974
 4250SOL     OW13648   0.358   5.589   5.117
 4250SOL    HW113649   0.405   5.664   5.163
 4250SOL    HW213650   0.362   5.507   5.175
 4251SOL     OW13651   4.532   2.123   5.544
 4251SOL    HW113652   4.548   2.141   5.448
 4251SOL    HW213653   4.569   2.198   5.599
 4252SOL     OW13654   6.971   0.100   6.656
 4252SOL    HW113655   0.004   0.122   6.741
 4252SOL    HW213656   6.955   0.184   6.604
 4253SOL     OW13657   4.362   6.535   2.885
 4253SOL    HW113658   4.428   6.606   2.910
 4253SOL    HW213659   4.407   6.446   2.886
 4254SOL     OW13660   1.504   2.206   5.903
 4254SOL    HW113661   1.601   2.230   5.898
 4254SOL    HW213662   1.457   2.239   5.821
 4255SOL     OW13663   0.820   2.906   3.201
 4255SOL    HW113664   0.865   2.977   3.255
 4255SOL    HW213665   0.873   2.890   3.117
 4256SOL     OW13666   5.996   6.042   0.897
 4256SOL    HW113667   5.935   6.107   0.944
 4256SOL    HW213668   5.950   5.954   0.889
 4257SOL     OW13669   6.613   1.060   3.265
 4257SOL    HW113670   6.691   1.079   3.206
 4257SOL    HW213671   6.532   1.108   3.231
 4258SOL     OW13672   3.146   5.995   0.738
 4258SOL    HW113673   3.198   6.056   0.678
 4258SOL    HW213674   3.094   6.051   0.803
 4259SOL     OW13675   0.860   6.929   0.556
 4259SOL    HW113676   0.936   6.864   0.560
 4259SOL    HW213677   0.894   0.001   0.526
 4260SOL     OW13678   6.185   0.340   4.982
 4260SOL    HW113679   6.104   0.282   4.993
 4260SOL    HW213680   6.160   0.423   4.931
 4261SOL     OW13681   2.484   6.325   3.553
 4261SOL    HW113682   2.444   6.235   3.571
 4261SOL    HW213683   2.544   6.320   3.474
 4262SOL     OW13684   2.051   5.130   4.973
 4262SOL    HW113685   2.039   5.044   4.923
 4262SOL    HW213686   2.117   5.188   4.925
 4263SOL     OW13687   2.849   1.516   3.068
 4263SOL    HW113688   2.750   1.502   3.065
 4263SOL    HW213689   2.873   1.564   3.153
 4264SOL     OW13690   4.654   1.914   6.563
 4264SOL    HW113691   4.685   1.881   6.474
 4264SOL    HW213692   4.663   1.840   6.630
 4265SOL     OW13693   2.966   6.220   6.717
 4265SOL    HW113694   2.941   6.282   6.642
 4265SOL    HW213695   3.065   6.212   6.721
 4266SOL     OW13696   0.887   5.230   1.905
 4266SOL    HW113697   0.936   5.196   1.824
 4266SOL    HW213698   0.851   5.321   1.886
 4267SOL     OW13699   0.992   3.699   4.162
 4267SOL    HW113700   1.033   3.708   4.252
 4267SOL    HW213701   0.999   3.604   4.131
 4268SOL     OW13702   1.163   4.319   6.051
 4268SOL    HW113703   1.093   4.294   5.985
 4268SOL    HW213704   1.179   4.243   6.114
 4269SOL     OW13705   2.729   1.467   3.828
 4269SOL    HW113706   2.772   1.485   3.917
 4269SOL    HW213707   2.630   1.476   3.837
 4270SOL     OW13708   4.358   4.015   0.971
 4270SOL    HW113709   4.441   4.026   1.026
 4270SOL    HW213710   4.281   3.992   1.031
 4271SOL     OW13711   6.705   1.035   1.241
 4271SOL    HW113712   6.772   0.962   1.256
 4271SOL    HW213713   6.737   1.095   1.168
 4272SOL     OW13714   6.950   1.768   5.636
 4272SOL    HW113715   6.986   1.749   5.544
 4272SOL    HW213716   6.944   1.683   5.688
 4273SOL     OW13717   3.186   6.253   3.911
 4273SOL    HW113718   3.146   6.275   3.822
 4273SOL    HW213719   3.194   6.336   3.966
 4274SOL     OW13720   0.447   0.995   1.420
 4274SOL    HW113721   0.439   1.094   1.433
 4274SOL    HW213722   0.539   0.966   1.448
 4275SOL     OW13723   6.826   2.331   3.607
 4275SOL    HW113724   6.920   2.319   3.638
 4275SOL    HW213725   6.826   2.361   3.511
 4276SOL     OW13726   1.498   6.601   2.815
 4276SOL    HW113727   1.583   6.650   2.795
 4276SOL    HW213728   1.444   6.653   2.881
 4277SOL     OW13729   6.615   5.241   3.295
 4277SOL    HW113730   6.683   5.312   3.278
 4277SOL    HW213731   6.562   5.265   3.377
 4278SOL     OW13732   6.931   6.661   1.369
 4278SOL    HW113733   0.004   6.620   1.387
 4278SOL    HW213734   6.885   6.678   1.456
 4279SOL     OW13735   1.013   2.247   3.203
 4279SOL    HW113736   1.010   2.202   3.113
 4279SOL    HW213737   1.047   2.340   3.192
 4280SOL     OW13738   1.826   6.823   6.431
 4280SOL    HW113739   1.857   6.901   6.376
 4280SOL    HW213740   1.841   6.844   6.528
 4281SOL     OW13741   6.229   5.839   2.839
 4281SOL    HW113742   6.328   5.845   2.836
 4281SOL    HW213743   6.193   5.905   2.905
 4282SOL     OW13744   5.490   5.148   1.736
 4282SOL    HW113745   5.422   5.082   1.767
 4282SOL    HW213746   5.562   5.157   1.805
 4283SOL     OW13747   6.123   1.229   4.680
 4283SOL    HW113748   6.047   1.267   4.627
 4283SOL    HW213749   6.208   1.239   4.629
 4284SOL     OW13750   4.477   6.256   6.548
 4284SOL    HW113751   4.424   6.301   6.476
 4284SOL    HW213752   4.519   6.173   6.513
 4285SOL     OW13753   3.037   1.399   6.595
 4285SOL    HW113754   2.980   1.339   6.650
 4285SOL    HW213755   2.981   1.473   6.557
 4286SOL     OW13756   5.059   6.615   0.098
 4286SOL    HW113757   4.980   6.647   0.045
 4286SOL    HW213758   5.062   6.663   0.185
 4287SOL     OW13759   3.366   0.924   1.464
 4287SOL    HW113760   3.325   0.869   1.391
 4287SOL    HW213761   3.293   0.961   1.522
 4288SOL     OW13762   6.818   5.506   2.199
 4288SOL    HW113763   6.799   5.414   2.162
 4288SOL    HW213764   6.775   5.574   2.140
 4289SOL     OW13765   0.198   4.268   5.222
 4289SOL    HW113766   0.224   4.230   5.133
 4289SOL    HW213767   0.158   4.359   5.209
 4290SOL     OW13768   6.767   1.726   3.545
 4290SOL    HW113769   6.846   1.726   3.607
 4290SOL    HW213770   6.781   1.796   3.474
 4291SOL     OW13771   4.144   4.855   6.825
 4291SOL    HW113772   4.229   4.903   6.805
 4291SOL    HW213773   4.136   4.840   6.923
 4292SOL     OW13774   6.486   0.747   1.701
 4292SOL    HW113775   6.530   0.683   1.762
 4292SOL    HW213776   6.403   0.783   1.744
 4293SOL     OW13777   3.722   2.796   6.682
 4293SOL    HW113778   3.714   2.700   6.709
 4293SOL    HW213779   3.640   2.846   6.710
 4294SOL     OW13780   2.895   1.827   6.805
 4294SOL    HW113781   2.861   1.918   6.829
 4294SOL    HW213782   2.849   1.796   6.721
 4295SOL     OW13783   4.479   6.285   2.905
 4295SOL    HW113784   4.457   6.205   2.960
 4295SOL    HW213785   4.435   6.277   2.815
 4296SOL     OW13786   2.276   5.451   2.404
 4296SOL    HW113787   2.373   5.467   2.420
 4296SOL    HW213788   2.264   5.377   2.338
 4297SOL     OW13789   4.456   5.377   0.315
 4297SOL    HW113790   4.463   5.320   0.234
 4297SOL    HW213791   4.431   5.320   0.394
 4298SOL     OW13792   1.523   0.251   0.459
 4298SOL    HW113793   1.584   0.228   0.535
 4298SOL    HW213794   1.440   0.293   0.495
 4299SOL     OW13795   0.686   3.143   6.127
 4299SOL    HW113796   0.702   3.234   6.091
 4299SOL    HW213797   0.599   3.141   6.177
 4300SOL     OW13798   3.263   0.502   2.195
 4300SOL    HW113799   3.262   0.600   2.212
 4300SOL    HW213800   3.229   0.453   2.275
 4301SOL     OW13801   1.874   6.358   5.276
 4301SOL    HW113802   1.811   6.280   5.266
 4301SOL    HW213803   1.927   6.368   5.192
 4302SOL     OW13804   3.480   5.144   6.664
 4302SOL    HW113805   3.451   5.207   6.736
 4302SOL    HW213806   3.434   5.169   6.578
 4303SOL     OW13807   4.626   5.269   3.601
 4303SOL    HW113808   4.527   5.259   3.596
 4303SOL    HW213809   4.660   5.229   3.686
 4304SOL     OW13810   2.983   4.018   1.692
 4304SOL    HW113811   2.991   4.117   1.688
 4304SOL    HW213812   2.893   3.991   1.656
 4305SOL     OW13813   0.497   6.360   5.692
 4305SOL    HW113814   0.528   6.451   5.664
 4305SOL    HW213815   0.489   6.302   5.611
 4306SOL     OW13816   5.816   3.148   5.297
 4306SOL    HW113817   5.733   3.123   5.347
 4306SOL    HW213818   5.869   3.213   5.352
 4307SOL     OW13819   6.815   1.466   5.457
 4307SOL    HW113820   6.884   1.499   5.392
 4307SOL    HW213821   6.752   1.405   5.410
 4308SOL     OW13822   4.025   5.695   6.263
 4308SOL    HW113823   4.104   5.672   6.205
 4308SOL    HW213824   4.036   5.654   6.353
 4309SOL     OW13825   2.562   1.896   0.832
 4309SOL    HW113826   2.627   1.895   0.756
 4309SOL    HW213827   2.522   1.805   0.843
 4310SOL     OW13828   6.184   2.143   3.624
 4310SOL    HW113829   6.177   2.179   3.717
 4310SOL    HW213830   6.117   2.188   3.565
 4311SOL     OW13831   0.467   6.651   1.154
 4311SOL    HW113832   0.538   6.603   1.104
 4311SOL    HW213833   0.462   6.746   1.122
 4312SOL     OW13834   0.068   3.937   2.382
 4312SOL    HW113835   0.002   3.879   2.429
 4312SOL    HW213836   0.035   3.956   2.289
 4313SOL     OW13837   0.899   3.597   0.662
 4313SOL    HW113838   0.979   3.606   0.721
 4313SOL    HW213839   0.928   3.577   0.569
 4314SOL     OW13840   1.516   1.685   5.542
 4314SOL    HW113841   1.443   1.752   5.558
 4314SOL    HW213842   1.600   1.733   5.517
 4315SOL     OW13843   2.650   2.187   5.429
 4315SOL    HW113844   2.733   2.150   5.472
 4315SOL    HW213845   2.671   2.213   5.335
 4316SOL     OW13846   4.581   5.469   1.929
 4316SOL    HW113847   4.620   5.559   1.948
 4316SOL    HW213848   4.567   5.458   1.831
 4317SOL     OW13849   4.785   0.766   4.687
 4317SOL    HW113850   4.872   0.763   4.736
 4317SOL    HW213851   4.743   0.856   4.698
 4318SOL     OW13852   1.855   5.685   3.498
 4318SOL    HW113853   1.859   5.587   3.479
 4318SOL    HW213854   1.760   5.715   3.501
 4319SOL     OW13855   1.618   5.082   2.451
 4319SOL    HW113856   1.547   5.040   2.508
 4319SOL    HW213857   1.692   5.017   2.436
 4320SOL     OW13858   3.373   0.402   1.129
 4320SOL    HW113859   3.410   0.493   1.148
 4320SOL    HW213860   3.275   0.401   1.147
 4321SOL     OW13861   6.539   5.772   2.606
 4321SOL    HW113862   6.496   5.685   2.628
 4321SOL    HW213863   6.625   5.756   2.558
 4322SOL     OW13864   2.510   2.411   3.865
 4322SOL    HW113865   2.521   2.342   3.936
 4322SOL    HW213866   2.527   2.369   3.775
 4323SOL     OW13867   4.726   4.812   1.139
 4323SOL    HW113868   4.711   4.890   1.079
 4323SOL    HW213869   4.806   4.761   1.108
 4324SOL     OW13870   0.175   4.268   5.906
 4324SOL    HW113871   0.224   4.234   5.826
 4324SOL    HW213872   0.226   4.343   5.947
 4325SOL     OW13873   1.699   0.283   0.959
 4325SOL    HW113874   1.791   0.318   0.938
 4325SOL    HW213875   1.699   0.240   1.049
 4326SOL     OW13876   4.729   2.686   3.096
 4326SOL    HW113877   4.748   2.780   3.069
 4326SOL    HW213878   4.703   2.683   3.192
 4327SOL     OW13879   2.875   6.731   3.790
 4327SOL    HW113880   2.847   6.790   3.715
 4327SOL    HW213881   2.848   6.772   3.877
 4328SOL     OW13882   6.089   0.102   3.106
 4328SOL    HW113883   6.007   0.054   3.074
 4328SOL    HW213884   6.127   0.055   3.185
 4329SOL     OW13885   5.898   3.781   0.284
 4329SOL    HW113886   5.843   3.830   0.351
 4329SOL    HW213887   5.890   3.827   0.195
 4330SOL     OW13888   2.744   4.984   4.531
 4330SOL    HW113889   2.652   4.949   4.542
 4330SOL    HW213890   2.742   5.067   4.475
 4331SOL     OW13891   5.733   1.640   2.268
 4331SOL    HW113892   5.772   1.695   2.194
 4331SOL    HW213893   5.779   1.551   2.271
 4332SOL     OW13894   6.810   5.563   1.316
 4332SOL    HW113895   6.711   5.580   1.324
 4332SOL    HW213896   6.843   5.602   1.231
 4333SOL     OW13897   3.681   2.806   6.391
 4333SOL    HW113898   3.674   2.778   6.487
 4333SOL    HW213899   3.589   2.812   6.351
 4334SOL     OW13900   0.263   2.807   4.145
 4334SOL    HW113901   0.336   2.783   4.082
 4334SOL    HW213902   0.175   2.789   4.102
 4335SOL     OW13903   2.667   4.146   1.644
 4335SOL    HW113904   2.709   4.057   1.627
 4335SOL    HW213905   2.582   4.153   1.591
 4336SOL     OW13906   2.865   5.180   5.243
 4336SOL    HW113907   2.921   5.145   5.318
 4336SOL    HW213908   2.920   5.185   5.159
 4337SOL     OW13909   6.937   4.621   3.435
 4337SOL    HW113910   6.866   4.600   3.367
 4337SOL    HW213911   0.009   4.629   3.389
 4338SOL     OW13912   3.039   2.290   6.297
 4338SOL    HW113913   3.043   2.297   6.197
 4338SOL    HW213914   2.945   2.302   6.328
 4339SOL     OW13915   4.454   4.604   5.533
 4339SOL    HW113916   4.447   4.505   5.535
 4339SOL    HW213917   4.482   4.638   5.622
 4340SOL     OW13918   6.994   3.999   0.419
 4340SOL    HW113919   0.012   4.088   0.451
 4340SOL    HW213920   0.027   3.926   0.466
 4341SOL     OW13921   6.125   5.436   1.275
 4341SOL    HW113922   6.077   5.468   1.193
 4341SOL    HW213923   6.186   5.507   1.309
 4342SOL     OW13924   5.333   3.164   2.752
 4342SOL    HW113925   5.369   3.154   2.659
 4342SOL    HW213926   5.234   3.150   2.752
 4343SOL     OW13927   3.767   0.325   6.493
 4343SOL    HW113928   3.736   0.253   6.431
 4343SOL    HW213929   3.836   0.289   6.555
 4344SOL     OW13930   0.969   4.067   2.373
 4344SOL    HW113931   0.883   4.112   2.348
 4344SOL    HW213932   0.949   3.977   2.414
 4345SOL     OW13933   3.659   3.680   3.097
 4345SOL    HW113934   3.674   3.760   3.038
 4345SOL    HW213935   3.640   3.600   3.040
 4346SOL     OW13936   0.652   3.532   2.558
 4346SOL    HW113937   0.731   3.573   2.513
 4346SOL    HW213938   0.674   3.439   2.589
 4347SOL     OW13939   6.399   5.343   0.502
 4347SOL    HW113940   6.426   5.439   0.514
 4347SOL    HW213941   6.377   5.304   0.592
 4348SOL     OW13942   6.000   4.175   5.687
 4348SOL    HW113943   6.001   4.275   5.699
 4348SOL    HW213944   6.018   4.131   5.774
 4349SOL     OW13945   1.111   4.061   4.328
 4349SOL    HW113946   1.174   4.016   4.391
 4349SOL    HW213947   1.093   4.154   4.359
 4350SOL     OW13948   4.635   0.749   3.911
 4350SOL    HW113949   4.550   0.763   3.961
 4350SOL    HW213950   4.673   0.837   3.883
 4351SOL     OW13951   0.096   5.678   1.044
 4351SOL    HW113952   0.193   5.698   1.059
 4351SOL    HW213953   0.041   5.736   1.104
 4352SOL     OW13954   3.364   4.724   1.624
 4352SOL    HW113955   3.421   4.774   1.559
 4352SOL    HW213956   3.415   4.710   1.709
 4353SOL     OW13957   2.447   3.837   0.641
 4353SOL    HW113958   2.536   3.791   0.649
 4353SOL    HW213959   2.415   3.832   0.546
 4354SOL     OW13960   5.678   5.258   2.303
 4354SOL    HW113961   5.680   5.295   2.396
 4354SOL    HW213962   5.650   5.330   2.240
 4355SOL     OW13963   2.499   5.120   3.237
 4355SOL    HW113964   2.480   5.143   3.332
 4355SOL    HW213965   2.465   5.193   3.177
 4356SOL     OW13966   6.091   2.722   5.631
 4356SOL    HW113967   6.021   2.683   5.691
 4356SOL    HW213968   6.074   2.820   5.619
 4357SOL     OW13969   5.626   6.012   2.152
 4357SOL    HW113970   5.555   6.066   2.197
 4357SOL    HW213971   5.617   5.916   2.179
 4358SOL     OW13972   2.643   0.819   0.631
 4358SOL    HW113973   2.648   0.900   0.691
 4358SOL    HW213974   2.679   0.740   0.680
 4359SOL     OW13975   2.542   2.137   1.726
 4359SOL    HW113976   2.637   2.164   1.715
 4359SOL    HW213977   2.509   2.166   1.816
 4360SOL     OW13978   2.445   5.992   3.829
 4360SOL    HW113979   2.542   6.014   3.837
 4360SOL    HW213980   2.410   5.960   3.917
 4361SOL     OW13981   1.172   1.676   0.092
 4361SOL    HW113982   1.217   1.761   0.118
 4361SOL    HW213983   1.085   1.696   0.047
 4362SOL     OW13984   0.901   5.247   2.971
 4362SOL    HW113985   0.878   5.237   2.874
 4362SOL    HW213986   0.997   5.222   2.985
 4363SOL     OW13987   3.721   0.781   2.097
 4363SOL    HW113988   3.708   0.685   2.123
 4363SOL    HW213989   3.638   0.833   2.117
 4364SOL     OW13990   3.174   4.116   2.774
 4364SOL    HW113991   3.123   4.191   2.818
 4364SOL    HW213992   3.164   4.124   2.675
 4365SOL     OW13993   2.156   0.906   0.682
 4365SOL    HW113994   2.233   0.916   0.745
 4365SOL    HW213995   2.123   0.997   0.657
 4366SOL     OW13996   5.372   5.931   4.528
 4366SOL    HW113997   5.350   5.834   4.534
 4366SOL    HW213998   5.288   5.985   4.531
 4367SOL     OW13999   2.900   6.398   2.227
 4367SOL    HW114000   2.935   6.309   2.197
 4367SOL    HW214001   2.872   6.393   2.323
 4368SOL     OW14002   4.892   3.774   4.246
 4368SOL    HW114003   4.901   3.847   4.178
 4368SOL    HW214004   4.954   3.791   4.321
 4369SOL     OW14005   5.896   4.117   3.589
 4369SOL    HW114006   5.994   4.097   3.586
 4369SOL    HW214007   5.856   4.075   3.671
 4370SOL     OW14008   3.950   5.022   0.487
 4370SOL    HW114009   3.984   5.114   0.465
 4370SOL    HW214010   3.916   5.022   0.581
 4371SOL     OW14011   3.681   1.334   2.869
 4371SOL    HW114012   3.614   1.393   2.824
 4371SOL    HW214013   3.738   1.389   2.930
 4372SOL     OW14014   2.017   4.482   4.654
 4372SOL    HW114015   2.115   4.475   4.671
 4372SOL    HW214016   1.985   4.399   4.608
 4373SOL     OW14017   4.164   0.705   0.496
 4373SOL    HW114018   4.122   0.735   0.582
 4373SOL    HW214019   4.229   0.632   0.515
 4374SOL     OW14020   2.622   6.568   0.507
 4374SOL    HW114021   2.586   6.574   0.600
 4374SOL    HW214022   2.568   6.625   0.446
 4375SOL     OW14023   3.723   1.519   5.625
 4375SOL    HW114024   3.701   1.582   5.550
 4375SOL    HW214025   3.806   1.551   5.672
 4376SOL     OW14026   2.038   5.880   0.209
 4376SOL    HW114027   2.135   5.903   0.221
 4376SOL    HW214028   1.981   5.949   0.254
 4377SOL     OW14029   4.933   5.824   6.949
 4377SOL    HW114030   4.935   5.924   6.956
 4377SOL    HW214031   4.859   5.788   7.005
 4378SOL     OW14032   3.185   5.045   2.673
 4378SOL    HW114033   3.273   5.061   2.717
 4378SOL    HW214034   3.164   5.120   2.611
 4379SOL     OW14035   6.973   6.729   0.928
 4379SOL    HW114036   6.979   6.770   0.838
 4379SOL    HW214037   0.044   6.687   0.951
 4380SOL     OW14038   1.913   5.812   4.065
 4380SOL    HW114039   1.819   5.838   4.042
 4380SOL    HW214040   1.951   5.879   4.129
 4381SOL     OW14041   4.422   5.503   5.231
 4381SOL    HW114042   4.411   5.588   5.283
 4381SOL    HW214043   4.519   5.483   5.221
 4382SOL     OW14044   5.492   4.588   3.014
 4382SOL    HW114045   5.494   4.683   3.045
 4382SOL    HW214046   5.409   4.573   2.960
 4383SOL     OW14047   0.839   1.148   0.550
 4383SOL    HW114048   0.923   1.169   0.500
 4383SOL    HW214049   0.781   1.229   0.553
 4384SOL     OW14050   3.717   0.070   2.186
 4384SOL    HW114051   3.767   7.003   2.209
 4384SOL    HW214052   3.630   0.071   2.236
 4385SOL     OW14053   5.999   2.206   2.485
 4385SOL    HW114054   6.095   2.183   2.471
 4385SOL    HW214055   5.958   2.234   2.397
 4386SOL     OW14056   2.029   4.193   6.962
 4386SOL    HW114057   2.049   4.141   0.029
 4386SOL    HW214058   2.096   4.170   6.891
 4387SOL     OW14059   6.483   2.441   1.701
 4387SOL    HW114060   6.473   2.488   1.613
 4387SOL    HW214061   6.518   2.349   1.686
 4388SOL     OW14062   3.396   1.612   5.500
 4388SOL    HW114063   3.339   1.575   5.573
 4388SOL    HW214064   3.345   1.682   5.450
 4389SOL     OW14065   6.261   2.192   2.452
 4389SOL    HW114066   6.320   2.154   2.523
 4389SOL    HW214067   6.296   2.166   2.362
 4390SOL     OW14068   4.155   3.006   0.851
 4390SOL    HW114069   4.065   3.010   0.808
 4390SOL    HW214070   4.196   3.097   0.853
 4391SOL     OW14071   0.468   6.609   0.145
 4391SOL    HW114072   0.370   6.626   0.138
 4391SOL    HW214073   0.491   6.526   0.096
 4392SOL     OW14074   5.163   4.436   5.158
 4392SOL    HW114075   5.166   4.536   5.150
 4392SOL    HW214076   5.173   4.395   5.067
 4393SOL     OW14077   5.198   6.307   3.028
 4393SOL    HW114078   5.174   6.210   3.021
 4393SOL    HW214079   5.114   6.362   3.029
 4394SOL     OW14080   4.541   0.558   2.159
 4394SOL    HW114081   4.592   0.594   2.237
 4394SOL    HW214082   4.492   0.633   2.114
 4395SOL     OW14083   4.871   1.935   0.924
 4395SOL    HW114084   4.815   1.852   0.924
 4395SOL    HW214085   4.813   2.014   0.943
 4396SOL     OW14086   1.406   1.075   3.434
 4396SOL    HW114087   1.480   1.116   3.487
 4396SOL    HW214088   1.410   1.107   3.340
 4397SOL     OW14089   5.205   0.050   6.409
 4397SOL    HW114090   5.264   0.112   6.357
 4397SOL    HW214091   5.217   0.067   6.507
 4398SOL     OW14092   0.342   5.322   4.580
 4398SOL    HW114093   0.325   5.419   4.563
 4398SOL    HW214094   0.262   5.280   4.622
 4399SOL     OW14095   3.185   1.268   2.550
 4399SOL    HW114096   3.114   1.323   2.595
 4399SOL    HW214097   3.260   1.328   2.520
 4400SOL     OW14098   4.017   5.585   3.572
 4400SOL    HW114099   4.086   5.622   3.634
 4400SOL    HW214100   4.060   5.560   3.485
 4401SOL     OW14101   5.901   5.861   4.885
 4401SOL    HW114102   5.891   5.763   4.899
 4401SOL    HW214103   5.841   5.891   4.811
 4402SOL     OW14104   6.678   6.389   2.467
 4402SOL    HW114105   6.666   6.294   2.439
 4402SOL    HW214106   6.680   6.448   2.386
 4403SOL     OW14107   0.326   1.038   2.349
 4403SOL    HW114108   0.264   1.081   2.415
 4403SOL    HW214109   0.406   1.003   2.397
 4404SOL     OW14110   2.359   4.923   2.655
 4404SOL    HW114111   2.395   4.840   2.614
 4404SOL    HW214112   2.381   5.001   2.596
 4405SOL     OW14113   2.656   3.810   5.829
 4405SOL    HW114114   2.668   3.895   5.880
 4405SOL    HW214115   2.631   3.736   5.892
 4406SOL     OW14116   5.888   3.338   1.977
 4406SOL    HW114117   5.877   3.255   2.032
 4406SOL    HW214118   5.901   3.313   1.881
 4407SOL     OW14119   0.218   1.235   6.972
 4407SOL    HW114120   0.304   1.222   6.923
 4407SOL    HW214121   0.196   1.153   0.007
 4408SOL     OW14122   3.833   6.256   1.330
 4408SOL    HW114123   3.800   6.217   1.244
 4408SOL    HW214124   3.792   6.345   1.344
 4409SOL     OW14125   2.821   1.696   2.634
 4409SOL    HW114126   2.851   1.777   2.583
 4409SOL    HW214127   2.741   1.657   2.589
 4410SOL     OW14128   1.859   5.748   1.348
 4410SOL    HW114129   1.925   5.748   1.423
 4410SOL    HW214130   1.815   5.658   1.342
 4411SOL     OW14131   4.058   3.369   2.647
 4411SOL    HW114132   4.063   3.389   2.745
 4411SOL    HW214133   3.965   3.342   2.624
 4412SOL     OW14134   3.356   1.728   5.929
 4412SOL    HW114135   3.303   1.799   5.974
 4412SOL    HW214136   3.381   1.757   5.837
 4413SOL     OW14137   4.335   5.279   3.518
 4413SOL    HW114138   4.296   5.254   3.430
 4413SOL    HW214139   4.286   5.231   3.591
 4414SOL     OW14140   3.283   5.102   1.761
 4414SOL    HW114141   3.341   5.127   1.683
 4414SOL    HW214142   3.320   5.143   1.844
 4415SOL     OW14143   4.560   1.358   1.228
 4415SOL    HW114144   4.605   1.272   1.253
 4415SOL    HW214145   4.557   1.366   1.128
 4416SOL     OW14146   2.407   2.202   4.561
 4416SOL    HW114147   2.495   2.247   4.545
 4416SOL    HW214148   2.384   2.207   4.658
 4417SOL     OW14149   6.087   6.798   1.234
 4417SOL    HW114150   6.185   6.816   1.228
 4417SOL    HW214151   6.036   6.881   1.208
 4418SOL     OW14152   4.870   0.967   3.508
 4418SOL    HW114153   4.807   0.891   3.526
 4418SOL    HW214154   4.935   0.939   3.437
 4419SOL     OW14155   6.080   5.439   6.290
 4419SOL    HW114156   6.167   5.436   6.241
 4419SOL    HW214157   6.043   5.346   6.299
 4420SOL     OW14158   4.130   0.814   0.038
 4420SOL    HW114159   4.224   0.841   0.018
 4420SOL    HW214160   4.130   0.752   0.117
 4421SOL     OW14161   0.451   1.624   3.556
 4421SOL    HW114162   0.364   1.661   3.522
 4421SOL    HW214163   0.524   1.644   3.490
 4422SOL     OW14164   1.567   4.679   5.819
 4422SOL    HW114165   1.608   4.652   5.906
 4422SOL    HW214166   1.603   4.620   5.746
 4423SOL     OW14167   6.986   1.601   6.339
 4423SOL    HW114168   6.887   1.617   6.340
 4423SOL    HW214169   0.007   1.633   6.252
 4424SOL     OW14170   1.267   5.818   3.620
 4424SOL    HW114171   1.259   5.888   3.550
 4424SOL    HW214172   1.332   5.847   3.690
 4425SOL     OW14173   5.172   4.359   0.945
 4425SOL    HW114174   5.235   4.282   0.937
 4425SOL    HW214175   5.165   4.405   0.856
 4426SOL     OW14176   0.978   0.585   5.598
 4426SOL    HW114177   0.987   0.684   5.597
 4426SOL    HW214178   0.886   0.560   5.567
 4427SOL     OW14179   1.407   6.022   3.185
 4427SOL    HW114180   1.446   6.024   3.093
 4427SOL    HW214181   1.315   5.984   3.182
 4428SOL     OW14182   2.074   0.060   2.941
 4428SOL    HW114183   2.146   0.090   3.003
 4428SOL    HW214184   2.107   7.001   2.884
 4429SOL     OW14185   3.291   0.426   3.041
 4429SOL    HW114186   3.233   0.486   3.096
 4429SOL    HW214187   3.256   0.332   3.046
 4430SOL     OW14188   1.208   0.948   2.084
 4430SOL    HW114189   1.283   1.014   2.090
 4430SOL    HW214190   1.208   0.906   1.993
 4431SOL     OW14191   2.552   2.088   3.466
 4431SOL    HW114192   2.579   2.158   3.531
 4431SOL    HW214193   2.501   2.016   3.514
 4432SOL     OW14194   2.874   3.661   3.871
 4432SOL    HW114195   2.891   3.699   3.780
 4432SOL    HW214196   2.930   3.579   3.884
 4433SOL     OW14197   6.546   0.446   2.849
 4433SOL    HW114198   6.581   0.354   2.866
 4433SOL    HW214199   6.477   0.468   2.918
 4434SOL     OW14200   5.327   2.477   4.766
 4434SOL    HW114201   5.418   2.440   4.781
 4434SOL    HW214202   5.268   2.407   4.725
 4435SOL     OW14203   3.753   2.909   1.934
 4435SOL    HW114204   3.674   2.855   1.963
 4435SOL    HW214205   3.729   2.963   1.853
 4436SOL     OW14206   5.212   0.044   0.781
 4436SOL    HW114207   5.157   7.003   0.842
 4436SOL    HW214208   5.306   0.045   0.813
 4437SOL     OW14209   3.605   0.173   5.164
 4437SOL    HW114210   3.649   0.101   5.109
 4437SOL    HW214211   3.646   0.174   5.255
 4438SOL     OW14212   3.896   3.486   6.113
 4438SOL    HW114213   3.864   3.581   6.115
 4438SOL    HW214214   3.991   3.482   6.145
 4439SOL     OW14215   2.320   4.438   2.385
 4439SOL    HW114216   2.263   4.507   2.340
 4439SOL    HW214217   2.322   4.455   2.483
 4440SOL     OW14218   6.080   1.181   0.448
 4440SOL    HW114219   6.113   1.236   0.371
 4440SOL    HW214220   5.982   1.163   0.437
 4441SOL     OW14221   5.914   0.732   3.541
 4441SOL    HW114222   5.899   0.826   3.572
 4441SOL    HW214223   6.012   0.719   3.524
 4442SOL     OW14224   2.100   6.005   1.680
 4442SOL    HW114225   2.078   5.924   1.735
 4442SOL    HW214226   2.109   6.085   1.740
 4443SOL     OW14227   2.418   1.509   6.851
 4443SOL    HW114228   2.383   1.546   6.765
 4443SOL    HW214229   2.399   1.573   6.925
 4444SOL     OW14230   4.678   1.100   2.888
 4444SOL    HW114231   4.688   1.197   2.906
 4444SOL    HW214232   4.602   1.085   2.824
 4445SOL     OW14233   0.803   0.782   6.159
 4445SOL    HW114234   0.753   0.817   6.080
 4445SOL    HW214235   0.739   0.765   6.234
 4446SOL     OW14236   5.319   4.846   3.865
 4446SOL    HW114237   5.255   4.915   3.899
 4446SOL    HW214238   5.373   4.811   3.942
 4447SOL     OW14239   5.054   3.212   5.334
 4447SOL    HW114240   4.993   3.178   5.406
 4447SOL    HW214241   5.006   3.281   5.280
 4448SOL     OW14242   2.166   3.234   6.708
 4448SOL    HW114243   2.104   3.175   6.658
 4448SOL    HW214244   2.124   3.262   6.794
 4449SOL     OW14245   0.377   1.026   5.416
 4449SOL    HW114246   0.403   1.019   5.320
 4449SOL    HW214247   0.301   1.090   5.425
 4450SOL     OW14248   3.511   3.511   2.220
 4450SOL    HW114249   3.603   3.475   2.227
 4450SOL    HW214250   3.510   3.607   2.247
 4451SOL     OW14251   0.181   3.730   0.836
 4451SOL    HW114252   0.184   3.768   0.929
 4451SOL    HW214253   0.212   3.635   0.837
 4452SOL     OW14254   6.489   3.461   6.411
 4452SOL    HW114255   6.527   3.398   6.343
 4452SOL    HW214256   6.564   3.506   6.460
 4453SOL     OW14257   4.977   1.327   0.639
 4453SOL    HW114258   4.996   1.231   0.660
 4453SOL    HW214259   5.057   1.368   0.595
 4454SOL     OW14260   4.937   3.153   1.874
 4454SOL    HW114261   4.850   3.122   1.911
 4454SOL    HW214262   5.003   3.078   1.876
 4455SOL     OW14263   4.348   2.174   2.186
 4455SOL    HW114264   4.377   2.226   2.266
 4455SOL    HW214265   4.256   2.202   2.159
 4456SOL     OW14266   1.191   5.412   2.683
 4456SOL    HW114267   1.140   5.461   2.754
 4456SOL    HW214268   1.131   5.397   2.604
 4457SOL     OW14269   4.404   1.698   6.942
 4457SOL    HW114270   4.367   1.738   6.858
 4457SOL    HW214271   4.332   1.651   6.991
 4458SOL     OW14272   4.136   1.751   0.880
 4458SOL    HW114273   4.043   1.749   0.844
 4458SOL    HW214274   4.134   1.760   0.979
 4459SOL     OW14275   5.486   6.675   5.127
 4459SOL    HW114276   5.477   6.594   5.185
 4459SOL    HW214277   5.463   6.756   5.180
 4460SOL     OW14278   1.024   1.374   6.669
 4460SOL    HW114279   0.984   1.461   6.641
 4460SOL    HW214280   1.094   1.347   6.603
 4461SOL     OW14281   2.000   6.803   2.266
 4461SOL    HW114282   1.905   6.823   2.292
 4461SOL    HW214283   2.039   6.882   2.218
 4462SOL     OW14284   6.697   4.666   0.424
 4462SOL    HW114285   6.688   4.752   0.474
 4462SOL    HW214286   6.773   4.613   0.461
 4463SOL     OW14287   1.340   3.940   6.326
 4463SOL    HW114288   1.429   3.945   6.280
 4463SOL    HW214289   1.349   3.975   6.419
 4464SOL     OW14290   6.506   2.805   0.181
 4464SOL    HW114291   6.554   2.746   0.116
 4464SOL    HW214292   6.550   2.894   0.183
 4465SOL     OW14293   0.433   5.802   0.319
 4465SOL    HW114294   0.353   5.804   0.258
 4465SOL    HW214295   0.436   5.715   0.368
 4466SOL     OW14296   6.763   2.927   3.299
 4466SOL    HW114297   6.833   2.976   3.247
 4466SOL    HW214298   6.738   2.843   3.252
 4467SOL     OW14299   1.305   0.252   3.152
 4467SOL    HW114300   1.355   0.187   3.209
 4467SOL    HW214301   1.303   0.219   3.058
 4468SOL     OW14302   1.868   2.277   0.837
 4468SOL    HW114303   1.961   2.243   0.854
 4468SOL    HW214304   1.816   2.276   0.923
 4469SOL     OW14305   4.385   0.088   0.577
 4469SOL    HW114306   4.320   0.015   0.553
 4469SOL    HW214307   4.389   0.155   0.503
 4470SOL     OW14308   4.611   5.216   1.209
 4470SOL    HW114309   4.630   5.141   1.146
 4470SOL    HW214310   4.650   5.195   1.299
 4471SOL     OW14311   6.340   2.639   0.900
 4471SOL    HW114312   6.294   2.632   0.811
 4471SOL    HW214313   6.409   2.711   0.896
 4472SOL     OW14314   2.001   4.846   1.539
 4472SOL    HW114315   1.944   4.769   1.566
 4472SOL    HW214316   1.944   4.927   1.526
 4473SOL     OW14317   0.015   0.662   6.597
 4473SOL    HW114318   7.002   0.747   6.554
 4473SOL    HW214319   0.009   0.588   6.530
 4474SOL     OW14320   6.267   0.849   4.384
 4474SOL    HW114321   6.338   0.782   4.364
 4474SOL    HW214322   6.244   0.845   4.481
 4475SOL     OW14323   1.716   4.009   0.589
 4475SOL    HW114324   1.628   4.054   0.602
 4475SOL    HW214325   1.778   4.034   0.664
 4476SOL     OW14326   5.216   6.707   2.673
 4476SOL    HW114327   5.144   6.683   2.738
 4476SOL    HW214328   5.304   6.705   2.719
 4477SOL     OW14329   1.177   1.872   0.844
 4477SOL    HW114330   1.174   1.971   0.855
 4477SOL    HW214331   1.096   1.842   0.793
 4478SOL     OW14332   1.204   4.851   2.076
 4478SOL    HW114333   1.216   4.938   2.029
 4478SOL    HW214334   1.293   4.804   2.081
 4479SOL     OW14335   1.020   0.101   6.199
 4479SOL    HW114336   1.005   0.098   6.298
 4479SOL    HW214337   1.078   0.180   6.177
 4480SOL     OW14338   0.049   4.315   3.323
 4480SOL    HW114339   0.022   4.228   3.363
 4480SOL    HW214340   0.149   4.321   3.320
 4481SOL     OW14341   0.689   0.877   3.970
 4481SOL    HW114342   0.593   0.897   3.986
 4481SOL    HW214343   0.722   0.812   4.039
 4482SOL     OW14344   1.320   3.981   3.004
 4482SOL    HW114345   1.340   3.999   2.908
 4482SOL    HW214346   1.401   3.944   3.049
 4483SOL     OW14347   6.063   2.981   1.414
 4483SOL    HW114348   5.995   3.052   1.433
 4483SOL    HW214349   6.082   2.978   1.316
 4484SOL     OW14350   3.454   3.695   6.006
 4484SOL    HW114351   3.494   3.611   6.042
 4484SOL    HW214352   3.482   3.772   6.063
 4485SOL     OW14353   4.533   0.335   0.229
 4485SOL    HW114354   4.548   0.422   0.182
 4485SOL    HW214355   4.437   0.309   0.222
 4486SOL     OW14356   6.055   3.182   3.889
 4486SOL    HW114357   6.040   3.159   3.792
 4486SOL    HW214358   5.967   3.192   3.935
 4487SOL     OW14359   3.085   3.023   5.670
 4487SOL    HW114360   3.070   3.091   5.743
 4487SOL    HW214361   3.048   2.935   5.699
 4488SOL     OW14362   6.635   1.481   6.526
 4488SOL    HW114363   6.652   1.402   6.467
 4488SOL    HW214364   6.689   1.559   6.495
 4489SOL     OW14365   0.466   1.334   2.530
 4489SOL    HW114366   0.517   1.248   2.538
 4489SOL    HW214367   0.402   1.343   2.606
 4490SOL     OW14368   6.646   2.143   3.671
 4490SOL    HW114369   6.714   2.210   3.644
 4490SOL    HW214370   6.572   2.142   3.604
 4491SOL     OW14371   2.089   3.691   2.599
 4491SOL    HW114372   2.093   3.597   2.567
 4491SOL    HW214373   2.115   3.753   2.525
 4492SOL     OW14374   4.941   4.678   6.271
 4492SOL    HW114375   4.952   4.654   6.368
 4492SOL    HW214376   4.887   4.762   6.263
 4493SOL     OW14377   5.987   4.770   3.872
 4493SOL    HW114378   6.073   4.733   3.908
 4493SOL    HW214379   6.002   4.864   3.841
 4494SOL     OW14380   5.718   2.863   2.837
 4494SOL    HW114381   5.749   2.850   2.931
 4494SOL    HW214382   5.637   2.922   2.836
 4495SOL     OW14383   4.762   6.000   2.112
 4495SOL    HW114384   4.769   6.011   2.013
 4495SOL    HW214385   4.804   5.913   2.139
 4496SOL     OW14386   5.758   4.305   5.978
 4496SOL    HW114387   5.777   4.214   6.015
 4496SOL    HW214388   5.837   4.364   5.995
 4497SOL     OW14389   6.381   5.458   0.814
 4497SOL    HW114390   6.294   5.485   0.855
 4497SOL    HW214391   6.429   5.539   0.782
 4498SOL     OW14392   1.085   3.880   6.959
 4498SOL    HW114393   1.104   3.785   6.983
 4498SOL    HW214394   0.991   3.889   6.927
 4499SOL     OW14395   5.114   3.019   6.851
 4499SOL    HW114396   5.065   3.100   6.880
 4499SOL    HW214397   5.122   2.955   6.927
 4500SOL     OW14398   3.639   4.132   3.209
 4500SOL    HW114399   3.713   4.083   3.254
 4500SOL    HW214400   3.605   4.204   3.270
 4501SOL     OW14401   1.594   4.886   4.806
 4501SOL    HW114402   1.683   4.865   4.846
 4501SOL    HW214403   1.606   4.941   4.724
 4502SOL     OW14404   6.078   3.054   6.901
 4502SOL    HW114405   6.066   2.970   6.955
 4502SOL    HW214406   5.998   3.112   6.914
 4503SOL     OW14407   1.741   3.370   2.835
 4503SOL    HW114408   1.722   3.400   2.928
 4503SOL    HW214409   1.696   3.432   2.770
 4504SOL     OW14410   4.631   2.641   4.133
 4504SOL    HW114411   4.645   2.714   4.199
 4504SOL    HW214412   4.543   2.597   4.150
 4505SOL     OW14413   1.771   4.972   6.809
 4505SOL    HW114414   1.838   4.977   6.882
 4505SOL    HW214415   1.688   5.021   6.836
 4506SOL     OW14416   4.298   6.831   4.816
 4506SOL    HW114417   4.287   6.851   4.719
 4506SOL    HW214418   4.244   6.896   4.870
 4507SOL     OW14419   6.173   3.208   2.320
 4507SOL    HW114420   6.258   3.155   2.313
 4507SOL    HW214421   6.113   3.186   2.244
 4508SOL     OW14422   2.157   3.904   6.940
 4508SOL    HW114423   2.255   3.904   6.956
 4508SOL    HW214424   2.112   3.962   7.008
 4509SOL     OW14425   0.170   1.764   3.748
 4509SOL    HW114426   0.195   1.744   3.654
 4509SOL    HW214427   0.215   1.699   3.809
 4510SOL     OW14428   3.534   6.476   5.930
 4510SOL    HW114429   3.515   6.409   5.858
 4510SOL    HW214430   3.522   6.568   5.894
 4511SOL     OW14431   6.519   2.125   6.746
 4511SOL    HW114432   6.492   2.159   6.655
 4511SOL    HW214433   6.484   2.033   6.759
 4512SOL     OW14434   2.614   4.556   6.842
 4512SOL    HW114435   2.660   4.600   6.920
 4512SOL    HW214436   2.683   4.517   6.781
 4513SOL     OW14437   5.791   1.197   2.413
 4513SOL    HW114438   5.750   1.108   2.393
 4513SOL    HW214439   5.742   1.239   2.489
 4514SOL     OW14440   3.612   0.857   6.155
 4514SOL    HW114441   3.569   0.797   6.087
 4514SOL    HW214442   3.666   0.927   6.108
 4515SOL     OW14443   6.261   4.588   0.512
 4515SOL    HW114444   6.273   4.664   0.449
 4515SOL    HW214445   6.182   4.605   0.570
 4516SOL     OW14446   0.723   6.909   4.022
 4516SOL    HW114447   0.805   6.866   4.059
 4516SOL    HW214448   0.689   6.854   3.945
 4517SOL     OW14449   3.982   0.619   6.434
 4517SOL    HW114450   4.075   0.624   6.470
 4517SOL    HW214451   3.917   0.650   6.503
 4518SOL     OW14452   1.517   0.287   3.602
 4518SOL    HW114453   1.430   0.331   3.581
 4518SOL    HW214454   1.501   0.194   3.635
 4519SOL     OW14455   6.192   2.791   5.318
 4519SOL    HW114456   6.246   2.707   5.327
 4519SOL    HW214457   6.094   2.767   5.316
 4520SOL     OW14458   0.299   4.122   2.491
 4520SOL    HW114459   0.215   4.106   2.439
 4520SOL    HW214460   0.324   4.039   2.541
 4521SOL     OW14461   5.110   1.735   6.375
 4521SOL    HW114462   5.059   1.750   6.289
 4521SOL    HW214463   5.148   1.643   6.375
 4522SOL     OW14464   5.685   0.216   3.159
 4522SOL    HW114465   5.587   0.201   3.153
 4522SOL    HW214466   5.709   0.244   3.252
 4523SOL     OW14467   4.742   2.670   6.348
 4523SOL    HW114468   4.693   2.688   6.434
 4523SOL    HW214469   4.816   2.606   6.365
 4524SOL     OW14470   6.124   0.566   4.840
 4524SOL    HW114471   6.091   0.657   4.866
 4524SOL    HW214472   6.052   0.518   4.790
 4525SOL     OW14473   6.267   1.935   5.595
 4525SOL    HW114474   6.359   1.897   5.582
 4525SOL    HW214475   6.211   1.914   5.515
 4526SOL     OW14476   3.268   1.308   1.511
 4526SOL    HW114477   3.311   1.220   1.530
 4526SOL    HW214478   3.287   1.371   1.587
 4527SOL     OW14479   4.434   6.377   3.554
 4527SOL    HW114480   4.338   6.390   3.577
 4527SOL    HW214481   4.476   6.315   3.620
 4528SOL     OW14482   4.853   6.838   5.684
 4528SOL    HW114483   4.953   6.836   5.676
 4528SOL    HW214484   4.827   6.862   5.778
 4529SOL     OW14485   3.733   0.487   3.669
 4529SOL    HW114486   3.731   0.576   3.715
 4529SOL    HW214487   3.687   0.419   3.726
 4530SOL     OW14488   0.435   3.131   5.257
 4530SOL    HW114489   0.388   3.072   5.191
 4530SOL    HW214490   0.401   3.224   5.249
 4531SOL     OW14491   0.362   3.795   3.409
 4531SOL    HW114492   0.326   3.779   3.501
 4531SOL    HW214493   0.294   3.846   3.355
 4532SOL     OW14494   6.883   1.592   0.328
 4532SOL    HW114495   6.810   1.655   0.303
 4532SOL    HW214496   6.966   1.615   0.278
 4533SOL     OW14497   3.175   5.920   2.529
 4533SOL    HW114498   3.124   5.959   2.452
 4533SOL    HW214499   3.268   5.899   2.499
 4534SOL     OW14500   6.915   4.521   5.567
 4534SOL    HW114501   6.988   4.565   5.515
 4534SOL    HW214502   6.892   4.579   5.646
 4535SOL     OW14503   5.071   2.652   3.133
 4535SOL    HW114504   5.007   2.643   3.057
 4535SOL    HW214505   5.143   2.716   3.108
 4536SOL     OW14506   6.762   0.367   4.367
 4536SOL    HW114507   6.834   0.399   4.305
 4536SOL    HW214508   6.765   0.421   4.451
 4537SOL     OW14509   4.754   3.235   6.607
 4537SOL    HW114510   4.706   3.194   6.685
 4537SOL    HW214511   4.817   3.168   6.568
 4538SOL     OW14512   3.426   2.025   1.488
 4538SOL    HW114513   3.454   2.098   1.550
 4538SOL    HW214514   3.346   1.978   1.525
 4539SOL     OW14515   2.238   2.440   2.616
 4539SOL    HW114516   2.315   2.417   2.557
 4539SOL    HW214517   2.240   2.538   2.637
 4540SOL     OW14518   3.390   3.253   5.030
 4540SOL    HW114519   3.390   3.219   5.124
 4540SOL    HW214520   3.301   3.294   5.010
 4541SOL     OW14521   5.929   0.910   1.758
 4541SOL    HW114522   5.879   0.988   1.796
 4541SOL    HW214523   5.885   0.881   1.673
 4542SOL     OW14524   4.862   6.882   3.086
 4542SOL    HW114525   4.805   6.807   3.055
 4542SOL    HW214526   4.932   6.903   3.017
 4543SOL     OW14527   5.730   1.649   1.549
 4543SOL    HW114528   5.666   1.692   1.485
 4543SOL    HW214529   5.691   1.648   1.641
 4544SOL     OW14530   4.387   4.941   6.661
 4544SOL    HW114531   4.459   4.930   6.729
 4544SOL    HW214532   4.343   4.852   6.645
 4545SOL     OW14533   4.222   3.876   5.958
 4545SOL    HW114534   4.184   3.911   5.872
 4545SOL    HW214535   4.169   3.911   6.035
 4546SOL     OW14536   0.184   6.621   0.135
 4546SOL    HW114537   0.128   6.588   0.211
 4546SOL    HW214538   0.140   6.597   0.048
 4547SOL     OW14539   4.530   1.622   1.931
 4547SOL    HW114540   4.498   1.529   1.949
 4547SOL    HW214541   4.542   1.670   2.018
 4548SOL     OW14542   0.958   3.899   3.970
 4548SOL    HW114543   0.960   3.838   4.049
 4548SOL    HW214544   0.897   3.862   3.900
 4549SOL     OW14545   4.748   1.410   2.574
 4549SOL    HW114546   4.650   1.413   2.555
 4549SOL    HW214547   4.776   1.315   2.589
 4550SOL     OW14548   1.670   5.544   4.552
 4550SOL    HW114549   1.677   5.608   4.475
 4550SOL    HW214550   1.746   5.558   4.615
 4551SOL     OW14551   6.606   3.279   6.905
 4551SOL    HW114552   6.622   3.378   6.910
 4551SOL    HW214553   6.662   3.233   6.975
 4552SOL     OW14554   6.558   3.046   4.661
 4552SOL    HW114555   6.491   3.093   4.718
 4552SOL    HW214556   6.623   3.113   4.624
 4553SOL     OW14557   5.104   5.090   0.211
 4553SOL    HW114558   5.141   5.155   0.278
 4553SOL    HW214559   5.165   5.010   0.206
 4554SOL     OW14560   5.874   6.834   3.398
 4554SOL    HW114561   5.789   6.862   3.354
 4554SOL    HW214562   5.859   6.750   3.451
 4555SOL     OW14563   3.906   3.283   6.432
 4555SOL    HW114564   3.862   3.367   6.399
 4555SOL    HW214565   3.857   3.204   6.397
 4556SOL     OW14566   4.726   0.523   5.335
 4556SOL    HW114567   4.811   0.484   5.370
 4556SOL    HW214568   4.744   0.614   5.298
 4557SOL     OW14569   5.183   0.543   4.950
 4557SOL    HW114570   5.111   0.573   5.013
 4557SOL    HW214571   5.246   0.482   4.999
 4558SOL     OW14572   6.164   2.993   5.998
 4558SOL    HW114573   6.106   2.918   5.966
 4558SOL    HW214574   6.193   3.049   5.920
 4559SOL     OW14575   1.214   6.374   1.406
 4559SOL    HW114576   1.247   6.462   1.372
 4559SOL    HW214577   1.269   6.300   1.367
 4560SOL     OW14578   5.674   2.221   2.404
 4560SOL    HW114579   5.704   2.268   2.487
 4560SOL    HW214580   5.606   2.151   2.428
 4561SOL     OW14581   3.413   0.608   6.481
 4561SOL    HW114582   3.464   0.691   6.502
 4561SOL    HW214583   3.449   0.532   6.536
 4562SOL     OW14584   2.228   4.447   5.740
 4562SOL    HW114585   2.255   4.477   5.832
 4562SOL    HW214586   2.140   4.400   5.744
 4563SOL     OW14587   5.369   2.311   6.506
 4563SOL    HW114588   5.278   2.323   6.544
 4563SOL    HW214589   5.404   2.400   6.475
 4564SOL     OW14590   0.737   5.150   6.667
 4564SOL    HW114591   0.780   5.093   6.738
 4564SOL    HW214592   0.686   5.091   6.604
 4565SOL     OW14593   2.465   0.905   3.812
 4565SOL    HW114594   2.555   0.908   3.857
 4565SOL    HW214595   2.405   0.973   3.855
 4566SOL     OW14596   1.600   1.040   0.402
 4566SOL    HW114597   1.654   0.997   0.329
 4566SOL    HW214598   1.580   1.135   0.378
 4567SOL     OW14599   5.572   1.221   1.028
 4567SOL    HW114600   5.614   1.138   1.065
 4567SOL    HW214601   5.644   1.281   0.992
 4568SOL     OW14602   3.931   4.841   4.154
 4568SOL    HW114603   3.999   4.772   4.132
 4568SOL    HW214604   3.935   4.915   4.086
 4569SOL     OW14605   0.360   2.085   3.185
 4569SOL    HW114606   0.359   1.986   3.170
 4569SOL    HW214607   0.267   2.118   3.202
 4570SOL     OW14608   5.681   5.815   4.315
 4570SOL    HW114609   5.764   5.862   4.287
 4570SOL    HW214610   5.605   5.880   4.318
 4571SOL     OW14611   3.531   2.876   4.330
 4571SOL    HW114612   3.600   2.862   4.402
 4571SOL    HW214613   3.454   2.926   4.368
 4572SOL     OW14614   1.901   5.187   1.793
 4572SOL    HW114615   1.883   5.208   1.889
 4572SOL    HW214616   1.953   5.102   1.787
 4573SOL     OW14617   5.063   0.344   1.002
 4573SOL    HW114618   5.068   0.433   1.047
 4573SOL    HW214619   5.111   0.276   1.057
 4574SOL     OW14620   0.163   4.094   1.300
 4574SOL    HW114621   0.217   4.178   1.293
 4574SOL    HW214622   0.103   4.098   1.379
 4575SOL     OW14623   6.946   6.211   2.184
 4575SOL    HW114624   0.024   6.224   2.154
 4575SOL    HW214625   6.884   6.233   2.109
 4576SOL     OW14626   3.683   6.301   3.994
 4576SOL    HW114627   3.715   6.374   3.934
 4576SOL    HW214628   3.610   6.249   3.949
 4577SOL     OW14629   1.338   2.946   4.070
 4577SOL    HW114630   1.283   3.012   4.020
 4577SOL    HW214631   1.347   2.975   4.165
 4578SOL     OW14632   0.640   5.006   3.848
 4578SOL    HW114633   0.621   5.072   3.921
 4578SOL    HW214634   0.638   4.913   3.886
 4579SOL     OW14635   5.535   1.817   4.989
 4579SOL    HW114636   5.574   1.733   5.026
 4579SOL    HW214637   5.491   1.797   4.902
 4580SOL     OW14638   0.129   5.622   6.946
 4580SOL    HW114639   0.128   5.527   6.914
 4580SOL    HW214640   0.149   5.683   6.870
 4581SOL     OW14641   3.331   6.534   3.983
 4581SOL    HW114642   3.233   6.547   3.967
 4581SOL    HW214643   3.372   6.489   3.904
 4582SOL     OW14644   4.951   6.595   3.237
 4582SOL    HW114645   4.852   6.594   3.223
 4582SOL    HW214646   4.994   6.535   3.169
 4583SOL     OW14647   3.757   1.263   5.564
 4583SOL    HW114648   3.758   1.354   5.606
 4583SOL    HW214649   3.755   1.273   5.464
 4584SOL     OW14650   1.236   5.209   6.056
 4584SOL    HW114651   1.177   5.129   6.069
 4584SOL    HW214652   1.244   5.228   5.958
 4585SOL     OW14653   3.130   6.431   2.045
 4585SOL    HW114654   3.185   6.451   2.126
 4585SOL    HW214655   3.037   6.407   2.073
 4586SOL     OW14656   2.790   6.068   1.708
 4586SOL    HW114657   2.692   6.073   1.686
 4586SOL    HW214658   2.843   6.100   1.631
 4587SOL     OW14659   3.062   5.054   0.522
 4587SOL    HW114660   3.121   5.109   0.581
 4587SOL    HW214661   3.057   5.098   0.432
 4588SOL     OW14662   3.819   4.375   5.300
 4588SOL    HW114663   3.909   4.369   5.257
 4588SOL    HW214664   3.748   4.370   5.229
 4589SOL     OW14665   0.853   1.917   3.084
 4589SOL    HW114666   0.836   1.880   3.175
 4589SOL    HW214667   0.856   1.843   3.018
 4590SOL     OW14668   4.308   6.415   3.168
 4590SOL    HW114669   4.336   6.438   3.075
 4590SOL    HW214670   4.274   6.321   3.171
 4591SOL     OW14671   6.252   6.837   5.260
 4591SOL    HW114672   6.222   6.807   5.169
 4591SOL    HW214673   6.244   6.761   5.324
 4592SOL     OW14674   3.309   1.645   6.217
 4592SOL    HW114675   3.313   1.620   6.314
 4592SOL    HW214676   3.330   1.564   6.161
 4593SOL     OW14677   4.860   6.359   1.781
 4593SOL    HW114678   4.857   6.262   1.805
 4593SOL    HW214679   4.953   6.393   1.790
 4594SOL     OW14680   3.720   1.573   2.232
 4594SOL    HW114681   3.701   1.521   2.314
 4594SOL    HW214682   3.640   1.628   2.207
 4595SOL     OW14683   4.892   3.564   6.383
 4595SOL    HW114684   4.985   3.601   6.389
 4595SOL    HW214685   4.827   3.629   6.423
 4596SOL     OW14686   5.367   0.440   2.430
 4596SOL    HW114687   5.290   0.487   2.473
 4596SOL    HW214688   5.402   0.369   2.491
 4597SOL     OW14689   6.515   4.481   5.881
 4597SOL    HW114690   6.591   4.419   5.899
 4597SOL    HW214691   6.548   4.575   5.879
 4598SOL     OW14692   3.204   4.077   0.422
 4598SOL    HW114693   3.147   4.101   0.501
 4598SOL    HW214694   3.199   3.978   0.406
 4599SOL     OW14695   2.219   5.531   0.503
 4599SOL    HW114696   2.147   5.544   0.434
 4599SOL    HW214697   2.294   5.594   0.486
 4600SOL     OW14698   3.595   4.597   1.406
 4600SOL    HW114699   3.502   4.572   1.435
 4600SOL    HW214700   3.661   4.564   1.473
 4601SOL     OW14701   1.705   5.714   4.305
 4601SOL    HW114702   1.606   5.709   4.294
 4601SOL    HW214703   1.734   5.810   4.299
 4602SOL     OW14704   1.425   1.167   0.836
 4602SOL    HW114705   1.468   1.206   0.917
 4602SOL    HW214706   1.376   1.084   0.861
 4603SOL     OW14707   2.879   1.573   1.809
 4603SOL    HW114708   2.947   1.621   1.864
 4603SOL    HW214709   2.905   1.477   1.799
 4604SOL     OW14710   1.580   1.016   2.226
 4604SOL    HW114711   1.596   0.920   2.202
 4604SOL    HW214712   1.598   1.029   2.324
 4605SOL     OW14713   4.962   6.266   5.739
 4605SOL    HW114714   4.983   6.341   5.676
 4605SOL    HW214715   5.017   6.186   5.717
 4606SOL     OW14716   6.900   5.994   4.881
 4606SOL    HW114717   6.858   6.050   4.809
 4606SOL    HW214718   6.904   5.899   4.851
 4607SOL     OW14719   2.889   2.547   1.511
 4607SOL    HW114720   2.843   2.635   1.525
 4607SOL    HW214721   2.983   2.554   1.545
 4608SOL     OW14722   1.679   3.441   4.952
 4608SOL    HW114723   1.627   3.520   4.983
 4608SOL    HW214724   1.665   3.428   4.854
 4609SOL     OW14725   3.240   0.229   0.236
 4609SOL    HW114726   3.157   0.197   0.282
 4609SOL    HW214727   3.225   0.235   0.138
 4610SOL     OW14728   6.927   3.157   6.754
 4610SOL    HW114729   6.999   3.142   6.686
 4610SOL    HW214730   6.932   3.085   6.824
 4611SOL     OW14731   1.592   3.910   6.694
 4611SOL    HW114732   1.675   3.965   6.683
 4611SOL    HW214733   1.593   3.865   6.784
 4612SOL     OW14734   2.607   0.098   6.577
 4612SOL    HW114735   2.691   0.086   6.524
 4612SOL    HW214736   2.609   0.037   6.656
 4613SOL     OW14737   3.140   4.893   1.640
 4613SOL    HW114738   3.221   4.834   1.631
 4613SOL    HW214739   3.167   4.978   1.686
 4614SOL     OW14740   2.206   4.852   7.016
 4614SOL    HW114741   2.154   4.778   0.043
 4614SOL    HW214742   2.207   4.932   0.060
 4615SOL     OW14743   6.784   3.157   0.057
 4615SOL    HW114744   6.808   3.086   7.007
 4615SOL    HW214745   6.859   3.222   0.065
 4616SOL     OW14746   5.861   0.433   0.756
 4616SOL    HW114747   5.846   0.457   0.852
 4616SOL    HW214748   5.936   0.367   0.750
 4617SOL     OW14749   0.027   3.856   1.858
 4617SOL    HW114750   0.068   3.944   1.834
 4617SOL    HW214751   0.099   3.787   1.867
 4618SOL     OW14752   0.608   2.899   6.340
 4618SOL    HW114753   0.552   2.981   6.353
 4618SOL    HW214754   0.554   2.828   6.295
 4619SOL     OW14755   3.501   0.629   3.991
 4619SOL    HW114756   3.440   0.579   3.930
 4619SOL    HW214757   3.570   0.567   4.028
 4620SOL     OW14758   2.238   5.772   6.467
 4620SOL    HW114759   2.191   5.730   6.545
 4620SOL    HW214760   2.335   5.746   6.468
 4621SOL     OW14761   0.145   0.259   6.038
 4621SOL    HW114762   0.146   0.184   5.972
 4621SOL    HW214763   0.231   0.260   6.089
 4622SOL     OW14764   2.429   3.368   1.126
 4622SOL    HW114765   2.431   3.442   1.193
 4622SOL    HW214766   2.393   3.402   1.039
 4623SOL     OW14767   5.421   4.867   2.757
 4623SOL    HW114768   5.349   4.799   2.770
 4623SOL    HW214769   5.387   4.957   2.783
 4624SOL     OW14770   4.593   6.925   5.168
 4624SOL    HW114771   4.498   6.900   5.186
 4624SOL    HW214772   4.653   6.863   5.219
 4625SOL     OW14773   1.553   3.906   6.146
 4625SOL    HW114774   1.621   3.891   6.218
 4625SOL    HW214775   1.582   3.859   6.062
 4626SOL     OW14776   5.646   5.454   2.094
 4626SOL    HW114777   5.674   5.406   2.011
 4626SOL    HW214778   5.696   5.540   2.102
 4627SOL     OW14779   1.769   0.144   5.672
 4627SOL    HW114780   1.730   0.223   5.624
 4627SOL    HW214781   1.712   0.064   5.656
 4628SOL     OW14782   6.969   2.875   1.978
 4628SOL    HW114783   6.970   2.776   1.964
 4628SOL    HW214784   6.909   2.898   2.055
 4629SOL     OW14785   4.207   4.742   4.429
 4629SOL    HW114786   4.237   4.691   4.510
 4629SOL    HW214787   4.131   4.803   4.453
 4630SOL     OW14788   1.730   6.735   2.370
 4630SOL    HW114789   1.772   6.762   2.457
 4630SOL    HW214790   1.754   6.641   2.348
 4631SOL     OW14791   1.972   0.468   2.805
 4631SOL    HW114792   2.018   0.500   2.888
 4631SOL    HW214793   1.939   0.547   2.753
 4632SOL     OW14794   6.312   5.601   4.186
 4632SOL    HW114795   6.280   5.664   4.257
 4632SOL    HW214796   6.269   5.512   4.198
 4633SOL     OW14797   5.155   2.425   5.740
 4633SOL    HW114798   5.128   2.423   5.644
 4633SOL    HW214799   5.196   2.513   5.761
 4634SOL     OW14800   3.277   4.385   0.754
 4634SOL    HW114801   3.267   4.433   0.667
 4634SOL    HW214802   3.218   4.427   0.822
 4635SOL     OW14803   5.399   3.223   1.705
 4635SOL    HW114804   5.418   3.312   1.746
 4635SOL    HW214805   5.427   3.150   1.767
 4636SOL     OW14806   1.095   5.652   1.434
 4636SOL    HW114807   1.005   5.620   1.464
 4636SOL    HW214808   1.086   5.701   1.347
 4637SOL     OW14809   1.413   0.703   4.344
 4637SOL    HW114810   1.427   0.612   4.382
 4637SOL    HW214811   1.366   0.697   4.256
 4638SOL     OW14812   4.308   4.512   6.167
 4638SOL    HW114813   4.279   4.472   6.254
 4638SOL    HW214814   4.287   4.610   6.167
 4639SOL     OW14815   0.232   2.389   4.872
 4639SOL    HW114816   0.151   2.349   4.829
 4639SOL    HW214817   0.303   2.404   4.804
 4640SOL     OW14818   6.399   4.659   2.511
 4640SOL    HW114819   6.449   4.667   2.597
 4640SOL    HW214820   6.431   4.728   2.447
 4641SOL     OW14821   2.886   3.478   5.557
 4641SOL    HW114822   2.824   3.553   5.532
 4641SOL    HW214823   2.921   3.494   5.649
 4642SOL     OW14824   6.503   5.875   3.796
 4642SOL    HW114825   6.490   5.779   3.769
 4642SOL    HW214826   6.509   5.932   3.714
 4643SOL     OW14827   3.879   2.882   0.561
 4643SOL    HW114828   3.886   2.980   0.541
 4643SOL    HW214829   3.966   2.838   0.539
 4644SOL     OW14830   3.428   4.791   5.193
 4644SOL    HW114831   3.454   4.711   5.247
 4644SOL    HW214832   3.329   4.793   5.183
 4645SOL     OW14833   1.483   6.369   4.988
 4645SOL    HW114834   1.499   6.275   4.960
 4645SOL    HW214835   1.397   6.402   4.950
 4646SOL     OW14836   3.809   0.552   1.545
 4646SOL    HW114837   3.774   0.634   1.590
 4646SOL    HW214838   3.792   0.558   1.447
 4647SOL     OW14839   6.952   0.680   5.110
 4647SOL    HW114840   6.906   0.661   5.197
 4647SOL    HW214841   6.979   0.776   5.106
 4648SOL     OW14842   1.912   5.054   2.685
 4648SOL    HW114843   1.886   4.983   2.620
 4648SOL    HW214844   1.836   5.072   2.747
 4649SOL     OW14845   5.795   6.431   6.036
 4649SOL    HW114846   5.878   6.438   6.091
 4649SOL    HW214847   5.725   6.382   6.088
 4650SOL     OW14848   6.687   4.478   1.496
 4650SOL    HW114849   6.717   4.421   1.420
 4650SOL    HW214850   6.626   4.425   1.555
 4651SOL     OW14851   6.021   2.435   2.150
 4651SOL    HW114852   5.999   2.338   2.135
 4651SOL    HW214853   6.120   2.446   2.158
 4652SOL     OW14854   6.963   6.006   5.323
 4652SOL    HW114855   6.982   5.920   5.275
 4652SOL    HW214856   6.985   5.995   5.420
 4653SOL     OW14857   0.322   5.657   6.714
 4653SOL    HW114858   0.261   5.666   6.635
 4653SOL    HW214859   0.316   5.740   6.770
 4654SOL     OW14860   0.982   1.830   6.498
 4654SOL    HW114861   0.983   1.732   6.514
 4654SOL    HW214862   1.050   1.854   6.429
 4655SOL     OW14863   0.377   5.361   3.433
 4655SOL    HW114864   0.328   5.348   3.347
 4655SOL    HW214865   0.459   5.416   3.417
 4656SOL     OW14866   2.400   6.670   3.216
 4656SOL    HW114867   2.454   6.752   3.194
 4656SOL    HW214868   2.345   6.643   3.137
 4657SOL     OW14869   6.150   0.476   6.320
 4657SOL    HW114870   6.089   0.501   6.396
 4657SOL    HW214871   6.110   0.399   6.270
 4658SOL     OW14872   4.966   0.837   3.908
 4658SOL    HW114873   4.947   0.752   3.860
 4658SOL    HW214874   4.998   0.817   4.001
 4659SOL     OW14875   2.142   2.784   4.659
 4659SOL    HW114876   2.216   2.807   4.722
 4659SOL    HW214877   2.054   2.788   4.707
 4660SOL     OW14878   6.618   1.639   5.312
 4660SOL    HW114879   6.638   1.705   5.240
 4660SOL    HW214880   6.703   1.609   5.355
 4661SOL     OW14881   3.980   3.054   3.319
 4661SOL    HW114882   3.913   2.985   3.291
 4661SOL    HW214883   4.018   3.028   3.408
 4662SOL     OW14884   5.607   0.115   3.744
 4662SOL    HW114885   5.526   0.081   3.790
 4662SOL    HW214886   5.642   0.196   3.792
 4663SOL     OW14887   0.919   2.375   1.805
 4663SOL    HW114888   0.972   2.460   1.813
 4663SOL    HW214889   0.970   2.300   1.847
 4664SOL     OW14890   3.678   4.047   0.238
 4664SOL    HW114891   3.605   4.116   0.240
 4664SOL    HW214892   3.642   3.959   0.269
 4665SOL     OW14893   5.340   0.252   6.771
 4665SOL    HW114894   5.278   0.323   6.804
 4665SOL    HW214895   5.424   0.253   6.825
 4666SOL     OW14896   2.028   1.860   0.102
 4666SOL    HW114897   2.026   1.819   0.193
 4666SOL    HW214898   2.119   1.897   0.084
 4667SOL     OW14899   0.796   5.301   4.610
 4667SOL    HW114900   0.713   5.261   4.647
 4667SOL    HW214901   0.773   5.358   4.531
 4668SOL     OW14902   4.892   1.012   5.638
 4668SOL    HW114903   4.796   1.030   5.618
 4668SOL    HW214904   4.912   1.041   5.732
 4669SOL     OW14905   2.864   0.921   1.525
 4669SOL    HW114906   2.866   0.887   1.431
 4669SOL    HW214907   2.789   0.986   1.535
 4670SOL     OW14908   2.462   1.627   4.820
 4670SOL    HW114909   2.390   1.575   4.866
 4670SOL    HW214910   2.422   1.681   4.745
 4671SOL     OW14911   5.429   2.417   1.718
 4671SOL    HW114912   5.367   2.354   1.671
 4671SOL    HW214913   5.442   2.387   1.812
 4672SOL     OW14914   2.897   2.933   5.431
 4672SOL    HW114915   2.875   3.001   5.502
 4672SOL    HW214916   2.962   2.973   5.367
 4673SOL     OW14917   4.689   0.609   2.366
 4673SOL    HW114918   4.674   0.543   2.439
 4673SOL    HW214919   4.696   0.701   2.404
 4674SOL     OW14920   4.991   6.219   5.026
 4674SOL    HW114921   4.949   6.143   4.976
 4674SOL    HW214922   5.043   6.276   4.962
 4675SOL     OW14923   1.117   4.141   6.296
 4675SOL    HW114924   1.192   4.097   6.246
 4675SOL    HW214925   1.030   4.117   6.254
 4676SOL     OW14926   0.585   4.792   4.016
 4676SOL    HW114927   0.536   4.705   4.023
 4676SOL    HW214928   0.610   4.824   4.108
 4677SOL     OW14929   1.631   3.288   0.573
 4677SOL    HW114930   1.684   3.237   0.640
 4677SOL    HW214931   1.578   3.359   0.620
 4678SOL     OW14932   0.857   4.514   2.135
 4678SOL    HW114933   0.952   4.482   2.128
 4678SOL    HW214934   0.848   4.603   2.091
 4679SOL     OW14935   4.218   6.686   1.990
 4679SOL    HW114936   4.293   6.620   1.984
 4679SOL    HW214937   4.255   6.778   2.003
 4680SOL     OW14938   2.201   0.432   6.717
 4680SOL    HW114939   2.240   0.360   6.659
 4680SOL    HW214940   2.181   0.512   6.662
 4681SOL     OW14941   5.202   5.595   2.355
 4681SOL    HW114942   5.259   5.650   2.416
 4681SOL    HW214943   5.260   5.541   2.294
 4682SOL     OW14944   3.713   4.016   6.162
 4682SOL    HW114945   3.643   4.046   6.097
 4682SOL    HW214946   3.731   4.090   6.228
 4683SOL     OW14947   6.203   4.673   3.697
 4683SOL    HW114948   6.250   4.703   3.780
 4683SOL    HW214949   6.245   4.590   3.662
 4684SOL     OW14950   5.435   6.323   6.457
 4684SOL    HW114951   5.394   6.279   6.537
 4684SOL    HW214952   5.510   6.266   6.423
 4685SOL     OW14953   3.274   4.112   4.105
 4685SOL    HW114954   3.276   4.211   4.117
 4685SOL    HW214955   3.182   4.078   4.123
 4686SOL     OW14956   1.508   6.970   7.004
 4686SOL    HW114957   1.556   7.014   6.928
 4686SOL    HW214958   1.486   0.023   0.058
 4687SOL     OW14959   2.412   0.387   2.669
 4687SOL    HW114960   2.349   0.432   2.606
 4687SOL    HW214961   2.367   0.307   2.709
 4688SOL     OW14962   5.131   2.558   6.050
 4688SOL    HW114963   5.048   2.507   6.074
 4688SOL    HW214964   5.159   2.614   6.128
 4689SOL     OW14965   6.801   1.229   1.091
 4689SOL    HW114966   6.820   1.254   0.996
 4689SOL    HW214967   6.733   1.292   1.129
 4690SOL     OW14968   2.992   2.461   1.105
 4690SOL    HW114969   2.932   2.385   1.130
 4690SOL    HW214970   2.959   2.545   1.150
 4691SOL     OW14971   6.332   3.654   1.844
 4691SOL    HW114972   6.278   3.581   1.885
 4691SOL    HW214973   6.298   3.743   1.875
 4692SOL     OW14974   5.139   3.014   3.034
 4692SOL    HW114975   5.177   3.099   3.072
 4692SOL    HW214976   5.194   2.936   3.064
 4693SOL     OW14977   1.021   0.728   2.436
 4693SOL    HW114978   1.051   0.677   2.517
 4693SOL    HW214979   1.058   0.821   2.440
 4694SOL     OW14980   2.148   0.354   6.384
 4694SOL    HW114981   2.079   0.425   6.394
 4694SOL    HW214982   2.104   0.264   6.383
 4695SOL     OW14983   2.427   5.127   2.492
 4695SOL    HW114984   2.398   5.211   2.537
 4695SOL    HW214985   2.522   5.135   2.463
 4696SOL     OW14986   1.183   6.313   5.953
 4696SOL    HW114987   1.108   6.264   5.997
 4696SOL    HW214988   1.160   6.333   5.858
 4697SOL     OW14989   4.247   5.706   1.310
 4697SOL    HW114990   4.295   5.652   1.241
 4697SOL    HW214991   4.308   5.725   1.386
 4698SOL     OW14992   5.717   1.170   4.813
 4698SOL    HW114993   5.699   1.097   4.880
 4698SOL    HW214994   5.768   1.131   4.736
 4699SOL     OW14995   1.515   1.057   2.822
 4699SOL    HW114996   1.513   1.142   2.875
 4699SOL    HW214997   1.573   1.070   2.741
 4700SOL     OW14998   6.202   1.793   2.865
 4700SOL    HW114999   6.129   1.844   2.818
 4700SOL    HW215000   6.237   1.722   2.804
 4701SOL     OW15001   3.085   2.622   1.702
 4701SOL    HW115002   3.026   2.578   1.770
 4701SOL    HW215003   3.163   2.664   1.747
 4702SOL     OW15004   5.950   5.212   7.003
 4702SOL    HW115005   5.913   5.241   6.915
 4702SOL    HW215006   5.883   5.155   0.034
 4703SOL     OW15007   0.774   5.031   3.129
 4703SOL    HW115008   0.753   5.083   3.212
 4703SOL    HW215009   0.810   5.093   3.059
 4704SOL     OW15010   1.170   4.990   4.199
 4704SOL    HW115011   1.183   5.077   4.151
 4704SOL    HW215012   1.245   4.976   4.263
 4705SOL     OW15013   3.621   1.842   1.870
 4705SOL    HW115014   3.710   1.887   1.877
 4705SOL    HW215015   3.607   1.810   1.777
 4706SOL     OW15016   2.494   0.387   1.002
 4706SOL    HW115017   2.428   0.454   0.970
 4706SOL    HW215018   2.505   0.316   0.933
 4707SOL     OW15019   1.528   5.435   2.142
 4707SOL    HW115020   1.618   5.470   2.118
 4707SOL    HW215021   1.537   5.367   2.215
 4708SOL     OW15022   1.562   3.154   5.213
 4708SOL    HW115023   1.606   3.243   5.204
 4708SOL    HW215024   1.615   3.086   5.162
 4709SOL     OW15025   5.823   3.956   5.562
 4709SOL    HW115026   5.917   3.988   5.569
 4709SOL    HW215027   5.789   3.973   5.469
 4710SOL     OW15028   5.902   5.856   5.156
 4710SOL    HW115029   5.805   5.842   5.176
 4710SOL    HW215030   5.915   5.861   5.057
 4711SOL     OW15031   4.899   4.431   2.263
 4711SOL    HW115032   4.810   4.412   2.223
 4711SOL    HW215033   4.935   4.348   2.306
 4712SOL     OW15034   4.479   3.925   5.689
 4712SOL    HW115035   4.386   3.948   5.661
 4712SOL    HW215036   4.503   3.835   5.653
 4713SOL     OW15037   5.256   3.796   0.984
 4713SOL    HW115038   5.226   3.868   0.922
 4713SOL    HW215039   5.187   3.782   1.055
 4714SOL     OW15040   4.409   2.277   6.545
 4714SOL    HW115041   4.369   2.198   6.499
 4714SOL    HW215042   4.376   2.280   6.640
 4715SOL     OW15043   6.534   1.556   1.514
 4715SOL    HW115044   6.531   1.541   1.416
 4715SOL    HW215045   6.627   1.539   1.548
 4716SOL     OW15046   3.835   4.549   5.823
 4716SOL    HW115047   3.923   4.506   5.800
 4716SOL    HW215048   3.808   4.610   5.749
 4717SOL     OW15049   1.924   4.803   5.713
 4717SOL    HW115050   1.896   4.753   5.632
 4717SOL    HW215051   1.926   4.742   5.792
 4718SOL     OW15052   4.609   4.801   1.393
 4718SOL    HW115053   4.645   4.800   1.299
 4718SOL    HW215054   4.681   4.773   1.456
 4719SOL     OW15055   6.895   4.225   3.681
 4719SOL    HW115056   6.972   4.197   3.623
 4719SOL    HW215057   6.845   4.299   3.637
 4720SOL     OW15058   2.563   3.348   6.796
 4720SOL    HW115059   2.596   3.308   6.711
 4720SOL    HW215060   2.579   3.284   6.871
 4721SOL     OW15061   0.495   2.734   3.420
 4721SOL    HW115062   0.415   2.794   3.410
 4721SOL    HW215063   0.484   2.677   3.502
 4722SOL     OW15064   0.886   5.764   6.730
 4722SOL    HW115065   0.795   5.724   6.741
 4722SOL    HW215066   0.952   5.691   6.710
 4723SOL     OW15067   3.089   4.508   6.580
 4723SOL    HW115068   3.092   4.415   6.615
 4723SOL    HW215069   3.081   4.507   6.481
 4724SOL     OW15070   0.811   0.092   4.361
 4724SOL    HW115071   0.837   0.052   4.449
 4724SOL    HW215072   0.846   0.036   4.286
 4725SOL     OW15073   5.820   5.047   1.260
 4725SOL    HW115074   5.764   4.967   1.237
 4725SOL    HW215075   5.895   5.019   1.321
 4726SOL     OW15076   1.873   2.629   5.547
 4726SOL    HW115077   1.943   2.565   5.579
 4726SOL    HW215078   1.837   2.681   5.625
 4727SOL     OW15079   6.564   4.660   1.074
 4727SOL    HW115080   6.558   4.733   1.006
 4727SOL    HW215081   6.580   4.573   1.029
 4728SOL     OW15082   5.788   1.716   4.408
 4728SOL    HW115083   5.808   1.814   4.411
 4728SOL    HW215084   5.705   1.700   4.355
 4729SOL     OW15085   5.688   1.216   1.674
 4729SOL    HW115086   5.708   1.314   1.678
 4729SOL    HW215087   5.613   1.194   1.737
 4730SOL     OW15088   3.779   0.425   3.420
 4730SOL    HW115089   3.862   0.462   3.379
 4730SOL    HW215090   3.780   0.440   3.519
 4731SOL     OW15091   3.133   6.481   1.037
 4731SOL    HW115092   3.102   6.411   1.101
 4731SOL    HW215093   3.080   6.565   1.051
 4732SOL     OW15094   0.029   4.804   4.468
 4732SOL    HW115095   7.007   4.855   4.391
 4732SOL    HW215096   0.058   4.869   4.539
 4733SOL     OW15097   1.914   4.300   2.428
 4733SOL    HW115098   1.958   4.307   2.338
 4733SOL    HW215099   1.864   4.214   2.434
 4734SOL     OW15100   4.769   4.145   0.183
 4734SOL    HW115101   4.789   4.055   0.144
 4734SOL    HW215102   4.763   4.213   0.109
 4735SOL     OW15103   0.559   0.197   5.270
 4735SOL    HW115104   0.479   0.196   5.209
 4735SOL    HW215105   0.630   0.138   5.233
 4736SOL     OW15106   6.279   1.479   3.907
 4736SOL    HW115107   6.269   1.517   3.999
 4736SOL    HW215108   6.376   1.479   3.881
 4737SOL     OW15109   1.754   4.913   0.264
 4737SOL    HW115110   1.819   4.851   0.309
 4737SOL    HW215111   1.709   4.865   0.189
 4738SOL     OW15112   0.831   5.695   3.899
 4738SOL    HW115113   0.853   5.753   3.821
 4738SOL    HW215114   0.813   5.753   3.979
 4739SOL     OW15115   5.874   3.300   3.102
 4739SOL    HW115116   5.780   3.322   3.076
 4739SOL    HW215117   5.934   3.311   3.023
 4740SOL     OW15118   1.281   0.185   0.732
 4740SOL    HW115119   1.339   0.212   0.809
 4740SOL    HW215120   1.273   0.261   0.668
 4741SOL     OW15121   5.511   4.637   0.905
 4741SOL    HW115122   5.547   4.723   0.943
 4741SOL    HW215123   5.543   4.560   0.960
 4742SOL     OW15124   2.630   5.444   2.263
 4742SOL    HW115125   2.554   5.493   2.221
 4742SOL    HW215126   2.711   5.502   2.265
 4743SOL     OW15127   2.664   3.713   0.525
 4743SOL    HW115128   2.666   3.624   0.480
 4743SOL    HW215129   2.740   3.769   0.492
 4744SOL     OW15130   2.498   1.865   5.549
 4744SOL    HW115131   2.418   1.809   5.529
 4744SOL    HW215132   2.514   1.865   5.648
 4745SOL     OW15133   4.360   4.967   5.100
 4745SOL    HW115134   4.339   5.044   5.040
 4745SOL    HW215135   4.422   4.904   5.054
 4746SOL     OW15136   5.798   1.006   1.515
 4746SOL    HW115137   5.887   1.050   1.504
 4746SOL    HW215138   5.739   1.065   1.570
 4747SOL     OW15139   0.445   2.906   2.053
 4747SOL    HW115140   0.359   2.914   2.001
 4747SOL    HW215141   0.496   2.827   2.019
 4748SOL     OW15142   2.065   0.624   0.960
 4748SOL    HW115143   2.007   0.705   0.947
 4748SOL    HW215144   2.161   0.653   0.968
 4749SOL     OW15145   2.820   0.077   6.403
 4749SOL    HW115146   2.900   0.131   6.427
 4749SOL    HW215147   2.763   0.128   6.339
 4750SOL     OW15148   0.823   1.746   4.287
 4750SOL    HW115149   0.922   1.755   4.286
 4750SOL    HW215150   0.796   1.673   4.349
 4751SOL     OW15151   1.108   3.613   5.628
 4751SOL    HW115152   1.164   3.618   5.711
 4751SOL    HW215153   1.146   3.544   5.567
 4752SOL     OW15154   1.831   6.168   1.213
 4752SOL    HW115155   1.916   6.161   1.266
 4752SOL    HW215156   1.851   6.161   1.116
 4753SOL     OW15157   0.574   6.636   5.815
 4753SOL    HW115158   0.608   6.593   5.899
 4753SOL    HW215159   0.641   6.623   5.742
 4754SOL     OW15160   1.022   0.991   6.175
 4754SOL    HW115161   1.001   1.071   6.232
 4754SOL    HW215162   0.952   0.921   6.189
 4755SOL     OW15163   2.994   0.584   1.397
 4755SOL    HW115164   3.024   0.664   1.449
 4755SOL    HW215165   3.014   0.501   1.449
 4756SOL     OW15166   5.154   2.841   1.551
 4756SOL    HW115167   5.059   2.840   1.584
 4756SOL    HW215168   5.208   2.773   1.601
 4757SOL     OW15169   2.443   1.424   1.140
 4757SOL    HW115170   2.391   1.497   1.184
 4757SOL    HW215171   2.534   1.456   1.115
 4758SOL     OW15172   5.550   3.480   5.836
 4758SOL    HW115173   5.497   3.557   5.871
 4758SOL    HW215174   5.532   3.399   5.893
 4759SOL     OW15175   6.092   4.216   6.209
 4759SOL    HW115176   6.185   4.181   6.219
 4759SOL    HW215177   6.058   4.244   6.299
 4760SOL     OW15178   1.863   2.814   0.595
 4760SOL    HW115179   1.794   2.834   0.525
 4760SOL    HW215180   1.948   2.862   0.574
 4761SOL     OW15181   1.554   5.706   5.869
 4761SOL    HW115182   1.508   5.618   5.871
 4761SOL    HW215183   1.494   5.777   5.908
 4762SOL     OW15184   4.045   6.687   2.386
 4762SOL    HW115185   3.981   6.678   2.463
 4762SOL    HW215186   4.053   6.599   2.339
 4763SOL     OW15187   5.897   5.375   5.042
 4763SOL    HW115188   5.914   5.283   5.008
 4763SOL    HW215189   5.910   5.441   4.968
 4764SOL     OW15190   3.563   3.749   3.968
 4764SOL    HW115191   3.582   3.651   3.974
 4764SOL    HW215192   3.588   3.782   3.877
 4765SOL     OW15193   6.387   5.015   6.013
 4765SOL    HW115194   6.393   5.111   5.986
 4765SOL    HW215195   6.315   4.970   5.960
 4766SOL     OW15196   3.471   0.731   3.564
 4766SOL    HW115197   3.391   0.741   3.623
 4766SOL    HW215198   3.468   0.642   3.519
 4767SOL     OW15199   3.767   6.654   6.905
 4767SOL    HW115200   3.686   6.651   6.846
 4767SOL    HW215201   3.844   6.610   6.858
 4768SOL     OW15202   1.384   0.925   5.214
 4768SOL    HW115203   1.463   0.944   5.273
 4768SOL    HW215204   1.336   1.010   5.194
 4769SOL     OW15205   3.791   1.080   1.622
 4769SOL    HW115206   3.706   1.130   1.636
 4769SOL    HW215207   3.869   1.142   1.633
 4770SOL     OW15208   1.886   0.458   3.887
 4770SOL    HW115209   1.868   0.406   3.804
 4770SOL    HW215210   1.800   0.483   3.930
 4771SOL     OW15211   4.155   4.441   5.320
 4771SOL    HW115212   4.225   4.438   5.249
 4771SOL    HW215213   4.180   4.379   5.394
 4772SOL     OW15214   2.050   3.342   6.937
 4772SOL    HW115215   2.001   3.266   6.978
 4772SOL    HW215216   1.985   3.408   6.899
 4773SOL     OW15217   0.274   5.369   4.009
 4773SOL    HW115218   0.315   5.378   3.918
 4773SOL    HW215219   0.208   5.294   4.009
 4774SOL     OW15220   1.584   4.340   6.781
 4774SOL    HW115221   1.492   4.345   6.740
 4774SOL    HW215222   1.647   4.301   6.714
 4775SOL     OW15223   2.066   1.803   2.284
 4775SOL    HW115224   2.143   1.761   2.236
 4775SOL    HW215225   1.984   1.796   2.228
 4776SOL     OW15226   4.262   4.667   2.177
 4776SOL    HW115227   4.321   4.670   2.096
 4776SOL    HW215228   4.170   4.696   2.153
 4777SOL     OW15229   2.947   3.668   1.531
 4777SOL    HW115230   3.038   3.692   1.566
 4777SOL    HW215231   2.953   3.655   1.432
 4778SOL     OW15232   5.360   4.031   2.906
 4778SOL    HW115233   5.352   3.978   2.990
 4778SOL    HW215234   5.352   3.970   2.827
 4779SOL     OW15235   4.918   0.778   2.683
 4779SOL    HW115236   4.948   0.858   2.736
 4779SOL    HW215237   4.872   0.713   2.744
 4780SOL     OW15238   1.924   0.258   5.354
 4780SOL    HW115239   1.866   0.193   5.304
 4780SOL    HW215240   1.930   0.343   5.302
 4781SOL     OW15241   2.604   5.822   2.838
 4781SOL    HW115242   2.585   5.732   2.800
 4781SOL    HW215243   2.700   5.846   2.823
 4782SOL     OW15244   5.910   5.635   0.270
 4782SOL    HW115245   5.962   5.605   0.190
 4782SOL    HW215246   5.940   5.726   0.297
 4783SOL     OW15247   6.423   3.861   2.201
 4783SOL    HW115248   6.345   3.806   2.232
 4783SOL    HW215249   6.404   3.899   2.111
 4784SOL     OW15250   5.450   4.462   5.147
 4784SOL    HW115251   5.470   4.370   5.114
 4784SOL    HW215252   5.362   4.462   5.195
 4785SOL     OW15253   5.773   6.647   0.589
 4785SOL    HW115254   5.711   6.669   0.664
 4785SOL    HW215255   5.865   6.629   0.626
 4786SOL     OW15256   1.172   3.014   2.060
 4786SOL    HW115257   1.160   3.023   1.962
 4786SOL    HW215258   1.244   2.947   2.079
 4787SOL     OW15259   4.650   2.211   2.819
 4787SOL    HW115260   4.649   2.128   2.876
 4787SOL    HW215261   4.558   2.249   2.815
 4788SOL     OW15262   2.086   6.739   5.250
 4788SOL    HW115263   2.116   6.750   5.344
 4788SOL    HW215264   2.129   6.657   5.211
 4789SOL     OW15265   5.374   6.592   0.501
 4789SOL    HW115266   5.316   6.633   0.430
 4789SOL    HW215267   5.444   6.536   0.458
 4790SOL     OW15268   5.499   0.369   6.588
 4790SOL    HW115269   5.588   0.324   6.582
 4790SOL    HW215270   5.436   0.312   6.642
 4791SOL     OW15271   4.802   1.645   3.153
 4791SOL    HW115272   4.876   1.585   3.124
 4791SOL    HW215273   4.797   1.646   3.253
 4792SOL     OW15274   3.220   2.395   1.295
 4792SOL    HW115275   3.235   2.403   1.197
 4792SOL    HW215276   3.176   2.478   1.330
 4793SOL     OW15277   0.678   0.447   6.749
 4793SOL    HW115278   0.621   0.526   6.770
 4793SOL    HW215279   0.647   0.405   6.663
 4794SOL     OW15280   4.796   1.105   1.897
 4794SOL    HW115281   4.698   1.124   1.890
 4794SOL    HW215282   4.848   1.185   1.867
 4795SOL     OW15283   5.969   2.737   4.792
 4795SOL    HW115284   6.044   2.792   4.757
 4795SOL    HW215285   6.005   2.662   4.847
 4796SOL     OW15286   5.574   3.648   0.607
 4796SOL    HW115287   5.525   3.666   0.692
 4796SOL    HW215288   5.605   3.735   0.568
 4797SOL     OW15289   0.661   4.926   4.753
 4797SOL    HW115290   0.748   4.938   4.801
 4797SOL    HW215291   0.643   5.008   4.698
 4798SOL     OW15292   6.591   4.971   5.632
 4798SOL    HW115293   6.652   4.972   5.710
 4798SOL    HW215294   6.526   4.895   5.641
 4799SOL     OW15295   4.099   0.979   4.743
 4799SOL    HW115296   4.043   0.919   4.800
 4799SOL    HW215297   4.194   0.977   4.775
 4800SOL     OW15298   2.201   2.479   3.788
 4800SOL    HW115299   2.279   2.542   3.788
 4800SOL    HW215300   2.157   2.480   3.877
 4801SOL     OW15301   1.016   2.497   0.745
 4801SOL    HW115302   1.000   2.459   0.836
 4801SOL    HW215303   0.956   2.576   0.730
 4802SOL     OW15304   1.957   0.159   1.714
 4802SOL    HW115305   2.012   0.148   1.797
 4802SOL    HW215306   1.865   0.122   1.730
 4803SOL     OW15307   0.987   0.238   1.137
 4803SOL    HW115308   0.911   0.257   1.074
 4803SOL    HW215309   1.011   0.321   1.186
 4804SOL     OW15310   3.924   5.453   6.962
 4804SOL    HW115311   3.848   5.497   6.915
 4804SOL    HW215312   3.943   5.365   6.920
 4805SOL     OW15313   0.165   0.580   1.369
 4805SOL    HW115314   0.095   0.606   1.303
 4805SOL    HW215315   0.255   0.601   1.332
 4806SOL     OW15316   0.032   2.661   3.558
 4806SOL    HW115317   7.002   2.633   3.642
 4806SOL    HW215318   0.001   2.752   3.532
 4807SOL     OW15319   0.490   6.482   1.896
 4807SOL    HW115320   0.537   6.472   1.808
 4807SOL    HW215321   0.392   6.485   1.880
 4808SOL     OW15322   5.560   2.813   0.986
 4808SOL    HW115323   5.504   2.788   1.065
 4808SOL    HW215324   5.501   2.826   0.906
 4809SOL     OW15325   3.837   6.965   6.948
 4809SOL    HW115326   3.766   6.896   6.937
 4809SOL    HW215327   3.796   0.034   6.979
 4810SOL     OW15328   1.422   0.299   0.954
 4810SOL    HW115329   1.398   0.396   0.966
 4810SOL    HW215330   1.521   0.289   0.957
 4811SOL     OW15331   5.640   5.046   3.242
 4811SOL    HW115332   5.611   5.100   3.320
 4811SOL    HW215333   5.608   4.952   3.252
 4812SOL     OW15334   6.482   5.212   4.253
 4812SOL    HW115335   6.525   5.136   4.301
 4812SOL    HW215336   6.552   5.277   4.224
 4813SOL     OW15337   5.611   3.356   3.052
 4813SOL    HW115338   5.555   3.405   2.985
 4813SOL    HW215339   5.551   3.307   3.115
 4814SOL     OW15340   6.292   3.569   1.584
 4814SOL    HW115341   6.335   3.479   1.587
 4814SOL    HW215342   6.299   3.613   1.673
 4815SOL     OW15343   4.382   0.688   3.333
 4815SOL    HW115344   4.373   0.602   3.283
 4815SOL    HW215345   4.475   0.724   3.323
 4816SOL     OW15346   5.389   4.649   3.675
 4816SOL    HW115347   5.299   4.605   3.681
 4816SOL    HW215348   5.397   4.718   3.746
 4817SOL     OW15349   0.189   1.535   6.998
 4817SOL    HW115350   0.178   1.492   6.908
 4817SOL    HW215351   0.129   1.492   0.048
 4818SOL     OW15352   0.526   6.076   3.720
 4818SOL    HW115353   0.538   6.096   3.817
 4818SOL    HW215354   0.429   6.085   3.696
 4819SOL     OW15355   2.187   3.215   0.789
 4819SOL    HW115356   2.253   3.289   0.774
 4819SOL    HW215357   2.209   3.168   0.874
 4820SOL     OW15358   0.415   2.964   2.802
 4820SOL    HW115359   0.452   3.047   2.844
 4820SOL    HW215360   0.335   2.988   2.747
 4821SOL     OW15361   0.673   5.315   3.645
 4821SOL    HW115362   0.671   5.371   3.727
 4821SOL    HW215363   0.586   5.267   3.634
 4822SOL     OW15364   2.505   4.470   4.194
 4822SOL    HW115365   2.547   4.554   4.160
 4822SOL    HW215366   2.540   4.450   4.285
 4823SOL     OW15367   2.170   2.895   0.857
 4823SOL    HW115368   2.258   2.848   0.857
 4823SOL    HW215369   2.173   2.973   0.919
 4824SOL     OW15370   6.207   1.480   0.109
 4824SOL    HW115371   6.150   1.522   0.038
 4824SOL    HW215372   6.213   1.540   0.188
 4825SOL     OW15373   1.431   6.755   3.690
 4825SOL    HW115374   1.442   6.854   3.682
 4825SOL    HW215375   1.510   6.717   3.737
 4826SOL     OW15376   3.701   6.159   1.093
 4826SOL    HW115377   3.654   6.176   1.006
 4826SOL    HW215378   3.786   6.109   1.075
 4827SOL     OW15379   6.795   1.575   1.396
 4827SOL    HW115380   6.758   1.664   1.421
 4827SOL    HW215381   6.867   1.549   1.461
 4828SOL     OW15382   4.997   1.277   5.833
 4828SOL    HW115383   5.032   1.360   5.789
 4828SOL    HW215384   5.074   1.220   5.861
 4829SOL     OW15385   4.172   6.326   5.638
 4829SOL    HW115386   4.207   6.387   5.567
 4829SOL    HW215387   4.073   6.314   5.626
 4830SOL     OW15388   1.811   6.309   3.603
 4830SOL    HW115389   1.829   6.392   3.655
 4830SOL    HW215390   1.866   6.234   3.640
 4831SOL     OW15391   3.163   4.728   5.521
 4831SOL    HW115392   3.245   4.674   5.540
 4831SOL    HW215393   3.150   4.734   5.422
 4832SOL     OW15394   4.124   3.481   4.656
 4832SOL    HW115395   4.096   3.575   4.637
 4832SOL    HW215396   4.198   3.455   4.595
 4833SOL     OW15397   6.130   2.286   5.658
 4833SOL    HW115398   6.200   2.232   5.611
 4833SOL    HW215399   6.109   2.367   5.604
 4834SOL     OW15400   0.836   5.574   1.564
 4834SOL    HW115401   0.859   5.520   1.483
 4834SOL    HW215402   0.741   5.604   1.559
 4835SOL     OW15403   0.404   3.209   6.585
 4835SOL    HW115404   0.400   3.292   6.529
 4835SOL    HW215405   0.320   3.157   6.573
 4836SOL     OW15406   4.268   2.035   5.665
 4836SOL    HW115407   4.342   2.077   5.612
 4836SOL    HW215408   4.285   1.937   5.673
 4837SOL     OW15409   1.159   3.687   4.431
 4837SOL    HW115410   1.229   3.752   4.461
 4837SOL    HW215411   1.190   3.594   4.449
 4838SOL     OW15412   1.738   3.870   6.395
 4838SOL    HW115413   1.820   3.857   6.339
 4838SOL    HW215414   1.761   3.927   6.474
 4839SOL     OW15415   2.897   1.213   1.272
 4839SOL    HW115416   2.818   1.173   1.225
 4839SOL    HW215417   2.867   1.251   1.360
 4840SOL     OW15418   5.177   2.999   5.205
 4840SOL    HW115419   5.151   3.076   5.263
 4840SOL    HW215420   5.104   2.930   5.205
 4841SOL     OW15421   2.977   6.665   2.999
 4841SOL    HW115422   2.878   6.666   2.987
 4841SOL    HW215423   3.003   6.725   3.075
 4842SOL     OW15424   3.814   5.745   3.624
 4842SOL    HW115425   3.888   5.684   3.596
 4842SOL    HW215426   3.810   5.823   3.562
 4843SOL     OW15427   6.146   1.373   0.839
 4843SOL    HW115428   6.052   1.356   0.809
 4843SOL    HW215429   6.151   1.462   0.884
 4844SOL     OW15430   1.311   5.730   6.724
 4844SOL    HW115431   1.238   5.661   6.724
 4844SOL    HW215432   1.375   5.710   6.798
 4845SOL     OW15433   4.801   3.819   5.333
 4845SOL    HW115434   4.893   3.789   5.358
 4845SOL    HW215435   4.769   3.766   5.254
 4846SOL     OW15436   6.759   3.745   4.935
 4846SOL    HW115437   6.732   3.704   4.848
 4846SOL    HW215438   6.681   3.796   4.973
 4847SOL     OW15439   2.886   0.005   0.130
 4847SOL    HW115440   2.819   0.073   0.101
 4847SOL    HW215441   2.910   6.963   0.053
 4848SOL     OW15442   4.812   1.625   3.428
 4848SOL    HW115443   4.760   1.587   3.504
 4848SOL    HW215444   4.870   1.700   3.461
 4849SOL     OW15445   2.086   6.534   1.545
 4849SOL    HW115446   2.123   6.477   1.618
 4849SOL    HW215447   2.033   6.478   1.481
 4850SOL     OW15448   3.426   6.593   2.023
 4850SOL    HW115449   3.506   6.610   2.081
 4850SOL    HW215450   3.356   6.546   2.076
 4851SOL     OW15451   4.112   4.807   0.088
 4851SOL    HW115452   4.079   4.720   0.125
 4851SOL    HW215453   4.162   4.857   0.159
 4852SOL     OW15454   4.707   4.999   6.051
 4852SOL    HW115455   4.657   4.912   6.049
 4852SOL    HW215456   4.707   5.039   5.960
 4853SOL     OW15457   4.346   0.449   3.248
 4853SOL    HW115458   4.318   0.412   3.337
 4853SOL    HW215459   4.303   0.395   3.175
 4854SOL     OW15460   4.456   6.673   2.509
 4854SOL    HW115461   4.452   6.636   2.416
 4854SOL    HW215462   4.516   6.616   2.565
 4855SOL     OW15463   4.873   5.241   5.617
 4855SOL    HW115464   4.917   5.165   5.666
 4855SOL    HW215465   4.796   5.205   5.563
 4856SOL     OW15466   0.288   2.881   3.330
 4856SOL    HW115467   0.261   2.815   3.260
 4856SOL    HW215468   0.313   2.968   3.286
 4857SOL     OW15469   1.835   2.439   4.911
 4857SOL    HW115470   1.781   2.362   4.948
 4857SOL    HW215471   1.894   2.475   4.983
 4858SOL     OW15472   1.644   5.609   4.934
 4858SOL    HW115473   1.668   5.625   5.029
 4858SOL    HW215474   1.570   5.541   4.930
 4859SOL     OW15475   6.611   5.846   3.422
 4859SOL    HW115476   6.546   5.898   3.478
 4859SOL    HW215477   6.704   5.869   3.449
 4860SOL     OW15478   3.555   5.625   1.609
 4860SOL    HW115479   3.525   5.530   1.623
 4860SOL    HW215480   3.517   5.659   1.523
 4861SOL     OW15481   6.922   4.787   5.772
 4861SOL    HW115482   6.889   4.856   5.708
 4861SOL    HW215483   6.962   4.831   5.852
 4862SOL     OW15484   1.952   6.234   4.167
 4862SOL    HW115485   1.982   6.152   4.216
 4862SOL    HW215486   1.908   6.297   4.232
 4863SOL     OW15487   5.884   1.496   1.711
 4863SOL    HW115488   5.893   1.541   1.799
 4863SOL    HW215489   5.839   1.557   1.646
 4864SOL     OW15490   2.396   2.113   1.155
 4864SOL    HW115491   2.418   2.111   1.057
 4864SOL    HW215492   2.405   2.207   1.188
 4865SOL     OW15493   3.913   6.511   4.794
 4865SOL    HW115494   3.976   6.435   4.777
 4865SOL    HW215495   3.872   6.501   4.884
 4866SOL     OW15496   0.535   5.590   1.529
 4866SOL    HW115497   0.559   5.589   1.432
 4866SOL    HW215498   0.530   5.496   1.563
 4867SOL     OW15499   5.560   4.793   4.845
 4867SOL    HW115500   5.603   4.880   4.822
 4867SOL    HW215501   5.552   4.737   4.763
 4868SOL     OW15502   1.596   5.482   1.797
 4868SOL    HW115503   1.521   5.494   1.732
 4868SOL    HW215504   1.610   5.568   1.848
 4869SOL     OW15505   6.589   1.131   1.990
 4869SOL    HW115506   6.511   1.131   1.929
 4869SOL    HW215507   6.560   1.105   2.082
 4870SOL     OW15508   5.821   0.893   0.998
 4870SOL    HW115509   5.748   0.954   1.030
 4870SOL    HW215510   5.787   0.837   0.923
 4871SOL     OW15511   1.578   3.564   4.350
 4871SOL    HW115512   1.673   3.534   4.337
 4871SOL    HW215513   1.528   3.556   4.264
 4872SOL     OW15514   1.343   1.265   3.875
 4872SOL    HW115515   1.349   1.190   3.808
 4872SOL    HW215516   1.432   1.277   3.920
 4873SOL     OW15517   1.104   6.743   5.344
 4873SOL    HW115518   1.075   6.804   5.270
 4873SOL    HW215519   1.180   6.686   5.313
 4874SOL     OW15520   6.187   2.359   3.236
 4874SOL    HW115521   6.218   2.394   3.324
 4874SOL    HW215522   6.224   2.417   3.163
 4875SOL     OW15523   0.384   2.659   6.484
 4875SOL    HW115524   0.483   2.643   6.484
 4875SOL    HW215525   0.353   2.681   6.391
 4876SOL     OW15526   6.887   1.570   6.878
 4876SOL    HW115527   6.951   1.501   6.845
 4876SOL    HW215528   6.793   1.539   6.862
 4877SOL     OW15529   5.550   1.736   1.361
 4877SOL    HW115530   5.458   1.773   1.356
 4877SOL    HW215531   5.569   1.682   1.279
 4878SOL     OW15532   0.885   2.967   1.560
 4878SOL    HW115533   0.935   3.046   1.525
 4878SOL    HW215534   0.941   2.885   1.553
 4879SOL     OW15535   4.483   5.907   3.287
 4879SOL    HW115536   4.496   5.885   3.383
 4879SOL    HW215537   4.399   5.960   3.276
 4880SOL     OW15538   5.781   1.740   5.603
 4880SOL    HW115539   5.833   1.776   5.526
 4880SOL    HW215540   5.806   1.645   5.620
 4881SOL     OW15541   2.761   5.913   5.827
 4881SOL    HW115542   2.837   5.859   5.790
 4881SOL    HW215543   2.679   5.857   5.831
 4882SOL     OW15544   5.026   6.120   0.069
 4882SOL    HW115545   5.111   6.069   0.082
 4882SOL    HW215546   5.046   6.217   0.066
 4883SOL     OW15547   6.633   5.001   6.685
 4883SOL    HW115548   6.637   5.080   6.747
 4883SOL    HW215549   6.694   4.929   6.718
 4884SOL     OW15550   3.843   6.422   2.067
 4884SOL    HW115551   3.776   6.378   2.008
 4884SOL    HW215552   3.878   6.504   2.022
 4885SOL     OW15553   1.559   0.059   2.032
 4885SOL    HW115554   1.577   6.988   2.075
 4885SOL    HW215555   1.488   0.108   2.082
 4886SOL     OW15556   5.802   0.594   5.435
 4886SOL    HW115557   5.774   0.505   5.398
 4886SOL    HW215558   5.897   0.613   5.409
 4887SOL     OW15559   0.767   1.491   5.089
 4887SOL    HW115560   0.840   1.556   5.111
 4887SOL    HW215561   0.678   1.536   5.100
 4888SOL     OW15562   3.350   6.256   1.970
 4888SOL    HW115563   3.280   6.311   2.016
 4888SOL    HW215564   3.404   6.313   1.909
 4889SOL     OW15565   1.234   3.369   6.774
 4889SOL    HW115566   1.223   3.465   6.748
 4889SOL    HW215567   1.196   3.311   6.703
 4890SOL     OW15568   0.337   0.689   4.065
 4890SOL    HW115569   0.386   0.640   4.137
 4890SOL    HW215570   0.268   0.748   4.107
 4891SOL     OW15571   0.913   4.306   0.617
 4891SOL    HW115572   0.954   4.217   0.595
 4891SOL    HW215573   0.984   4.369   0.648
 4892SOL     OW15574   2.274   5.294   2.131
 4892SOL    HW115575   2.334   5.363   2.090
 4892SOL    HW215576   2.237   5.235   2.060
 4893SOL     OW15577   0.371   3.835   6.637
 4893SOL    HW115578   0.470   3.827   6.650
 4893SOL    HW215579   0.323   3.779   6.704
 4894SOL     OW15580   0.609   0.049   2.724
 4894SOL    HW115581   0.603   6.995   2.652
 4894SOL    HW215582   0.705   0.064   2.747
 4895SOL     OW15583   5.921   4.116   6.610
 4895SOL    HW115584   5.893   4.024   6.585
 4895SOL    HW215585   5.901   4.179   6.534
 4896SOL     OW15586   4.492   6.814   4.216
 4896SOL    HW115587   4.532   6.818   4.124
 4896SOL    HW215588   4.400   6.854   4.213
 4897SOL     OW15589   2.588   6.197   6.706
 4897SOL    HW115590   2.652   6.179   6.632
 4897SOL    HW215591   2.594   6.292   6.734
 4898SOL     OW15592   5.895   1.724   4.957
 4898SOL    HW115593   5.884   1.632   4.919
 4898SOL    HW215594   5.817   1.781   4.930
 4899SOL     OW15595   5.321   4.548   4.239
 4899SOL    HW115596   5.291   4.640   4.261
 4899SOL    HW215597   5.418   4.538   4.262
 4900SOL     OW15598   0.907   6.401   4.604
 4900SOL    HW115599   0.852   6.445   4.675
 4900SOL    HW215600   0.996   6.445   4.599
 4901SOL     OW15601   6.970   6.246   3.134
 4901SOL    HW115602   0.051   6.235   3.111
 4901SOL    HW215603   6.914   6.201   3.064
 4902SOL     OW15604   3.632   4.581   1.125
 4902SOL    HW115605   3.637   4.584   1.225
 4902SOL    HW215606   3.690   4.507   1.091
 4903SOL     OW15607   5.166   5.312   5.868
 4903SOL    HW115608   5.258   5.278   5.886
 4903SOL    HW215609   5.150   5.317   5.770
 4904SOL     OW15610   2.675   0.179   3.559
 4904SOL    HW115611   2.643   0.133   3.476
 4904SOL    HW215612   2.748   0.243   3.536
 4905SOL     OW15613   6.470   3.075   3.446
 4905SOL    HW115614   6.396   3.142   3.438
 4905SOL    HW215615   6.442   2.988   3.405
 4906SOL     OW15616   5.019   0.577   1.120
 4906SOL    HW115617   5.085   0.647   1.092
 4906SOL    HW215618   4.942   0.621   1.167
 4907SOL     OW15619   2.883   1.826   1.961
 4907SOL    HW115620   2.812   1.796   1.898
 4907SOL    HW215621   2.862   1.917   1.995
 4908SOL     OW15622   4.239   6.470   0.485
 4908SOL    HW115623   4.195   6.469   0.574
 4908SOL    HW215624   4.177   6.432   0.416
 4909SOL     OW15625   6.574   6.862   5.058
 4909SOL    HW115626   6.665   6.843   5.097
 4909SOL    HW215627   6.504   6.829   5.121
 4910SOL     OW15628   5.567   6.341   6.148
 4910SOL    HW115629   5.585   6.424   6.201
 4910SOL    HW215630   5.470   6.338   6.122
 4911SOL     OW15631   0.787   4.019   6.477
 4911SOL    HW115632   0.883   3.998   6.458
 4911SOL    HW215633   0.730   3.982   6.404
 4912SOL     OW15634   2.258   2.492   1.443
 4912SOL    HW115635   2.196   2.571   1.439
 4912SOL    HW215636   2.305   2.491   1.531
 4913SOL     OW15637   2.514   3.002   1.699
 4913SOL    HW115638   2.591   3.042   1.750
 4913SOL    HW215639   2.518   3.034   1.604
 4914SOL     OW15640   1.478   6.881   2.503
 4914SOL    HW115641   1.531   6.876   2.419
 4914SOL    HW215642   1.505   6.962   2.556
 4915SOL     OW15643   2.881   6.380   3.307
 4915SOL    HW115644   2.963   6.351   3.258
 4915SOL    HW215645   2.905   6.406   3.401
 4916SOL     OW15646   1.730   1.975   2.416
 4916SOL    HW115647   1.757   2.061   2.373
 4916SOL    HW215648   1.684   1.917   2.350
 4917SOL     OW15649   1.962   4.074   6.339
 4917SOL    HW115650   1.947   3.984   6.298
 4917SOL    HW215651   1.887   4.095   6.401
 4918SOL     OW15652   2.083   0.077   3.687
 4918SOL    HW115653   2.126   0.017   3.621
 4918SOL    HW215654   2.143   0.155   3.706
 4919SOL     OW15655   2.277   3.211   1.739
 4919SOL    HW115656   2.320   3.293   1.779
 4919SOL    HW215657   2.254   3.147   1.812
 4920SOL     OW15658   3.441   0.793   0.423
 4920SOL    HW115659   3.521   0.767   0.478
 4920SOL    HW215660   3.450   0.757   0.331
 4921SOL     OW15661   6.977   4.761   1.471
 4921SOL    HW115662   0.025   4.765   1.395
 4921SOL    HW215663   6.963   4.666   1.498
 4922SOL     OW15664   1.184   2.889   6.192
 4922SOL    HW115665   1.164   2.947   6.113
 4922SOL    HW215666   1.101   2.841   6.221
 4923SOL     OW15667   2.700   2.405   6.681
 4923SOL    HW115668   2.653   2.460   6.750
 4923SOL    HW215669   2.788   2.376   6.716
 4924SOL     OW15670   0.152   3.686   4.246
 4924SOL    HW115671   0.131   3.774   4.289
 4924SOL    HW215672   0.153   3.697   4.147
 4925SOL     OW15673   4.853   5.458   5.802
 4925SOL    HW115674   4.862   5.374   5.749
 4925SOL    HW215675   4.824   5.435   5.895
 4926SOL     OW15676   4.204   3.345   0.555
 4926SOL    HW115677   4.294   3.321   0.519
 4926SOL    HW215678   4.133   3.314   0.491
 4927SOL     OW15679   3.201   3.797   2.165
 4927SOL    HW115680   3.170   3.747   2.084
 4927SOL    HW215681   3.194   3.895   2.148
 4928SOL     OW15682   0.601   0.107   0.471
 4928SOL    HW115683   0.701   0.103   0.463
 4928SOL    HW215684   0.560   0.097   0.381
 4929SOL     OW15685   1.239   4.707   4.259
 4929SOL    HW115686   1.199   4.758   4.183
 4929SOL    HW215687   1.334   4.685   4.237
 4930SOL     OW15688   0.286   3.057   0.331
 4930SOL    HW115689   0.191   3.042   0.302
 4930SOL    HW215690   0.348   3.020   0.261
 4931SOL     OW15691   5.999   6.577   1.372
 4931SOL    HW115692   6.045   6.657   1.335
 4931SOL    HW215693   6.008   6.500   1.308
 4932SOL     OW15694   3.616   1.616   0.912
 4932SOL    HW115695   3.585   1.539   0.856
 4932SOL    HW215696   3.562   1.620   0.996
 4933SOL     OW15697   2.876   0.415   4.821
 4933SOL    HW115698   2.864   0.363   4.736
 4933SOL    HW215699   2.971   0.445   4.828
 4934SOL     OW15700   2.313   5.611   5.306
 4934SOL    HW115701   2.354   5.523   5.327
 4934SOL    HW215702   2.322   5.629   5.208
 4935SOL     OW15703   2.005   2.122   0.394
 4935SOL    HW115704   2.059   2.121   0.310
 4935SOL    HW215705   2.058   2.163   0.468
 4936SOL     OW15706   5.641   4.861   1.075
 4936SOL    HW115707   5.723   4.841   1.020
 4936SOL    HW215708   5.585   4.929   1.029
 4937SOL     OW15709   0.924   3.631   4.646
 4937SOL    HW115710   0.949   3.568   4.573
 4937SOL    HW215711   0.922   3.724   4.610
 4938SOL     OW15712   3.477   4.399   1.739
 4938SOL    HW115713   3.387   4.359   1.760
 4938SOL    HW215714   3.489   4.483   1.792
 4939SOL     OW15715   1.235   1.421   1.044
 4939SOL    HW115716   1.277   1.342   1.088
 4939SOL    HW215717   1.252   1.503   1.098
 4940SOL     OW15718   1.145   2.104   5.523
 4940SOL    HW115719   1.116   2.084   5.430
 4940SOL    HW215720   1.115   2.196   5.549
 4941SOL     OW15721   3.931   2.589   5.343
 4941SOL    HW115722   4.007   2.590   5.278
 4941SOL    HW215723   3.904   2.495   5.362
 4942SOL     OW15724   6.999   1.421   3.278
 4942SOL    HW115725   6.974   1.385   3.188
 4942SOL    HW215726   6.989   1.520   3.278
 4943SOL     OW15727   4.697   2.484   6.715
 4943SOL    HW115728   4.716   2.389   6.736
 4943SOL    HW215729   4.709   2.540   6.797
 4944SOL     OW15730   0.819   4.750   0.239
 4944SOL    HW115731   0.841   4.695   0.159
 4944SOL    HW215732   0.802   4.845   0.211
 4945SOL     OW15733   2.968   0.375   5.508
 4945SOL    HW115734   2.985   0.446   5.439
 4945SOL    HW215735   2.990   0.411   5.599
 4946SOL     OW15736   2.895   5.587   0.344
 4946SOL    HW115737   2.847   5.500   0.330
 4946SOL    HW215738   2.985   5.570   0.384
 4947SOL     OW15739   0.567   0.152   0.893
 4947SOL    HW115740   0.597   0.209   0.970
 4947SOL    HW215741   0.500   0.085   0.924
 4948SOL     OW15742   1.732   2.549   1.856
 4948SOL    HW115743   1.747   2.452   1.833
 4948SOL    HW215744   1.645   2.579   1.817
 4949SOL     OW15745   6.542   4.660   5.569
 4949SOL    HW115746   6.563   4.698   5.658
 4949SOL    HW215747   6.571   4.564   5.566
 4950SOL     OW15748   4.077   4.281   5.548
 4950SOL    HW115749   4.023   4.316   5.471
 4950SOL    HW215750   4.082   4.350   5.619
 4951SOL     OW15751   4.863   5.284   2.941
 4951SOL    HW115752   4.847   5.379   2.916
 4951SOL    HW215753   4.957   5.274   2.974
 4952SOL     OW15754   0.920   0.866   6.966
 4952SOL    HW115755   0.955   0.927   0.021
 4952SOL    HW215756   0.966   0.886   6.879
 4953SOL     OW15757   1.478   2.315   5.038
 4953SOL    HW115758   1.489   2.238   4.976
 4953SOL    HW215759   1.397   2.367   5.012
 4954SOL     OW15760   2.825   3.666   5.238
 4954SOL    HW115761   2.752   3.732   5.219
 4954SOL    HW215762   2.912   3.702   5.205
 4955SOL     OW15763   3.744   5.955   6.550
 4955SOL    HW115764   3.753   5.996   6.641
 4955SOL    HW215765   3.833   5.955   6.504
 4956SOL     OW15766   2.469   0.439   4.639
 4956SOL    HW115767   2.490   0.362   4.579
 4956SOL    HW215768   2.371   0.439   4.660
 4957SOL     OW15769   5.723   5.391   0.183
 4957SOL    HW115770   5.809   5.439   0.203
 4957SOL    HW215771   5.742   5.307   0.133
 4958SOL     OW15772   3.332   5.378   0.338
 4958SOL    HW115773   3.243   5.336   0.321
 4958SOL    HW215774   3.382   5.388   0.252
 4959SOL     OW15775   6.939   2.430   2.819
 4959SOL    HW115776   0.003   2.480   2.852
 4959SOL    HW215777   6.918   2.356   2.882
 4960SOL     OW15778   5.314   4.375   3.794
 4960SOL    HW115779   5.395   4.413   3.838
 4960SOL    HW215780   5.242   4.444   3.790
 4961SOL     OW15781   3.235   2.771   1.892
 4961SOL    HW115782   3.325   2.733   1.867
 4961SOL    HW215783   3.226   2.771   1.992
 4962SOL     OW15784   1.843   2.645   0.246
 4962SOL    HW115785   1.767   2.593   0.208
 4962SOL    HW215786   1.927   2.590   0.244
 4963SOL     OW15787   0.855   4.026   6.151
 4963SOL    HW115788   0.805   3.953   6.198
 4963SOL    HW215789   0.791   4.081   6.098
 4964SOL     OW15790   2.061   5.109   4.387
 4964SOL    HW115791   2.068   5.194   4.335
 4964SOL    HW215792   1.966   5.096   4.416
 4965SOL     OW15793   2.351   6.933   2.857
 4965SOL    HW115794   2.371   6.847   2.810
 4965SOL    HW215795   2.436   6.981   2.876
 4966SOL     OW15796   4.018   0.093   5.398
 4966SOL    HW115797   4.094   0.156   5.386
 4966SOL    HW215798   4.053   7.015   5.398
 4967SOL     OW15799   4.188   4.696   4.159
 4967SOL    HW115800   4.197   4.717   4.256
 4967SOL    HW215801   4.246   4.617   4.137
 4968SOL     OW15802   0.014   2.997   3.955
 4968SOL    HW115803   0.067   3.083   3.953
 4968SOL    HW215804   0.065   2.926   3.906
 4969SOL     OW15805   0.388   6.026   4.208
 4969SOL    HW115806   0.432   6.044   4.295
 4969SOL    HW215807   0.457   6.016   4.136
 4970SOL     OW15808   1.870   1.929   1.633
 4970SOL    HW115809   1.923   1.849   1.605
 4970SOL    HW215810   1.844   1.982   1.552
 4971SOL     OW15811   0.003   5.814   1.457
 4971SOL    HW115812   0.002   5.724   1.501
 4971SOL    HW215813   0.092   5.857   1.473
 4972SOL     OW15814   0.371   4.465   0.244
 4972SOL    HW115815   0.466   4.492   0.231
 4972SOL    HW215816   0.358   4.373   0.208
 4973SOL     OW15817   5.933   1.488   0.374
 4973SOL    HW115818   6.020   1.441   0.386
 4973SOL    HW215819   5.895   1.510   0.464
 4974SOL     OW15820   3.373   6.860   4.762
 4974SOL    HW115821   3.442   6.811   4.710
 4974SOL    HW215822   3.383   6.959   4.747
 4975SOL     OW15823   4.921   4.669   1.013
 4975SOL    HW115824   4.866   4.609   0.957
 4975SOL    HW215825   4.988   4.615   1.065
 4976SOL     OW15826   0.622   6.764   3.778
 4976SOL    HW115827   0.705   6.764   3.722
 4976SOL    HW215828   0.549   6.812   3.728
 4977SOL     OW15829   1.578   3.821   5.524
 4977SOL    HW115830   1.558   3.762   5.446
 4977SOL    HW215831   1.509   3.807   5.595
 4978SOL     OW15832   6.167   4.267   4.864
 4978SOL    HW115833   6.172   4.195   4.933
 4978SOL    HW215834   6.074   4.272   4.826
 4979SOL     OW15835   2.417   6.789   6.633
 4979SOL    HW115836   2.427   6.712   6.570
 4979SOL    HW215837   2.508   6.825   6.656
 4980SOL     OW15838   5.798   2.924   4.213
 4980SOL    HW115839   5.887   2.902   4.253
 4980SOL    HW215840   5.803   3.014   4.169
 4981SOL     OW15841   3.417   5.963   3.405
 4981SOL    HW115842   3.405   5.902   3.326
 4981SOL    HW215843   3.515   5.972   3.426
 4982SOL     OW15844   4.076   2.053   4.879
 4982SOL    HW115845   4.001   2.086   4.822
 4982SOL    HW215846   4.039   2.021   4.967
 4983SOL     OW15847   6.087   4.101   2.493
 4983SOL    HW115848   6.034   4.155   2.559
 4983SOL    HW215849   6.184   4.109   2.515
 4984SOL     OW15850   4.979   3.731   4.984
 4984SOL    HW115851   4.984   3.767   4.891
 4984SOL    HW215852   4.902   3.668   4.992
 4985SOL     OW15853   5.642   0.290   2.151
 4985SOL    HW115854   5.578   0.361   2.123
 4985SOL    HW215855   5.644   0.286   2.251
 4986SOL     OW15856   0.688   5.214   1.094
 4986SOL    HW115857   0.631   5.159   1.154
 4986SOL    HW215858   0.635   5.290   1.057
 4987SOL     OW15859   1.551   1.977   2.987
 4987SOL    HW115860   1.480   2.016   3.046
 4987SOL    HW215861   1.551   2.025   2.899
 4988SOL     OW15862   6.250   5.367   4.318
 4988SOL    HW115863   6.328   5.310   4.292
 4988SOL    HW215864   6.250   5.378   4.418
 4989SOL     OW15865   6.030   0.021   3.507
 4989SOL    HW115866   5.976   0.070   3.575
 4989SOL    HW215867   5.982   6.953   3.481
 4990SOL     OW15868   4.395   1.736   6.470
 4990SOL    HW115869   4.356   1.707   6.382
 4990SOL    HW215870   4.493   1.715   6.472
 4991SOL     OW15871   1.920   5.861   6.071
 4991SOL    HW115872   1.954   5.944   6.026
 4991SOL    HW215873   1.989   5.828   6.135
 4992SOL     OW15874   1.562   3.823   4.460
 4992SOL    HW115875   1.519   3.802   4.548
 4992SOL    HW215876   1.564   3.741   4.404
 4993SOL     OW15877   1.936   6.044   3.633
 4993SOL    HW115878   1.996   6.040   3.553
 4993SOL    HW215879   1.991   6.049   3.716
 4994SOL     OW15880   3.918   5.248   5.133
 4994SOL    HW115881   3.942   5.249   5.035
 4994SOL    HW215882   3.918   5.341   5.168
 4995SOL     OW15883   0.314   0.895   6.297
 4995SOL    HW115884   0.333   0.802   6.329
 4995SOL    HW215885   0.378   0.919   6.225
 4996SOL     OW15886   6.955   0.770   3.885
 4996SOL    HW115887   6.962   0.818   3.797
 4996SOL    HW215888   6.922   0.833   3.955
 4997SOL     OW15889   3.944   1.477   0.826
 4997SOL    HW115890   3.924   1.435   0.738
 4997SOL    HW215891   4.027   1.436   0.865
 4998SOL     OW15892   0.741   3.818   3.494
 4998SOL    HW115893   0.659   3.875   3.487
 4998SOL    HW215894   0.785   3.813   3.404
 4999SOL     OW15895   0.881   2.729   3.634
 4999SOL    HW115896   0.967   2.768   3.601
 4999SOL    HW215897   0.825   2.701   3.556
 5000SOL     OW15898   2.778   6.670   3.363
 5000SOL    HW115899   2.818   6.592   3.315
 5000SOL    HW215900   2.702   6.638   3.420
 5001SOL     OW15901   0.242   5.636   3.161
 5001SOL    HW115902   0.308   5.711   3.163
 5001SOL    HW215903   0.192   5.634   3.248
 5002SOL     OW15904   1.263   4.667   3.918
 5002SOL    HW115905   1.279   4.765   3.902
 5002SOL    HW215906   1.346   4.626   3.954
 5003SOL     OW15907   3.655   0.865   2.497
 5003SOL    HW115908   3.668   0.944   2.557
 5003SOL    HW215909   3.742   0.838   2.457
 5004SOL     OW15910   3.688   6.115   0.091
 5004SOL    HW115911   3.597   6.076   0.076
 5004SOL    HW215912   3.712   6.173   0.013
 5005SOL     OW15913   3.378   2.671   1.095
 5005SOL    HW115914   3.328   2.757   1.081
 5005SOL    HW215915   3.475   2.686   1.074
 5006SOL     OW15916   5.384   1.055   2.283
 5006SOL    HW115917   5.429   1.143   2.264
 5006SOL    HW215918   5.447   0.980   2.264
 5007SOL     OW15919   6.179   5.724   1.904
 5007SOL    HW115920   6.105   5.703   1.840
 5007SOL    HW215921   6.205   5.641   1.952
 5008SOL     OW15922   5.574   0.551   3.639
 5008SOL    HW115923   5.626   0.511   3.563
 5008SOL    HW215924   5.550   0.645   3.616
 5009SOL     OW15925   0.197   1.903   0.671
 5009SOL    HW115926   0.100   1.912   0.697
 5009SOL    HW215927   0.204   1.892   0.572
 5010SOL     OW15928   4.538   3.590   1.398
 5010SOL    HW115929   4.461   3.541   1.439
 5010SOL    HW215930   4.521   3.688   1.400
 5011SOL     OW15931   1.833   2.598   6.257
 5011SOL    HW115932   1.881   2.513   6.234
 5011SOL    HW215933   1.738   2.593   6.226
 5012SOL     OW15934   5.925   1.167   6.201
 5012SOL    HW115935   5.931   1.098   6.130
 5012SOL    HW215936   6.005   1.228   6.195
 5013SOL     OW15937   5.154   6.891   5.740
 5013SOL    HW115938   5.131   6.988   5.746
 5013SOL    HW215939   5.251   6.878   5.760
 5014SOL     OW15940   5.687   3.255   1.600
 5014SOL    HW115941   5.592   3.285   1.613
 5014SOL    HW215942   5.711   3.189   1.672
 5015SOL     OW15943   6.168   5.367   4.590
 5015SOL    HW115944   6.182   5.453   4.639
 5015SOL    HW215945   6.180   5.290   4.653
 5016SOL     OW15946   1.522   3.223   6.313
 5016SOL    HW115947   1.501   3.320   6.299
 5016SOL    HW215948   1.550   3.208   6.407
 5017SOL     OW15949   0.252   2.630   2.099
 5017SOL    HW115950   0.262   2.723   2.064
 5017SOL    HW215951   0.185   2.580   2.043
 5018SOL     OW15952   1.351   0.682   6.803
 5018SOL    HW115953   1.325   0.666   6.707
 5018SOL    HW215954   1.429   0.744   6.807
 5019SOL     OW15955   1.816   4.401   4.146
 5019SOL    HW115956   1.787   4.444   4.231
 5019SOL    HW215957   1.771   4.446   4.069
 5020SOL     OW15958   2.193   0.440   4.176
 5020SOL    HW115959   2.143   0.387   4.108
 5020SOL    HW215960   2.129   0.489   4.235
 5021SOL     OW15961   2.472   0.957   1.141
 5021SOL    HW115962   2.510   0.866   1.125
 5021SOL    HW215963   2.383   0.964   1.096
 5022SOL     OW15964   6.815   2.975   0.980
 5022SOL    HW115965   6.822   3.074   0.991
 5022SOL    HW215966   6.754   2.938   1.050
 5023SOL     OW15967   0.516   4.245   2.728
 5023SOL    HW115968   0.579   4.167   2.723
 5023SOL    HW215969   0.515   4.293   2.641
 5024SOL     OW15970   4.731   3.629   0.653
 5024SOL    HW115971   4.802   3.633   0.723
 5024SOL    HW215972   4.641   3.631   0.696
 5025SOL     OW15973   4.646   1.791   4.593
 5025SOL    HW115974   4.552   1.762   4.610
 5025SOL    HW215975   4.696   1.797   4.679
 5026SOL     OW15976   5.430   6.318   4.338
 5026SOL    HW115977   5.465   6.331   4.431
 5026SOL    HW215978   5.367   6.392   4.316
 5027SOL     OW15979   5.328   6.261   0.870
 5027SOL    HW115980   5.409   6.203   0.863
 5027SOL    HW215981   5.304   6.296   0.780
 5028SOL     OW15982   5.819   2.016   2.159
 5028SOL    HW115983   5.819   1.931   2.106
 5028SOL    HW215984   5.801   1.995   2.255
 5029SOL     OW15985   5.141   1.734   2.203
 5029SOL    HW115986   5.065   1.791   2.172
 5029SOL    HW215987   5.139   1.647   2.154
 5030SOL     OW15988   0.632   3.560   6.847
 5030SOL    HW115989   0.621   3.602   6.937
 5030SOL    HW215990   0.543   3.556   6.801
 5031SOL     OW15991   6.302   0.369   5.926
 5031SOL    HW115992   6.248   0.452   5.941
 5031SOL    HW215993   6.243   0.297   5.890
 5032SOL     OW15994   2.563   3.607   5.976
 5032SOL    HW115995   2.574   3.637   6.071
 5032SOL    HW215996   2.473   3.565   5.965
 5033SOL     OW15997   2.328   0.058   6.125
 5033SOL    HW115998   2.343   7.013   6.202
 5033SOL    HW215999   2.412   0.067   6.072
 5034SOL     OW16000   4.137   6.240   4.710
 5034SOL    HW116001   4.210   6.304   4.687
 5034SOL    HW216002   4.094   6.205   4.627
 5035SOL     OW16003   1.822   3.580   4.000
 5035SOL    HW116004   1.891   3.645   4.031
 5035SOL    HW216005   1.732   3.623   4.003
 5036SOL     OW16006   1.380   2.637   4.760
 5036SOL    HW116007   1.432   2.644   4.675
 5036SOL    HW216008   1.308   2.706   4.761
 5037SOL     OW16009   4.620   4.049   1.087
 5037SOL    HW116010   4.638   4.029   1.184
 5037SOL    HW216011   4.691   4.111   1.052
 5038SOL     OW16012   3.025   3.601   3.309
 5038SOL    HW116013   2.975   3.682   3.278
 5038SOL    HW216014   3.122   3.623   3.317
 5039SOL     OW16015   1.220   3.762   0.425
 5039SOL    HW116016   1.248   3.671   0.455
 5039SOL    HW216017   1.121   3.762   0.408
 5040SOL     OW16018   0.254   1.579   5.806
 5040SOL    HW116019   0.326   1.567   5.875
 5040SOL    HW216020   0.284   1.536   5.721
 5041SOL     OW16021   6.778   2.108   1.334
 5041SOL    HW116022   6.748   2.193   1.291
 5041SOL    HW216023   6.820   2.048   1.265
 5042SOL     OW16024   1.171   2.374   5.934
 5042SOL    HW116025   1.090   2.333   5.892
 5042SOL    HW216026   1.217   2.432   5.868
 5043SOL     OW16027   3.990   6.599   1.695
 5043SOL    HW116028   3.972   6.617   1.791
 5043SOL    HW216029   3.925   6.650   1.639
 5044SOL     OW16030   6.734   5.680   6.999
 5044SOL    HW116031   6.695   5.770   0.004
 5044SOL    HW216032   6.781   5.645   0.064
 5045SOL     OW16033   5.586   2.692   0.294
 5045SOL    HW116034   5.627   2.770   0.247
 5045SOL    HW216035   5.535   2.637   0.228
 5046SOL     OW16036   3.744   3.093   2.343
 5046SOL    HW116037   3.705   3.012   2.387
 5046SOL    HW216038   3.800   3.065   2.264
 5047SOL     OW16039   1.948   3.658   3.746
 5047SOL    HW116040   2.025   3.717   3.768
 5047SOL    HW216041   1.929   3.597   3.823
 5048SOL     OW16042   2.619   0.398   6.676
 5048SOL    HW116043   2.623   0.369   6.580
 5048SOL    HW216044   2.613   0.317   6.735
 5049SOL     OW16045   4.378   1.931   0.068
 5049SOL    HW116046   4.474   1.959   0.075
 5049SOL    HW216047   4.373   1.838   0.031
 5050SOL     OW16048   1.617   0.450   0.627
 5050SOL    HW116049   1.520   0.444   0.604
 5050SOL    HW216050   1.635   0.535   0.675
 5051SOL     OW16051   4.877   5.072   1.394
 5051SOL    HW116052   4.810   5.027   1.453
 5051SOL    HW216053   4.913   5.006   1.328
 5052SOL     OW16054   2.130   2.442   4.736
 5052SOL    HW116055   2.063   2.464   4.807
 5052SOL    HW216056   2.144   2.522   4.678
 5053SOL     OW16057   0.610   1.286   1.326
 5053SOL    HW116058   0.516   1.301   1.293
 5053SOL    HW216059   0.614   1.305   1.424
 5054SOL     OW16060   4.076   5.884   3.895
 5054SOL    HW116061   4.030   5.796   3.897
 5054SOL    HW216062   4.133   5.891   3.813
 5055SOL     OW16063   0.213   3.744   6.065
 5055SOL    HW116064   0.202   3.843   6.070
 5055SOL    HW216065   0.132   3.703   6.023
 5056SOL     OW16066   5.825   3.779   3.774
 5056SOL    HW116067   5.788   3.700   3.726
 5056SOL    HW216068   5.754   3.849   3.784
 5057SOL     OW16069   0.339   5.534   2.266
 5057SOL    HW116070   0.402   5.594   2.217
 5057SOL    HW216071   0.245   5.557   2.241
 5058SOL     OW16072   2.711   5.242   5.786
 5058SOL    HW116073   2.637   5.286   5.837
 5058SOL    HW216074   2.799   5.283   5.812
 5059SOL     OW16075   6.832   0.416   2.373
 5059SOL    HW116076   6.751   0.383   2.421
 5059SOL    HW216077   6.886   0.473   2.434
 5060SOL     OW16078   6.901   2.370   6.159
 5060SOL    HW116079   6.871   2.280   6.189
 5060SOL    HW216080   6.821   2.427   6.138
 5061SOL     OW16081   5.086   4.222   1.218
 5061SOL    HW116082   5.136   4.230   1.132
 5061SOL    HW216083   5.115   4.295   1.280
 5062SOL     OW16084   6.525   0.500   0.951
 5062SOL    HW116085   6.436   0.507   0.907
 5062SOL    HW216086   6.514   0.468   1.045
 5063SOL     OW16087   1.399   6.312   2.251
 5063SOL    HW116088   1.468   6.250   2.214
 5063SOL    HW216089   1.308   6.272   2.240
 5064SOL     OW16090   5.009   3.549   0.267
 5064SOL    HW116091   4.912   3.554   0.244
 5064SOL    HW216092   5.041   3.455   0.260
 5065SOL     OW16093   2.846   6.640   5.687
 5065SOL    HW116094   2.821   6.605   5.777
 5065SOL    HW216095   2.787   6.719   5.665
 5066SOL     OW16096   5.229   5.399   1.023
 5066SOL    HW116097   5.143   5.347   1.022
 5066SOL    HW216098   5.286   5.367   1.098
 5067SOL     OW16099   5.330   1.023   6.663
 5067SOL    HW116100   5.300   1.032   6.758
 5067SOL    HW216101   5.357   0.928   6.646
 5068SOL     OW16102   3.578   4.932   1.402
 5068SOL    HW116103   3.494   4.904   1.355
 5068SOL    HW216104   3.619   4.852   1.447
 5069SOL     OW16105   6.746   5.300   2.570
 5069SOL    HW116106   6.692   5.303   2.654
 5069SOL    HW216107   6.726   5.215   2.521
 5070SOL     OW16108   4.894   3.506   4.255
 5070SOL    HW116109   4.900   3.605   4.253
 5070SOL    HW216110   4.807   3.478   4.295
 5071SOL     OW16111   4.255   1.145   7.009
 5071SOL    HW116112   4.281   1.201   6.931
 5071SOL    HW216113   4.317   1.066   7.015
 5072SOL     OW16114   1.119   4.095   1.362
 5072SOL    HW116115   1.132   4.096   1.263
 5072SOL    HW216116   1.055   4.167   1.389
 5073SOL     OW16117   4.327   1.953   4.421
 5073SOL    HW116118   4.363   1.970   4.329
 5073SOL    HW216119   4.374   2.013   4.486
 5074SOL     OW16120   4.092   4.909   5.031
 5074SOL    HW116121   4.188   4.935   5.046
 5074SOL    HW216122   4.059   4.859   5.111
 5075SOL     OW16123   6.380   6.721   4.011
 5075SOL    HW116124   6.392   6.820   3.997
 5075SOL    HW216125   6.331   6.705   4.096
 5076SOL     OW16126   3.965   0.790   1.382
 5076SOL    HW116127   3.894   0.729   1.347
 5076SOL    HW216128   3.927   0.846   1.457
 5077SOL     OW16129   6.851   2.821   2.439
 5077SOL    HW116130   6.781   2.829   2.510
 5077SOL    HW216131   6.908   2.741   2.458
 5078SOL     OW16132   0.008   1.139   3.803
 5078SOL    HW116133   0.092   1.149   3.857
 5078SOL    HW216134   0.011   1.054   3.751
 5079SOL     OW16135   4.487   4.738   5.015
 5079SOL    HW116136   4.522   4.787   4.935
 5079SOL    HW216137   4.438   4.656   4.985
 5080SOL     OW16138   5.763   0.173   5.774
 5080SOL    HW116139   5.690   0.207   5.834
 5080SOL    HW216140   5.827   0.247   5.755
 5081SOL     OW16141   3.360   4.045   2.947
 5081SOL    HW116142   3.385   3.949   2.933
 5081SOL    HW216143   3.299   4.075   2.874
 5082SOL     OW16144   6.759   0.153   5.784
 5082SOL    HW116145   6.859   0.154   5.776
 5082SOL    HW216146   6.727   0.244   5.813
 5083SOL     OW16147   1.678   6.008   1.970
 5083SOL    HW116148   1.684   6.061   1.886
 5083SOL    HW216149   1.608   6.047   2.030
 5084SOL     OW16150   1.830   5.680   2.396
 5084SOL    HW116151   1.877   5.757   2.440
 5084SOL    HW216152   1.862   5.594   2.438
 5085SOL     OW16153   6.290   3.202   6.867
 5085SOL    HW116154   6.294   3.253   6.953
 5085SOL    HW216155   6.199   3.161   6.857
 5086SOL     OW16156   6.952   5.092   4.212
 5086SOL    HW116157   6.861   5.073   4.175
 5086SOL    HW216158   7.013   5.122   4.139
 5087SOL     OW16159   6.764   5.587   5.142
 5087SOL    HW116160   6.710   5.542   5.070
 5087SOL    HW216161   6.738   5.683   5.148
 5088SOL     OW16162   6.010   0.776   0.545
 5088SOL    HW116163   6.036   0.828   0.464
 5088SOL    HW216164   6.011   0.679   0.524
 5089SOL     OW16165   5.477   2.657   4.070
 5089SOL    HW116166   5.427   2.706   4.141
 5089SOL    HW216167   5.560   2.707   4.047
 5090SOL     OW16168   0.857   5.130   0.806
 5090SOL    HW116169   0.917   5.060   0.767
 5090SOL    HW216170   0.875   5.139   0.904
 5091SOL     OW16171   1.386   6.554   3.531
 5091SOL    HW116172   1.471   6.504   3.514
 5091SOL    HW216173   1.404   6.632   3.591
 5092SOL     OW16174   3.446   2.986   0.989
 5092SOL    HW116175   3.484   3.078   1.000
 5092SOL    HW216176   3.369   2.975   1.051
 5093SOL     OW16177   1.036   1.980   1.400
 5093SOL    HW116178   1.036   2.074   1.366
 5093SOL    HW216179   1.027   1.917   1.323
 5094SOL     OW16180   6.955   0.503   6.989
 5094SOL    HW116181   6.956   0.406   7.012
 5094SOL    HW216182   6.880   0.548   0.021
 5095SOL     OW16183   3.236   0.163   4.977
 5095SOL    HW116184   3.139   0.183   4.989
 5095SOL    HW216185   3.257   0.156   4.880
 5096SOL     OW16186   3.672   6.110   3.188
 5096SOL    HW116187   3.722   6.163   3.119
 5096SOL    HW216188   3.656   6.017   3.154
 5097SOL     OW16189   0.864   1.477   6.254
 5097SOL    HW116190   0.925   1.440   6.184
 5097SOL    HW216191   0.824   1.563   6.220
 5098SOL     OW16192   6.836   2.908   2.737
 5098SOL    HW116193   6.744   2.944   2.757
 5098SOL    HW216194   6.897   2.984   2.715
 5099SOL     OW16195   0.917   0.309   4.054
 5099SOL    HW116196   0.964   0.337   3.970
 5099SOL    HW216197   0.949   0.218   4.081
 5100SOL     OW16198   4.631   5.252   6.479
 5100SOL    HW116199   4.566   5.303   6.534
 5100SOL    HW216200   4.661   5.171   6.529
 5101SOL     OW16201   4.532   6.450   0.468
 5101SOL    HW116202   4.432   6.441   0.477
 5101SOL    HW216203   4.561   6.408   0.382
 5102SOL     OW16204   3.723   5.625   4.356
 5102SOL    HW116205   3.674   5.554   4.407
 5102SOL    HW216206   3.659   5.699   4.333
 5103SOL     OW16207   1.454   1.313   4.151
 5103SOL    HW116208   1.524   1.309   4.223
 5103SOL    HW216209   1.377   1.368   4.183
 5104SOL     OW16210   0.971   0.504   1.266
 5104SOL    HW116211   0.957   0.533   1.360
 5104SOL    HW216212   0.934   0.573   1.204
 5105SOL     OW16213   2.202   3.123   6.345
 5105SOL    HW116214   2.115   3.075   6.351
 5105SOL    HW216215   2.217   3.154   6.250
 5106SOL     OW16216   2.686   0.185   2.579
 5106SOL    HW116217   2.598   0.227   2.557
 5106SOL    HW216218   2.678   0.131   2.663
 5107SOL     OW16219   1.690   0.306   6.581
 5107SOL    HW116220   1.707   0.217   6.539
 5107SOL    HW216221   1.700   0.299   6.680
 5108SOL     OW16222   3.285   3.814   3.690
 5108SOL    HW116223   3.277   3.823   3.789
 5108SOL    HW216224   3.347   3.739   3.668
 5109SOL     OW16225   6.899   1.796   2.189
 5109SOL    HW116226   6.820   1.749   2.228
 5109SOL    HW216227   6.969   1.806   2.260
 5110SOL     OW16228   2.220   5.673   5.546
 5110SOL    HW116229   2.177   5.584   5.558
 5110SOL    HW216230   2.268   5.675   5.458
 5111SOL     OW16231   1.843   1.546   0.199
 5111SOL    HW116232   1.770   1.484   0.228
 5111SOL    HW216233   1.803   1.634   0.172
 5112SOL     OW16234   0.134   0.223   3.400
 5112SOL    HW116235   0.177   0.200   3.487
 5112SOL    HW216236   0.130   0.141   3.342
 5113SOL     OW16237   0.387   0.208   6.203
 5113SOL    HW116238   0.350   0.253   6.284
 5113SOL    HW216239   0.470   0.254   6.173
 5114SOL     OW16240   4.039   5.585   6.519
 5114SOL    HW116241   3.949   5.560   6.554
 5114SOL    HW216242   4.086   5.643   6.585
 5115SOL     OW16243   2.070   3.858   4.937
 5115SOL    HW116244   2.018   3.879   5.020
 5115SOL    HW216245   2.165   3.884   4.950
 5116SOL     OW16246   6.638   3.369   0.426
 5116SOL    HW116247   6.676   3.417   0.504
 5116SOL    HW216248   6.589   3.434   0.367
 5117SOL     OW16249   2.850   5.073   3.158
 5117SOL    HW116250   2.778   5.006   3.137
 5117SOL    HW216251   2.830   5.119   3.244
 5118SOL     OW16252   3.920   6.694   1.972
 5118SOL    HW116253   4.009   6.733   1.995
 5118SOL    HW216254   3.858   6.767   1.943
 5119SOL     OW16255   6.309   0.237   2.663
 5119SOL    HW116256   6.275   0.144   2.648
 5119SOL    HW216257   6.356   0.242   2.751
 5120SOL     OW16258   3.350   1.462   2.461
 5120SOL    HW116259   3.369   1.448   2.364
 5120SOL    HW216260   3.298   1.547   2.473
 5121SOL     OW16261   0.657   3.218   4.045
 5121SOL    HW116262   0.659   3.314   4.016
 5121SOL    HW216263   0.681   3.213   4.142
 5122SOL     OW16264   2.176   5.458   3.491
 5122SOL    HW116265   2.223   5.379   3.453
 5122SOL    HW216266   2.243   5.521   3.530
 5123SOL     OW16267   6.176   3.446   1.946
 5123SOL    HW116268   6.249   3.415   2.008
 5123SOL    HW216269   6.110   3.500   1.998
 5124SOL     OW16270   2.350   6.500   0.651
 5124SOL    HW116271   2.307   6.460   0.570
 5124SOL    HW216272   2.288   6.490   0.730
 5125SOL     OW16273   6.918   1.977   5.794
 5125SOL    HW116274   7.003   2.027   5.777
 5125SOL    HW216275   6.924   1.887   5.753
 5126SOL     OW16276   4.494   2.298   0.149
 5126SOL    HW116277   4.545   2.247   0.080
 5126SOL    HW216278   4.515   2.262   0.240
 5127SOL     OW16279   5.656   3.279   6.590
 5127SOL    HW116280   5.627   3.188   6.621
 5127SOL    HW216281   5.581   3.343   6.600
 5128SOL     OW16282   6.792   0.058   6.372
 5128SOL    HW116283   6.757   7.003   6.311
 5128SOL    HW216284   6.726   0.132   6.378
 5129SOL     OW16285   4.759   2.381   3.466
 5129SOL    HW116286   4.671   2.348   3.433
 5129SOL    HW216287   4.821   2.394   3.388
 5130SOL     OW16288   1.284   6.580   5.241
 5130SOL    HW116289   1.208   6.522   5.212
 5130SOL    HW216290   1.360   6.522   5.272
 5131SOL     OW16291   3.562   4.920   3.716
 5131SOL    HW116292   3.500   4.843   3.730
 5131SOL    HW216293   3.580   4.931   3.618
 5132SOL     OW16294   4.304   2.200   6.802
 5132SOL    HW116295   4.222   2.160   6.762
 5132SOL    HW216296   4.279   2.264   6.874
 5133SOL     OW16297   4.907   4.771   6.888
 5133SOL    HW116298   4.860   4.694   6.845
 5133SOL    HW216299   4.891   4.768   6.987
 5134SOL     OW16300   6.294   5.637   0.280
 5134SOL    HW116301   6.253   5.571   0.216
 5134SOL    HW216302   6.394   5.629   0.275
 5135SOL     OW16303   6.774   2.913   2.172
 5135SOL    HW116304   6.743   2.821   2.149
 5135SOL    HW216305   6.788   2.920   2.271
 5136SOL     OW16306   0.918   1.082   4.756
 5136SOL    HW116307   0.928   1.100   4.854
 5136SOL    HW216308   1.003   1.044   4.720
 5137SOL     OW16309   5.376   0.602   3.340
 5137SOL    HW116310   5.320   0.552   3.406
 5137SOL    HW216311   5.327   0.607   3.253
 5138SOL     OW16312   3.289   3.068   2.520
 5138SOL    HW116313   3.205   3.119   2.500
 5138SOL    HW216314   3.356   3.084   2.448
 5139SOL     OW16315   4.267   0.545   4.836
 5139SOL    HW116316   4.231   0.609   4.768
 5139SOL    HW216317   4.304   0.465   4.789
 5140SOL     OW16318   3.343   3.738   6.480
 5140SOL    HW116319   3.364   3.817   6.422
 5140SOL    HW216320   3.411   3.733   6.554
 5141SOL     OW16321   1.460   2.639   1.726
 5141SOL    HW116322   1.462   2.662   1.629
 5141SOL    HW216323   1.388   2.572   1.743
 5142SOL     OW16324   0.731   0.284   2.351
 5142SOL    HW116325   0.688   0.332   2.275
 5142SOL    HW216326   0.726   0.339   2.434
 5143SOL     OW16327   6.864   5.949   2.250
 5143SOL    HW116328   6.878   6.045   2.229
 5143SOL    HW216329   6.943   5.913   2.299
 5144SOL     OW16330   2.165   3.083   4.978
 5144SOL    HW116331   2.253   3.043   5.002
 5144SOL    HW216332   2.113   3.100   5.062
 5145SOL     OW16333   2.565   5.542   5.635
 5145SOL    HW116334   2.665   5.546   5.645
 5145SOL    HW216335   2.532   5.627   5.595
 5146SOL     OW16336   5.971   5.680   6.394
 5146SOL    HW116337   5.895   5.646   6.449
 5146SOL    HW216338   6.006   5.606   6.336
 5147SOL     OW16339   5.750   2.439   3.373
 5147SOL    HW116340   5.841   2.400   3.386
 5147SOL    HW216341   5.717   2.417   3.282
 5148SOL     OW16342   6.564   1.307   0.382
 5148SOL    HW116343   6.532   1.214   0.399
 5148SOL    HW216344   6.577   1.320   0.284
 5149SOL     OW16345   4.479   5.680   4.167
 5149SOL    HW116346   4.478   5.582   4.185
 5149SOL    HW216347   4.544   5.699   4.093
 5150SOL     OW16348   6.554   0.632   3.653
 5150SOL    HW116349   6.504   0.577   3.719
 5150SOL    HW216350   6.504   0.636   3.567
 5151SOL     OW16351   5.521   5.094   1.410
 5151SOL    HW116352   5.610   5.118   1.371
 5151SOL    HW216353   5.535   5.045   1.496
 5152SOL     OW16354   2.271   1.972   0.071
 5152SOL    HW116355   2.331   2.041   0.111
 5152SOL    HW216356   2.291   1.963   6.990
 5153SOL     OW16357   2.410   2.209   0.357
 5153SOL    HW116358   2.407   2.220   0.258
 5153SOL    HW216359   2.505   2.198   0.387
 5154SOL     OW16360   0.689   2.554   0.344
 5154SOL    HW116361   0.642   2.468   0.365
 5154SOL    HW216362   0.762   2.570   0.410
 5155SOL     OW16363   1.515   1.327   0.477
 5155SOL    HW116364   1.613   1.311   0.486
 5155SOL    HW216365   1.496   1.425   0.482
 5156SOL     OW16366   5.573   4.731   5.900
 5156SOL    HW116367   5.560   4.650   5.843
 5156SOL    HW216368   5.487   4.781   5.908
 5157SOL     OW16369   3.556   0.973   1.934
 5157SOL    HW116370   3.640   1.027   1.926
 5157SOL    HW216371   3.537   0.927   1.847
 5158SOL     OW16372   1.448   2.196   1.625
 5158SOL    HW116373   1.440   2.097   1.639
 5158SOL    HW216374   1.499   2.236   1.702
 5159SOL     OW16375   6.423   3.168   5.983
 5159SOL    HW116376   6.427   3.085   5.927
 5159SOL    HW216377   6.363   3.152   6.061
 5160SOL     OW16378   6.602   0.370   3.266
 5160SOL    HW116379   6.654   0.376   3.352
 5160SOL    HW216380   6.505   0.359   3.287
 5161SOL     OW16381   1.260   2.354   6.241
 5161SOL    HW116382   1.180   2.381   6.186
 5161SOL    HW216383   1.312   2.284   6.192
 5162SOL     OW16384   0.195   6.792   4.977
 5162SOL    HW116385   0.274   6.757   4.926
 5162SOL    HW216386   0.167   6.724   5.045
 5163SOL     OW16387   3.109   0.414   1.920
 5163SOL    HW116388   3.207   0.393   1.925
 5163SOL    HW216389   3.088   0.488   1.983
 5164SOL     OW16390   2.829   3.667   0.168
 5164SOL    HW116391   2.783   3.739   0.220
 5164SOL    HW216392   2.879   3.707   0.091
 5165SOL     OW16393   1.770   5.146   6.474
 5165SOL    HW116394   1.802   5.176   6.564
 5165SOL    HW216395   1.681   5.101   6.483
 5166SOL     OW16396   0.108   5.063   6.289
 5166SOL    HW116397   0.142   4.969   6.289
 5166SOL    HW216398   0.009   5.062   6.271
 5167SOL     OW16399   5.684   3.773   5.989
 5167SOL    HW116400   5.601   3.815   6.025
 5167SOL    HW216401   5.708   3.694   6.044
 5168SOL     OW16402   4.555   1.766   3.202
 5168SOL    HW116403   4.466   1.723   3.189
 5168SOL    HW216404   4.627   1.705   3.170
 5169SOL     OW16405   5.510   5.959   4.064
 5169SOL    HW116406   5.589   5.900   4.047
 5169SOL    HW216407   5.524   6.011   4.148
 5170SOL     OW16408   2.146   4.178   5.995
 5170SOL    HW116409   2.235   4.135   6.010
 5170SOL    HW216410   2.104   4.141   5.913
 5171SOL     OW16411   2.163   6.782   5.891
 5171SOL    HW116412   2.129   6.742   5.976
 5171SOL    HW216413   2.184   6.708   5.827
 5172SOL     OW16414   5.733   5.582   6.516
 5172SOL    HW116415   5.733   5.482   6.504
 5172SOL    HW216416   5.639   5.615   6.519
 5173SOL     OW16417   4.349   5.704   4.584
 5173SOL    HW116418   4.338   5.689   4.682
 5173SOL    HW216419   4.338   5.802   4.564
 5174SOL     OW16420   1.403   6.715   3.020
 5174SOL    HW116421   1.394   6.644   3.090
 5174SOL    HW216422   1.463   6.787   3.054
 5175SOL     OW16423   2.608   2.594   6.468
 5175SOL    HW116424   2.650   2.538   6.539
 5175SOL    HW216425   2.529   2.545   6.430
 5176SOL     OW16426   6.380   5.961   6.553
 5176SOL    HW116427   6.396   5.864   6.540
 5176SOL    HW216428   6.465   6.012   6.538
 5177SOL     OW16429   5.266   6.360   0.600
 5177SOL    HW116430   5.282   6.285   0.535
 5177SOL    HW216431   5.293   6.446   0.557
 5178SOL     OW16432   0.546   4.030   1.163
 5178SOL    HW116433   0.642   4.003   1.167
 5178SOL    HW216434   0.513   4.023   1.069
 5179SOL     OW16435   5.191   5.622   3.367
 5179SOL    HW116436   5.180   5.646   3.270
 5179SOL    HW216437   5.107   5.643   3.416
 5180SOL     OW16438   1.686   4.665   2.148
 5180SOL    HW116439   1.666   4.693   2.243
 5180SOL    HW216440   1.755   4.726   2.110
 5181SOL     OW16441   0.012   1.512   5.709
 5181SOL    HW116442   0.097   1.542   5.752
 5181SOL    HW216443   0.031   1.437   5.646
 5182SOL     OW16444   2.512   6.310   2.369
 5182SOL    HW116445   2.598   6.341   2.411
 5182SOL    HW216446   2.435   6.354   2.414
 5183SOL     OW16447   4.618   2.664   3.420
 5183SOL    HW116448   4.575   2.581   3.385
 5183SOL    HW216449   4.674   2.642   3.500
 5184SOL     OW16450   2.134   1.603   3.074
 5184SOL    HW116451   2.099   1.674   3.013
 5184SOL    HW216452   2.147   1.518   3.021
 5185SOL     OW16453   6.642   0.095   2.241
 5185SOL    HW116454   6.557   0.058   2.280
 5185SOL    HW216455   6.623   0.184   2.201
 5186SOL     OW16456   6.097   2.420   6.636
 5186SOL    HW116457   6.192   2.451   6.628
 5186SOL    HW216458   6.036   2.499   6.638
 5187SOL     OW16459   1.444   4.432   4.991
 5187SOL    HW116460   1.389   4.468   4.915
 5187SOL    HW216461   1.489   4.508   5.039
 5188SOL     OW16462   6.895   1.122   1.679
 5188SOL    HW116463   6.986   1.127   1.721
 5188SOL    HW216464   6.832   1.074   1.741
 5189SOL     OW16465   4.709   6.123   0.147
 5189SOL    HW116466   4.797   6.169   0.141
 5189SOL    HW216467   4.723   6.025   0.160
 5190SOL     OW16468   1.573   4.843   0.836
 5190SOL    HW116469   1.621   4.927   0.860
 5190SOL    HW216470   1.580   4.827   0.738
 5191SOL     OW16471   2.672   4.427   1.637
 5191SOL    HW116472   2.733   4.467   1.706
 5191SOL    HW216473   2.674   4.327   1.644
 5192SOL     OW16474   0.714   4.813   2.465
 5192SOL    HW116475   0.756   4.833   2.553
 5192SOL    HW216476   0.732   4.718   2.440
 5193SOL     OW16477   4.511   0.776   5.455
 5193SOL    HW116478   4.524   0.801   5.359
 5193SOL    HW216479   4.453   0.843   5.500
 5194SOL     OW16480   4.603   1.558   4.833
 5194SOL    HW116481   4.631   1.653   4.839
 5194SOL    HW216482   4.503   1.552   4.830
 5195SOL     OW16483   1.768   0.523   5.413
 5195SOL    HW116484   1.860   0.517   5.373
 5195SOL    HW216485   1.766   0.597   5.481
 5196SOL     OW16486   5.573   6.490   2.859
 5196SOL    HW116487   5.564   6.445   2.948
 5196SOL    HW216488   5.625   6.575   2.869
 5197SOL     OW16489   1.105   3.265   4.539
 5197SOL    HW116490   1.121   3.246   4.636
 5197SOL    HW216491   1.147   3.353   4.515
 5198SOL     OW16492   5.877   4.837   3.053
 5198SOL    HW116493   5.852   4.778   3.130
 5198SOL    HW216494   5.965   4.808   3.016
 5199SOL     OW16495   6.931   4.414   0.979
 5199SOL    HW116496   7.005   4.388   0.916
 5199SOL    HW216497   6.969   4.469   1.054
 5200SOL     OW16498   6.268   3.667   5.340
 5200SOL    HW116499   6.176   3.692   5.310
 5200SOL    HW216500   6.295   3.723   5.418
 5201SOL     OW16501   0.822   6.100   4.710
 5201SOL    HW116502   0.861   6.160   4.640
 5201SOL    HW216503   0.795   6.014   4.668
 5202SOL     OW16504   0.665   4.376   1.973
 5202SOL    HW116505   0.716   4.415   2.050
 5202SOL    HW216506   0.573   4.413   1.972
 5203SOL     OW16507   6.376   3.273   0.166
 5203SOL    HW116508   6.452   3.334   0.186
 5203SOL    HW216509   6.291   3.313   0.201
 5204SOL     OW16510   5.148   5.397   6.294
 5204SOL    HW116511   5.069   5.366   6.347
 5204SOL    HW216512   5.232   5.364   6.338
 5205SOL     OW16513   2.476   6.628   0.264
 5205SOL    HW116514   2.469   6.687   0.183
 5205SOL    HW216515   2.385   6.598   0.291
 5206SOL     OW16516   0.397   4.020   4.491
 5206SOL    HW116517   0.462   3.962   4.442
 5206SOL    HW216518   0.377   4.102   4.438
 5207SOL     OW16519   1.919   4.539   3.629
 5207SOL    HW116520   1.924   4.500   3.720
 5207SOL    HW216521   2.003   4.590   3.610
 5208SOL     OW16522   5.383   0.969   6.944
 5208SOL    HW116523   5.429   0.944   0.013
 5208SOL    HW216524   5.292   0.928   6.942
 5209SOL     OW16525   5.446   5.452   3.277
 5209SOL    HW116526   5.471   5.366   3.321
 5209SOL    HW216527   5.353   5.447   3.243
 5210SOL     OW16528   4.977   4.384   3.020
 5210SOL    HW116529   4.930   4.470   3.001
 5210SOL    HW216530   4.914   4.321   3.065
 5211SOL     OW16531   3.307   3.479   2.070
 5211SOL    HW116532   3.392   3.466   2.122
 5211SOL    HW216533   3.315   3.563   2.016
 5212SOL     OW16534   0.621   0.395   6.474
 5212SOL    HW116535   0.535   0.434   6.441
 5212SOL    HW216536   0.696   0.424   6.414
 5213SOL     OW16537   4.243   2.013   6.434
 5213SOL    HW116538   4.209   2.078   6.365
 5213SOL    HW216539   4.234   1.920   6.399
 5214SOL     OW16540   5.039   1.672   0.109
 5214SOL    HW116541   5.100   1.662   0.030
 5214SOL    HW216542   5.019   1.769   0.124
 5215SOL     OW16543   5.561   4.974   3.806
 5215SOL    HW116544   5.504   4.897   3.837
 5215SOL    HW216545   5.601   4.951   3.717
 5216SOL     OW16546   4.130   5.853   1.699
 5216SOL    HW116547   4.184   5.909   1.635
 5216SOL    HW216548   4.033   5.864   1.678
 5217SOL     OW16549   2.971   4.863   3.399
 5217SOL    HW116550   2.920   4.790   3.354
 5217SOL    HW216551   2.911   4.912   3.462
 5218SOL     OW16552   2.229   6.899   4.203
 5218SOL    HW116553   2.186   6.827   4.258
 5218SOL    HW216554   2.209   6.988   4.244
 5219SOL     OW16555   2.195   6.879   0.937
 5219SOL    HW116556   2.180   6.858   0.840
 5219SOL    HW216557   2.184   6.796   0.991
 5220SOL     OW16558   1.298   6.604   1.654
 5220SOL    HW116559   1.347   6.689   1.672
 5220SOL    HW216560   1.258   6.571   1.739
 5221SOL     OW16561   4.397   1.341   6.861
 5221SOL    HW116562   4.472   1.336   6.927
 5221SOL    HW216563   4.408   1.424   6.805
 5222SOL     OW16564   0.606   6.836   2.549
 5222SOL    HW116565   0.688   6.807   2.498
 5222SOL    HW216566   0.536   6.867   2.484
 5223SOL     OW16567   4.809   6.541   1.117
 5223SOL    HW116568   4.779   6.563   1.024
 5223SOL    HW216569   4.829   6.625   1.167
 5224SOL     OW16570   5.501   1.582   3.261
 5224SOL    HW116571   5.476   1.658   3.200
 5224SOL    HW216572   5.492   1.612   3.356
 5225SOL     OW16573   0.011   6.842   5.673
 5225SOL    HW116574   0.066   6.848   5.756
 5225SOL    HW216575   0.072   6.842   5.593
 5226SOL     OW16576   2.894   6.127   4.195
 5226SOL    HW116577   2.845   6.058   4.249
 5226SOL    HW216578   2.838   6.154   4.117
 5227SOL     OW16579   5.062   3.703   3.851
 5227SOL    HW116580   5.138   3.723   3.913
 5227SOL    HW216581   4.998   3.640   3.896
 5228SOL     OW16582   5.269   0.917   1.281
 5228SOL    HW116583   5.281   0.823   1.310
 5228SOL    HW216584   5.228   0.919   1.190
 5229SOL     OW16585   1.289   4.108   3.742
 5229SOL    HW116586   1.332   4.139   3.657
 5229SOL    HW216587   1.213   4.046   3.719
 5230SOL     OW16588   1.295   6.596   5.755
 5230SOL    HW116589   1.290   6.512   5.700
 5230SOL    HW216590   1.383   6.600   5.802
 5231SOL     OW16591   3.485   3.187   2.763
 5231SOL    HW116592   3.545   3.112   2.790
 5231SOL    HW216593   3.398   3.150   2.730
 5232SOL     OW16594   5.117   2.860   4.885
 5232SOL    HW116595   5.207   2.830   4.916
 5232SOL    HW216596   5.122   2.954   4.853
 5233SOL     OW16597   0.368   0.198   2.763
 5233SOL    HW116598   0.371   0.298   2.768
 5233SOL    HW216599   0.462   0.162   2.765
 5234SOL     OW16600   3.726   5.430   1.437
 5234SOL    HW116601   3.733   5.528   1.453
 5234SOL    HW216602   3.818   5.390   1.432
 5235SOL     OW16603   0.493   3.370   1.476
 5235SOL    HW116604   0.441   3.319   1.545
 5235SOL    HW216605   0.469   3.336   1.385
 5236SOL     OW16606   5.927   3.338   1.165
 5236SOL    HW116607   5.974   3.268   1.111
 5236SOL    HW216608   5.942   3.428   1.123
 5237SOL     OW16609   1.859   1.743   3.868
 5237SOL    HW116610   1.892   1.650   3.852
 5237SOL    HW216611   1.900   1.805   3.801
 5238SOL     OW16612   2.132   3.796   1.183
 5238SOL    HW116613   2.043   3.823   1.146
 5238SOL    HW216614   2.124   3.707   1.227
 5239SOL     OW16615   3.018   3.362   4.665
 5239SOL    HW116616   2.933   3.399   4.628
 5239SOL    HW216617   3.094   3.386   4.605
 5240SOL     OW16618   3.559   1.565   4.878
 5240SOL    HW116619   3.595   1.542   4.788
 5240SOL    HW216620   3.513   1.486   4.918
 5241SOL     OW16621   2.960   5.686   5.761
 5241SOL    HW116622   2.926   5.639   5.680
 5241SOL    HW216623   3.030   5.752   5.735
 5242SOL     OW16624   4.498   0.746   4.947
 5242SOL    HW116625   4.401   0.749   4.968
 5242SOL    HW216626   4.515   0.681   4.873
 5243SOL     OW16627   0.681   4.148   0.063
 5243SOL    HW116628   0.650   4.066   0.015
 5243SOL    HW216629   0.695   4.221   7.013
 5244SOL     OW16630   6.109   3.327   0.208
 5244SOL    HW116631   6.041   3.345   0.138
 5244SOL    HW216632   6.088   3.380   0.290
 5245SOL     OW16633   4.649   4.716   6.526
 5245SOL    HW116634   4.676   4.812   6.538
 5245SOL    HW216635   4.662   4.667   6.612
 5246SOL     OW16636   1.024   3.319   3.138
 5246SOL    HW116637   1.089   3.247   3.159
 5246SOL    HW216638   0.936   3.298   3.180
 5247SOL     OW16639   0.058   4.413   0.739
 5247SOL    HW116640   0.020   4.373   0.656
 5247SOL    HW216641   0.012   4.499   0.760
 5248SOL     OW16642   4.973   0.283   0.462
 5248SOL    HW116643   4.986   0.184   0.464
 5248SOL    HW216644   4.922   0.311   0.543
 5249SOL     OW16645   1.346   5.668   6.278
 5249SOL    HW116646   1.285   5.651   6.200
 5249SOL    HW216647   1.375   5.763   6.277
 5250SOL     OW16648   1.212   1.679   5.640
 5250SOL    HW116649   1.263   1.760   5.613
 5250SOL    HW216650   1.227   1.607   5.572
 5251SOL     OW16651   1.091   3.221   0.574
 5251SOL    HW116652   1.061   3.299   0.630
 5251SOL    HW216653   1.167   3.175   0.619
 5252SOL     OW16654   4.871   6.661   1.522
 5252SOL    HW116655   4.867   6.696   1.429
 5252SOL    HW216656   4.804   6.587   1.534
 5253SOL     OW16657   6.030   2.634   3.224
 5253SOL    HW116658   6.049   2.634   3.322
 5253SOL    HW216659   6.116   2.633   3.173
 5254SOL     OW16660   4.811   0.684   4.272
 5254SOL    HW116661   4.792   0.636   4.187
 5254SOL    HW216662   4.855   0.771   4.252
 5255SOL     OW16663   3.282   6.168   4.692
 5255SOL    HW116664   3.242   6.224   4.765
 5255SOL    HW216665   3.252   6.073   4.703
 5256SOL     OW16666   5.099   6.266   2.323
 5256SOL    HW116667   5.083   6.358   2.360
 5256SOL    HW216668   5.189   6.233   2.352
 5257SOL     OW16669   3.049   1.153   3.288
 5257SOL    HW116670   3.147   1.167   3.273
 5257SOL    HW216671   3.022   1.195   3.374
 5258SOL     OW16672   5.994   2.190   2.076
 5258SOL    HW116673   5.927   2.122   2.106
 5258SOL    HW216674   6.028   2.165   1.985
 5259SOL     OW16675   5.399   4.341   1.302
 5259SOL    HW116676   5.314   4.369   1.346
 5259SOL    HW216677   5.453   4.285   1.365
 5260SOL     OW16678   4.979   2.894   2.044
 5260SOL    HW116679   4.900   2.955   2.052
 5260SOL    HW216680   4.954   2.814   1.989
 5261SOL     OW16681   2.618   2.411   4.697
 5261SOL    HW116682   2.697   2.406   4.759
 5261SOL    HW216683   2.644   2.375   4.608
 5262SOL     OW16684   1.702   0.089   1.790
 5262SOL    HW116685   1.672   0.074   1.884
 5262SOL    HW216686   1.630   0.138   1.740
 5263SOL     OW16687   0.701   6.390   6.892
 5263SOL    HW116688   0.636   6.365   6.963
 5263SOL    HW216689   0.709   6.490   6.888
 5264SOL     OW16690   1.064   1.635   1.227
 5264SOL    HW116691   0.981   1.689   1.241
 5264SOL    HW216692   1.047   1.540   1.255
 5265SOL     OW16693   5.573   5.209   3.456
 5265SOL    HW116694   5.664   5.250   3.466
 5265SOL    HW216695   5.532   5.198   3.547
 5266SOL     OW16696   1.008   6.799   1.372
 5266SOL    HW116697   0.935   6.751   1.323
 5266SOL    HW216698   1.070   6.842   1.306
 5267SOL     OW16699   4.480   3.728   5.337
 5267SOL    HW116700   4.451   3.822   5.322
 5267SOL    HW216701   4.565   3.711   5.286
 5268SOL     OW16702   5.761   5.380   5.460
 5268SOL    HW116703   5.716   5.331   5.385
 5268SOL    HW216704   5.819   5.316   5.511
 5269SOL     OW16705   1.971   4.587   5.909
 5269SOL    HW116706   1.971   4.518   5.836
 5269SOL    HW216707   1.911   4.557   5.983
 5270SOL     OW16708   6.492   2.712   3.000
 5270SOL    HW116709   6.487   2.691   2.902
 5270SOL    HW216710   6.523   2.632   3.050
 5271SOL     OW16711   5.418   3.887   5.563
 5271SOL    HW116712   5.440   3.954   5.635
 5271SOL    HW216713   5.434   3.927   5.473
 5272SOL     OW16714   1.659   1.168   3.881
 5272SOL    HW116715   1.595   1.137   3.952
 5272SOL    HW216716   1.717   1.240   3.918
 5273SOL     OW16717   0.507   0.140   4.790
 5273SOL    HW116718   0.448   0.171   4.864
 5273SOL    HW216719   0.459   0.072   4.734
 5274SOL     OW16720   0.528   5.784   4.457
 5274SOL    HW116721   0.599   5.773   4.387
 5274SOL    HW216722   0.441   5.752   4.421
 5275SOL     OW16723   1.738   6.719   6.915
 5275SOL    HW116724   1.797   6.644   6.945
 5275SOL    HW216725   1.643   6.688   6.915
 5276SOL     OW16726   0.097   0.273   0.502
 5276SOL    HW116727   0.063   0.204   0.565
 5276SOL    HW216728   0.161   0.333   0.549
 5277SOL     OW16729   0.716   1.495   2.561
 5277SOL    HW116730   0.796   1.480   2.503
 5277SOL    HW216731   0.637   1.450   2.520
 5278SOL     OW16732   0.703   3.754   6.048
 5278SOL    HW116733   0.749   3.684   5.993
 5278SOL    HW216734   0.612   3.771   6.011
 5279SOL     OW16735   2.315   6.413   6.770
 5279SOL    HW116736   2.280   6.407   6.676
 5279SOL    HW216737   2.287   6.331   6.820
 5280SOL     OW16738   4.861   6.334   5.233
 5280SOL    HW116739   4.901   6.276   5.163
 5280SOL    HW216740   4.837   6.423   5.193
 5281SOL     OW16741   2.743   6.992   5.177
 5281SOL    HW116742   2.734   0.002   5.273
 5281SOL    HW216743   2.816   6.924   5.167
 5282SOL     OW16744   0.561   6.910   0.642
 5282SOL    HW116745   0.620   6.908   0.723
 5282SOL    HW216746   0.589   6.986   0.583
 5283SOL     OW16747   0.999   1.027   3.556
 5283SOL    HW116748   1.002   0.936   3.516
 5283SOL    HW216749   0.961   1.021   3.649
 5284SOL     OW16750   4.900   3.422   1.857
 5284SOL    HW116751   4.920   3.459   1.766
 5284SOL    HW216752   4.928   3.326   1.860
 5285SOL     OW16753   1.218   1.803   3.881
 5285SOL    HW116754   1.149   1.803   3.809
 5285SOL    HW216755   1.253   1.710   3.895
 5286SOL     OW16756   6.333   3.052   1.611
 5286SOL    HW116757   6.252   3.020   1.660
 5286SOL    HW216758   6.390   2.975   1.586
 5287SOL     OW16759   1.369   5.323   1.196
 5287SOL    HW116760   1.362   5.411   1.242
 5287SOL    HW216761   1.284   5.302   1.149
 5288SOL     OW16762   3.815   0.808   1.627
 5288SOL    HW116763   3.807   0.764   1.716
 5288SOL    HW216764   3.794   0.905   1.635
 5289SOL     OW16765   2.331   4.599   5.978
 5289SOL    HW116766   2.249   4.654   5.991
 5289SOL    HW216767   2.400   4.653   5.929
 5290SOL     OW16768   2.046   3.442   4.726
 5290SOL    HW116769   1.972   3.383   4.691
 5290SOL    HW216770   2.065   3.418   4.821
 5291SOL     OW16771   3.227   4.920   4.450
 5291SOL    HW116772   3.275   4.928   4.362
 5291SOL    HW216773   3.136   4.880   4.435
 5292SOL     OW16774   0.325   3.599   5.187
 5292SOL    HW116775   0.423   3.588   5.174
 5292SOL    HW216776   0.302   3.696   5.194
 5293SOL     OW16777   2.352   0.026   4.647
 5293SOL    HW116778   2.402   6.984   4.583
 5293SOL    HW216779   2.285   6.988   4.697
 5294SOL     OW16780   4.978   7.008   5.151
 5294SOL    HW116781   4.975   0.073   5.209
 5294SOL    HW216782   4.907   7.015   5.080
 5295SOL     OW16783   2.037   1.064   2.739
 5295SOL    HW116784   2.056   1.093   2.645
 5295SOL    HW216785   2.040   0.964   2.743
 5296SOL     OW16786   4.440   4.635   1.556
 5296SOL    HW116787   4.368   4.607   1.493
 5296SOL    HW216788   4.497   4.704   1.512
 5297SOL     OW16789   2.590   5.788   6.048
 5297SOL    HW116790   2.546   5.734   6.120
 5297SOL    HW216791   2.551   5.880   6.046
 5298SOL     OW16792   2.310   1.512   0.280
 5298SOL    HW116793   2.402   1.475   0.280
 5298SOL    HW216794   2.243   1.438   0.279
 5299SOL     OW16795   2.373   1.141   1.557
 5299SOL    HW116796   2.410   1.220   1.607
 5299SOL    HW216797   2.414   1.137   1.466
 5300SOL     OW16798   2.929   4.887   6.802
 5300SOL    HW116799   2.994   4.930   6.739
 5300SOL    HW216800   2.854   4.847   6.750
 5301SOL     OW16801   5.900   0.071   6.034
 5301SOL    HW116802   5.910   0.076   5.935
 5301SOL    HW216803   5.806   0.093   6.059
 5302SOL     OW16804   5.473   5.959   2.721
 5302SOL    HW116805   5.465   6.016   2.804
 5302SOL    HW216806   5.550   5.990   2.667
 5303SOL     OW16807   0.948   5.408   5.530
 5303SOL    HW116808   1.036   5.367   5.506
 5303SOL    HW216809   0.958   5.463   5.613
 5304SOL     OW16810   0.189   0.480   2.853
 5304SOL    HW116811   0.191   0.434   2.764
 5304SOL    HW216812   0.148   0.419   2.921
 5305SOL     OW16813   0.098   5.073   3.754
 5305SOL    HW116814   0.177   5.074   3.694
 5305SOL    HW216815   0.084   4.981   3.790
 5306SOL     OW16816   0.539   2.634   5.839
 5306SOL    HW116817   0.498   2.648   5.748
 5306SOL    HW216818   0.467   2.609   5.904
 5307SOL     OW16819   6.469   1.813   1.578
 5307SOL    HW116820   6.486   1.716   1.561
 5307SOL    HW216821   6.553   1.857   1.608
 5308SOL     OW16822   1.584   4.185   3.273
 5308SOL    HW116823   1.577   4.241   3.357
 5308SOL    HW216824   1.671   4.136   3.273
 5309SOL     OW16825   6.291   5.248   3.309
 5309SOL    HW116826   6.352   5.219   3.382
 5309SOL    HW216827   6.203   5.200   3.317
 5310SOL     OW16828   5.857   2.550   2.752
 5310SOL    HW116829   5.890   2.632   2.706
 5310SOL    HW216830   5.915   2.530   2.831
 5311SOL     OW16831   5.859   0.081   0.887
 5311SOL    HW116832   5.923   0.145   0.843
 5311SOL    HW216833   5.783   0.062   0.824
 5312SOL     OW16834   6.374   6.373   0.624
 5312SOL    HW116835   6.453   6.352   0.682
 5312SOL    HW216836   6.363   6.473   0.619
 5313SOL     OW16837   1.173   6.330   5.446
 5313SOL    HW116838   1.091   6.280   5.419
 5313SOL    HW216839   1.177   6.336   5.546
 5314SOL     OW16840   6.199   0.810   1.792
 5314SOL    HW116841   6.191   0.734   1.857
 5314SOL    HW216842   6.108   0.844   1.770
 5315SOL     OW16843   4.312   1.797   3.965
 5315SOL    HW116844   4.330   1.791   3.867
 5315SOL    HW216845   4.358   1.721   4.011
 5316SOL     OW16846   0.935   2.395   4.792
 5316SOL    HW116847   0.925   2.464   4.863
 5316SOL    HW216848   0.869   2.321   4.807
 5317SOL     OW16849   6.031   2.792   0.066
 5317SOL    HW116850   6.106   2.799   0.133
 5317SOL    HW216851   5.977   2.711   0.085
 5318SOL     OW16852   0.409   4.105   6.658
 5318SOL    HW116853   0.408   4.023   6.600
 5318SOL    HW216854   0.478   4.169   6.623
 5319SOL     OW16855   4.101   6.494   2.205
 5319SOL    HW116856   4.026   6.448   2.157
 5319SOL    HW216857   4.146   6.558   2.144
 5320SOL     OW16858   3.975   5.640   0.977
 5320SOL    HW116859   3.937   5.617   1.067
 5320SOL    HW216860   4.055   5.699   0.989
 5321SOL     OW16861   1.948   4.164   5.590
 5321SOL    HW116862   1.866   4.124   5.549
 5321SOL    HW216863   2.029   4.128   5.543
 5322SOL     OW16864   4.848   6.654   2.204
 5322SOL    HW116865   4.816   6.593   2.131
 5322SOL    HW216866   4.773   6.715   2.231
 5323SOL     OW16867   4.497   0.697   5.820
 5323SOL    HW116868   4.401   0.676   5.801
 5323SOL    HW216869   4.555   0.651   5.752
 5324SOL     OW16870   2.241   1.784   0.969
 5324SOL    HW116871   2.250   1.790   1.069
 5324SOL    HW216872   2.289   1.703   0.936
 5325SOL     OW16873   2.315   2.200   4.813
 5325SOL    HW116874   2.242   2.267   4.797
 5325SOL    HW216875   2.320   2.178   4.910
 5326SOL     OW16876   6.297   6.574   2.104
 5326SOL    HW116877   6.336   6.482   2.112
 5326SOL    HW216878   6.317   6.611   2.013
 5327SOL     OW16879   0.100   3.236   5.742
 5327SOL    HW116880   0.138   3.175   5.674
 5327SOL    HW216881   0.062   3.317   5.697
 5328SOL     OW16882   4.585   5.645   7.011
 5328SOL    HW116883   4.542   5.730   6.983
 5328SOL    HW216884   4.520   5.569   7.000
 5329SOL     OW16885   1.155   6.598   6.067
 5329SOL    HW116886   1.087   6.630   6.000
 5329SOL    HW216887   1.164   6.499   6.061
 5330SOL     OW16888   2.168   4.775   1.330
 5330SOL    HW116889   2.211   4.861   1.303
 5330SOL    HW216890   2.114   4.789   1.413
 5331SOL     OW16891   6.331   0.928   6.251
 5331SOL    HW116892   6.272   0.944   6.330
 5331SOL    HW216893   6.293   0.855   6.195
 5332SOL     OW16894   0.318   4.936   1.416
 5332SOL    HW116895   0.379   4.904   1.343
 5332SOL    HW216896   0.230   4.890   1.409
 5333SOL     OW16897   1.332   6.251   4.749
 5333SOL    HW116898   1.320   6.157   4.782
 5333SOL    HW216899   1.374   6.249   4.658
 5334SOL     OW16900   3.796   0.325   4.350
 5334SOL    HW116901   3.830   0.419   4.345
 5334SOL    HW216902   3.840   0.278   4.427
 5335SOL     OW16903   6.857   5.958   6.869
 5335SOL    HW116904   6.944   5.971   6.916
 5335SOL    HW216905   6.872   5.903   6.786
 5336SOL     OW16906   1.251   3.728   1.817
 5336SOL    HW116907   1.163   3.752   1.775
 5336SOL    HW216908   1.290   3.810   1.859
 5337SOL     OW16909   5.254   4.064   1.503
 5337SOL    HW116910   5.270   4.005   1.582
 5337SOL    HW216911   5.181   4.129   1.523
 5338SOL     OW16912   6.180   1.235   6.776
 5338SOL    HW116913   6.102   1.287   6.740
 5338SOL    HW216914   6.264   1.272   6.738
 5339SOL     OW16915   6.422   0.572   2.406
 5339SOL    HW116916   6.494   0.547   2.472
 5339SOL    HW216917   6.443   0.663   2.368
 5340SOL     OW16918   5.297   2.639   5.841
 5340SOL    HW116919   5.388   2.603   5.862
 5340SOL    HW216920   5.236   2.621   5.918
 5341SOL     OW16921   3.818   0.365   0.545
 5341SOL    HW116922   3.806   0.266   0.533
 5341SOL    HW216923   3.828   0.408   0.456
 5342SOL     OW16924   2.621   0.541   6.185
 5342SOL    HW116925   2.638   0.449   6.222
 5342SOL    HW216926   2.580   0.533   6.095
 5343SOL     OW16927   3.498   3.815   2.046
 5343SOL    HW116928   3.583   3.776   2.081
 5343SOL    HW216929   3.486   3.907   2.085
 5344SOL     OW16930   2.286   2.306   3.134
 5344SOL    HW116931   2.281   2.329   3.037
 5344SOL    HW216932   2.205   2.254   3.161
 5345SOL     OW16933   4.686   7.015   2.117
 5345SOL    HW116934   4.763   6.974   2.067
 5345SOL    HW216935   4.616   0.026   2.052
 5346SOL     OW16936   2.510   6.588   3.455
 5346SOL    HW116937   2.476   6.604   3.363
 5346SOL    HW216938   2.496   6.492   3.480
 5347SOL     OW16939   0.077   2.061   2.198
 5347SOL    HW116940   0.029   2.034   2.114
 5347SOL    HW216941   0.021   2.125   2.250
 5348SOL     OW16942   6.840   0.573   0.318
 5348SOL    HW116943   6.814   0.496   0.377
 5348SOL    HW216944   6.940   0.582   0.318
 5349SOL     OW16945   6.729   0.446   1.835
 5349SOL    HW116946   6.638   0.435   1.874
 5349SOL    HW216947   6.777   0.520   1.883
 5350SOL     OW16948   2.567   0.619   6.875
 5350SOL    HW116949   2.589   0.706   6.831
 5350SOL    HW216950   2.560   0.548   6.806
 5351SOL     OW16951   4.541   0.449   1.915
 5351SOL    HW116952   4.457   0.412   1.875
 5351SOL    HW216953   4.533   0.450   2.014
 5352SOL     OW16954   3.060   6.241   3.643
 5352SOL    HW116955   3.000   6.320   3.658
 5352SOL    HW216956   3.090   6.239   3.548
 5353SOL     OW16957   5.798   0.290   5.492
 5353SOL    HW116958   5.811   0.345   5.574
 5353SOL    HW216959   5.887   0.261   5.457
 5354SOL     OW16960   1.280   3.466   1.092
 5354SOL    HW116961   1.255   3.544   1.036
 5354SOL    HW216962   1.243   3.382   1.051
 5355SOL     OW16963   4.343   1.769   5.125
 5355SOL    HW116964   4.387   1.685   5.155
 5355SOL    HW216965   4.361   1.842   5.191
 5356SOL     OW16966   5.632   3.574   0.959
 5356SOL    HW116967   5.635   3.658   0.905
 5356SOL    HW216968   5.725   3.543   0.978
 5357SOL     OW16969   3.341   0.091   0.506
 5357SOL    HW116970   3.251   0.095   0.464
 5357SOL    HW216971   3.400   0.161   0.465
 5358SOL     OW16972   4.640   3.183   1.338
 5358SOL    HW116973   4.627   3.205   1.435
 5358SOL    HW216974   4.661   3.085   1.329
 5359SOL     OW16975   2.667   6.880   6.729
 5359SOL    HW116976   2.651   6.792   6.772
 5359SOL    HW216977   2.663   6.952   6.798
 5360SOL     OW16978   4.048   6.995   6.757
 5360SOL    HW116979   4.001   6.992   6.845
 5360SOL    HW216980   4.008   6.926   6.696
 5361SOL     OW16981   1.989   0.661   5.965
 5361SOL    HW116982   1.955   0.586   6.021
 5361SOL    HW216983   2.080   0.688   5.998
 5362SOL     OW16984   4.430   5.880   3.930
 5362SOL    HW116985   4.528   5.869   3.913
 5362SOL    HW216986   4.397   5.805   3.987
 5363SOL     OW16987   0.853   5.135   5.516
 5363SOL    HW116988   0.873   5.105   5.423
 5363SOL    HW216989   0.843   5.234   5.518
 5364SOL     OW16990   0.369   6.431   6.751
 5364SOL    HW116991   0.409   6.522   6.741
 5364SOL    HW216992   0.388   6.377   6.669
 5365SOL     OW16993   3.876   1.939   6.446
 5365SOL    HW116994   3.883   1.845   6.412
 5365SOL    HW216995   3.787   1.953   6.487
 5366SOL     OW16996   3.676   4.251   6.906
 5366SOL    HW116997   3.684   4.162   6.950
 5366SOL    HW216998   3.582   4.284   6.913
 5367SOL     OW16999   0.250   4.287   1.077
 5367SOL    HW117000   0.302   4.352   1.022
 5367SOL    HW217001   0.227   4.207   1.021
 5368SOL     OW17002   6.320   0.926   3.729
 5368SOL    HW117003   6.337   0.851   3.793
 5368SOL    HW217004   6.353   0.901   3.638
 5369SOL     OW17005   1.817   4.043   2.452
 5369SOL    HW117006   1.747   3.978   2.421
 5369SOL    HW217007   1.872   4.001   2.524
 5370SOL     OW17008   4.008   2.966   1.289
 5370SOL    HW117009   3.981   3.038   1.226
 5370SOL    HW217010   4.077   2.907   1.246
 5371SOL     OW17011   1.445   4.179   5.071
 5371SOL    HW117012   1.453   4.271   5.033
 5371SOL    HW217013   1.489   4.176   5.161
 5372SOL     OW17014   2.841   5.538   2.983
 5372SOL    HW117015   2.763   5.525   2.922
 5372SOL    HW217016   2.870   5.449   3.020
 5373SOL     OW17017   1.984   4.950   4.178
 5373SOL    HW117018   1.917   4.917   4.244
 5373SOL    HW217019   2.039   5.022   4.220
 5374SOL     OW17020   3.174   2.497   0.558
 5374SOL    HW117021   3.200   2.451   0.474
 5374SOL    HW217022   3.243   2.480   0.629
 5375SOL     OW17023   1.801   4.248   4.572
 5375SOL    HW117024   1.707   4.226   4.597
 5375SOL    HW217025   1.807   4.259   4.472
 5376SOL     OW17026   2.953   3.961   0.101
 5376SOL    HW117027   3.028   4.025   0.119
 5376SOL    HW217028   2.915   3.929   0.188
 5377SOL     OW17029   0.802   1.693   1.631
 5377SOL    HW117030   0.877   1.658   1.687
 5377SOL    HW217031   0.717   1.649   1.659
 5378SOL     OW17032   4.475   6.870   0.232
 5378SOL    HW117033   4.394   6.913   0.191
 5378SOL    HW217034   4.446   6.800   0.297
 5379SOL     OW17035   6.633   6.522   1.368
 5379SOL    HW117036   6.720   6.544   1.325
 5379SOL    HW217037   6.626   6.569   1.456
 5380SOL     OW17038   2.429   0.439   4.279
 5380SOL    HW117039   2.339   0.432   4.237
 5380SOL    HW217040   2.447   0.533   4.305
 5381SOL     OW17041   5.352   3.553   1.590
 5381SOL    HW117042   5.327   3.462   1.557
 5381SOL    HW217043   5.422   3.544   1.662
 5382SOL     OW17044   1.880   0.708   1.427
 5382SOL    HW117045   1.890   0.781   1.495
 5382SOL    HW217046   1.785   0.680   1.421
 5383SOL     OW17047   2.006   2.156   4.496
 5383SOL    HW117048   1.967   2.236   4.542
 5383SOL    HW217049   1.932   2.092   4.474
 5384SOL     OW17050   5.995   6.894   4.156
 5384SOL    HW117051   5.912   6.846   4.183
 5384SOL    HW217052   6.042   6.841   4.085
 5385SOL     OW17053   3.162   4.097   2.498
 5385SOL    HW117054   3.100   4.019   2.485
 5385SOL    HW217055   3.255   4.069   2.475
 5386SOL     OW17056   5.414   6.876   5.784
 5386SOL    HW117057   5.417   6.875   5.884
 5386SOL    HW217058   5.460   6.958   5.750
 5387SOL     OW17059   3.216   5.520   1.253
 5387SOL    HW117060   3.214   5.579   1.333
 5387SOL    HW217061   3.306   5.524   1.210
 5388SOL     OW17062   6.301   6.751   2.579
 5388SOL    HW117063   6.331   6.769   2.485
 5388SOL    HW217064   6.381   6.728   2.636
 5389SOL     OW17065   5.083   1.989   1.161
 5389SOL    HW117066   5.050   1.961   1.070
 5389SOL    HW217067   5.136   2.073   1.152
 5390SOL     OW17068   6.547   4.815   6.078
 5390SOL    HW117069   6.592   4.842   6.163
 5390SOL    HW217070   6.487   4.888   6.047
 5391SOL     OW17071   2.660   3.581   6.878
 5391SOL    HW117072   2.634   3.612   6.970
 5391SOL    HW217073   2.612   3.496   6.857
 5392SOL     OW17074   6.431   2.691   2.458
 5392SOL    HW117075   6.354   2.633   2.485
 5392SOL    HW217076   6.504   2.635   2.419
 5393SOL     OW17077   6.068   6.920   6.153
 5393SOL    HW117078   6.002   6.971   6.099
 5393SOL    HW217079   6.073   6.958   6.245
 5394SOL     OW17080   1.722   3.927   5.719
 5394SOL    HW117081   1.676   3.914   5.631
 5394SOL    HW217082   1.673   3.996   5.772
 5395SOL     OW17083   4.464   0.631   0.177
 5395SOL    HW117084   4.558   0.653   0.202
 5395SOL    HW217085   4.401   0.686   0.231
 5396SOL     OW17086   4.978   2.715   2.293
 5396SOL    HW117087   4.932   2.747   2.210
 5396SOL    HW217088   5.073   2.745   2.292
 5397SOL     OW17089   0.608   2.940   1.533
 5397SOL    HW117090   0.599   2.856   1.587
 5397SOL    HW217091   0.705   2.965   1.528
 5398SOL     OW17092   3.418   3.257   1.863
 5398SOL    HW117093   3.491   3.323   1.844
 5398SOL    HW217094   3.330   3.304   1.864
 5399SOL     OW17095   1.069   6.153   0.205
 5399SOL    HW117096   1.048   6.228   0.268
 5399SOL    HW217097   0.984   6.106   0.181
 5400SOL     OW17098   2.451   4.315   6.686
 5400SOL    HW117099   2.409   4.225   6.698
 5400SOL    HW217100   2.447   4.340   6.589
 5401SOL     OW17101   6.294   2.025   1.665
 5401SOL    HW117102   6.310   2.092   1.592
 5401SOL    HW217103   6.292   1.933   1.625
 5402SOL     OW17104   1.698   6.299   2.466
 5402SOL    HW117105   1.703   6.202   2.443
 5402SOL    HW217106   1.731   6.313   2.559
 5403SOL     OW17107   6.024   3.530   6.915
 5403SOL    HW117108   5.948   3.466   6.926
 5403SOL    HW217109   6.084   3.524   6.995
 5404SOL     OW17110   1.259   3.077   2.891
 5404SOL    HW117111   1.345   3.127   2.895
 5404SOL    HW217112   1.183   3.141   2.876
 5405SOL     OW17113   6.784   3.934   5.806
 5405SOL    HW117114   6.829   4.001   5.747
 5405SOL    HW217115   6.793   3.961   5.901
 5406SOL     OW17116   2.032   6.929   4.470
 5406SOL    HW117117   2.003   6.862   4.401
 5406SOL    HW217118   1.967   6.928   4.546
 5407SOL     OW17119   4.234   3.082   6.997
 5407SOL    HW117120   4.183   3.163   0.006
 5407SOL    HW217121   4.184   3.032   6.926
 5408SOL     OW17122   3.052   1.377   0.487
 5408SOL    HW117123   3.017   1.403   0.397
 5408SOL    HW217124   3.047   1.456   0.549
 5409SOL     OW17125   3.958   0.818   2.433
 5409SOL    HW117126   3.971   0.917   2.425
 5409SOL    HW217127   4.030   0.771   2.382
 5410SOL     OW17128   1.532   2.411   2.728
 5410SOL    HW117129   1.614   2.354   2.721
 5410SOL    HW217130   1.538   2.486   2.662
 5411SOL     OW17131   1.407   4.973   4.367
 5411SOL    HW117132   1.455   4.886   4.378
 5411SOL    HW217133   1.367   5.001   4.455
 5412SOL     OW17134   5.919   2.553   1.680
 5412SOL    HW117135   5.908   2.636   1.626
 5412SOL    HW217136   5.896   2.572   1.776
 5413SOL     OW17137   2.608   0.334   2.191
 5413SOL    HW117138   2.665   0.403   2.235
 5413SOL    HW217139   2.561   0.280   2.261
 5414SOL     OW17140   4.606   0.974   5.870
 5414SOL    HW117141   4.591   1.030   5.789
 5414SOL    HW217142   4.607   0.878   5.844
 5415SOL     OW17143   5.907   3.869   2.136
 5415SOL    HW117144   5.956   3.789   2.100
 5415SOL    HW217145   5.973   3.932   2.177
 5416SOL     OW17146   4.291   5.317   4.040
 5416SOL    HW117147   4.245   5.344   4.124
 5416SOL    HW217148   4.389   5.334   4.049
 5417SOL     OW17149   3.794   6.982   5.262
 5417SOL    HW117150   3.807   6.884   5.276
 5417SOL    HW217151   3.836   0.016   5.338
 5418SOL     OW17152   3.457   0.826   2.984
 5418SOL    HW117153   3.401   0.856   3.061
 5418SOL    HW217154   3.546   0.796   3.018
 5419SOL     OW17155   3.418   4.337   6.965
 5419SOL    HW117156   3.387   4.284   0.028
 5419SOL    HW217157   3.340   4.382   6.922
 5420SOL     OW17158   1.372   2.080   2.717
 5420SOL    HW117159   1.470   2.077   2.697
 5420SOL    HW217160   1.337   1.986   2.720
 5421SOL     OW17161   1.532   3.109   1.467
 5421SOL    HW117162   1.614   3.052   1.466
 5421SOL    HW217163   1.557   3.203   1.493
 5422SOL     OW17164   1.837   3.978   0.336
 5422SOL    HW117165   1.796   3.992   0.426
 5422SOL    HW217166   1.765   3.979   0.266
 5423SOL     OW17167   5.660   3.601   6.210
 5423SOL    HW117168   5.712   3.531   6.259
 5423SOL    HW217169   5.618   3.664   6.276
 5424SOL     OW17170   5.368   3.362   5.641
 5424SOL    HW117171   5.356   3.434   5.572
 5424SOL    HW217172   5.410   3.401   5.722
 5425SOL     OW17173   5.341   0.683   4.770
 5425SOL    HW117174   5.300   0.615   4.830
 5425SOL    HW217175   5.373   0.640   4.686
 5426SOL     OW17176   0.020   7.004   4.982
 5426SOL    HW117177   0.095   6.944   4.952
 5426SOL    HW217178   6.992   6.964   5.062
 5427SOL     OW17179   3.835   6.336   6.974
 5427SOL    HW117180   3.784   6.409   6.927
 5427SOL    HW217181   3.899   6.294   6.911
 5428SOL     OW17182   1.818   0.478   6.399
 5428SOL    HW117183   1.800   0.572   6.428
 5428SOL    HW217184   1.776   0.415   6.464
 5429SOL     OW17185   1.323   2.634   6.600
 5429SOL    HW117186   1.304   2.592   6.690
 5429SOL    HW217187   1.363   2.565   6.540
 5430SOL     OW17188   1.852   2.007   5.036
 5430SOL    HW117189   1.916   2.082   5.053
 5430SOL    HW217190   1.878   1.960   4.951
 5431SOL     OW17191   3.623   6.000   4.620
 5431SOL    HW117192   3.684   6.072   4.651
 5431SOL    HW217193   3.586   6.024   4.530
 5432SOL     OW17194   6.040   6.443   1.597
 5432SOL    HW117195   6.013   6.517   1.536
 5432SOL    HW217196   6.001   6.459   1.688
 5433SOL     OW17197   0.145   2.086   4.331
 5433SOL    HW117198   0.108   2.064   4.240
 5433SOL    HW217199   0.070   2.111   4.392
 5434SOL     OW17200   2.797   0.027   5.430
 5434SOL    HW117201   2.763   0.118   5.455
 5434SOL    HW217202   2.889   0.035   5.393
 5435SOL     OW17203   4.523   1.205   1.758
 5435SOL    HW117204   4.431   1.219   1.722
 5435SOL    HW217205   4.587   1.191   1.682
 5436SOL     OW17206   5.067   4.002   2.595
 5436SOL    HW117207   4.971   3.992   2.620
 5436SOL    HW217208   5.075   4.059   2.513
 5437SOL     OW17209   3.444   4.166   6.448
 5437SOL    HW117210   3.530   4.214   6.435
 5437SOL    HW217211   3.428   4.149   6.546
 5438SOL     OW17212   6.671   1.139   1.497
 5438SOL    HW117213   6.755   1.116   1.546
 5438SOL    HW217214   6.679   1.109   1.402
 5439SOL     OW17215   1.742   2.515   1.132
 5439SOL    HW117216   1.746   2.415   1.138
 5439SOL    HW217217   1.835   2.551   1.118
 5440SOL     OW17218   1.464   1.920   0.703
 5440SOL    HW117219   1.428   1.939   0.794
 5440SOL    HW217220   1.544   1.978   0.686
 5441SOL     OW17221   4.081   1.781   4.094
 5441SOL    HW117222   4.008   1.831   4.048
 5441SOL    HW217223   4.169   1.802   4.051
 5442SOL     OW17224   3.550   0.728   2.750
 5442SOL    HW117225   3.520   0.757   2.841
 5442SOL    HW217226   3.535   0.803   2.685
 5443SOL     OW17227   3.120   6.841   5.706
 5443SOL    HW117228   3.189   6.785   5.752
 5443SOL    HW217229   3.029   6.820   5.742
 5444SOL     OW17230   0.308   0.192   3.983
 5444SOL    HW117231   0.211   0.211   4.002
 5444SOL    HW217232   0.344   0.262   3.921
 5445SOL     OW17233   5.730   3.643   1.867
 5445SOL    HW117234   5.791   3.635   1.788
 5445SOL    HW217235   5.779   3.613   1.949
 5446SOL     OW17236   6.944   6.030   5.623
 5446SOL    HW117237   6.855   5.987   5.632
 5446SOL    HW217238   6.970   6.073   5.710
 5447SOL     OW17239   3.005   2.213   1.301
 5447SOL    HW117240   3.061   2.296   1.313
 5447SOL    HW217241   3.004   2.189   1.204
 5448SOL     OW17242   5.492   2.171   6.208
 5448SOL    HW117243   5.467   2.195   6.302
 5448SOL    HW217244   5.557   2.238   6.172
 5449SOL     OW17245   0.367   3.547   6.744
 5449SOL    HW117246   0.280   3.509   6.777
 5449SOL    HW217247   0.381   3.520   6.649
 5450SOL     OW17248   2.084   6.624   0.607
 5450SOL    HW117249   2.117   6.580   0.691
 5450SOL    HW217250   1.993   6.662   0.623
 5451SOL     OW17251   1.507   0.114   2.577
 5451SOL    HW117252   1.484   0.201   2.619
 5451SOL    HW217253   1.606   0.098   2.584
 5452SOL     OW17254   2.610   3.912   5.582
 5452SOL    HW117255   2.596   4.011   5.591
 5452SOL    HW217256   2.655   3.877   5.664
 5453SOL     OW17257   6.845   4.863   6.491
 5453SOL    HW117258   6.822   4.904   6.579
 5453SOL    HW217259   6.933   4.816   6.498
 5454SOL     OW17260   0.544   3.839   5.659
 5454SOL    HW117261   0.540   3.817   5.757
 5454SOL    HW217262   0.535   3.756   5.605
 5455SOL     OW17263   0.203   2.956   0.666
 5455SOL    HW117264   0.266   2.881   0.642
 5455SOL    HW217265   0.134   2.922   0.730
 5456SOL     OW17266   3.063   6.601   1.688
 5456SOL    HW117267   2.993   6.532   1.699
 5456SOL    HW217268   3.113   6.613   1.774
 5457SOL     OW17269   5.573   3.590   0.335
 5457SOL    HW117270   5.571   3.667   0.271
 5457SOL    HW217271   5.600   3.622   0.426
 5458SOL     OW17272   2.373   4.854   6.392
 5458SOL    HW117273   2.325   4.922   6.337
 5458SOL    HW217274   2.396   4.775   6.336
 5459SOL     OW17275   2.112   4.779   6.083
 5459SOL    HW117276   2.043   4.728   6.032
 5459SOL    HW217277   2.088   4.779   6.180
 5460SOL     OW17278   3.524   0.092   2.374
 5460SOL    HW117279   3.426   0.080   2.390
 5460SOL    HW217280   3.546   0.189   2.376
 5461SOL     OW17281   4.559   6.462   4.942
 5461SOL    HW117282   4.646   6.490   4.983
 5461SOL    HW217283   4.577   6.411   4.857
 5462SOL     OW17284   0.621   0.150   1.393
 5462SOL    HW117285   0.618   0.248   1.413
 5462SOL    HW217286   0.716   0.118   1.397
 5463SOL     OW17287   7.008   2.878   0.815
 5463SOL    HW117288   6.948   2.931   0.875
 5463SOL    HW217289   6.963   2.793   0.789
 5464SOL     OW17290   2.406   6.324   3.940
 5464SOL    HW117291   2.498   6.353   3.912
 5464SOL    HW217292   2.408   6.298   4.037
 5465SOL     OW17293   1.852   6.408   6.295
 5465SOL    HW117294   1.909   6.460   6.359
 5465SOL    HW217295   1.824   6.468   6.220
 5466SOL     OW17296   5.326   4.864   4.979
 5466SOL    HW117297   5.359   4.886   5.070
 5466SOL    HW217298   5.400   4.826   4.924
 5467SOL     OW17299   5.943   1.558   2.498
 5467SOL    HW117300   5.967   1.654   2.488
 5467SOL    HW217301   5.959   1.510   2.411
 5468SOL     OW17302   4.348   1.762   5.602
 5468SOL    HW117303   4.430   1.710   5.578
 5468SOL    HW217304   4.267   1.712   5.572
 5469SOL     OW17305   4.556   4.575   0.728
 5469SOL    HW117306   4.530   4.667   0.698
 5469SOL    HW217307   4.525   4.508   0.660
 5470SOL     OW17308   0.548   5.231   3.198
 5470SOL    HW117309   0.587   5.204   3.110
 5470SOL    HW217310   0.449   5.216   3.197
 5471SOL     OW17311   6.437   4.917   2.289
 5471SOL    HW117312   6.488   4.861   2.223
 5471SOL    HW217313   6.342   4.924   2.259
 5472SOL     OW17314   3.720   5.313   5.821
 5472SOL    HW117315   3.716   5.321   5.921
 5472SOL    HW217316   3.815   5.305   5.792
 5473SOL     OW17317   1.155   3.737   3.592
 5473SOL    HW117318   1.232   3.791   3.559
 5473SOL    HW217319   1.188   3.651   3.630
 5474SOL     OW17320   1.623   6.175   3.814
 5474SOL    HW117321   1.701   6.132   3.860
 5474SOL    HW217322   1.653   6.211   3.725
 5475SOL     OW17323   3.100   2.641   1.342
 5475SOL    HW117324   3.166   2.716   1.351
 5475SOL    HW217325   3.014   2.676   1.306
 5476SOL     OW17326   1.706   3.631   6.632
 5476SOL    HW117327   1.743   3.692   6.563
 5476SOL    HW217328   1.607   3.623   6.620
 5477SOL     OW17329   1.849   2.799   2.384
 5477SOL    HW117330   1.833   2.806   2.482
 5477SOL    HW217331   1.782   2.737   2.343
 5478SOL     OW17332   6.976   6.203   6.149
 5478SOL    HW117333   6.943   6.292   6.180
 5478SOL    HW217334   6.915   6.131   6.184
 5479SOL     OW17335   4.479   0.035   4.576
 5479SOL    HW117336   4.567   0.044   4.529
 5479SOL    HW217337   4.474   0.102   4.650
 5480SOL     OW17338   0.790   2.673   5.244
 5480SOL    HW117339   0.791   2.672   5.344
 5480SOL    HW217340   0.758   2.763   5.211
 5481SOL     OW17341   4.823   6.601   3.674
 5481SOL    HW117342   4.795   6.508   3.697
 5481SOL    HW217343   4.911   6.622   3.718
 5482SOL     OW17344   1.412   4.683   2.149
 5482SOL    HW117345   1.502   4.714   2.118
 5482SOL    HW217346   1.391   4.595   2.106
 5483SOL     OW17347   0.713   3.390   6.063
 5483SOL    HW117348   0.680   3.406   5.970
 5483SOL    HW217349   0.775   3.464   6.090
 5484SOL     OW17350   5.059   0.479   4.611
 5484SOL    HW117351   5.049   0.579   4.609
 5484SOL    HW217352   5.148   0.454   4.574
 5485SOL     OW17353   3.822   0.624   4.868
 5485SOL    HW117354   3.759   0.563   4.916
 5485SOL    HW217355   3.878   0.570   4.804
 5486SOL     OW17356   2.732   5.528   4.366
 5486SOL    HW117357   2.717   5.517   4.464
 5486SOL    HW217358   2.830   5.522   4.347
 5487SOL     OW17359   3.254   5.472   5.600
 5487SOL    HW117360   3.354   5.474   5.612
 5487SOL    HW217361   3.232   5.493   5.505
 5488SOL     OW17362   5.057   1.962   0.401
 5488SOL    HW117363   5.087   2.055   0.381
 5488SOL    HW217364   5.136   1.904   0.420
 5489SOL     OW17365   6.990   3.667   3.708
 5489SOL    HW117366   0.074   3.659   3.711
 5489SOL    HW217367   6.949   3.578   3.728
 5490SOL     OW17368   1.618   5.699   2.604
 5490SOL    HW117369   1.680   5.662   2.535
 5490SOL    HW217370   1.539   5.637   2.615
 5491SOL     OW17371   5.926   3.947   0.539
 5491SOL    HW117372   5.956   3.971   0.632
 5491SOL    HW217373   6.002   3.957   0.476
 5492SOL     OW17374   0.034   1.879   6.165
 5492SOL    HW117375   6.971   1.939   6.155
 5492SOL    HW217376   0.112   1.931   6.198
 5493SOL     OW17377   4.385   3.889   0.668
 5493SOL    HW117378   4.418   3.894   0.763
 5493SOL    HW217379   4.288   3.866   0.667
 5494SOL     OW17380   5.866   3.232   5.607
 5494SOL    HW117381   5.891   3.315   5.557
 5494SOL    HW217382   5.843   3.255   5.701
 5495SOL     OW17383   5.466   6.955   0.199
 5495SOL    HW117384   5.469   0.037   0.220
 5495SOL    HW217385   5.532   6.907   0.257
 5496SOL     OW17386   4.179   6.902   5.318
 5496SOL    HW117387   4.258   6.844   5.335
 5496SOL    HW217388   4.172   6.923   5.221
 5497SOL     OW17389   0.627   0.305   4.609
 5497SOL    HW117390   0.623   0.392   4.659
 5497SOL    HW217391   0.609   0.230   4.672
 5498SOL     OW17392   0.309   5.357   0.980
 5498SOL    HW117393   0.276   5.384   0.889
 5498SOL    HW217394   0.395   5.403   1.000
 5499SOL     OW17395   2.208   0.112   4.381
 5499SOL    HW117396   2.151   0.175   4.329
 5499SOL    HW217397   2.150   0.047   4.431
 5500SOL     OW17398   2.371   0.147   1.243
 5500SOL    HW117399   2.387   0.105   1.154
 5500SOL    HW217400   2.447   0.208   1.265
 5501SOL     OW17401   4.081   3.301   0.020
 5501SOL    HW117402   4.128   3.374   0.070
 5501SOL    HW217403   3.989   3.331   7.012
 5502SOL     OW17404   4.733   3.568   0.185
 5502SOL    HW117405   4.764   3.640   0.123
 5502SOL    HW217406   4.737   3.480   0.138
 5503SOL     OW17407   5.979   3.161   0.932
 5503SOL    HW117408   5.987   3.218   0.850
 5503SOL    HW217409   5.892   3.112   0.931
 5504SOL     OW17410   4.175   2.110   0.131
 5504SOL    HW117411   4.254   2.051   0.116
 5504SOL    HW217412   4.191   2.169   0.211
 5505SOL     OW17413   3.133   5.021   3.206
 5505SOL    HW117414   3.104   4.985   3.118
 5505SOL    HW217415   3.071   4.990   3.278
 5506SOL     OW17416   6.256   2.539   6.323
 5506SOL    HW117417   6.348   2.575   6.306
 5506SOL    HW217418   6.198   2.612   6.359
 5507SOL     OW17419   3.850   0.200   0.266
 5507SOL    HW117420   3.916   0.126   0.254
 5507SOL    HW217421   3.842   0.253   0.182
 5508SOL     OW17422   0.649   1.038   6.353
 5508SOL    HW117423   0.682   1.130   6.373
 5508SOL    HW217424   0.606   1.036   6.263
 5509SOL     OW17425   6.234   4.356   0.354
 5509SOL    HW117426   6.140   4.326   0.336
 5509SOL    HW217427   6.234   4.441   0.405
 5510SOL     OW17428   5.046   5.281   6.549
 5510SOL    HW117429   5.039   5.192   6.504
 5510SOL    HW217430   4.986   5.283   6.629
 5511SOL     OW17431   0.948   2.719   6.177
 5511SOL    HW117432   0.911   2.767   6.098
 5511SOL    HW217433   0.885   2.728   6.255
 5512SOL     OW17434   1.773   0.324   2.265
 5512SOL    HW117435   1.691   0.339   2.321
 5512SOL    HW217436   1.846   0.287   2.323
 5513SOL     OW17437   3.742   4.639   6.888
 5513SOL    HW117438   3.788   4.658   6.974
 5513SOL    HW217439   3.749   4.541   6.866
 5514SOL     OW17440   3.265   1.092   0.310
 5514SOL    HW117441   3.218   1.137   0.234
 5514SOL    HW217442   3.238   0.996   0.314
 5515SOL     OW17443   3.384   5.352   2.222
 5515SOL    HW117444   3.307   5.300   2.260
 5515SOL    HW217445   3.399   5.324   2.127
 5516SOL     OW17446   2.033   2.113   5.387
 5516SOL    HW117447   2.065   2.025   5.351
 5516SOL    HW217448   2.105   2.152   5.445
 5517SOL     OW17449   1.410   2.259   3.512
 5517SOL    HW117450   1.368   2.170   3.492
 5517SOL    HW217451   1.377   2.326   3.445
 5518SOL     OW17452   4.539   4.964   6.915
 5518SOL    HW117453   4.614   5.029   6.901
 5518SOL    HW217454   4.563   4.900   6.988
 5519SOL     OW17455   5.220   2.414   5.044
 5519SOL    HW117456   5.284   2.345   5.010
 5519SOL    HW217457   5.248   2.505   5.011
 5520SOL     OW17458   4.885   0.206   1.366
 5520SOL    HW117459   4.888   0.210   1.266
 5520SOL    HW217460   4.790   0.212   1.396
 5521SOL     OW17461   4.730   6.421   2.461
 5521SOL    HW117462   4.654   6.389   2.406
 5521SOL    HW217463   4.815   6.415   2.408
 5522SOL     OW17464   5.969   6.144   0.614
 5522SOL    HW117465   6.004   6.083   0.543
 5522SOL    HW217466   6.039   6.156   0.685
 5523SOL     OW17467   5.079   1.740   0.893
 5523SOL    HW117468   5.036   1.825   0.863
 5523SOL    HW217469   5.012   1.666   0.889
 5524SOL     OW17470   2.194   1.148   3.230
 5524SOL    HW117471   2.137   1.225   3.202
 5524SOL    HW217472   2.207   1.150   3.329
 5525SOL     OW17473   6.458   1.595   1.076
 5525SOL    HW117474   6.365   1.573   1.105
 5525SOL    HW217475   6.465   1.585   0.977
 5526SOL     OW17476   5.615   4.369   3.876
 5526SOL    HW117477   5.696   4.424   3.891
 5526SOL    HW217478   5.631   4.275   3.908
 5527SOL     OW17479   6.592   0.187   2.832
 5527SOL    HW117480   6.528   0.134   2.889
 5527SOL    HW217481   6.664   0.126   2.798
 5528SOL     OW17482   1.344   1.971   6.973
 5528SOL    HW117483   1.277   2.045   6.961
 5528SOL    HW217484   1.340   1.911   6.893
 5529SOL     OW17485   3.169   0.653   2.555
 5529SOL    HW117486   3.187   0.745   2.591
 5529SOL    HW217487   3.231   0.588   2.600
 5530SOL     OW17488   6.984   1.945   0.856
 5530SOL    HW117489   6.928   1.884   0.800
 5530SOL    HW217490   6.941   1.959   0.944
 5531SOL     OW17491   1.719   4.345   1.706
 5531SOL    HW117492   1.746   4.389   1.620
 5531SOL    HW217493   1.677   4.257   1.686
 5532SOL     OW17494   0.778   3.332   6.834
 5532SOL    HW117495   0.724   3.417   6.834
 5532SOL    HW217496   0.767   3.286   6.746
 5533SOL     OW17497   4.030   1.307   2.933
 5533SOL    HW117498   3.962   1.378   2.916
 5533SOL    HW217499   3.984   1.225   2.968
 5534SOL     OW17500   1.416   0.130   4.495
 5534SOL    HW117501   1.347   0.105   4.563
 5534SOL    HW217502   1.506   0.098   4.525
 5535SOL     OW17503   6.793   1.936   2.879
 5535SOL    HW117504   6.817   1.846   2.917
 5535SOL    HW217505   6.729   1.982   2.941
 5536SOL     OW17506   4.988   6.439   4.286
 5536SOL    HW117507   4.906   6.458   4.233
 5536SOL    HW217508   4.980   6.481   4.377
 5537SOL     OW17509   2.708   2.298   3.624
 5537SOL    HW117510   2.776   2.311   3.696
 5537SOL    HW217511   2.690   2.385   3.578
 5538SOL     OW17512   4.815   5.225   4.226
 5538SOL    HW117513   4.907   5.255   4.200
 5538SOL    HW217514   4.795   5.255   4.319
 5539SOL     OW17515   2.213   4.615   6.652
 5539SOL    HW117516   2.191   4.692   6.593
 5539SOL    HW217517   2.136   4.597   6.714
 5540SOL     OW17518   3.896   5.448   1.692
 5540SOL    HW117519   3.905   5.372   1.628
 5540SOL    HW217520   3.904   5.534   1.643
 5541SOL     OW17521   4.617   1.112   5.614
 5541SOL    HW117522   4.534   1.119   5.559
 5541SOL    HW217523   4.645   1.204   5.643
 5542SOL     OW17524   5.551   4.416   6.494
 5542SOL    HW117525   5.602   4.470   6.426
 5542SOL    HW217526   5.471   4.467   6.524
 5543SOL     OW17527   0.628   1.727   5.170
 5543SOL    HW117528   0.650   1.812   5.121
 5543SOL    HW217529   0.623   1.745   5.268
 5544SOL     OW17530   5.425   0.637   6.657
 5544SOL    HW117531   5.393   0.695   6.583
 5544SOL    HW217532   5.441   0.544   6.623
 5545SOL     OW17533   2.291   2.723   1.998
 5545SOL    HW117534   2.277   2.772   1.912
 5545SOL    HW217535   2.370   2.662   1.990
 5546SOL     OW17536   3.996   4.982   5.871
 5546SOL    HW117537   3.899   4.963   5.860
 5546SOL    HW217538   4.037   5.002   5.782
 5547SOL     OW17539   3.422   5.609   4.604
 5547SOL    HW117540   3.384   5.650   4.521
 5547SOL    HW217541   3.505   5.558   4.581
 5548SOL     OW17542   0.804   2.112   4.770
 5548SOL    HW117543   0.754   2.080   4.690
 5548SOL    HW217544   0.757   2.192   4.809
 5549SOL     OW17545   3.173   5.055   0.068
 5549SOL    HW117546   3.157   5.093   6.992
 5549SOL    HW217547   3.271   5.049   0.085
 5550SOL     OW17548   2.522   6.041   2.229
 5550SOL    HW117549   2.598   5.976   2.228
 5550SOL    HW217550   2.534   6.105   2.304
 5551SOL     OW17551   0.481   1.001   2.851
 5551SOL    HW117552   0.564   0.949   2.875
 5551SOL    HW217553   0.436   0.958   2.773
 5552SOL     OW17554   1.352   2.423   2.499
 5552SOL    HW117555   1.338   2.417   2.597
 5552SOL    HW217556   1.432   2.368   2.473
 5553SOL     OW17557   4.622   6.096   6.335
 5553SOL    HW117558   4.620   6.138   6.244
 5553SOL    HW217559   4.683   6.017   6.334
 5554SOL     OW17560   3.287   1.091   4.560
 5554SOL    HW117561   3.309   1.004   4.516
 5554SOL    HW217562   3.239   1.150   4.495
 5555SOL     OW17563   1.248   6.065   1.581
 5555SOL    HW117564   1.204   5.976   1.595
 5555SOL    HW217565   1.257   6.081   1.482
 5556SOL     OW17566   0.328   0.877   4.821
 5556SOL    HW117567   0.268   0.800   4.846
 5556SOL    HW217568   0.412   0.841   4.782
 5557SOL     OW17569   2.589   0.497   2.463
 5557SOL    HW117570   2.573   0.496   2.562
 5557SOL    HW217571   2.522   0.557   2.419
 5558SOL     OW17572   5.033   1.876   5.393
 5558SOL    HW117573   4.998   1.958   5.437
 5558SOL    HW217574   5.133   1.874   5.402
 5559SOL     OW17575   1.899   0.884   1.006
 5559SOL    HW117576   1.867   0.797   1.043
 5559SOL    HW217577   1.966   0.924   1.069
 5560SOL     OW17578   0.481   1.397   4.688
 5560SOL    HW117579   0.515   1.490   4.695
 5560SOL    HW217580   0.530   1.339   4.753
 5561SOL     OW17581   1.441   4.145   2.340
 5561SOL    HW117582   1.365   4.088   2.310
 5561SOL    HW217583   1.501   4.093   2.401
 5562SOL     OW17584   3.304   2.230   6.776
 5562SOL    HW117585   3.326   2.285   6.856
 5562SOL    HW217586   3.363   2.258   6.700
 5563SOL     OW17587   3.875   4.360   1.411
 5563SOL    HW117588   3.904   4.340   1.504
 5563SOL    HW217589   3.847   4.276   1.365
 5564SOL     OW17590   5.306   2.222   1.553
 5564SOL    HW117591   5.352   2.133   1.544
 5564SOL    HW217592   5.217   2.218   1.507
 5565SOL     OW17593   2.331   2.548   5.022
 5565SOL    HW117594   2.396   2.546   4.947
 5565SOL    HW217595   2.365   2.607   5.095
 5566SOL     OW17596   2.354   3.830   0.389
 5566SOL    HW117597   2.358   3.761   0.317
 5566SOL    HW217598   2.259   3.846   0.414
 5567SOL     OW17599   1.423   5.125   2.914
 5567SOL    HW117600   1.325   5.141   2.918
 5567SOL    HW217601   1.465   5.154   3.000
 5568SOL     OW17602   3.597   2.397   0.120
 5568SOL    HW117603   3.678   2.390   0.177
 5568SOL    HW217604   3.579   2.493   0.099
 5569SOL     OW17605   4.650   1.932   0.070
 5569SOL    HW117606   4.729   1.948   0.010
 5569SOL    HW217607   4.644   1.834   0.091
 5570SOL     OW17608   1.054   2.821   5.516
 5570SOL    HW117609   1.007   2.887   5.574
 5570SOL    HW217610   1.108   2.869   5.447
 5571SOL     OW17611   6.808   4.321   6.527
 5571SOL    HW117612   6.749   4.402   6.521
 5571SOL    HW217613   6.752   4.240   6.546
 5572SOL     OW17614   0.577   3.137   5.489
 5572SOL    HW117615   0.610   3.045   5.510
 5572SOL    HW217616   0.529   3.136   5.402
 5573SOL     OW17617   6.500   3.884   6.873
 5573SOL    HW117618   6.477   3.953   6.942
 5573SOL    HW217619   6.585   3.910   6.827
 5574SOL     OW17620   1.659   6.862   3.970
 5574SOL    HW117621   1.699   6.936   3.915
 5574SOL    HW217622   1.695   6.774   3.939
 5575SOL     OW17623   1.163   1.434   2.645
 5575SOL    HW117624   1.122   1.464   2.731
 5575SOL    HW217625   1.092   1.421   2.577
 5576SOL     OW17626   5.271   6.479   5.670
 5576SOL    HW117627   5.331   6.559   5.664
 5576SOL    HW217628   5.283   6.435   5.759
 5577SOL     OW17629   2.302   4.323   4.616
 5577SOL    HW117630   2.292   4.232   4.575
 5577SOL    HW217631   2.275   4.319   4.712
 5578SOL     OW17632   3.356   2.454   6.115
 5578SOL    HW117633   3.366   2.393   6.036
 5578SOL    HW217634   3.363   2.549   6.084
 5579SOL     OW17635   5.267   4.974   1.825
 5579SOL    HW117636   5.282   4.891   1.771
 5579SOL    HW217637   5.174   5.007   1.811
 5580SOL     OW17638   5.143   1.544   1.363
 5580SOL    HW117639   5.222   1.605   1.367
 5580SOL    HW217640   5.105   1.545   1.270
 5581SOL     OW17641   3.025   2.937   0.634
 5581SOL    HW117642   3.088   2.860   0.626
 5581SOL    HW217643   3.025   2.989   0.548
 5582SOL     OW17644   3.507   2.866   3.020
 5582SOL    HW117645   3.563   2.878   2.938
 5582SOL    HW217646   3.414   2.900   3.003
 5583SOL     OW17647   4.001   0.676   0.249
 5583SOL    HW117648   4.057   0.713   0.323
 5583SOL    HW217649   3.910   0.654   0.284
 5584SOL     OW17650   4.907   3.540   3.663
 5584SOL    HW117651   4.975   3.609   3.639
 5584SOL    HW217652   4.904   3.528   3.762
 5585SOL     OW17653   0.585   7.010   3.443
 5585SOL    HW117654   0.540   0.029   3.525
 5585SOL    HW217655   0.568   0.056   3.366
 5586SOL     OW17656   2.191   0.680   6.595
 5586SOL    HW117657   2.284   0.703   6.623
 5586SOL    HW217658   2.128   0.691   6.672
 5587SOL     OW17659   3.412   6.385   3.776
 5587SOL    HW117660   3.444   6.292   3.756
 5587SOL    HW217661   3.366   6.423   3.696
 5588SOL     OW17662   5.367   6.541   6.705
 5588SOL    HW117663   5.278   6.497   6.692
 5588SOL    HW217664   5.353   6.640   6.716
 5589SOL     OW17665   2.072   3.843   0.417
 5589SOL    HW117666   2.058   3.746   0.434
 5589SOL    HW217667   1.984   3.887   0.399
 5590SOL     OW17668   6.939   0.404   3.400
 5590SOL    HW117669   7.004   0.330   3.419
 5590SOL    HW217670   6.855   0.388   3.452
 5591SOL     OW17671   5.651   0.062   0.690
 5591SOL    HW117672   5.597   0.140   0.660
 5591SOL    HW217673   5.637   7.002   0.626
 5592SOL     OW17674   1.263   2.719   2.532
 5592SOL    HW117675   1.314   2.773   2.465
 5592SOL    HW217676   1.271   2.622   2.509
 5593SOL     OW17677   2.225   4.209   4.858
 5593SOL    HW117678   2.127   4.218   4.843
 5593SOL    HW217679   2.242   4.131   4.920
 5594SOL     OW17680   2.511   1.415   6.351
 5594SOL    HW117681   2.599   1.433   6.306
 5594SOL    HW217682   2.510   1.321   6.386
 5595SOL     OW17683   0.669   3.205   6.578
 5595SOL    HW117684   0.574   3.183   6.603
 5595SOL    HW217685   0.669   3.261   6.495
 5596SOL     OW17686   4.909   3.513   4.604
 5596SOL    HW117687   4.951   3.437   4.554
 5596SOL    HW217688   4.869   3.479   4.689
 5597SOL     OW17689   6.740   1.868   6.722
 5597SOL    HW117690   6.644   1.845   6.712
 5597SOL    HW217691   6.775   1.828   6.807
 5598SOL     OW17692   6.056   1.051   3.787
 5598SOL    HW117693   6.127   0.992   3.747
 5598SOL    HW217694   6.075   1.146   3.763
 5599SOL     OW17695   5.551   3.104   3.218
 5599SOL    HW117696   5.604   3.041   3.275
 5599SOL    HW217697   5.538   3.190   3.266
 5600SOL     OW17698   2.026   2.697   2.090
 5600SOL    HW117699   2.119   2.692   2.053
 5600SOL    HW217700   2.019   2.774   2.153
 5601SOL     OW17701   5.909   2.609   6.625
 5601SOL    HW117702   5.881   2.646   6.714
 5601SOL    HW217703   5.836   2.551   6.589
 5602SOL     OW17704   6.142   2.014   3.063
 5602SOL    HW117705   6.148   2.089   2.997
 5602SOL    HW217706   6.160   1.928   3.017
 5603SOL     OW17707   3.431   2.291   6.329
 5603SOL    HW117708   3.404   2.344   6.248
 5603SOL    HW217709   3.356   2.231   6.356
 5604SOL     OW17710   1.226   5.604   3.051
 5604SOL    HW117711   1.179   5.655   3.123
 5604SOL    HW217712   1.314   5.648   3.031
 5605SOL     OW17713   3.986   6.865   4.068
 5605SOL    HW117714   3.975   6.766   4.076
 5605SOL    HW217715   3.970   6.908   4.157
 5606SOL     OW17716   4.358   3.441   1.123
 5606SOL    HW117717   4.447   3.416   1.161
 5606SOL    HW217718   4.339   3.537   1.143
 5607SOL     OW17719   0.355   2.610   3.145
 5607SOL    HW117720   0.355   2.525   3.094
 5607SOL    HW217721   0.406   2.598   3.231
 5608SOL     OW17722   6.070   0.441   3.697
 5608SOL    HW117723   5.994   0.380   3.678
 5608SOL    HW217724   6.044   0.535   3.674
 5609SOL     OW17725   6.460   0.549   0.071
 5609SOL    HW117726   6.558   0.568   0.058
 5609SOL    HW217727   6.413   0.633   0.096
 5610SOL     OW17728   5.810   6.198   5.845
 5610SOL    HW117729   5.713   6.176   5.835
 5610SOL    HW217730   5.820   6.274   5.910
 5611SOL     OW17731   6.624   3.593   1.354
 5611SOL    HW117732   6.705   3.603   1.411
 5611SOL    HW217733   6.565   3.673   1.364
 5612SOL     OW17734   4.346   2.209   1.380
 5612SOL    HW117735   4.351   2.157   1.465
 5612SOL    HW217736   4.385   2.300   1.393
 5613SOL     OW17737   6.494   5.314   5.160
 5613SOL    HW117738   6.515   5.408   5.186
 5613SOL    HW217739   6.558   5.252   5.205
 5614SOL     OW17740   5.070   1.923   4.865
 5614SOL    HW117741   5.024   1.838   4.893
 5614SOL    HW217742   5.152   1.937   4.919
 5615SOL     OW17743   0.515   3.202   2.903
 5615SOL    HW117744   0.578   3.144   2.954
 5615SOL    HW217745   0.544   3.297   2.909
 5616SOL     OW17746   1.476   3.483   1.603
 5616SOL    HW117747   1.547   3.453   1.539
 5616SOL    HW217748   1.506   3.568   1.647
 5617SOL     OW17749   1.092   4.979   6.086
 5617SOL    HW117750   1.121   4.947   6.177
 5617SOL    HW217751   0.996   5.009   6.091
 5618SOL     OW17752   4.877   0.194   2.844
 5618SOL    HW117753   4.801   0.187   2.908
 5618SOL    HW217754   4.868   0.277   2.789
 5619SOL     OW17755   3.089   3.198   3.415
 5619SOL    HW117756   3.007   3.254   3.432
 5619SOL    HW217757   3.127   3.167   3.502
 5620SOL     OW17758   5.159   4.901   5.415
 5620SOL    HW117759   5.257   4.922   5.414
 5620SOL    HW217760   5.133   4.862   5.503
 5621SOL     OW17761   1.125   3.252   6.527
 5621SOL    HW117762   1.179   3.189   6.471
 5621SOL    HW217763   1.037   3.210   6.550
 5622SOL     OW17764   5.699   5.605   3.694
 5622SOL    HW117765   5.718   5.587   3.598
 5622SOL    HW217766   5.642   5.687   3.702
 5623SOL     OW17767   4.642   4.831   3.947
 5623SOL    HW117768   4.721   4.770   3.953
 5623SOL    HW217769   4.561   4.784   3.983
 5624SOL     OW17770   4.994   3.951   3.802
 5624SOL    HW117771   5.044   3.864   3.796
 5624SOL    HW217772   4.987   3.977   3.899
 5625SOL     OW17773   2.782   6.567   6.176
 5625SOL    HW117774   2.695   6.607   6.146
 5625SOL    HW217775   2.783   6.469   6.153
 5626SOL     OW17776   1.570   5.441   6.603
 5626SOL    HW117777   1.591   5.432   6.700
 5626SOL    HW217778   1.471   5.450   6.591
 5627SOL     OW17779   1.138   5.567   0.691
 5627SOL    HW117780   1.135   5.476   0.649
 5627SOL    HW217781   1.110   5.636   0.624
 5628SOL     OW17782   1.616   3.074   0.251
 5628SOL    HW117783   1.669   2.993   0.274
 5628SOL    HW217784   1.673   3.156   0.261
 5629SOL     OW17785   7.010   3.400   4.633
 5629SOL    HW117786   6.955   3.460   4.575
 5629SOL    HW217787   6.978   3.407   4.727
 5630SOL     OW17788   1.675   4.592   0.367
 5630SOL    HW117789   1.661   4.498   0.399
 5630SOL    HW217790   1.764   4.625   0.399
 5631SOL     OW17791   4.199   0.415   2.393
 5631SOL    HW117792   4.167   0.509   2.403
 5631SOL    HW217793   4.191   0.388   2.297
 5632SOL     OW17794   3.740   6.422   6.657
 5632SOL    HW117795   3.675   6.470   6.598
 5632SOL    HW217796   3.832   6.430   6.619
 5633SOL     OW17797   1.427   5.509   5.265
 5633SOL    HW117798   1.483   5.586   5.234
 5633SOL    HW217799   1.434   5.434   5.200
 5634SOL     OW17800   2.674   0.348   1.828
 5634SOL    HW117801   2.606   0.386   1.891
 5634SOL    HW217802   2.651   0.373   1.734
 5635SOL     OW17803   3.730   0.513   2.123
 5635SOL    HW117804   3.681   0.440   2.076
 5635SOL    HW217805   3.707   0.510   2.221
 5636SOL     OW17806   4.994   0.263   5.055
 5636SOL    HW117807   5.084   0.283   5.096
 5636SOL    HW217808   4.999   0.277   4.956
 5637SOL     OW17809   5.131   6.766   5.136
 5637SOL    HW117810   5.231   6.764   5.144
 5637SOL    HW217811   5.100   6.861   5.125
 5638SOL     OW17812   0.242   5.773   0.134
 5638SOL    HW117813   0.192   5.806   0.215
 5638SOL    HW217814   0.191   5.698   0.092
 5639SOL     OW17815   3.153   0.006   1.992
 5639SOL    HW117816   3.164   6.999   2.089
 5639SOL    HW217817   3.066   0.052   1.978
 5640SOL     OW17818   3.558   0.269   3.701
 5640SOL    HW117819   3.610   0.184   3.711
 5640SOL    HW217820   3.490   0.275   3.775
 5641SOL     OW17821   6.921   4.649   3.714
 5641SOL    HW117822   6.934   4.638   3.616
 5641SOL    HW217823   6.833   4.695   3.731
 5642SOL     OW17824   2.529   2.827   6.337
 5642SOL    HW117825   2.437   2.840   6.376
 5642SOL    HW217826   2.572   2.747   6.379
 5643SOL     OW17827   6.185   3.161   4.299
 5643SOL    HW117828   6.230   3.150   4.388
 5643SOL    HW217829   6.200   3.079   4.244
 5644SOL     OW17830   3.530   0.601   6.046
 5644SOL    HW117831   3.600   0.545   6.002
 5644SOL    HW217832   3.492   0.552   6.124
 5645SOL     OW17833   6.040   6.669   2.568
 5645SOL    HW117834   6.133   6.704   2.567
 5645SOL    HW217835   6.028   6.608   2.646
 5646SOL     OW17836   6.365   0.398   3.395
 5646SOL    HW117837   6.268   0.381   3.382
 5646SOL    HW217838   6.396   0.353   3.479
 5647SOL     OW17839   6.076   3.669   6.681
 5647SOL    HW117840   6.054   3.621   6.766
 5647SOL    HW217841   6.164   3.715   6.690
 5648SOL     OW17842   2.597   1.738   3.980
 5648SOL    HW117843   2.505   1.736   3.941
 5648SOL    HW217844   2.595   1.787   4.067
 5649SOL     OW17845   0.759   0.498   5.453
 5649SOL    HW117846   0.719   0.543   5.373
 5649SOL    HW217847   0.695   0.430   5.489
 5650SOL     OW17848   0.116   4.971   5.035
 5650SOL    HW117849   0.070   4.901   5.089
 5650SOL    HW217850   0.213   4.947   5.025
 5651SOL     OW17851   5.876   0.855   2.548
 5651SOL    HW117852   5.882   0.940   2.601
 5651SOL    HW217853   5.854   0.779   2.610
 5652SOL     OW17854   5.123   4.554   0.022
 5652SOL    HW117855   5.146   4.588   6.947
 5652SOL    HW217856   5.046   4.606   0.059
 5653SOL     OW17857   1.618   6.016   6.935
 5653SOL    HW117858   1.628   6.115   6.919
 5653SOL    HW217859   1.680   5.988   7.008
 5654SOL     OW17860   1.677   0.210   0.165
 5654SOL    HW117861   1.671   0.198   0.264
 5654SOL    HW217862   1.584   0.212   0.126
 5655SOL     OW17863   6.226   5.031   3.043
 5655SOL    HW117864   6.208   5.115   2.993
 5655SOL    HW217865   6.140   4.990   3.072
 5656SOL     OW17866   3.736   5.594   6.544
 5656SOL    HW117867   3.674   5.673   6.545
 5656SOL    HW217868   3.763   5.573   6.450
 5657SOL     OW17869   4.801   5.126   1.979
 5657SOL    HW117870   4.835   5.220   1.988
 5657SOL    HW217871   4.813   5.095   1.885
 5658SOL     OW17872   4.643   6.476   5.837
 5658SOL    HW117873   4.569   6.510   5.778
 5658SOL    HW217874   4.731   6.503   5.799
 5659SOL     OW17875   3.129   4.010   3.363
 5659SOL    HW117876   3.193   4.013   3.287
 5659SOL    HW217877   3.175   4.043   3.446
 5660SOL     OW17878   6.749   5.640   1.724
 5660SOL    HW117879   6.692   5.692   1.661
 5660SOL    HW217880   6.794   5.703   1.788
 5661SOL     OW17881   6.190   6.089   4.627
 5661SOL    HW117882   6.194   6.079   4.726
 5661SOL    HW217883   6.282   6.089   4.589
 5662SOL     OW17884   2.115   4.951   4.710
 5662SOL    HW117885   2.078   4.878   4.653
 5662SOL    HW217886   2.214   4.939   4.720
 5663SOL     OW17887   2.301   3.995   1.359
 5663SOL    HW117888   2.238   3.960   1.290
 5663SOL    HW217889   2.337   4.083   1.330
 5664SOL     OW17890   6.513   5.988   1.933
 5664SOL    HW117891   6.472   6.056   1.871
 5664SOL    HW217892   6.504   6.020   2.027
 5665SOL     OW17893   1.432   1.126   5.977
 5665SOL    HW117894   1.470   1.060   6.041
 5665SOL    HW217895   1.347   1.164   6.015
 5666SOL     OW17896   5.690   5.573   6.881
 5666SOL    HW117897   5.676   5.603   6.975
 5666SOL    HW217898   5.687   5.652   6.819
 5667SOL     OW17899   5.869   4.513   2.261
 5667SOL    HW117900   5.813   4.568   2.199
 5667SOL    HW217901   5.939   4.571   2.303
 5668SOL     OW17902   6.173   2.292   6.415
 5668SOL    HW117903   6.196   2.381   6.376
 5668SOL    HW217904   6.163   2.300   6.514
 5669SOL     OW17905   0.333   3.053   4.822
 5669SOL    HW117906   0.370   2.961   4.809
 5669SOL    HW217907   0.381   3.098   4.897
 5670SOL     OW17908   1.677   3.805   2.371
 5670SOL    HW117909   1.670   3.706   2.383
 5670SOL    HW217910   1.612   3.834   2.301
 5671SOL     OW17911   1.093   0.820   4.907
 5671SOL    HW117912   1.080   0.741   4.846
 5671SOL    HW217913   1.103   0.903   4.853
 5672SOL     OW17914   4.880   3.947   5.999
 5672SOL    HW117915   4.822   3.869   6.019
 5672SOL    HW217916   4.961   3.944   6.059
 5673SOL     OW17917   1.758   0.107   0.602
 5673SOL    HW117918   1.748   0.062   0.690
 5673SOL    HW217919   1.798   0.198   0.615
 5674SOL     OW17920   6.997   3.059   1.314
 5674SOL    HW117921   0.068   3.037   1.358
 5674SOL    HW217922   6.924   3.054   1.382
 5675SOL     OW17923   3.885   1.167   5.823
 5675SOL    HW117924   3.827   1.203   5.751
 5675SOL    HW217925   3.977   1.206   5.815
 5676SOL     OW17926   2.754   6.971   2.194
 5676SOL    HW117927   2.827   6.912   2.160
 5676SOL    HW217928   2.720   0.013   2.119
 5677SOL     OW17929   6.824   7.007   2.882
 5677SOL    HW117930   6.823   6.922   2.935
 5677SOL    HW217931   6.814   0.068   2.945
 5678SOL     OW17932   1.139   5.131   2.886
 5678SOL    HW117933   1.091   5.060   2.834
 5678SOL    HW217934   1.165   5.205   2.824
 5679SOL     OW17935   3.640   5.701   5.423
 5679SOL    HW117936   3.546   5.695   5.389
 5679SOL    HW217937   3.657   5.794   5.456
 5680SOL     OW17938   1.888   6.847   6.693
 5680SOL    HW117939   1.849   6.812   6.778
 5680SOL    HW217940   1.977   6.888   6.712
 5681SOL     OW17941   2.714   4.285   6.712
 5681SOL    HW117942   2.615   4.297   6.704
 5681SOL    HW217943   2.760   4.355   6.656
 5682SOL     OW17944   1.913   3.219   4.303
 5682SOL    HW117945   2.006   3.217   4.340
 5682SOL    HW217946   1.863   3.296   4.342
 5683SOL     OW17947   4.053   3.495   4.918
 5683SOL    HW117948   4.091   3.418   4.969
 5683SOL    HW217949   4.088   3.495   4.825
 5684SOL     OW17950   2.863   3.425   3.150
 5684SOL    HW117951   2.920   3.485   3.207
 5684SOL    HW217952   2.814   3.480   3.083
 5685SOL     OW17953   0.276   5.986   1.557
 5685SOL    HW117954   0.328   6.064   1.522
 5685SOL    HW217955   0.191   6.019   1.598
 5686SOL     OW17956   3.274   4.664   0.114
 5686SOL    HW117957   3.210   4.695   0.044
 5686SOL    HW217958   3.367   4.688   0.087
 5687SOL     OW17959   4.465   5.376   6.671
 5687SOL    HW117960   4.480   5.467   6.710
 5687SOL    HW217961   4.384   5.379   6.612
 5688SOL     OW17962   5.244   1.559   1.838
 5688SOL    HW117963   5.168   1.616   1.807
 5688SOL    HW217964   5.226   1.528   1.931
 5689SOL     OW17965   4.343   3.650   5.878
 5689SOL    HW117966   4.274   3.720   5.896
 5689SOL    HW217967   4.391   3.671   5.793
 5690SOL     OW17968   4.133   6.804   2.990
 5690SOL    HW117969   4.078   6.887   2.980
 5690SOL    HW217970   4.153   6.766   2.900
 5691SOL     OW17971   3.578   0.181   4.214
 5691SOL    HW117972   3.633   0.258   4.247
 5691SOL    HW217973   3.636   0.100   4.207
 5692SOL     OW17974   5.584   2.735   6.532
 5692SOL    HW117975   5.636   2.649   6.534
 5692SOL    HW217976   5.489   2.717   6.557
 5693SOL     OW17977   4.979   2.573   2.546
 5693SOL    HW117978   5.009   2.612   2.459
 5693SOL    HW217979   4.894   2.521   2.531
 5694SOL     OW17980   1.662   1.643   4.047
 5694SOL    HW117981   1.741   1.677   3.995
 5694SOL    HW217982   1.647   1.702   4.126
 5695SOL     OW17983   2.135   3.976   3.269
 5695SOL    HW117984   2.188   4.056   3.298
 5695SOL    HW217985   2.158   3.898   3.327
 5696SOL     OW17986   2.911   0.321   5.868
 5696SOL    HW117987   2.936   0.228   5.842
 5696SOL    HW217988   2.977   0.385   5.829
 5697SOL     OW17989   5.915   3.901   0.047
 5697SOL    HW117990   5.865   3.946   6.990
 5697SOL    HW217991   6.001   3.865   0.011
 5698SOL     OW17992   1.525   4.420   3.657
 5698SOL    HW117993   1.498   4.403   3.563
 5698SOL    HW217994   1.521   4.518   3.676
 5699SOL     OW17995   6.998   2.323   5.191
 5699SOL    HW117996   6.936   2.313   5.268
 5699SOL    HW217997   0.061   2.263   5.203
 5700SOL     OW17998   1.201   5.293   3.412
 5700SOL    HW117999   1.136   5.244   3.469
 5700SOL    HW218000   1.211   5.386   3.445
 5701SOL     OW18001   4.978   4.330   2.569
 5701SOL    HW118002   5.030   4.256   2.612
 5701SOL    HW218003   4.961   4.402   2.636
 5702SOL     OW18004   3.241   0.420   6.588
 5702SOL    HW118005   3.198   0.487   6.648
 5702SOL    HW218006   3.258   0.463   6.499
 5703SOL     OW18007   4.693   4.417   1.794
 5703SOL    HW118008   4.628   4.367   1.852
 5703SOL    HW218009   4.676   4.395   1.699
 5704SOL     OW18010   5.005   4.098   3.170
 5704SOL    HW118011   4.960   4.101   3.081
 5704SOL    HW218012   5.069   4.021   3.172
 5705SOL     OW18013   6.514   1.806   3.644
 5705SOL    HW118014   6.530   1.901   3.620
 5705SOL    HW218015   6.579   1.747   3.595
 5706SOL     OW18016   1.873   1.426   6.475
 5706SOL    HW118017   1.797   1.456   6.533
 5706SOL    HW218018   1.856   1.333   6.443
 5707SOL     OW18019   3.378   1.685   0.287
 5707SOL    HW118020   3.373   1.768   0.341
 5707SOL    HW218021   3.440   1.699   0.209
 5708SOL     OW18022   6.763   7.006   0.991
 5708SOL    HW118023   6.764   6.907   1.007
 5708SOL    HW218024   6.789   0.037   1.074
 5709SOL     OW18025   1.415   2.196   1.289
 5709SOL    HW118026   1.497   2.139   1.283
 5709SOL    HW218027   1.386   2.203   1.384
 5710SOL     OW18028   3.194   4.530   6.856
 5710SOL    HW118029   3.135   4.527   6.775
 5710SOL    HW218030   3.138   4.519   6.938
 5711SOL     OW18031   5.277   1.591   5.080
 5711SOL    HW118032   5.333   1.655   5.133
 5711SOL    HW218033   5.326   1.563   4.997
 5712SOL     OW18034   6.369   6.443   0.082
 5712SOL    HW118035   6.351   6.542   0.082
 5712SOL    HW218036   6.348   6.406   0.173
 5713SOL     OW18037   0.176   2.532   2.842
 5713SOL    HW118038   0.255   2.567   2.894
 5713SOL    HW218039   0.201   2.448   2.796
 5714SOL     OW18040   2.162   0.751   6.347
 5714SOL    HW118041   2.073   0.795   6.331
 5714SOL    HW218042   2.169   0.723   6.443
 5715SOL     OW18043   1.877   0.189   3.431
 5715SOL    HW118044   1.976   0.198   3.437
 5715SOL    HW218045   1.841   0.261   3.372
 5716SOL     OW18046   1.734   2.286   5.159
 5716SOL    HW118047   1.635   2.277   5.142
 5716SOL    HW218048   1.748   2.321   5.252
 5717SOL     OW18049   0.464   3.510   6.151
 5717SOL    HW118050   0.472   3.607   6.131
 5717SOL    HW218051   0.486   3.457   6.069
 5718SOL     OW18052   2.524   4.924   6.040
 5718SOL    HW118053   2.521   5.018   6.005
 5718SOL    HW218054   2.510   4.860   5.964
 5719SOL     OW18055   1.918   0.724   0.688
 5719SOL    HW118056   2.006   0.770   0.690
 5719SOL    HW218057   1.891   0.707   0.593
 5720SOL     OW18058   1.644   5.881   4.024
 5720SOL    HW118059   1.606   5.883   4.117
 5720SOL    HW218060   1.671   5.974   3.998
 5721SOL     OW18061   6.455   4.235   0.257
 5721SOL    HW118062   6.372   4.284   0.282
 5721SOL    HW218063   6.528   4.260   0.321
 5722SOL     OW18064   5.612   1.314   3.928
 5722SOL    HW118065   5.595   1.296   3.831
 5722SOL    HW218066   5.705   1.286   3.951
 5723SOL     OW18067   0.877   4.619   1.398
 5723SOL    HW118068   0.863   4.521   1.381
 5723SOL    HW218069   0.814   4.672   1.340
 5724SOL     OW18070   4.924   2.874   5.611
 5724SOL    HW118071   4.889   2.827   5.692
 5724SOL    HW218072   5.015   2.837   5.588
 5725SOL     OW18073   5.108   6.375   5.490
 5725SOL    HW118074   5.177   6.394   5.560
 5725SOL    HW218075   5.105   6.449   5.424
 5726SOL     OW18076   4.344   4.249   6.075
 5726SOL    HW118077   4.297   4.332   6.104
 5726SOL    HW218078   4.343   4.181   6.148
 5727SOL     OW18079   5.478   2.373   4.121
 5727SOL    HW118080   5.379   2.378   4.116
 5727SOL    HW218081   5.517   2.465   4.114
 5728SOL     OW18082   4.658   0.579   5.632
 5728SOL    HW118083   4.605   0.629   5.564
 5728SOL    HW218084   4.636   0.481   5.625
 5729SOL     OW18085   1.060   3.001   4.172
 5729SOL    HW118086   1.053   2.945   4.089
 5729SOL    HW218087   0.974   2.999   4.222
 5730SOL     OW18088   3.800   4.850   0.319
 5730SOL    HW118089   3.713   4.898   0.331
 5730SOL    HW218090   3.872   4.898   0.368
 5731SOL     OW18091   4.416   1.298   4.935
 5731SOL    HW118092   4.506   1.315   4.975
 5731SOL    HW218093   4.381   1.382   4.894
 5732SOL     OW18094   5.557   4.444   4.227
 5732SOL    HW118095   5.523   4.421   4.136
 5732SOL    HW218096   5.652   4.415   4.235
 5733SOL     OW18097   2.667   0.140   2.016
 5733SOL    HW118098   2.641   0.193   1.935
 5733SOL    HW218099   2.639   0.188   2.098
 5734SOL     OW18100   1.690   6.890   6.110
 5734SOL    HW118101   1.613   6.899   6.173
 5734SOL    HW218102   1.665   6.928   6.021
 5735SOL     OW18103   5.403   0.694   1.710
 5735SOL    HW118104   5.304   0.695   1.723
 5735SOL    HW218105   5.442   0.781   1.740
 5736SOL     OW18106   5.612   3.737   6.618
 5736SOL    HW118107   5.637   3.715   6.713
 5736SOL    HW218108   5.586   3.833   6.612
 5737SOL     OW18109   5.509   5.792   2.249
 5737SOL    HW118110   5.420   5.814   2.289
 5737SOL    HW218111   5.549   5.714   2.297
 5738SOL     OW18112   2.334   0.616   0.931
 5738SOL    HW118113   2.311   0.566   0.848
 5738SOL    HW218114   2.357   0.711   0.908
 5739SOL     OW18115   2.522   0.800   5.554
 5739SOL    HW118116   2.489   0.830   5.464
 5739SOL    HW218117   2.444   0.770   5.609
 5740SOL     OW18118   4.811   3.920   2.630
 5740SOL    HW118119   4.799   3.908   2.531
 5740SOL    HW218120   4.780   3.837   2.676
 5741SOL     OW18121   1.302   3.417   4.359
 5741SOL    HW118122   1.346   3.357   4.425
 5741SOL    HW218123   1.370   3.453   4.294
 5742SOL     OW18124   6.210   5.863   2.534
 5742SOL    HW118125   6.191   5.889   2.629
 5742SOL    HW218126   6.215   5.763   2.527
 5743SOL     OW18127   3.629   5.687   0.264
 5743SOL    HW118128   3.626   5.677   0.363
 5743SOL    HW218129   3.678   5.771   0.240
 5744SOL     OW18130   5.300   6.077   3.445
 5744SOL    HW118131   5.248   6.019   3.508
 5744SOL    HW218132   5.237   6.125   3.384
 5745SOL     OW18133   1.380   2.971   2.537
 5745SOL    HW118134   1.295   2.922   2.557
 5745SOL    HW218135   1.403   3.031   2.613
 5746SOL     OW18136   5.415   0.520   2.958
 5746SOL    HW118137   5.503   0.480   2.931
 5746SOL    HW218138   5.365   0.455   3.015
 5747SOL     OW18139   1.775   0.322   1.487
 5747SOL    HW118140   1.859   0.363   1.452
 5747SOL    HW218141   1.701   0.337   1.422
 5748SOL     OW18142   5.788   6.558   0.179
 5748SOL    HW118143   5.768   6.465   0.209
 5748SOL    HW218144   5.876   6.558   0.131
 5749SOL     OW18145   1.686   5.947   6.240
 5749SOL    HW118146   1.758   5.948   6.171
 5749SOL    HW218147   1.669   6.040   6.272
 5750SOL     OW18148   6.633   2.780   4.067
 5750SOL    HW118149   6.632   2.688   4.106
 5750SOL    HW218150   6.716   2.828   4.097
 5751SOL     OW18151   0.521   3.456   4.672
 5751SOL    HW118152   0.489   3.522   4.740
 5751SOL    HW218153   0.565   3.506   4.597
 5752SOL     OW18154   5.127   0.720   0.195
 5752SOL    HW118155   5.175   0.687   0.277
 5752SOL    HW218156   5.040   0.672   0.186
 5753SOL     OW18157   3.953   3.948   4.610
 5753SOL    HW118158   4.004   4.009   4.672
 5753SOL    HW218159   3.855   3.969   4.617
 5754SOL     OW18160   6.683   5.823   1.098
 5754SOL    HW118161   6.687   5.908   1.151
 5754SOL    HW218162   6.589   5.804   1.071
 5755SOL     OW18163   1.369   2.979   6.875
 5755SOL    HW118164   1.272   2.963   6.894
 5755SOL    HW218165   1.389   2.950   6.781
 5756SOL     OW18166   6.418   6.326   2.070
 5756SOL    HW118167   6.410   6.299   1.974
 5756SOL    HW218168   6.459   6.251   2.122
 5757SOL     OW18169   7.012   1.386   3.668
 5757SOL    HW118170   6.978   1.477   3.688
 5757SOL    HW218171   0.009   1.335   3.753
 5758SOL     OW18172   6.292   6.706   3.021
 5758SOL    HW118173   6.275   6.628   2.962
 5758SOL    HW218174   6.204   6.745   3.051
 5759SOL     OW18175   2.405   6.911   2.519
 5759SOL    HW118176   2.332   6.976   2.541
 5759SOL    HW218177   2.417   6.848   2.595
 5760SOL     OW18178   0.961   2.040   6.671
 5760SOL    HW118179   1.024   2.076   6.601
 5760SOL    HW218180   0.924   1.952   6.640
 5761SOL     OW18181   6.632   6.613   4.706
 5761SOL    HW118182   6.655   6.691   4.764
 5761SOL    HW218183   6.683   6.532   4.736
 5762SOL     OW18184   0.964   5.482   5.810
 5762SOL    HW118185   1.061   5.502   5.798
 5762SOL    HW218186   0.944   5.464   5.906
 5763SOL     OW18187   5.513   0.299   0.630
 5763SOL    HW118188   5.549   0.368   0.568
 5763SOL    HW218189   5.504   0.338   0.722
 5764SOL     OW18190   4.843   6.434   3.999
 5764SOL    HW118191   4.786   6.386   3.932
 5764SOL    HW218192   4.786   6.469   4.073
 5765SOL     OW18193   6.676   4.837   2.128
 5765SOL    HW118194   6.734   4.762   2.095
 5765SOL    HW218195   6.689   4.917   2.069
 5766SOL     OW18196   0.688   1.388   3.960
 5766SOL    HW118197   0.710   1.473   4.008
 5766SOL    HW218198   0.653   1.409   3.869
 5767SOL     OW18199   4.030   7.012   0.213
 5767SOL    HW118200   4.119   6.993   0.171
 5767SOL    HW218201   3.975   6.929   0.216
 5768SOL     OW18202   1.251   0.688   5.087
 5768SOL    HW118203   1.176   0.730   5.035
 5768SOL    HW218204   1.295   0.757   5.144
 5769SOL     OW18205   0.854   2.908   6.003
 5769SOL    HW118206   0.777   2.943   6.058
 5769SOL    HW218207   0.925   2.978   5.998
 5770SOL     OW18208   2.146   4.474   2.022
 5770SOL    HW118209   2.226   4.421   2.049
 5770SOL    HW218210   2.099   4.509   2.103
 5771SOL     OW18211   2.691   5.016   3.874
 5771SOL    HW118212   2.646   4.932   3.842
 5771SOL    HW218213   2.627   5.092   3.871
 5772SOL     OW18214   3.421   0.152   2.918
 5772SOL    HW118215   3.486   0.194   2.981
 5772SOL    HW218216   3.332   0.144   2.962
 5773SOL     OW18217   5.618   0.965   3.100
 5773SOL    HW118218   5.655   1.055   3.077
 5773SOL    HW218219   5.539   0.976   3.160
 5774SOL     OW18220   0.705   0.060   3.021
 5774SOL    HW118221   0.793   0.100   2.995
 5774SOL    HW218222   0.702   6.980   2.993
 5775SOL     OW18223   6.107   4.691   2.020
 5775SOL    HW118224   6.196   4.645   2.021
 5775SOL    HW218225   6.059   4.669   1.934
 5776SOL     OW18226   2.658   1.227   4.093
 5776SOL    HW118227   2.629   1.151   4.036
 5776SOL    HW218228   2.749   1.258   4.065
 5777SOL     OW18229   1.069   0.306   1.697
 5777SOL    HW118230   0.970   0.297   1.708
 5777SOL    HW218231   1.108   0.351   1.777
 5778SOL     OW18232   6.903   0.841   1.207
 5778SOL    HW118233   6.828   0.779   1.182
 5778SOL    HW218234   6.936   0.818   1.298
 5779SOL     OW18235   5.595   1.221   6.993
 5779SOL    HW118236   5.555   1.130   6.993
 5779SOL    HW218237   5.544   1.280   0.041
 5780SOL     OW18238   5.032   4.888   4.113
 5780SOL    HW118239   5.047   4.957   4.042
 5780SOL    HW218240   4.940   4.900   4.152
 5781SOL     OW18241   1.602   5.505   6.237
 5781SOL    HW118242   1.522   5.561   6.259
 5781SOL    HW218243   1.668   5.560   6.187
 5782SOL     OW18244   0.044   0.968   6.824
 5782SOL    HW118245   0.065   0.871   6.835
 5782SOL    HW218246   0.049   1.013   6.913
 5783SOL     OW18247   2.542   2.471   0.186
 5783SOL    HW118248   2.560   2.541   0.117
 5783SOL    HW218249   2.628   2.444   0.230
 5784SOL     OW18250   6.856   6.560   6.599
 5784SOL    HW118251   6.831   6.644   6.550
 5784SOL    HW218252   6.956   6.550   6.598
 5785SOL     OW18253   1.302   1.204   0.595
 5785SOL    HW118254   1.376   1.222   0.531
 5785SOL    HW218255   1.334   1.219   0.689
 5786SOL     OW18256   6.152   5.238   1.452
 5786SOL    HW118257   6.136   5.309   1.384
 5786SOL    HW218258   6.250   5.227   1.466
 5787SOL     OW18259   1.973   3.197   5.886
 5787SOL    HW118260   2.068   3.170   5.901
 5787SOL    HW218261   1.969   3.296   5.871
 5788SOL     OW18262   3.242   0.835   3.703
 5788SOL    HW118263   3.227   0.933   3.688
 5788SOL    HW218264   3.206   0.810   3.793
 5789SOL     OW18265   3.624   4.967   6.485
 5789SOL    HW118266   3.581   5.034   6.546
 5789SOL    HW218267   3.677   5.014   6.415
 5790SOL     OW18268   0.849   3.738   3.736
 5790SOL    HW118269   0.802   3.741   3.648
 5790SOL    HW218270   0.947   3.737   3.721
 5791SOL     OW18271   2.130   0.534   3.030
 5791SOL    HW118272   2.128   0.562   3.126
 5791SOL    HW218273   2.190   0.455   3.020
 5792SOL     OW18274   0.262   2.288   2.766
 5792SOL    HW118275   0.256   2.254   2.672
 5792SOL    HW218276   0.356   2.315   2.786
 5793SOL     OW18277   6.683   0.778   4.458
 5793SOL    HW118278   6.741   0.755   4.379
 5793SOL    HW218279   6.649   0.872   4.448
 5794SOL     OW18280   6.282   4.693   6.378
 5794SOL    HW118281   6.215   4.737   6.318
 5794SOL    HW218282   6.359   4.755   6.393
 5795SOL     OW18283   5.602   4.018   6.559
 5795SOL    HW118284   5.578   4.089   6.625
 5795SOL    HW218285   5.605   4.057   6.467
 5796SOL     OW18286   2.891   2.595   0.499
 5796SOL    HW118287   2.985   2.616   0.527
 5796SOL    HW218288   2.859   2.666   0.436
 5797SOL     OW18289   2.974   2.758   5.766
 5797SOL    HW118290   2.876   2.757   5.747
 5797SOL    HW218291   2.990   2.787   5.861
 5798SOL     OW18292   6.763   5.282   4.491
 5798SOL    HW118293   6.766   5.196   4.439
 5798SOL    HW218294   6.826   5.348   4.450
 5799SOL     OW18295   5.139   1.108   3.809
 5799SOL    HW118296   5.100   1.199   3.823
 5799SOL    HW218297   5.077   1.040   3.848
 5800SOL     OW18298   6.132   5.612   6.726
 5800SOL    HW118299   6.121   5.529   6.671
 5800SOL    HW218300   6.098   5.691   6.674
 5801SOL     OW18301   1.933   1.244   2.931
 5801SOL    HW118302   1.997   1.179   2.890
 5801SOL    HW218303   1.970   1.276   3.019
 5802SOL     OW18304   0.890   2.616   4.936
 5802SOL    HW118305   0.804   2.665   4.922
 5802SOL    HW218306   0.964   2.681   4.950
 5803SOL     OW18307   1.386   4.673   0.958
 5803SOL    HW118308   1.404   4.666   1.056
 5803SOL    HW218309   1.461   4.723   0.914
 5804SOL     OW18310   6.553   2.889   6.112
 5804SOL    HW118311   6.588   2.915   6.022
 5804SOL    HW218312   6.458   2.918   6.121
 5805SOL     OW18313   5.870   3.297   0.042
 5805SOL    HW118314   5.832   3.388   0.058
 5805SOL    HW218315   5.846   3.267   6.966
 5806SOL     OW18316   0.212   6.924   6.668
 5806SOL    HW118317   0.268   6.964   6.741
 5806SOL    HW218318   0.115   6.937   6.690
 5807SOL     OW18319   2.095   3.728   1.950
 5807SOL    HW118320   2.138   3.800   2.005
 5807SOL    HW218321   2.157   3.650   1.944
 5808SOL     OW18322   6.469   2.079   3.481
 5808SOL    HW118323   6.386   2.110   3.529
 5808SOL    HW218324   6.443   2.037   3.394
 5809SOL     OW18325   6.900   2.943   4.431
 5809SOL    HW118326   6.858   2.928   4.520
 5809SOL    HW218327   6.926   3.040   4.422
 5810SOL     OW18328   2.624   2.022   2.615
 5810SOL    HW118329   2.712   1.980   2.593
 5810SOL    HW218330   2.611   2.024   2.714
 5811SOL     OW18331   3.083   0.998   2.434
 5811SOL    HW118332   3.057   1.059   2.509
 5811SOL    HW218333   3.075   1.046   2.347
 5812SOL     OW18334   4.613   0.737   4.482
 5812SOL    HW118335   4.660   0.747   4.569
 5812SOL    HW218336   4.680   0.721   4.410
 5813SOL     OW18337   1.613   1.477   5.403
 5813SOL    HW118338   1.540   1.418   5.366
 5813SOL    HW218339   1.571   1.548   5.459
 5814SOL     OW18340   0.021   5.186   0.481
 5814SOL    HW118341   0.005   5.100   0.432
 5814SOL    HW218342   0.011   5.171   0.579
 5815SOL     OW18343   3.402   1.509   3.275
 5815SOL    HW118344   3.410   1.585   3.211
 5815SOL    HW218345   3.420   1.541   3.368
 5816SOL     OW18346   4.873   6.774   1.278
 5816SOL    HW118347   4.852   6.870   1.294
 5816SOL    HW218348   4.964   6.766   1.237
 5817SOL     OW18349   5.760   2.067   5.907
 5817SOL    HW118350   5.813   2.106   5.983
 5817SOL    HW218351   5.800   1.981   5.878
 5818SOL     OW18352   5.949   6.425   5.617
 5818SOL    HW118353   5.968   6.507   5.564
 5818SOL    HW218354   5.960   6.445   5.715
 5819SOL     OW18355   5.363   0.337   1.163
 5819SOL    HW118356   5.341   0.399   1.087
 5819SOL    HW218357   5.285   0.277   1.180
 5820SOL     OW18358   5.959   5.349   2.444
 5820SOL    HW118359   5.876   5.361   2.499
 5820SOL    HW218360   6.011   5.271   2.478
 5821SOL     OW18361   3.454   6.795   2.453
 5821SOL    HW118362   3.363   6.822   2.423
 5821SOL    HW218363   3.502   6.874   2.490
 5822SOL     OW18364   0.833   1.227   2.370
 5822SOL    HW118365   0.807   1.247   2.275
 5822SOL    HW218366   0.889   1.302   2.406
 5823SOL     OW18367   2.214   3.014   4.294
 5823SOL    HW118368   2.230   2.922   4.330
 5823SOL    HW218369   2.205   3.079   4.370
 5824SOL     OW18370   4.164   0.489   3.507
 5824SOL    HW118371   4.106   0.524   3.433
 5824SOL    HW218372   4.232   0.558   3.532
 5825SOL     OW18373   2.871   0.899   1.241
 5825SOL    HW118374   2.960   0.943   1.228
 5825SOL    HW218375   2.800   0.952   1.196
 5826SOL     OW18376   6.512   0.266   4.318
 5826SOL    HW118377   6.606   0.297   4.334
 5826SOL    HW218378   6.504   0.235   4.223
 5827SOL     OW18379   1.633   5.086   5.556
 5827SOL    HW118380   1.591   5.175   5.569
 5827SOL    HW218381   1.726   5.087   5.594
 5828SOL     OW18382   6.706   2.543   1.841
 5828SOL    HW118383   6.637   2.471   1.834
 5828SOL    HW218384   6.769   2.537   1.764
 5829SOL     OW18385   1.588   1.704   1.947
 5829SOL    HW118386   1.582   1.776   2.016
 5829SOL    HW218387   1.554   1.618   1.985
 5830SOL     OW18388   2.212   1.175   5.483
 5830SOL    HW118389   2.229   1.085   5.523
 5830SOL    HW218390   2.151   1.166   5.404
 5831SOL     OW18391   5.850   6.299   3.005
 5831SOL    HW118392   5.936   6.298   3.056
 5831SOL    HW218393   5.790   6.370   3.042
 5832SOL     OW18394   3.507   3.644   4.686
 5832SOL    HW118395   3.482   3.555   4.726
 5832SOL    HW218396   3.573   3.630   4.612
 5833SOL     OW18397   3.710   3.204   5.037
 5833SOL    HW118398   3.695   3.295   5.001
 5833SOL    HW218399   3.625   3.170   5.078
 5834SOL     OW18400   6.290   0.604   0.430
 5834SOL    HW118401   6.255   0.691   0.466
 5834SOL    HW218402   6.328   0.550   0.505
 5835SOL     OW18403   5.304   2.751   4.258
 5835SOL    HW118404   5.308   2.709   4.349
 5835SOL    HW218405   5.235   2.823   4.257
 5836SOL     OW18406   3.616   6.507   2.671
 5836SOL    HW118407   3.583   6.415   2.651
 5836SOL    HW218408   3.539   6.570   2.675
 5837SOL     OW18409   4.944   4.616   6.554
 5837SOL    HW118410   4.848   4.620   6.582
 5837SOL    HW218411   4.985   4.531   6.589
 5838SOL     OW18412   0.313   1.600   5.484
 5838SOL    HW118413   0.229   1.641   5.448
 5838SOL    HW218414   0.391   1.660   5.465
 5839SOL     OW18415   0.177   2.767   2.625
 5839SOL    HW118416   0.117   2.717   2.563
 5839SOL    HW218417   0.178   2.723   2.714
 5840SOL     OW18418   2.433   5.622   0.081
 5840SOL    HW118419   2.523   5.580   0.088
 5840SOL    HW218420   2.389   5.624   0.171
 5841SOL     OW18421   6.450   2.076   2.601
 5841SOL    HW118422   6.513   2.150   2.625
 5841SOL    HW218423   6.492   2.019   2.530
 5842SOL     OW18424   3.833   3.374   0.261
 5842SOL    HW118425   3.800   3.389   0.167
 5842SOL    HW218426   3.901   3.444   0.284
 5843SOL     OW18427   1.311   3.004   1.333
 5843SOL    HW118428   1.383   2.996   1.401
 5843SOL    HW218429   1.340   2.962   1.247
 5844SOL     OW18430   1.229   6.090   6.442
 5844SOL    HW118431   1.301   6.033   6.481
 5844SOL    HW218432   1.253   6.114   6.348
 5845SOL     OW18433   1.161   2.250   4.405
 5845SOL    HW118434   1.257   2.276   4.419
 5845SOL    HW218435   1.123   2.217   4.492
 5846SOL     OW18436   0.670   3.384   6.352
 5846SOL    HW118437   0.755   3.404   6.303
 5846SOL    HW218438   0.607   3.336   6.290
 5847SOL     OW18439   1.609   2.268   3.710
 5847SOL    HW118440   1.522   2.280   3.661
 5847SOL    HW218441   1.614   2.333   3.785
 5848SOL     OW18442   1.394   4.933   3.964
 5848SOL    HW118443   1.469   4.885   3.919
 5848SOL    HW218444   1.428   5.017   4.005
 5849SOL     OW18445   3.162   6.861   5.418
 5849SOL    HW118446   3.140   6.830   5.511
 5849SOL    HW218447   3.122   6.952   5.403
 5850SOL     OW18448   0.955   4.324   3.370
 5850SOL    HW118449   0.953   4.398   3.302
 5850SOL    HW218450   0.948   4.236   3.323
 5851SOL     OW18451   5.256   3.101   2.262
 5851SOL    HW118452   5.177   3.146   2.220
 5851SOL    HW218453   5.339   3.129   2.214
 5852SOL     OW18454   4.168   5.745   2.671
 5852SOL    HW118455   4.159   5.711   2.765
 5852SOL    HW218456   4.211   5.835   2.672
 5853SOL     OW18457   4.418   4.315   5.534
 5853SOL    HW118458   4.379   4.274   5.617
 5853SOL    HW218459   4.432   4.244   5.465
 5854SOL     OW18460   0.914   1.129   6.677
 5854SOL    HW118461   0.995   1.071   6.687
 5854SOL    HW218462   0.939   1.225   6.687
 5855SOL     OW18463   1.863   0.996   4.806
 5855SOL    HW118464   1.819   0.917   4.763
 5855SOL    HW218465   1.845   1.077   4.751
 5856SOL     OW18466   2.166   5.045   3.280
 5856SOL    HW118467   2.185   5.115   3.349
 5856SOL    HW218468   2.202   5.076   3.191
 5857SOL     OW18469   0.332   2.313   5.814
 5857SOL    HW118470   0.357   2.264   5.897
 5857SOL    HW218471   0.252   2.370   5.832
 5858SOL     OW18472   3.716   6.658   3.319
 5858SOL    HW118473   3.633   6.680   3.371
 5858SOL    HW218474   3.741   6.563   3.334
 5859SOL     OW18475   6.538   5.754   1.590
 5859SOL    HW118476   6.508   5.691   1.518
 5859SOL    HW218477   6.495   5.728   1.677
 5860SOL     OW18478   0.750   3.193   1.306
 5860SOL    HW118479   0.725   3.265   1.371
 5860SOL    HW218480   0.830   3.223   1.254
 5861SOL     OW18481   5.833   2.237   4.080
 5861SOL    HW118482   5.838   2.335   4.064
 5861SOL    HW218483   5.742   2.203   4.054
 5862SOL     OW18484   4.770   4.152   3.338
 5862SOL    HW118485   4.829   4.117   3.265
 5862SOL    HW218486   4.794   4.109   3.425
 5863SOL     OW18487   1.936   1.605   1.029
 5863SOL    HW118488   1.836   1.608   1.021
 5863SOL    HW218489   1.969   1.694   1.059
 5864SOL     OW18490   4.177   5.597   0.718
 5864SOL    HW118491   4.237   5.647   0.655
 5864SOL    HW218492   4.129   5.662   0.777
 5865SOL     OW18493   4.514   1.021   3.391
 5865SOL    HW118494   4.564   0.938   3.366
 5865SOL    HW218495   4.500   1.024   3.490
 5866SOL     OW18496   3.154   1.396   6.847
 5866SOL    HW118497   3.079   1.448   6.888
 5866SOL    HW218498   3.145   1.398   6.747
 5867SOL     OW18499   0.345   2.601   1.293
 5867SOL    HW118500   0.329   2.622   1.389
 5867SOL    HW218501   0.411   2.666   1.255
 5868SOL     OW18502   1.626   6.855   4.493
 5868SOL    HW118503   1.620   6.941   4.543
 5868SOL    HW218504   1.634   6.873   4.395
 5869SOL     OW18505   2.836   4.989   3.641
 5869SOL    HW118506   2.805   5.008   3.734
 5869SOL    HW218507   2.889   5.066   3.607
 5870SOL     OW18508   5.372   4.966   4.329
 5870SOL    HW118509   5.410   5.035   4.391
 5870SOL    HW218510   5.364   5.003   4.237
 5871SOL     OW18511   2.641   3.471   0.405
 5871SOL    HW118512   2.667   3.389   0.457
 5871SOL    HW218513   2.570   3.447   0.339
 5872SOL     OW18514   4.013   5.937   4.158
 5872SOL    HW118515   4.050   5.928   4.066
 5872SOL    HW218516   3.947   6.013   4.161
 5873SOL     OW18517   1.780   3.434   0.081
 5873SOL    HW118518   1.875   3.465   0.081
 5873SOL    HW218519   1.748   3.425   0.175
 5874SOL     OW18520   1.155   4.159   6.892
 5874SOL    HW118521   1.207   4.188   6.972
 5874SOL    HW218522   1.122   4.066   6.906
 5875SOL     OW18523   4.525   2.126   0.393
 5875SOL    HW118524   4.425   2.129   0.400
 5875SOL    HW218525   4.556   2.032   0.403
 5876SOL     OW18526   3.740   4.219   6.382
 5876SOL    HW118527   3.741   4.315   6.353
 5876SOL    HW218528   3.735   4.216   6.482
 5877SOL     OW18529   6.018   0.428   2.426
 5877SOL    HW118530   5.950   0.500   2.409
 5877SOL    HW218531   6.090   0.463   2.486
 5878SOL     OW18532   5.192   4.604   2.083
 5878SOL    HW118533   5.128   4.682   2.086
 5878SOL    HW218534   5.232   4.591   2.174
 5879SOL     OW18535   3.525   3.817   5.328
 5879SOL    HW118536   3.615   3.846   5.295
 5879SOL    HW218537   3.489   3.745   5.268
 5880SOL     OW18538   6.317   2.754   6.629
 5880SOL    HW118539   6.237   2.736   6.572
 5880SOL    HW218540   6.293   2.819   6.701
 5881SOL     OW18541   1.777   6.695   2.852
 5881SOL    HW118542   1.861   6.641   2.858
 5881SOL    HW218543   1.771   6.756   2.931
 5882SOL     OW18544   1.296   4.642   5.799
 5882SOL    HW118545   1.391   4.666   5.778
 5882SOL    HW218546   1.260   4.582   5.727
 5883SOL     OW18547   6.573   5.421   0.148
 5883SOL    HW118548   6.500   5.416   0.080
 5883SOL    HW218549   6.578   5.514   0.184
 5884SOL     OW18550   6.979   1.059   2.337
 5884SOL    HW118551   0.045   1.073   2.392
 5884SOL    HW218552   6.921   0.991   2.380
 5885SOL     OW18553   0.147   5.447   0.765
 5885SOL    HW118554   0.063   5.474   0.811
 5885SOL    HW218555   0.125   5.401   0.679
 5886SOL     OW18556   1.739   4.780   3.577
 5886SOL    HW118557   1.748   4.841   3.498
 5886SOL    HW218558   1.804   4.705   3.568
 5887SOL     OW18559   2.753   2.889   0.312
 5887SOL    HW118560   2.680   2.943   0.269
 5887SOL    HW218561   2.835   2.944   0.320
 5888SOL     OW18562   2.758   6.172   1.157
 5888SOL    HW118563   2.684   6.134   1.212
 5888SOL    HW218564   2.804   6.099   1.107
 5889SOL     OW18565   5.831   0.968   2.074
 5889SOL    HW118566   5.781   0.964   2.160
 5889SOL    HW218567   5.924   1.000   2.091
 5890SOL     OW18568   2.551   5.227   3.804
 5890SOL    HW118569   2.607   5.310   3.812
 5890SOL    HW218570   2.454   5.251   3.806
 5891SOL     OW18571   2.469   3.812   6.750
 5891SOL    HW118572   2.394   3.748   6.762
 5891SOL    HW218573   2.547   3.764   6.708
 5892SOL     OW18574   1.273   2.850   0.630
 5892SOL    HW118575   1.231   2.812   0.548
 5892SOL    HW218576   1.278   2.779   0.701
 5893SOL     OW18577   0.649   6.317   1.283
 5893SOL    HW118578   0.746   6.293   1.290
 5893SOL    HW218579   0.637   6.383   1.209
 5894SOL     OW18580   1.867   5.950   6.627
 5894SOL    HW118581   1.801   5.905   6.688
 5894SOL    HW218582   1.895   5.887   6.555
 5895SOL     OW18583   5.631   4.410   3.335
 5895SOL    HW118584   5.594   4.385   3.245
 5895SOL    HW218585   5.594   4.348   3.404
 5896SOL     OW18586   5.468   2.017   2.430
 5896SOL    HW118587   5.388   1.966   2.461
 5896SOL    HW218588   5.455   2.045   2.335
 5897SOL     OW18589   3.447   2.382   0.664
 5897SOL    HW118590   3.442   2.284   0.642
 5897SOL    HW218591   3.480   2.432   0.583
 5898SOL     OW18592   2.077   0.842   6.936
 5898SOL    HW118593   2.035   0.927   6.968
 5898SOL    HW218594   2.019   0.765   6.962
 5899SOL     OW18595   0.448   6.709   6.729
 5899SOL    HW118596   0.491   6.750   6.810
 5899SOL    HW218597   0.492   6.746   6.647
 5900SOL     OW18598   6.159   6.169   2.365
 5900SOL    HW118599   6.235   6.234   2.356
 5900SOL    HW218600   6.138   6.130   2.275
 5901SOL     OW18601   2.752   0.684   4.857
 5901SOL    HW118602   2.821   0.750   4.886
 5901SOL    HW218603   2.790   0.592   4.863
 5902SOL     OW18604   4.204   4.013   5.658
 5902SOL    HW118605   4.162   4.095   5.618
 5902SOL    HW218606   4.136   3.940   5.660
 5903SOL     OW18607   6.643   1.931   5.411
 5903SOL    HW118608   6.592   1.849   5.438
 5903SOL    HW218609   6.666   1.925   5.314
 5904SOL     OW18610   0.407   4.614   1.358
 5904SOL    HW118611   0.336   4.553   1.323
 5904SOL    HW218612   0.493   4.597   1.309
 5905SOL     OW18613   5.923   2.335   4.871
 5905SOL    HW118614   5.914   2.314   4.968
 5905SOL    HW218615   5.845   2.299   4.821
 5906SOL     OW18616   3.977   1.419   5.965
 5906SOL    HW118617   4.023   1.352   5.908
 5906SOL    HW218618   3.960   1.502   5.912
 5907SOL     OW18619   1.033   3.124   6.033
 5907SOL    HW118620   1.022   3.128   6.132
 5907SOL    HW218621   1.126   3.150   6.009
 5908SOL     OW18622   4.570   3.993   6.577
 5908SOL    HW118623   4.550   3.907   6.531
 5908SOL    HW218624   4.549   4.069   6.514
 5909SOL     OW18625   6.419   4.829   4.219
 5909SOL    HW118626   6.511   4.860   4.197
 5909SOL    HW218627   6.356   4.907   4.220
 5910SOL     OW18628   3.079   4.686   0.756
 5910SOL    HW118629   3.121   4.752   0.819
 5910SOL    HW218630   3.106   4.708   0.662
 5911SOL     OW18631   6.436   0.006   6.978
 5911SOL    HW118632   6.472   6.978   6.895
 5911SOL    HW218633   6.513   0.031   0.021
 5912SOL     OW18634   0.801   3.216   5.123
 5912SOL    HW118635   0.855   3.299   5.141
 5912SOL    HW218636   0.822   3.146   5.191
 5913SOL     OW18637   1.420   2.341   4.539
 5913SOL    HW118638   1.414   2.419   4.477
 5913SOL    HW218639   1.398   2.370   4.632
 5914SOL     OW18640   1.656   6.157   0.768
 5914SOL    HW118641   1.664   6.241   0.715
 5914SOL    HW218642   1.578   6.163   0.830
 5915SOL     OW18643   5.659   3.600   4.453
 5915SOL    HW118644   5.560   3.591   4.459
 5915SOL    HW218645   5.700   3.574   4.541
 5916SOL     OW18646   3.327   0.127   5.980
 5916SOL    HW118647   3.365   0.039   6.009
 5916SOL    HW218648   3.305   0.182   6.060
 5917SOL     OW18649   3.939   3.907   2.464
 5917SOL    HW118650   3.992   3.854   2.530
 5917SOL    HW218651   3.890   3.980   2.511
 5918SOL     OW18652   2.555   1.894   4.201
 5918SOL    HW118653   2.586   1.932   4.288
 5918SOL    HW218654   2.486   1.954   4.161
 5919SOL     OW18655   1.313   2.262   6.784
 5919SOL    HW118656   1.405   2.223   6.781
 5919SOL    HW218657   1.254   2.214   6.719
 5920SOL     OW18658   2.333   5.302   0.283
 5920SOL    HW118659   2.373   5.345   0.364
 5920SOL    HW218660   2.257   5.357   0.249
 5921SOL     OW18661   3.992   5.288   5.763
 5921SOL    HW118662   4.025   5.315   5.854
 5921SOL    HW218663   4.068   5.251   5.710
 5922SOL     OW18664   6.030   4.630   1.201
 5922SOL    HW118665   6.095   4.564   1.164
 5922SOL    HW218666   5.947   4.629   1.146
 5923SOL     OW18667   0.428   0.748   3.650
 5923SOL    HW118668   0.388   0.701   3.572
 5923SOL    HW218669   0.448   0.681   3.722
 5924SOL     OW18670   6.141   1.814   5.077
 5924SOL    HW118671   6.060   1.780   5.030
 5924SOL    HW218672   6.223   1.780   5.031
 5925SOL     OW18673   6.517   6.019   0.549
 5925SOL    HW118674   6.532   6.011   0.647
 5925SOL    HW218675   6.419   6.023   0.530
 5926SOL     OW18676   3.117   5.231   2.495
 5926SOL    HW118677   3.077   5.322   2.492
 5926SOL    HW218678   3.120   5.193   2.402
 5927SOL     OW18679   2.210   5.707   2.002
 5927SOL    HW118680   2.203   5.793   1.952
 5927SOL    HW218681   2.160   5.635   1.954
 5928SOL     OW18682   0.796   6.054   0.994
 5928SOL    HW118683   0.859   6.109   0.939
 5928SOL    HW218684   0.702   6.072   0.965
 5929SOL     OW18685   0.665   6.716   5.105
 5929SOL    HW118686   0.587   6.755   5.058
 5929SOL    HW218687   0.634   6.665   5.185
 5930SOL     OW18688   6.546   1.331   4.951
 5930SOL    HW118689   6.603   1.255   4.981
 5930SOL    HW218690   6.487   1.361   5.026
 5931SOL     OW18691   5.861   4.773   0.942
 5931SOL    HW118692   5.909   4.687   0.925
 5931SOL    HW218693   5.927   4.841   0.976
 5932SOL     OW18694   2.420   0.039   0.229
 5932SOL    HW118695   2.430   6.988   0.155
 5932SOL    HW218696   2.445   7.013   0.316
 5933SOL     OW18697   6.354   3.659   2.728
 5933SOL    HW118698   6.380   3.751   2.698
 5933SOL    HW218699   6.259   3.660   2.758
 5934SOL     OW18700   3.745   3.734   2.118
 5934SOL    HW118701   3.718   3.768   2.208
 5934SOL    HW218702   3.828   3.678   2.127
 5935SOL     OW18703   4.031   3.193   3.082
 5935SOL    HW118704   3.998   3.129   3.013
 5935SOL    HW218705   4.033   3.148   3.171
 5936SOL     OW18706   6.307   6.200   6.681
 5936SOL    HW118707   6.318   6.112   6.634
 5936SOL    HW218708   6.335   6.190   6.777
 5937SOL     OW18709   1.248   4.278   0.389
 5937SOL    HW118710   1.157   4.261   0.426
 5937SOL    HW218711   1.263   4.376   0.383
 5938SOL     OW18712   2.280   4.343   1.082
 5938SOL    HW118713   2.221   4.273   1.123
 5938SOL    HW218714   2.294   4.417   1.147
 5939SOL     OW18715   2.102   1.509   2.795
 5939SOL    HW118716   2.143   1.589   2.752
 5939SOL    HW218717   2.002   1.516   2.790
 5940SOL     OW18718   4.060   5.093   3.191
 5940SOL    HW118719   4.065   5.127   3.097
 5940SOL    HW218720   3.964   5.087   3.219
 5941SOL     OW18721   6.597   3.401   2.953
 5941SOL    HW118722   6.566   3.306   2.943
 5941SOL    HW218723   6.520   3.463   2.934
 5942SOL     OW18724   6.997   2.038   4.744
 5942SOL    HW118725   6.960   2.061   4.834
 5942SOL    HW218726   7.001   2.120   4.687
 5943SOL     OW18727   1.198   4.872   0.406
 5943SOL    HW118728   1.166   4.827   0.324
 5943SOL    HW218729   1.250   4.808   0.462
 5944SOL     OW18730   5.051   2.170   3.382
 5944SOL    HW118731   5.035   2.249   3.323
 5944SOL    HW218732   5.142   2.133   3.365
 5945SOL     OW18733   6.866   5.017   6.198
 5945SOL    HW118734   6.842   4.920   6.200
 5945SOL    HW218735   6.800   5.066   6.141
 5946SOL     OW18736   3.940   2.909   5.370
 5946SOL    HW118737   4.012   2.967   5.331
 5946SOL    HW218738   3.868   2.894   5.302
 5947SOL     OW18739   4.548   4.139   1.641
 5947SOL    HW118740   4.488   4.181   1.709
 5947SOL    HW218741   4.495   4.120   1.558
 5948SOL     OW18742   3.460   5.302   3.391
 5948SOL    HW118743   3.552   5.271   3.412
 5948SOL    HW218744   3.419   5.242   3.323
 5949SOL     OW18745   4.582   4.347   2.533
 5949SOL    HW118746   4.538   4.393   2.456
 5949SOL    HW218747   4.560   4.394   2.618
 5950SOL     OW18748   6.252   2.972   4.120
 5950SOL    HW118749   6.336   2.980   4.067
 5950SOL    HW218750   6.201   2.891   4.091
 5951SOL     OW18751   2.072   6.595   4.091
 5951SOL    HW118752   2.082   6.517   4.030
 5951SOL    HW218753   2.106   6.571   4.182
 5952SOL     OW18754   6.975   5.733   4.801
 5952SOL    HW118755   0.051   5.698   4.815
 5952SOL    HW218756   6.939   5.698   4.714
 5953SOL     OW18757   0.906   3.469   6.248
 5953SOL    HW118758   0.931   3.563   6.274
 5953SOL    HW218759   0.990   3.417   6.230
 5954SOL     OW18760   1.041   5.069   6.584
 5954SOL    HW118761   1.049   5.026   6.674
 5954SOL    HW218762   1.044   5.168   6.594
 5955SOL     OW18763   4.519   5.161   2.780
 5955SOL    HW118764   4.604   5.125   2.819
 5955SOL    HW218765   4.536   5.252   2.742
 5956SOL     OW18766   0.117   2.214   6.832
 5956SOL    HW118767   0.111   2.154   6.752
 5956SOL    HW218768   0.027   2.221   6.875
 5957SOL     OW18769   4.843   6.798   5.252
 5957SOL    HW118770   4.863   6.817   5.348
 5957SOL    HW218771   4.902   6.854   5.194
 5958SOL     OW18772   1.336   5.196   2.440
 5958SOL    HW118773   1.412   5.254   2.411
 5958SOL    HW218774   1.367   5.132   2.510
 5959SOL     OW18775   1.803   0.901   6.548
 5959SOL    HW118776   1.722   0.842   6.545
 5959SOL    HW218777   1.863   0.879   6.471
 5960SOL     OW18778   3.573   6.404   4.983
 5960SOL    HW118779   3.525   6.462   5.049
 5960SOL    HW218780   3.626   6.335   5.031
 5961SOL     OW18781   2.474   1.081   5.699
 5961SOL    HW118782   2.386   1.034   5.709
 5961SOL    HW218783   2.549   1.016   5.712
 5962SOL     OW18784   5.231   4.571   2.938
 5962SOL    HW118785   5.202   4.612   2.851
 5962SOL    HW218786   5.182   4.485   2.952
 5963SOL     OW18787   3.998   3.958   1.894
 5963SOL    HW118788   4.054   4.010   1.959
 5963SOL    HW218789   4.026   3.980   1.801
 5964SOL     OW18790   1.848   3.717   5.614
 5964SOL    HW118791   1.798   3.781   5.673
 5964SOL    HW218792   1.805   3.714   5.524
 5965SOL     OW18793   2.506   1.535   3.651
 5965SOL    HW118794   2.475   1.457   3.705
 5965SOL    HW218795   2.591   1.512   3.604
 5966SOL     OW18796   1.827   6.082   3.963
 5966SOL    HW118797   1.833   6.139   4.045
 5966SOL    HW218798   1.919   6.062   3.929
 5967SOL     OW18799   4.501   6.115   2.138
 5967SOL    HW118800   4.433   6.091   2.070
 5967SOL    HW218801   4.586   6.064   2.121
 5968SOL     OW18802   0.375   1.941   4.497
 5968SOL    HW118803   0.331   1.985   4.419
 5968SOL    HW218804   0.398   1.847   4.473
 5969SOL     OW18805   5.941   2.904   2.578
 5969SOL    HW118806   5.916   2.945   2.665
 5969SOL    HW218807   6.033   2.933   2.552
 5970SOL     OW18808   1.883   3.272   3.510
 5970SOL    HW118809   1.893   3.183   3.466
 5970SOL    HW218810   1.834   3.334   3.449
 5971SOL     OW18811   2.708   6.686   2.741
 5971SOL    HW118812   2.776   6.759   2.750
 5971SOL    HW218813   2.691   6.645   2.830
 5972SOL     OW18814   4.891   6.924   1.959
 5972SOL    HW118815   4.853   6.846   1.908
 5972SOL    HW218816   4.949   6.978   1.897
 5973SOL     OW18817   1.356   3.849   2.737
 5973SOL    HW118818   1.375   3.752   2.749
 5973SOL    HW218819   1.268   3.859   2.689
 5974SOL     OW18820   1.279   3.638   6.246
 5974SOL    HW118821   1.368   3.613   6.210
 5974SOL    HW218822   1.278   3.736   6.267
 5975SOL     OW18823   2.271   3.255   0.117
 5975SOL    HW118824   2.261   3.261   0.017
 5975SOL    HW218825   2.184   3.278   0.160
 5976SOL     OW18826   3.386   3.211   4.497
 5976SOL    HW118827   3.364   3.115   4.514
 5976SOL    HW218828   3.485   3.220   4.485
 5977SOL     OW18829   0.848   3.766   3.222
 5977SOL    HW118830   0.812   3.678   3.191
 5977SOL    HW218831   0.886   3.817   3.144
 5978SOL     OW18832   5.126   5.280   2.967
 5978SOL    HW118833   5.120   5.247   2.873
 5978SOL    HW218834   5.217   5.317   2.984
 5979SOL     OW18835   0.978   1.234   1.957
 5979SOL    HW118836   0.884   1.256   1.930
 5979SOL    HW218837   1.037   1.235   1.876
 5980SOL     OW18838   6.365   3.696   6.114
 5980SOL    HW118839   6.372   3.648   6.202
 5980SOL    HW218840   6.306   3.643   6.053
 5981SOL     OW18841   3.962   2.171   0.994
 5981SOL    HW118842   4.012   2.158   1.079
 5981SOL    HW218843   3.882   2.110   0.993
 5982SOL     OW18844   5.890   2.540   0.196
 5982SOL    HW118845   5.898   2.466   0.129
 5982SOL    HW218846   5.797   2.545   0.231
 5983SOL     OW18847   0.637   0.628   4.949
 5983SOL    HW118848   0.543   0.612   4.920
 5983SOL    HW218849   0.678   0.699   4.891
 5984SOL     OW18850   0.549   6.936   5.901
 5984SOL    HW118851   0.520   6.941   5.996
 5984SOL    HW218852   0.565   6.841   5.875
 5985SOL     OW18853   5.116   2.939   4.231
 5985SOL    HW118854   5.173   2.999   4.175
 5985SOL    HW218855   5.019   2.960   4.216
 5986SOL     OW18856   3.445   2.845   2.600
 5986SOL    HW118857   3.371   2.909   2.582
 5986SOL    HW218858   3.407   2.760   2.638
 5987SOL     OW18859   4.636   6.624   5.569
 5987SOL    HW118860   4.694   6.688   5.619
 5987SOL    HW218861   4.692   6.549   5.533
 5988SOL     OW18862   3.765   0.003   4.988
 5988SOL    HW118863   3.790   0.002   5.085
 5988SOL    HW218864   3.803   6.938   4.944
 5989SOL     OW18865   2.851   1.623   6.462
 5989SOL    HW118866   2.942   1.658   6.439
 5989SOL    HW218867   2.803   1.689   6.520
 5990SOL     OW18868   3.309   4.909   2.274
 5990SOL    HW118869   3.221   4.896   2.227
 5990SOL    HW218870   3.384   4.902   2.209
 5991SOL     OW18871   2.938   5.369   3.819
 5991SOL    HW118872   2.846   5.409   3.821
 5991SOL    HW218873   3.002   5.432   3.862
 5992SOL     OW18874   4.410   2.459   4.192
 5992SOL    HW118875   4.339   2.439   4.260
 5992SOL    HW218876   4.404   2.392   4.118
 5993SOL     OW18877   3.534   5.812   4.307
 5993SOL    HW118878   3.442   5.823   4.346
 5993SOL    HW218879   3.526   5.768   4.217
 5994SOL     OW18880   6.457   2.636   1.487
 5994SOL    HW118881   6.479   2.668   1.580
 5994SOL    HW218882   6.391   2.699   1.446
 5995SOL     OW18883   1.002   4.328   1.457
 5995SOL    HW118884   0.915   4.292   1.490
 5995SOL    HW218885   1.063   4.343   1.535
 5996SOL     OW18886   0.387   5.566   5.633
 5996SOL    HW118887   0.378   5.650   5.579
 5996SOL    HW218888   0.310   5.560   5.697
 5997SOL     OW18889   0.667   0.411   1.163
 5997SOL    HW118890   0.578   0.427   1.122
 5997SOL    HW218891   0.663   0.435   1.260
 5998SOL     OW18892   4.404   2.057   3.369
 5998SOL    HW118893   4.485   2.010   3.335
 5998SOL    HW218894   4.423   2.095   3.460
 5999SOL     OW18895   2.209   2.821   3.269
 5999SOL    HW118896   2.203   2.790   3.363
 5999SOL    HW218897   2.231   2.919   3.267
 6000SOL     OW18898   5.018   0.272   3.303
 6000SOL    HW118899   4.953   0.206   3.265
 6000SOL    HW218900   4.973   0.361   3.312
 6001SOL     OW18901   5.984   1.500   6.976
 6001SOL    HW118902   5.955   1.502   6.880
 6001SOL    HW218903   5.934   1.571   0.010
 6002SOL     OW18904   1.611   0.683   1.806
 6002SOL    HW118905   1.612   0.658   1.709
 6002SOL    HW218906   1.672   0.761   1.821
 6003SOL     OW18907   5.620   3.948   3.876
 6003SOL    HW118908   5.549   4.006   3.917
 6003SOL    HW218909   5.599   3.852   3.895
 6004SOL     OW18910   6.830   3.295   1.745
 6004SOL    HW118911   6.890   3.342   1.810
 6004SOL    HW218912   6.735   3.324   1.759
 6005SOL     OW18913   1.999   6.034   2.294
 6005SOL    HW118914   1.993   5.976   2.213
 6005SOL    HW218915   2.071   6.103   2.281
 6006SOL     OW18916   1.826   5.630   0.032
 6006SOL    HW118917   1.925   5.646   0.037
 6006SOL    HW218918   1.808   5.532   0.027
 6007SOL     OW18919   5.258   3.007   4.683
 6007SOL    HW118920   5.351   3.042   4.674
 6007SOL    HW218921   5.197   3.058   4.623
 6008SOL     OW18922   4.705   4.132   1.349
 6008SOL    HW118923   4.710   4.122   1.448
 6008SOL    HW218924   4.644   4.208   1.326
 6009SOL     OW18925   3.897   1.782   4.818
 6009SOL    HW118926   3.813   1.793   4.764
 6009SOL    HW218927   3.935   1.872   4.839
 6010SOL     OW18928   1.034   3.628   3.359
 6010SOL    HW118929   1.068   3.664   3.446
 6010SOL    HW218930   0.997   3.702   3.304
 6011SOL     OW18931   6.587   2.772   1.806
 6011SOL    HW118932   6.635   2.859   1.816
 6011SOL    HW218933   6.647   2.697   1.832
 6012SOL     OW18934   0.237   2.998   1.420
 6012SOL    HW118935   0.331   2.982   1.390
 6012SOL    HW218936   0.236   3.069   1.490
 6013SOL     OW18937   5.891   0.671   2.091
 6013SOL    HW118938   5.892   0.670   2.191
 6013SOL    HW218939   5.875   0.764   2.059
 6014SOL     OW18940   5.526   0.457   0.871
 6014SOL    HW118941   5.472   0.527   0.917
 6014SOL    HW218942   5.597   0.423   0.933
 6015SOL     OW18943   5.550   0.867   4.761
 6015SOL    HW118944   5.559   0.903   4.853
 6015SOL    HW218945   5.472   0.804   4.757
 6016SOL     OW18946   2.022   7.006   5.171
 6016SOL    HW118947   1.932   7.008   5.126
 6016SOL    HW218948   2.055   6.912   5.176
 6017SOL     OW18949   6.954   3.723   2.480
 6017SOL    HW118950   6.921   3.630   2.461
 6017SOL    HW218951   6.959   3.737   2.579
 6018SOL     OW18952   2.348   5.510   1.126
 6018SOL    HW118953   2.264   5.547   1.088
 6018SOL    HW218954   2.418   5.581   1.128
 6019SOL     OW18955   5.591   6.413   3.133
 6019SOL    HW118956   5.574   6.500   3.179
 6019SOL    HW218957   5.539   6.341   3.179
 6020SOL     OW18958   2.830   6.921   2.910
 6020SOL    HW118959   2.842   7.012   2.870
 6020SOL    HW218960   2.918   6.874   2.913
 6021SOL     OW18961   4.325   1.098   3.796
 6021SOL    HW118962   4.395   1.033   3.767
 6021SOL    HW218963   4.340   1.122   3.892
 6022SOL     OW18964   4.736   0.939   6.110
 6022SOL    HW118965   4.826   0.901   6.095
 6022SOL    HW218966   4.696   0.966   6.022
 6023SOL     OW18967   0.491   2.073   2.618
 6023SOL    HW118968   0.476   2.012   2.695
 6023SOL    HW218969   0.576   2.048   2.571
 6024SOL     OW18970   0.007   5.606   2.506
 6024SOL    HW118971   6.945   5.668   2.519
 6024SOL    HW218972   0.033   5.606   2.409
 6025SOL     OW18973   4.248   1.607   2.104
 6025SOL    HW118974   4.246   1.696   2.058
 6025SOL    HW218975   4.154   1.577   2.121
 6026SOL     OW18976   0.740   4.187   5.720
 6026SOL    HW118977   0.809   4.250   5.684
 6026SOL    HW218978   0.674   4.164   5.648
 6027SOL     OW18979   3.473   2.865   0.204
 6027SOL    HW118980   3.528   2.945   0.182
 6027SOL    HW218981   3.397   2.858   0.140
 6028SOL     OW18982   1.015   4.459   0.227
 6028SOL    HW118983   1.112   4.442   0.209
 6028SOL    HW218984   1.001   4.469   0.326
 6029SOL     OW18985   0.780   4.987   1.987
 6029SOL    HW118986   0.680   4.992   1.993
 6029SOL    HW218987   0.817   5.079   1.974
 6030SOL     OW18988   2.012   0.258   1.139
 6030SOL    HW118989   2.043   0.163   1.134
 6030SOL    HW218990   1.998   0.284   1.235
 6031SOL     OW18991   5.273   0.818   4.246
 6031SOL    HW118992   5.287   0.755   4.169
 6031SOL    HW218993   5.202   0.783   4.306
 6032SOL     OW18994   0.191   3.641   2.666
 6032SOL    HW118995   0.108   3.696   2.677
 6032SOL    HW218996   0.171   3.561   2.610
 6033SOL     OW18997   0.030   6.982   4.626
 6033SOL    HW118998   6.974   6.954   4.688
 6033SOL    HW218999   0.072   6.901   4.584
 6034SOL     OW19000   2.141   4.132   5.264
 6034SOL    HW119001   2.230   4.089   5.249
 6034SOL    HW219002   2.136   4.217   5.211
 6035SOL     OW19003   5.359   6.984   3.800
 6035SOL    HW119004   5.389   6.941   3.886
 6035SOL    HW219005   5.308   6.918   3.746
 6036SOL     OW19006   0.460   0.960   4.092
 6036SOL    HW119007   0.423   0.963   4.184
 6036SOL    HW219008   0.393   0.921   4.029
 6037SOL     OW19009   0.204   5.612   4.885
 6037SOL    HW119010   0.250   5.677   4.824
 6037SOL    HW219011   0.259   5.601   4.968
 6038SOL     OW19012   5.793   4.225   6.401
 6038SOL    HW119013   5.753   4.164   6.332
 6038SOL    HW219014   5.756   4.317   6.389
 6039SOL     OW19015   3.879   3.023   4.367
 6039SOL    HW119016   3.854   2.957   4.438
 6039SOL    HW219017   3.830   3.001   4.283
 6040SOL     OW19018   1.471   1.278   0.136
 6040SOL    HW119019   1.440   1.373   0.147
 6040SOL    HW219020   1.394   1.216   0.156
 6041SOL     OW19021   0.972   2.432   0.485
 6041SOL    HW119022   0.960   2.337   0.454
 6041SOL    HW219023   0.975   2.434   0.585
 6042SOL     OW19024   5.515   6.066   4.722
 6042SOL    HW119025   5.456   6.004   4.671
 6042SOL    HW219026   5.484   6.070   4.817
 6043SOL     OW19027   0.195   4.534   4.094
 6043SOL    HW119028   0.175   4.496   4.003
 6043SOL    HW219029   0.153   4.624   4.102
 6044SOL     OW19030   0.922   0.596   1.542
 6044SOL    HW119031   0.873   0.559   1.621
 6044SOL    HW219032   1.020   0.599   1.562
 6045SOL     OW19033   6.917   4.083   0.806
 6045SOL    HW119034   6.947   4.099   0.899
 6045SOL    HW219035   6.886   3.989   0.796
 6046SOL     OW19036   2.657   3.238   0.542
 6046SOL    HW119037   2.585   3.177   0.575
 6046SOL    HW219038   2.731   3.242   0.609
 6047SOL     OW19039   0.344   6.071   4.692
 6047SOL    HW119040   0.266   6.073   4.754
 6047SOL    HW219041   0.428   6.088   4.744
 6048SOL     OW19042   4.845   5.755   4.876
 6048SOL    HW119043   4.807   5.663   4.864
 6048SOL    HW219044   4.822   5.810   4.796
 6049SOL     OW19045   6.462   5.644   0.529
 6049SOL    HW119046   6.371   5.684   0.539
 6049SOL    HW219047   6.518   5.668   0.608
 6050SOL     OW19048   5.804   4.595   5.523
 6050SOL    HW119049   5.720   4.553   5.490
 6050SOL    HW219050   5.782   4.665   5.591
 6051SOL     OW19051   2.543   2.040   2.915
 6051SOL    HW119052   2.546   1.942   2.935
 6051SOL    HW219053   2.497   2.088   2.991
 6052SOL     OW19054   6.495   1.024   0.325
 6052SOL    HW119055   6.532   0.938   0.360
 6052SOL    HW219056   6.405   1.040   0.365
 6053SOL     OW19057   1.929   0.427   6.111
 6053SOL    HW119058   2.016   0.383   6.088
 6053SOL    HW219059   1.928   0.450   6.209
 6054SOL     OW19060   2.038   4.371   6.558
 6054SOL    HW119061   2.060   4.404   6.466
 6054SOL    HW219062   2.029   4.449   6.620
 6055SOL     OW19063   4.913   0.596   3.769
 6055SOL    HW119064   4.953   0.607   3.678
 6055SOL    HW219065   4.849   0.519   3.768
 6056SOL     OW19066   5.143   3.740   6.412
 6056SOL    HW119067   5.181   3.806   6.477
 6056SOL    HW219068   5.182   3.650   6.428
 6057SOL     OW19069   3.758   0.494   6.249
 6057SOL    HW119070   3.674   0.456   6.287
 6057SOL    HW219071   3.807   0.544   6.320
 6058SOL     OW19072   5.213   1.749   4.448
 6058SOL    HW119073   5.127   1.772   4.495
 6058SOL    HW219074   5.247   1.829   4.400
 6059SOL     OW19075   6.360   6.549   6.026
 6059SOL    HW119076   6.318   6.595   6.104
 6059SOL    HW219077   6.432   6.488   6.058
 6060SOL     OW19078   3.249   6.618   6.670
 6060SOL    HW119079   3.210   6.595   6.581
 6060SOL    HW219080   3.179   6.611   6.740
 6061SOL     OW19081   1.765   1.705   6.795
 6061SOL    HW119082   1.805   1.640   6.860
 6061SOL    HW219083   1.784   1.798   6.825
 6062SOL     OW19084   1.369   6.954   4.001
 6062SOL    HW119085   1.463   6.951   4.033
 6062SOL    HW219086   1.329   6.862   4.006
 6063SOL     OW19087   5.290   6.018   0.084
 6063SOL    HW119088   5.239   6.004   7.015
 6063SOL    HW219089   5.335   6.107   0.082
 6064SOL     OW19090   0.764   5.383   3.198
 6064SOL    HW119091   0.676   5.336   3.200
 6064SOL    HW219092   0.812   5.360   3.113
 6065SOL     OW19093   6.004   6.797   1.701
 6065SOL    HW119094   5.948   6.806   1.618
 6065SOL    HW219095   5.968   6.857   1.772
 6066SOL     OW19096   4.854   1.988   6.072
 6066SOL    HW119097   4.909   2.069   6.097
 6066SOL    HW219098   4.762   1.999   6.109
 6067SOL     OW19099   5.093   2.028   6.353
 6067SOL    HW119100   5.069   1.931   6.357
 6067SOL    HW219101   5.155   2.044   6.276
 6068SOL     OW19102   5.018   1.630   5.706
 6068SOL    HW119103   5.094   1.691   5.682
 6068SOL    HW219104   4.931   1.677   5.692
 6069SOL     OW19105   5.987   4.085   4.512
 6069SOL    HW119106   5.950   3.994   4.530
 6069SOL    HW219107   6.083   4.076   4.484
 6070SOL     OW19108   3.954   2.886   6.552
 6070SOL    HW119109   3.866   2.897   6.597
 6070SOL    HW219110   3.946   2.815   6.481
 6071SOL     OW19111   4.775   6.354   5.502
 6071SOL    HW119112   4.829   6.342   5.418
 6071SOL    HW219113   4.767   6.267   5.549
 6072SOL     OW19114   6.891   1.659   0.917
 6072SOL    HW119115   6.981   1.667   0.959
 6072SOL    HW219116   6.901   1.642   0.819
 6073SOL     OW19117   6.208   1.621   1.196
 6073SOL    HW119118   6.211   1.531   1.239
 6073SOL    HW219119   6.264   1.685   1.248
 6074SOL     OW19120   0.916   0.149   5.342
 6074SOL    HW119121   0.861   0.074   5.379
 6074SOL    HW219122   0.863   0.234   5.344
 6075SOL     OW19123   5.083   4.400   6.172
 6075SOL    HW119124   5.106   4.497   6.180
 6075SOL    HW219125   5.159   4.350   6.131
 6076SOL     OW19126   2.754   6.963   4.204
 6076SOL    HW119127   2.775   0.009   4.129
 6076SOL    HW219128   2.757   7.013   4.291
 6077SOL     OW19129   5.610   5.228   2.988
 6077SOL    HW119130   5.621   5.171   3.070
 6077SOL    HW219131   5.635   5.174   2.908
 6078SOL     OW19132   2.200   4.618   3.652
 6078SOL    HW119133   2.265   4.620   3.577
 6078SOL    HW219134   2.209   4.701   3.707
 6079SOL     OW19135   2.485   1.645   0.887
 6079SOL    HW119136   2.450   1.563   0.843
 6079SOL    HW219137   2.520   1.623   0.978
 6080SOL     OW19138   5.691   2.361   2.638
 6080SOL    HW119139   5.615   2.403   2.689
 6080SOL    HW219140   5.774   2.413   2.653
 6081SOL     OW19141   1.112   3.828   2.594
 6081SOL    HW119142   1.088   3.735   2.622
 6081SOL    HW219143   1.152   3.826   2.502
 6082SOL     OW19144   3.502   2.059   4.404
 6082SOL    HW119145   3.430   2.073   4.337
 6082SOL    HW219146   3.464   2.066   4.497
 6083SOL     OW19147   1.887   6.953   0.440
 6083SOL    HW119148   1.864   0.012   0.502
 6083SOL    HW219149   1.919   6.990   0.353
 6084SOL     OW19150   0.347   4.758   5.686
 6084SOL    HW119151   0.429   4.732   5.738
 6084SOL    HW219152   0.301   4.833   5.732
 6085SOL     OW19153   5.026   5.386   1.654
 6085SOL    HW119154   5.124   5.373   1.667
 6085SOL    HW219155   4.994   5.330   1.578
 6086SOL     OW19156   2.991   1.681   2.860
 6086SOL    HW119157   2.965   1.619   2.934
 6086SOL    HW219158   2.912   1.696   2.801
 6087SOL     OW19159   3.492   0.324   0.915
 6087SOL    HW119160   3.435   0.287   0.841
 6087SOL    HW219161   3.437   0.332   0.998
 6088SOL     OW19162   0.209   6.849   5.965
 6088SOL    HW119163   0.267   6.864   6.045
 6088SOL    HW219164   0.119   6.888   5.980
 6089SOL     OW19165   5.983   3.540   0.359
 6089SOL    HW119166   5.919   3.480   0.407
 6089SOL    HW219167   5.936   3.625   0.334
 6090SOL     OW19168   0.486   5.789   3.863
 6090SOL    HW119169   0.568   5.840   3.839
 6090SOL    HW219170   0.459   5.730   3.787
 6091SOL     OW19171   6.339   2.224   1.130
 6091SOL    HW119172   6.273   2.188   1.196
 6091SOL    HW219173   6.303   2.309   1.091
 6092SOL     OW19174   1.898   3.123   0.779
 6092SOL    HW119175   1.988   3.155   0.748
 6092SOL    HW219176   1.883   3.029   0.748
 6093SOL     OW19177   1.191   3.860   0.697
 6093SOL    HW119178   1.145   3.796   0.757
 6093SOL    HW219179   1.186   3.828   0.603
 6094SOL     OW19180   0.700   0.880   0.880
 6094SOL    HW119181   0.767   0.843   0.815
 6094SOL    HW219182   0.659   0.963   0.843
 6095SOL     OW19183   6.398   3.982   5.386
 6095SOL    HW119184   6.309   4.028   5.388
 6095SOL    HW219185   6.395   3.901   5.443
 6096SOL     OW19186   4.453   1.445   2.695
 6096SOL    HW119187   4.530   1.469   2.753
 6096SOL    HW219188   4.456   1.348   2.673
 6097SOL     OW19189   3.161   1.613   2.205
 6097SOL    HW119190   3.144   1.680   2.133
 6097SOL    HW219191   3.255   1.578   2.197
 6098SOL     OW19192   1.481   1.074   6.530
 6098SOL    HW119193   1.481   1.026   6.617
 6098SOL    HW219194   1.526   1.163   6.540
 6099SOL     OW19195   5.877   4.563   5.217
 6099SOL    HW119196   5.825   4.589   5.135
 6099SOL    HW219197   5.840   4.611   5.296
 6100SOL     OW19198   6.957   2.024   0.101
 6100SOL    HW119199   6.927   1.939   0.059
 6100SOL    HW219200   6.881   2.066   0.151
 6101SOL     OW19201   5.890   0.130   3.702
 6101SOL    HW119202   5.792   0.109   3.708
 6101SOL    HW219203   5.923   0.160   3.792
 6102SOL     OW19204   2.902   0.223   5.111
 6102SOL    HW119205   2.835   0.285   5.150
 6102SOL    HW219206   2.855   0.150   5.061
 6103SOL     OW19207   6.081   1.131   5.508
 6103SOL    HW119208   6.057   1.035   5.528
 6103SOL    HW219209   6.051   1.189   5.584
 6104SOL     OW19210   1.527   3.572   0.960
 6104SOL    HW119211   1.459   3.507   0.994
 6104SOL    HW219212   1.599   3.583   1.029
 6105SOL     OW19213   3.538   4.946   4.556
 6105SOL    HW119214   3.448   4.920   4.522
 6105SOL    HW219215   3.587   4.996   4.485
 6106SOL     OW19216   3.209   4.906   3.993
 6106SOL    HW119217   3.193   4.893   3.895
 6106SOL    HW219218   3.307   4.904   4.011
 6107SOL     OW19219   2.182   4.917   5.669
 6107SOL    HW119220   2.197   4.973   5.751
 6107SOL    HW219221   2.113   4.848   5.688
 6108SOL     OW19222   5.919   1.475   4.553
 6108SOL    HW119223   5.894   1.571   4.538
 6108SOL    HW219224   5.900   1.422   4.470
 6109SOL     OW19225   6.515   4.338   1.675
 6109SOL    HW119226   6.473   4.253   1.643
 6109SOL    HW219227   6.444   4.398   1.713
 6110SOL     OW19228   3.478   2.123   3.221
 6110SOL    HW119229   3.526   2.149   3.137
 6110SOL    HW219230   3.431   2.036   3.207
 6111SOL     OW19231   0.363   4.591   3.185
 6111SOL    HW119232   0.348   4.551   3.095
 6111SOL    HW219233   0.454   4.566   3.219
 6112SOL     OW19234   1.078   2.270   1.300
 6112SOL    HW119235   1.123   2.287   1.212
 6112SOL    HW219236   1.141   2.293   1.374
 6113SOL     OW19237   1.931   5.262   5.483
 6113SOL    HW119238   1.939   5.236   5.387
 6113SOL    HW219239   1.915   5.181   5.539
 6114SOL     OW19240   5.585   5.358   1.134
 6114SOL    HW119241   5.521   5.416   1.183
 6114SOL    HW219242   5.549   5.336   1.043
 6115SOL     OW19243   6.609   4.260   2.036
 6115SOL    HW119244   6.651   4.243   1.947
 6115SOL    HW219245   6.514   4.229   2.035
 6116SOL     OW19246   3.473   2.001   1.048
 6116SOL    HW119247   3.560   1.967   1.082
 6116SOL    HW219248   3.426   2.052   1.120
 6117SOL     OW19249   5.713   6.765   3.630
 6117SOL    HW119250   5.777   6.765   3.707
 6117SOL    HW219251   5.650   6.842   3.639
 6118SOL     OW19252   6.364   0.545   3.004
 6118SOL    HW119253   6.312   0.460   3.018
 6118SOL    HW219254   6.336   0.613   3.072
 6119SOL     OW19255   6.085   5.647   3.978
 6119SOL    HW119256   6.083   5.554   3.941
 6119SOL    HW219257   6.179   5.675   3.993
 6120SOL     OW19258   2.746   1.514   3.438
 6120SOL    HW119259   2.672   1.554   3.384
 6120SOL    HW219260   2.831   1.563   3.418
 6121SOL     OW19261   6.749   1.976   4.455
 6121SOL    HW119262   6.700   1.922   4.386
 6121SOL    HW219263   6.686   2.038   4.501
 6122SOL     OW19264   4.484   6.232   4.084
 6122SOL    HW119265   4.543   6.175   4.026
 6122SOL    HW219266   4.451   6.177   4.162
 6123SOL     OW19267   6.407   1.653   2.392
 6123SOL    HW119268   6.358   1.734   2.360
 6123SOL    HW219269   6.342   1.577   2.405
 6124SOL     OW19270   2.679   0.372   5.152
 6124SOL    HW119271   2.629   0.371   5.065
 6124SOL    HW219272   2.614   0.361   5.228
 6125SOL     OW19273   0.902   5.151   2.311
 6125SOL    HW119274   0.903   5.066   2.257
 6125SOL    HW219275   0.970   5.144   2.384
 6126SOL     OW19276   4.060   5.785   1.987
 6126SOL    HW119277   4.024   5.853   2.051
 6126SOL    HW219278   4.063   5.824   1.895
 6127SOL     OW19279   2.082   4.970   1.857
 6127SOL    HW119280   2.110   4.891   1.802
 6127SOL    HW219281   2.163   5.017   1.892
 6128SOL     OW19282   5.077   3.322   1.276
 6128SOL    HW119283   5.122   3.396   1.225
 6128SOL    HW219284   5.146   3.255   1.305
 6129SOL     OW19285   6.173   4.061   3.566
 6129SOL    HW119286   6.212   4.110   3.488
 6129SOL    HW219287   6.173   4.121   3.646
 6130SOL     OW19288   5.337   4.681   2.320
 6130SOL    HW119289   5.319   4.774   2.350
 6130SOL    HW219290   5.421   4.679   2.265
 6131SOL     OW19291   6.473   1.390   5.214
 6131SOL    HW119292   6.427   1.315   5.262
 6131SOL    HW219293   6.539   1.433   5.275
 6132SOL     OW19294   6.773   2.612   0.430
 6132SOL    HW119295   6.679   2.634   0.454
 6132SOL    HW219296   6.781   2.514   0.410
 6133SOL     OW19297   1.087   4.480   0.721
 6133SOL    HW119298   1.057   4.575   0.713
 6133SOL    HW219299   1.141   4.470   0.805
 6134SOL     OW19300   4.252   3.513   0.068
 6134SOL    HW119301   4.303   3.468   7.011
 6134SOL    HW219302   4.313   3.527   0.147
 6135SOL     OW19303   5.650   0.387   2.963
 6135SOL    HW119304   5.655   0.317   3.034
 6135SOL    HW219305   5.741   0.423   2.944
 6136SOL     OW19306   0.334   1.663   2.476
 6136SOL    HW119307   0.432   1.680   2.486
 6136SOL    HW219308   0.296   1.633   2.563
 6137SOL     OW19309   3.181   6.544   5.939
 6137SOL    HW119310   3.182   6.465   5.878
 6137SOL    HW219311   3.252   6.608   5.912
 6138SOL     OW19312   5.248   0.370   3.132
 6138SOL    HW119313   5.166   0.340   3.181
 6138SOL    HW219314   5.312   0.293   3.125
 6139SOL     OW19315   2.224   5.638   3.091
 6139SOL    HW119316   2.204   5.541   3.097
 6139SOL    HW219317   2.310   5.658   3.138
 6140SOL     OW19318   1.133   5.306   1.088
 6140SOL    HW119319   1.050   5.355   1.061
 6140SOL    HW219320   1.112   5.241   1.161
 6141SOL     OW19321   6.830   5.807   6.026
 6141SOL    HW119322   6.808   5.881   6.089
 6141SOL    HW219323   6.929   5.798   6.019
 6142SOL     OW19324   0.890   4.084   3.212
 6142SOL    HW119325   0.944   4.000   3.216
 6142SOL    HW219326   0.927   4.144   3.141
 6143SOL     OW19327   6.609   4.089   6.536
 6143SOL    HW119328   6.628   4.050   6.626
 6143SOL    HW219329   6.523   4.140   6.539
 6144SOL     OW19330   6.970   4.538   4.313
 6144SOL    HW119331   6.901   4.583   4.369
 6144SOL    HW219332   7.016   4.607   4.256
 6145SOL     OW19333   5.708   5.526   3.411
 6145SOL    HW119334   5.734   5.621   3.392
 6145SOL    HW219335   5.630   5.501   3.353
 6146SOL     OW19336   5.593   2.675   3.298
 6146SOL    HW119337   5.647   2.597   3.330
 6146SOL    HW219338   5.498   2.647   3.282
 6147SOL     OW19339   0.989   3.983   2.828
 6147SOL    HW119340   1.029   3.929   2.902
 6147SOL    HW219341   1.017   3.945   2.740
 6148SOL     OW19342   6.321   5.476   3.167
 6148SOL    HW119343   6.328   5.391   3.219
 6148SOL    HW219344   6.225   5.498   3.150
 6149SOL     OW19345   1.745   6.259   4.587
 6149SOL    HW119346   1.750   6.307   4.500
 6149SOL    HW219347   1.794   6.312   4.657
 6150SOL     OW19348   4.392   5.759   6.233
 6150SOL    HW119349   4.476   5.797   6.196
 6150SOL    HW219350   4.342   5.831   6.283
 6151SOL     OW19351   4.600   0.313   5.651
 6151SOL    HW119352   4.624   0.295   5.556
 6151SOL    HW219353   4.610   0.229   5.705
 6152SOL     OW19354   6.965   4.771   5.121
 6152SOL    HW119355   7.003   4.752   5.212
 6152SOL    HW219356   6.879   4.819   5.131
 6153SOL     OW19357   4.688   4.578   6.754
 6153SOL    HW119358   4.662   4.630   6.836
 6153SOL    HW219359   4.618   4.508   6.736
 6154SOL     OW19360   5.072   2.890   3.528
 6154SOL    HW119361   5.156   2.889   3.474
 6154SOL    HW219362   5.086   2.944   3.610
 6155SOL     OW19363   2.223   4.517   4.126
 6155SOL    HW119364   2.177   4.430   4.144
 6155SOL    HW219365   2.321   4.501   4.115
 6156SOL     OW19366   6.148   0.870   4.625
 6156SOL    HW119367   6.088   0.849   4.702
 6156SOL    HW219368   6.218   0.935   4.655
 6157SOL     OW19369   1.032   1.294   3.507
 6157SOL    HW119370   1.024   1.195   3.495
 6157SOL    HW219371   1.029   1.315   3.605
 6158SOL     OW19372   5.153   6.985   0.279
 6158SOL    HW119373   5.237   0.017   0.255
 6158SOL    HW219374   5.129   7.007   0.374
 6159SOL     OW19375   5.445   3.413   6.696
 6159SOL    HW119376   5.439   3.319   6.730
 6159SOL    HW219377   5.355   3.444   6.666
 6160SOL     OW19378   6.570   4.846   0.876
 6160SOL    HW119379   6.524   4.888   0.798
 6160SOL    HW219380   6.658   4.892   0.891
 6161SOL     OW19381   5.734   0.205   6.606
 6161SOL    HW119382   5.774   0.117   6.630
 6161SOL    HW219383   5.746   0.270   6.681
 6162SOL     OW19384   5.716   5.207   4.462
 6162SOL    HW119385   5.752   5.114   4.465
 6162SOL    HW219386   5.791   5.271   4.449
 6163SOL     OW19387   6.726   4.067   1.827
 6163SOL    HW119388   6.644   4.031   1.783
 6163SOL    HW219389   6.755   4.004   1.900
 6164SOL     OW19390   4.732   2.522   0.761
 6164SOL    HW119391   4.799   2.530   0.688
 6164SOL    HW219392   4.748   2.438   0.812
 6165SOL     OW19393   4.080   0.343   1.465
 6165SOL    HW119394   4.034   0.378   1.547
 6165SOL    HW219395   4.098   0.419   1.402
 6166SOL     OW19396   3.816   1.530   0.286
 6166SOL    HW119397   3.816   1.612   0.343
 6166SOL    HW219398   3.818   1.557   0.190
 6167SOL     OW19399   6.995   5.199   3.369
 6167SOL    HW119400   0.025   5.282   3.339
 6167SOL    HW219401   6.981   5.202   3.468
 6168SOL     OW19402   0.829   2.884   0.927
 6168SOL    HW119403   0.756   2.924   0.982
 6168SOL    HW219404   0.869   2.807   0.976
 6169SOL     OW19405   1.863   4.609   1.643
 6169SOL    HW119406   1.911   4.569   1.721
 6169SOL    HW219407   1.887   4.557   1.560
 6170SOL     OW19408   6.795   1.970   3.834
 6170SOL    HW119409   6.760   2.023   3.757
 6170SOL    HW219410   6.731   1.895   3.855
 6171SOL     OW19411   5.930   0.958   5.995
 6171SOL    HW119412   5.869   0.939   5.919
 6171SOL    HW219413   5.960   0.872   6.037
 6172SOL     OW19414   1.202   4.413   4.128
 6172SOL    HW119415   1.129   4.346   4.112
 6172SOL    HW219416   1.164   4.493   4.174
 6173SOL     OW19417   5.895   5.877   3.017
 6173SOL    HW119418   5.878   5.794   2.963
 6173SOL    HW219419   5.814   5.935   3.014
 6174SOL     OW19420   6.545   2.719   2.710
 6174SOL    HW119421   6.522   2.682   2.620
 6174SOL    HW219422   6.541   2.819   2.707
 6175SOL     OW19423   3.827   1.892   0.072
 6175SOL    HW119424   3.887   1.893   0.152
 6175SOL    HW219425   3.870   1.839   7.015
 6176SOL     OW19426   3.017   3.466   5.840
 6176SOL    HW119427   2.990   3.559   5.813
 6176SOL    HW219428   3.117   3.460   5.842
 6177SOL     OW19429   5.819   5.626   1.337
 6177SOL    HW119430   5.833   5.676   1.422
 6177SOL    HW219431   5.847   5.530   1.349
 6178SOL     OW19432   4.229   4.880   1.838
 6178SOL    HW119433   4.275   4.805   1.884
 6178SOL    HW219434   4.163   4.843   1.772
 6179SOL     OW19435   5.704   5.077   4.866
 6179SOL    HW119436   5.662   5.168   4.868
 6179SOL    HW219437   5.801   5.084   4.843
 6180SOL     OW19438   2.438   4.056   6.416
 6180SOL    HW119439   2.370   4.100   6.357
 6180SOL    HW219440   2.528   4.061   6.374
 6181SOL     OW19441   6.055   6.440   0.036
 6181SOL    HW119442   5.977   6.411   6.997
 6181SOL    HW219443   6.131   6.463   6.993
 6182SOL     OW19444   2.950   2.668   6.449
 6182SOL    HW119445   2.949   2.711   6.539
 6182SOL    HW219446   2.874   2.703   6.395
 6183SOL     OW19447   0.144   0.543   0.881
 6183SOL    HW119448   0.149   0.609   0.956
 6183SOL    HW219449   0.127   0.591   0.795
 6184SOL     OW19450   3.233   6.431   5.165
 6184SOL    HW119451   3.286   6.487   5.102
 6184SOL    HW219452   3.222   6.339   5.128
 6185SOL     OW19453   3.825   3.305   5.321
 6185SOL    HW119454   3.866   3.388   5.284
 6185SOL    HW219455   3.812   3.239   5.247
 6186SOL     OW19456   1.048   1.788   2.814
 6186SOL    HW119457   1.140   1.788   2.853
 6186SOL    HW219458   1.015   1.883   2.805
 6187SOL     OW19459   2.800   2.101   6.172
 6187SOL    HW119460   2.764   2.182   6.218
 6187SOL    HW219461   2.787   2.021   6.229
 6188SOL     OW19462   2.206   1.425   5.609
 6188SOL    HW119463   2.227   1.333   5.574
 6188SOL    HW219464   2.286   1.461   5.657
 6189SOL     OW19465   6.698   5.258   0.545
 6189SOL    HW119466   6.672   5.169   0.507
 6189SOL    HW219467   6.717   5.321   0.470
 6190SOL     OW19468   0.249   3.148   3.838
 6190SOL    HW119469   0.204   3.119   3.753
 6190SOL    HW219470   0.221   3.241   3.860
 6191SOL     OW19471   2.335   3.900   0.878
 6191SOL    HW119472   2.374   3.879   0.788
 6191SOL    HW219473   2.326   3.815   0.930
 6192SOL     OW19474   2.697   1.524   1.360
 6192SOL    HW119475   2.702   1.425   1.365
 6192SOL    HW219476   2.773   1.564   1.411
 6193SOL     OW19477   3.974   6.093   0.139
 6193SOL    HW119478   3.956   6.011   0.085
 6193SOL    HW219479   3.909   6.165   0.114
 6194SOL     OW19480   5.494   6.874   6.344
 6194SOL    HW119481   5.413   6.919   6.382
 6194SOL    HW219482   5.503   6.896   6.247
 6195SOL     OW19483   5.077   6.182   6.079
 6195SOL    HW119484   5.079   6.159   6.176
 6195SOL    HW219485   5.132   6.117   6.028
 6196SOL     OW19486   5.942   3.346   3.375
 6196SOL    HW119487   5.938   3.317   3.280
 6196SOL    HW219488   5.971   3.269   3.433
 6197SOL     OW19489   0.937   5.495   1.033
 6197SOL    HW119490   0.986   5.577   1.005
 6197SOL    HW219491   0.874   5.467   0.961
 6198SOL     OW19492   5.629   1.306   6.450
 6198SOL    HW119493   5.649   1.368   6.374
 6198SOL    HW219494   5.611   1.214   6.414
 6199SOL     OW19495   2.083   6.713   6.169
 6199SOL    HW119496   2.027   6.667   6.237
 6199SOL    HW219497   2.067   6.812   6.174
 6200SOL     OW19498   1.396   0.720   0.705
 6200SOL    HW119499   1.376   0.684   0.614
 6200SOL    HW219500   1.494   0.715   0.722
 6201SOL     OW19501   0.605   4.791   3.302
 6201SOL    HW119502   0.611   4.713   3.239
 6201SOL    HW219503   0.521   4.842   3.283
 6202SOL     OW19504   5.854   0.642   2.364
 6202SOL    HW119505   5.885   0.720   2.418
 6202SOL    HW219506   5.755   0.633   2.372
 6203SOL     OW19507   6.194   0.365   1.978
 6203SOL    HW119508   6.238   0.280   1.947
 6203SOL    HW219509   6.096   0.349   1.992
 6204SOL     OW19510   1.297   5.753   5.050
 6204SOL    HW119511   1.241   5.680   5.011
 6204SOL    HW219512   1.278   5.839   5.002
 6205SOL     OW19513   6.067   4.883   3.487
 6205SOL    HW119514   6.002   4.830   3.541
 6205SOL    HW219515   6.149   4.900   3.542
 6206SOL     OW19516   5.729   2.042   3.474
 6206SOL    HW119517   5.723   2.049   3.573
 6206SOL    HW219518   5.642   2.068   3.432
 6207SOL     OW19519   1.550   5.668   3.680
 6207SOL    HW119520   1.611   5.620   3.743
 6207SOL    HW219521   1.564   5.767   3.689
 6208SOL     OW19522   4.145   4.338   6.357
 6208SOL    HW119523   4.060   4.381   6.326
 6208SOL    HW219524   4.149   4.244   6.324
 6209SOL     OW19525   3.828   1.374   1.775
 6209SOL    HW119526   3.860   1.371   1.870
 6209SOL    HW219527   3.739   1.329   1.769
 6210SOL     OW19528   5.736   1.101   4.350
 6210SOL    HW119529   5.681   1.099   4.433
 6210SOL    HW219530   5.754   1.008   4.319
 6211SOL     OW19531   5.380   3.335   5.208
 6211SOL    HW119532   5.381   3.236   5.196
 6211SOL    HW219533   5.323   3.376   5.137
 6212SOL     OW19534   5.502   4.247   4.982
 6212SOL    HW119535   5.446   4.167   5.004
 6212SOL    HW219536   5.451   4.308   4.921
 6213SOL     OW19537   4.523   6.075   0.373
 6213SOL    HW119538   4.476   5.993   0.340
 6213SOL    HW219539   4.555   6.128   0.295
 6214SOL     OW19540   6.172   0.061   6.904
 6214SOL    HW119541   6.115   0.086   6.983
 6214SOL    HW219542   6.265   0.043   6.934
 6215SOL     OW19543   5.916   2.074   5.644
 6215SOL    HW119544   5.962   2.162   5.658
 6215SOL    HW219545   5.923   2.047   5.548
 6216SOL     OW19546   4.691   1.692   5.179
 6216SOL    HW119547   4.613   1.630   5.176
 6216SOL    HW219548   4.671   1.768   5.241
 6217SOL     OW19549   0.505   4.235   2.188
 6217SOL    HW119550   0.497   4.249   2.286
 6217SOL    HW219551   0.451   4.303   2.140
 6218SOL     OW19552   4.493   6.464   1.017
 6218SOL    HW119553   4.549   6.459   0.935
 6218SOL    HW219554   4.546   6.431   1.095
 6219SOL     OW19555   2.140   0.401   6.997
 6219SOL    HW119556   2.116   0.309   0.009
 6219SOL    HW219557   2.193   0.398   6.913
 6220SOL     OW19558   3.432   6.835   1.427
 6220SOL    HW119559   3.477   6.813   1.340
 6220SOL    HW219560   3.334   6.819   1.420
 6221SOL     OW19561   4.613   5.368   5.916
 6221SOL    HW119562   4.643   5.422   5.994
 6221SOL    HW219563   4.535   5.413   5.872
 6222SOL     OW19564   6.700   1.398   2.259
 6222SOL    HW119565   6.727   1.372   2.166
 6222SOL    HW219566   6.690   1.498   2.264
 6223SOL     OW19567   6.692   4.665   4.411
 6223SOL    HW119568   6.621   4.599   4.386
 6223SOL    HW219569   6.720   4.716   4.329
 6224SOL     OW19570   3.277   6.572   0.035
 6224SOL    HW119571   3.181   6.545   0.028
 6224SOL    HW219572   3.286   6.668   0.007
 6225SOL     OW19573   4.758   6.450   6.324
 6225SOL    HW119574   4.695   6.407   6.259
 6225SOL    HW219575   4.706   6.489   6.400
 6226SOL     OW19576   0.889   1.006   3.799
 6226SOL    HW119577   0.805   0.974   3.843
 6226SOL    HW219578   0.968   0.976   3.852
 6227SOL     OW19579   2.783   4.976   5.742
 6227SOL    HW119580   2.717   5.051   5.736
 6227SOL    HW219581   2.856   5.001   5.805
 6228SOL     OW19582   0.968   3.366   3.471
 6228SOL    HW119583   0.915   3.362   3.556
 6228SOL    HW219584   0.991   3.461   3.450
 6229SOL     OW19585   0.320   4.172   4.103
 6229SOL    HW119586   0.403   4.222   4.077
 6229SOL    HW219587   0.343   4.076   4.119
 6230SOL     OW19588   0.719   0.927   1.485
 6230SOL    HW119589   0.745   1.008   1.432
 6230SOL    HW219590   0.771   0.925   1.571
 6231SOL     OW19591   2.434   5.336   5.782
 6231SOL    HW119592   2.444   5.251   5.731
 6231SOL    HW219593   2.473   5.411   5.728
 6232SOL     OW19594   4.416   0.361   6.455
 6232SOL    HW119595   4.449   0.355   6.361
 6232SOL    HW219596   4.367   0.448   6.467
 6233SOL     OW19597   6.974   3.452   0.898
 6233SOL    HW119598   0.052   3.472   0.926
 6233SOL    HW219599   6.976   3.408   0.808
 6234SOL     OW19600   5.096   5.233   4.229
 6234SOL    HW119601   5.178   5.194   4.187
 6234SOL    HW219602   5.070   5.178   4.308
 6235SOL     OW19603   0.669   1.042   2.198
 6235SOL    HW119604   0.768   1.038   2.192
 6235SOL    HW219605   0.629   1.024   2.108
 6236SOL     OW19606   6.236   5.906   1.236
 6236SOL    HW119607   6.229   5.978   1.168
 6236SOL    HW219608   6.313   5.925   1.297
 6237SOL     OW19609   3.435   1.087   2.281
 6237SOL    HW119610   3.421   0.991   2.256
 6237SOL    HW219611   3.386   1.107   2.366
 6238SOL     OW19612   2.260   1.117   3.516
 6238SOL    HW119613   2.270   1.025   3.553
 6238SOL    HW219614   2.347   1.165   3.520
 6239SOL     OW19615   4.608   1.653   4.298
 6239SOL    HW119616   4.584   1.698   4.384
 6239SOL    HW219617   4.617   1.722   4.226
 6240SOL     OW19618   4.131   3.447   4.107
 6240SOL    HW119619   4.152   3.454   4.010
 6240SOL    HW219620   4.073   3.367   4.123
 6241SOL     OW19621   3.758   0.158   3.378
 6241SOL    HW119622   3.834   0.139   3.440
 6241SOL    HW219623   3.727   0.252   3.391
 6242SOL     OW19624   3.352   2.078   4.166
 6242SOL    HW119625   3.447   2.057   4.145
 6242SOL    HW219626   3.296   1.996   4.158
 6243SOL     OW19627   4.101   1.407   6.980
 6243SOL    HW119628   4.005   1.390   7.006
 6243SOL    HW219629   4.159   1.338   0.007
 6244SOL     OW19630   4.474   2.700   1.734
 6244SOL    HW119631   4.554   2.746   1.771
 6244SOL    HW219632   4.457   2.731   1.640
 6245SOL     OW19633   0.126   5.224   2.147
 6245SOL    HW119634   0.054   5.234   2.215
 6245SOL    HW219635   0.175   5.138   2.162
 6246SOL     OW19636   0.400   6.630   4.891
 6246SOL    HW119637   0.474   6.681   4.848
 6246SOL    HW219638   0.392   6.540   4.849
 6247SOL     OW19639   5.832   5.464   2.983
 6247SOL    HW119640   5.759   5.408   3.022
 6247SOL    HW219641   5.879   5.411   2.911
 6248SOL     OW19642   4.286   2.787   5.798
 6248SOL    HW119643   4.337   2.861   5.755
 6248SOL    HW219644   4.326   2.766   5.887
 6249SOL     OW19645   5.788   3.711   3.398
 6249SOL    HW119646   5.743   3.672   3.318
 6249SOL    HW219647   5.797   3.810   3.387
 6250SOL     OW19648   5.498   6.943   6.087
 6250SOL    HW119649   5.560   6.869   6.060
 6250SOL    HW219650   5.491   7.009   6.012
 6251SOL     OW19651   2.962   0.710   4.481
 6251SOL    HW119652   2.969   0.801   4.440
 6251SOL    HW219653   2.972   0.717   4.580
 6252SOL     OW19654   2.701   5.340   0.313
 6252SOL    HW119655   2.618   5.374   0.358
 6252SOL    HW219656   2.725   5.250   0.349
 6253SOL     OW19657   5.015   6.221   3.908
 6253SOL    HW119658   4.973   6.160   3.975
 6253SOL    HW219659   5.011   6.315   3.941
 6254SOL     OW19660   0.259   0.088   1.571
 6254SOL    HW119661   0.284   0.182   1.595
 6254SOL    HW219662   0.177   0.089   1.513
 6255SOL     OW19663   1.696   1.516   0.751
 6255SOL    HW119664   1.730   1.453   0.681
 6255SOL    HW219665   1.609   1.555   0.722
 6256SOL     OW19666   6.176   5.471   2.044
 6256SOL    HW119667   6.140   5.491   2.135
 6256SOL    HW219668   6.182   5.372   2.032
 6257SOL     OW19669   3.480   3.756   0.990
 6257SOL    HW119670   3.449   3.812   1.067
 6257SOL    HW219671   3.562   3.706   1.016
 6258SOL     OW19672   4.160   5.144   4.868
 6258SOL    HW119673   4.196   5.097   4.787
 6258SOL    HW219674   4.072   5.103   4.894
 6259SOL     OW19675   3.987   0.841   4.919
 6259SOL    HW119676   3.945   0.879   5.002
 6259SOL    HW219677   3.931   0.765   4.886
 6260SOL     OW19678   2.783   2.009   0.934
 6260SOL    HW119679   2.785   1.964   1.023
 6260SOL    HW219680   2.696   1.989   0.888
 6261SOL     OW19681   3.696   6.985   0.897
 6261SOL    HW119682   3.608   7.004   0.855
 6261SOL    HW219683   3.715   0.035   0.969
 6262SOL     OW19684   6.160   1.041   2.372
 6262SOL    HW119685   6.140   1.025   2.275
 6262SOL    HW219686   6.092   1.104   2.410
 6263SOL     OW19687   6.051   6.054   6.191
 6263SOL    HW119688   6.044   6.052   6.291
 6263SOL    HW219689   6.129   6.112   6.164
 6264SOL     OW19690   1.487   6.131   0.233
 6264SOL    HW119691   1.426   6.088   0.167
 6264SOL    HW219692   1.540   6.061   0.281
 6265SOL     OW19693   3.420   6.935   6.714
 6265SOL    HW119694   3.451   6.896   6.627
 6265SOL    HW219695   3.487   7.003   6.745
 6266SOL     OW19696   3.783   5.122   3.164
 6266SOL    HW119697   3.748   5.123   3.258
 6266SOL    HW219698   3.740   5.047   3.113
 6267SOL     OW19699   0.647   6.250   4.335
 6267SOL    HW119700   0.746   6.234   4.328
 6267SOL    HW219701   0.605   6.173   4.383
 6268SOL     OW19702   3.453   1.606   1.170
 6268SOL    HW119703   3.437   1.519   1.216
 6268SOL    HW219704   3.366   1.655   1.161
 6269SOL     OW19705   6.675   6.154   6.863
 6269SOL    HW119706   6.732   6.073   6.849
 6269SOL    HW219707   6.701   6.224   6.796
 6270SOL     OW19708   1.424   6.142   0.928
 6270SOL    HW119709   1.433   6.220   0.990
 6270SOL    HW219710   1.368   6.168   0.850
 6271SOL     OW19711   6.815   2.959   6.555
 6271SOL    HW119712   6.862   3.033   6.508
 6271SOL    HW219713   6.882   2.904   6.605
 6272SOL     OW19714   0.473   1.661   6.776
 6272SOL    HW119715   0.427   1.750   6.770
 6272SOL    HW219716   0.491   1.641   6.873
 6273SOL     OW19717   0.244   6.169   3.065
 6273SOL    HW119718   0.330   6.198   3.023
 6273SOL    HW219719   0.180   6.140   2.994
 6274SOL     OW19720   2.828   5.912   3.781
 6274SOL    HW119721   2.917   5.952   3.759
 6274SOL    HW219722   2.833   5.812   3.769
 6275SOL     OW19723   2.304   5.876   0.050
 6275SOL    HW119724   2.313   5.949   6.999
 6275SOL    HW219725   2.378   5.809   0.037
 6276SOL     OW19726   2.053   5.306   2.520
 6276SOL    HW119727   2.054   5.266   2.611
 6276SOL    HW219728   2.147   5.322   2.489
 6277SOL     OW19729   4.933   2.393   1.333
 6277SOL    HW119730   4.997   2.436   1.397
 6277SOL    HW219731   4.873   2.462   1.294
 6278SOL     OW19732   4.075   2.522   0.534
 6278SOL    HW119733   4.155   2.537   0.591
 6278SOL    HW219734   4.007   2.468   0.584
 6279SOL     OW19735   2.486   6.627   2.043
 6279SOL    HW119736   2.443   6.540   2.066
 6279SOL    HW219737   2.475   6.691   2.119
 6280SOL     OW19738   5.348   1.545   5.938
 6280SOL    HW119739   5.411   1.609   5.894
 6280SOL    HW219740   5.263   1.593   5.961
 6281SOL     OW19741   5.354   4.222   6.108
 6281SOL    HW119742   5.417   4.299   6.118
 6281SOL    HW219743   5.384   4.164   6.032
 6282SOL     OW19744   0.825   3.535   5.526
 6282SOL    HW119745   0.839   3.439   5.551
 6282SOL    HW219746   0.895   3.591   5.570
 6283SOL     OW19747   2.783   0.169   4.378
 6283SOL    HW119748   2.689   0.200   4.366
 6283SOL    HW219749   2.845   0.233   4.334
 6284SOL     OW19750   1.526   2.708   5.556
 6284SOL    HW119751   1.604   2.647   5.541
 6284SOL    HW219752   1.490   2.738   5.467
 6285SOL     OW19753   1.350   3.437   2.792
 6285SOL    HW119754   1.376   3.443   2.888
 6285SOL    HW219755   1.420   3.479   2.735
 6286SOL     OW19756   0.654   2.431   6.715
 6286SOL    HW119757   0.599   2.411   6.796
 6286SOL    HW219758   0.690   2.345   6.677
 6287SOL     OW19759   4.590   4.626   4.633
 6287SOL    HW119760   4.491   4.639   4.639
 6287SOL    HW219761   4.634   4.714   4.613
 6288SOL     OW19762   2.865   3.375   6.193
 6288SOL    HW119763   2.904   3.283   6.194
 6288SOL    HW219764   2.774   3.372   6.152
 6289SOL     OW19765   2.219   4.528   4.434
 6289SOL    HW119766   2.272   4.459   4.483
 6289SOL    HW219767   2.279   4.575   4.369
 6290SOL     OW19768   6.184   6.781   3.672
 6290SOL    HW119769   6.155   6.769   3.577
 6290SOL    HW219770   6.198   6.879   3.690
 6291SOL     OW19771   3.638   3.403   1.806
 6291SOL    HW119772   3.675   3.452   1.727
 6291SOL    HW219773   3.706   3.403   1.879
 6292SOL     OW19774   1.537   4.686   5.035
 6292SOL    HW119775   1.550   4.678   4.936
 6292SOL    HW219776   1.545   4.781   5.063
 6293SOL     OW19777   2.976   1.284   6.263
 6293SOL    HW119778   2.916   1.361   6.242
 6293SOL    HW219779   2.924   1.212   6.309
 6294SOL     OW19780   1.794   1.324   2.482
 6294SOL    HW119781   1.820   1.274   2.400
 6294SOL    HW219782   1.875   1.338   2.539
 6295SOL     OW19783   4.355   3.553   6.654
 6295SOL    HW119784   4.429   3.503   6.609
 6295SOL    HW219785   4.315   3.618   6.590
 6296SOL     OW19786   0.862   2.820   0.059
 6296SOL    HW119787   0.782   2.807   7.016
 6296SOL    HW219788   0.840   2.886   0.131
 6297SOL     OW19789   6.405   1.247   4.056
 6297SOL    HW119790   6.332   1.181   4.074
 6297SOL    HW219791   6.437   1.236   3.962
 6298SOL     OW19792   0.195   6.698   0.470
 6298SOL    HW119793   0.165   6.769   0.407
 6298SOL    HW219794   0.295   6.699   0.477
 6299SOL     OW19795   3.736   2.130   3.984
 6299SOL    HW119796   3.697   2.042   4.009
 6299SOL    HW219797   3.711   2.151   3.889
 6300SOL     OW19798   3.004   2.135   1.039
 6300SOL    HW119799   2.931   2.109   0.975
 6300SOL    HW219800   3.082   2.170   0.987
 6301SOL     OW19801   3.420   6.186   0.192
 6301SOL    HW119802   3.414   6.201   0.290
 6301SOL    HW219803   3.411   6.088   0.172
 6302SOL     OW19804   1.254   3.476   0.530
 6302SOL    HW119805   1.271   3.407   0.460
 6302SOL    HW219806   1.341   3.499   0.575
 6303SOL     OW19807   6.785   4.835   4.216
 6303SOL    HW119808   6.738   4.794   4.138
 6303SOL    HW219809   6.874   4.869   4.187
 6304SOL     OW19810   2.667   0.911   3.991
 6304SOL    HW119811   2.618   0.904   4.078
 6304SOL    HW219812   2.753   0.861   3.997
 6305SOL     OW19813   0.516   5.758   5.781
 6305SOL    HW119814   0.419   5.779   5.795
 6305SOL    HW219815   0.526   5.661   5.757
 6306SOL     OW19816   0.613   4.416   4.613
 6306SOL    HW119817   0.591   4.391   4.708
 6306SOL    HW219818   0.630   4.333   4.560
 6307SOL     OW19819   3.186   3.053   2.784
 6307SOL    HW119820   3.190   3.019   2.690
 6307SOL    HW219821   3.108   3.114   2.794
 6308SOL     OW19822   0.990   1.998   1.087
 6308SOL    HW119823   0.934   2.073   1.122
 6308SOL    HW219824   0.955   1.969   0.998
 6309SOL     OW19825   1.866   5.998   4.510
 6309SOL    HW119826   1.804   6.059   4.559
 6309SOL    HW219827   1.898   5.926   4.572
 6310SOL     OW19828   0.402   6.879   3.655
 6310SOL    HW119829   0.317   6.871   3.604
 6310SOL    HW219830   0.438   6.972   3.647
 6311SOL     OW19831   6.326   1.234   6.481
 6311SOL    HW119832   6.227   1.241   6.474
 6311SOL    HW219833   6.369   1.299   6.418
 6312SOL     OW19834   3.075   5.645   1.024
 6312SOL    HW119835   3.122   5.616   1.108
 6312SOL    HW219836   3.142   5.681   0.960
 6313SOL     OW19837   5.717   5.032   4.021
 6313SOL    HW119838   5.669   5.021   3.934
 6313SOL    HW219839   5.731   5.130   4.039
 6314SOL     OW19840   2.095   6.583   3.152
 6314SOL    HW119841   2.137   6.670   3.127
 6314SOL    HW219842   2.037   6.596   3.232
 6315SOL     OW19843   2.418   2.078   3.775
 6315SOL    HW119844   2.398   2.070   3.873
 6315SOL    HW219845   2.478   2.003   3.747
 6316SOL     OW19846   4.499   0.422   5.222
 6316SOL    HW119847   4.515   0.433   5.124
 6316SOL    HW219848   4.583   0.444   5.272
 6317SOL     OW19849   4.648   4.705   2.746
 6317SOL    HW119850   4.737   4.660   2.750
 6317SOL    HW219851   4.633   4.741   2.654
 6318SOL     OW19852   6.696   0.023   0.369
 6318SOL    HW119853   6.622   0.058   0.426
 6318SOL    HW219854   6.758   6.984   0.424
 6319SOL     OW19855   4.867   2.598   4.682
 6319SOL    HW119856   4.770   2.584   4.663
 6319SOL    HW219857   4.893   2.690   4.652
 6320SOL     OW19858   6.386   1.781   6.258
 6320SOL    HW119859   6.347   1.865   6.220
 6320SOL    HW219860   6.396   1.713   6.185
 6321SOL     OW19861   0.861   3.048   0.634
 6321SOL    HW119862   0.886   3.002   0.719
 6321SOL    HW219863   0.941   3.097   0.598
 6322SOL     OW19864   1.728   1.809   3.134
 6322SOL    HW119865   1.679   1.881   3.085
 6322SOL    HW219866   1.735   1.728   3.076
 6323SOL     OW19867   1.963   5.405   1.184
 6323SOL    HW119868   2.007   5.477   1.131
 6323SOL    HW219869   2.032   5.358   1.239
 6324SOL     OW19870   4.761   2.956   1.256
 6324SOL    HW119871   4.813   2.871   1.265
 6324SOL    HW219872   4.780   2.997   1.167
 6325SOL     OW19873   1.262   3.512   3.218
 6325SOL    HW119874   1.170   3.547   3.238
 6325SOL    HW219875   1.270   3.419   3.252
 6326SOL     OW19876   4.987   5.085   5.324
 6326SOL    HW119877   5.015   5.180   5.310
 6326SOL    HW219878   5.065   5.032   5.357
 6327SOL     OW19879   0.806   1.085   3.143
 6327SOL    HW119880   0.763   1.014   3.088
 6327SOL    HW219881   0.905   1.074   3.142
 6328SOL     OW19882   4.023   3.539   5.354
 6328SOL    HW119883   3.968   3.553   5.272
 6328SOL    HW219884   4.120   3.550   5.332
 6329SOL     OW19885   0.424   2.699   5.619
 6329SOL    HW119886   0.393   2.609   5.586
 6329SOL    HW219887   0.451   2.755   5.541
 6330SOL     OW19888   4.410   2.070   3.801
 6330SOL    HW119889   4.488   2.016   3.768
 6330SOL    HW219890   4.326   2.016   3.793
 6331SOL     OW19891   1.364   3.718   3.917
 6331SOL    HW119892   1.439   3.739   3.855
 6331SOL    HW219893   1.341   3.800   3.970
 6332SOL     OW19894   4.081   1.581   0.469
 6332SOL    HW119895   4.039   1.523   0.400
 6332SOL    HW219896   4.140   1.525   0.528
 6333SOL     OW19897   5.501   0.601   0.529
 6333SOL    HW119898   5.480   0.657   0.449
 6333SOL    HW219899   5.559   0.652   0.592
 6334SOL     OW19900   2.173   1.082   1.962
 6334SOL    HW119901   2.189   0.993   1.920
 6334SOL    HW219902   2.145   1.148   1.892
 6335SOL     OW19903   6.903   3.272   6.302
 6335SOL    HW119904   6.891   3.270   6.401
 6335SOL    HW219905   6.816   3.250   6.257
 6336SOL     OW19906   1.163   4.478   5.623
 6336SOL    HW119907   1.185   4.532   5.542
 6336SOL    HW219908   1.070   4.443   5.615
 6337SOL     OW19909   6.258   6.963   4.848
 6337SOL    HW119910   6.275   6.989   4.753
 6337SOL    HW219911   6.318   7.015   4.908
 6338SOL     OW19912   0.912   0.618   3.161
 6338SOL    HW119913   0.833   0.582   3.111
 6338SOL    HW219914   0.948   0.698   3.114
 6339SOL     OW19915   0.380   3.462   3.133
 6339SOL    HW119916   0.380   3.562   3.120
 6339SOL    HW219917   0.400   3.441   3.228
 6340SOL     OW19918   2.830   5.126   6.863
 6340SOL    HW119919   2.884   5.046   6.838
 6340SOL    HW219920   2.852   5.202   6.801
 6341SOL     OW19921   0.435   4.643   2.452
 6341SOL    HW119922   0.354   4.659   2.508
 6341SOL    HW219923   0.493   4.724   2.453
 6342SOL     OW19924   2.215   0.892   1.741
 6342SOL    HW119925   2.235   0.961   1.671
 6342SOL    HW219926   2.174   0.812   1.698
 6343SOL     OW19927   1.469   5.679   6.967
 6343SOL    HW119928   1.403   5.616   7.009
 6343SOL    HW219929   1.446   5.773   6.992
 6344SOL     OW19930   1.263   1.312   4.772
 6344SOL    HW119931   1.317   1.322   4.688
 6344SOL    HW219932   1.197   1.238   4.761
 6345SOL     OW19933   6.200   2.959   2.522
 6345SOL    HW119934   6.206   3.023   2.446
 6345SOL    HW219935   6.217   2.866   2.489
 6346SOL     OW19936   0.412   4.520   4.891
 6346SOL    HW119937   0.405   4.554   4.797
 6346SOL    HW219938   0.329   4.545   4.941
 6347SOL     OW19939   2.298   2.289   3.629
 6347SOL    HW119940   2.259   2.352   3.696
 6347SOL    HW219941   2.319   2.201   3.672
 6348SOL     OW19942   0.954   2.477   6.696
 6348SOL    HW119943   1.015   2.452   6.620
 6348SOL    HW219944   0.861   2.488   6.662
 6349SOL     OW19945   5.419   0.651   1.006
 6349SOL    HW119946   5.408   0.743   0.967
 6349SOL    HW219947   5.459   0.659   1.098
 6350SOL     OW19948   0.515   6.075   0.940
 6350SOL    HW119949   0.554   6.042   0.854
 6350SOL    HW219950   0.432   6.128   0.921
 6351SOL     OW19951   5.928   2.872   1.966
 6351SOL    HW119952   5.911   2.774   1.976
 6351SOL    HW219953   5.994   2.886   1.892
 6352SOL     OW19954   4.134   0.595   4.200
 6352SOL    HW119955   4.185   0.510   4.206
 6352SOL    HW219956   4.188   0.669   4.240
 6353SOL     OW19957   3.406   6.713   5.579
 6353SOL    HW119958   3.421   6.773   5.500
 6353SOL    HW219959   3.457   6.748   5.658
 6354SOL     OW19960   5.404   4.925   2.488
 6354SOL    HW119961   5.418   4.887   2.579
 6354SOL    HW219962   5.493   4.945   2.446
 6355SOL     OW19963   3.967   6.100   0.514
 6355SOL    HW119964   3.907   6.107   0.593
 6355SOL    HW219965   4.063   6.103   0.544
 6356SOL     OW19966   6.598   6.438   6.102
 6356SOL    HW119967   6.624   6.468   6.194
 6356SOL    HW219968   6.678   6.400   6.056
 6357SOL     OW19969   4.749   1.825   2.918
 6357SOL    HW119970   4.741   1.726   2.907
 6357SOL    HW219971   4.758   1.868   2.829
 6358SOL     OW19972   1.386   1.782   4.217
 6358SOL    HW119973   1.326   1.860   4.232
 6358SOL    HW219974   1.434   1.792   4.130
 6359SOL     OW19975   5.886   5.110   1.005
 6359SOL    HW119976   5.858   5.112   1.101
 6359SOL    HW219977   5.883   5.203   0.968
 6360SOL     OW19978   1.930   2.682   0.877
 6360SOL    HW119979   1.957   2.773   0.845
 6360SOL    HW219980   1.995   2.614   0.844
 6361SOL     OW19981   0.615   2.171   2.056
 6361SOL    HW119982   0.682   2.219   2.113
 6361SOL    HW219983   0.534   2.228   2.045
 6362SOL     OW19984   1.525   5.285   0.471
 6362SOL    HW119985   1.435   5.248   0.449
 6362SOL    HW219986   1.594   5.213   0.463
 6363SOL     OW19987   0.780   2.939   2.006
 6363SOL    HW119988   0.843   2.995   2.059
 6363SOL    HW219989   0.687   2.976   2.015
 6364SOL     OW19990   3.112   1.436   3.884
 6364SOL    HW119991   3.070   1.394   3.803
 6364SOL    HW219992   3.078   1.530   3.894
 6365SOL     OW19993   6.351   6.962   2.930
 6365SOL    HW119994   6.372   0.012   3.002
 6365SOL    HW219995   6.339   6.871   2.970
 6366SOL     OW19996   6.095   1.437   5.314
 6366SOL    HW119997   6.144   1.496   5.250
 6366SOL    HW219998   6.084   1.346   5.273
 6367SOL     OW19999   1.193   2.394   4.181
 6367SOL    HW120000   1.161   2.347   4.264
 6367SOL    HW220001   1.114   2.426   4.128
 6368SOL     OW20002   4.964   3.396   4.864
 6368SOL    HW120003   5.058   3.405   4.895
 6368SOL    HW220004   4.905   3.458   4.916
 6369SOL     OW20005   4.005   4.277   0.822
 6369SOL    HW120006   3.936   4.300   0.753
 6369SOL    HW220007   4.063   4.356   0.839
 6370SOL     OW20008   5.502   3.807   5.012
 6370SOL    HW120009   5.475   3.903   5.004
 6370SOL    HW220010   5.492   3.762   4.924
 6371SOL     OW20011   5.488   4.083   0.826
 6371SOL    HW120012   5.431   4.070   0.908
 6371SOL    HW220013   5.431   4.118   0.751
 6372SOL     OW20014   6.659   1.410   1.225
 6372SOL    HW120015   6.728   1.468   1.269
 6372SOL    HW220016   6.579   1.465   1.200
 6373SOL     OW20017   5.260   2.866   1.996
 6373SOL    HW120018   5.164   2.881   2.018
 6373SOL    HW220019   5.299   2.802   2.062
 6374SOL     OW20020   4.681   3.827   6.236
 6374SOL    HW120021   4.731   3.764   6.177
 6374SOL    HW220022   4.643   3.777   6.314
 6375SOL     OW20023   4.766   0.959   1.569
 6375SOL    HW120024   4.735   1.046   1.531
 6375SOL    HW220025   4.860   0.941   1.538
 6376SOL     OW20026   2.812   0.159   0.612
 6376SOL    HW120027   2.727   0.196   0.573
 6376SOL    HW220028   2.790   0.102   0.691
 6377SOL     OW20029   0.093   0.704   6.868
 6377SOL    HW120030   0.036   0.658   6.936
 6377SOL    HW220031   0.059   0.682   6.776
 6378SOL     OW20032   5.774   3.987   2.342
 6378SOL    HW120033   5.804   3.931   2.265
 6378SOL    HW220034   5.676   4.005   2.334
 6379SOL     OW20035   2.129   5.668   6.703
 6379SOL    HW120036   2.190   5.608   6.755
 6379SOL    HW220037   2.034   5.645   6.722
 6380SOL     OW20038   1.917   2.694   5.283
 6380SOL    HW120039   1.936   2.679   5.380
 6380SOL    HW220040   1.818   2.694   5.269
 6381SOL     OW20041   3.646   4.034   0.608
 6381SOL    HW120042   3.580   4.109   0.600
 6381SOL    HW220043   3.597   3.949   0.626
 6382SOL     OW20044   1.036   1.358   0.815
 6382SOL    HW120045   1.101   1.403   0.876
 6382SOL    HW220046   1.014   1.267   0.851
 6383SOL     OW20047   2.435   2.368   2.446
 6383SOL    HW120048   2.433   2.418   2.360
 6383SOL    HW220049   2.484   2.421   2.515
 6384SOL     OW20050   6.380   1.988   1.921
 6384SOL    HW120051   6.341   2.002   1.830
 6384SOL    HW220052   6.479   1.994   1.917
 6385SOL     OW20053   6.546   3.470   0.845
 6385SOL    HW120054   6.598   3.394   0.806
 6385SOL    HW220055   6.552   3.550   0.784
 6386SOL     OW20056   3.681   3.721   0.049
 6386SOL    HW120057   3.718   3.674   0.130
 6386SOL    HW220058   3.727   3.687   6.983
 6387SOL     OW20059   6.378   0.338   6.545
 6387SOL    HW120060   6.362   0.388   6.460
 6387SOL    HW220061   6.422   0.399   6.612
 6388SOL     OW20062   5.906   5.318   1.545
 6388SOL    HW120063   5.994   5.273   1.527
 6388SOL    HW220064   5.855   5.327   1.459
 6389SOL     OW20065   6.808   6.570   0.756
 6389SOL    HW120066   6.749   6.648   0.736
 6389SOL    HW220067   6.872   6.594   0.829
 6390SOL     OW20068   5.190   6.803   6.486
 6390SOL    HW120069   5.134   6.728   6.450
 6390SOL    HW220070   5.177   6.884   6.430
 6391SOL     OW20071   1.799   1.969   4.424
 6391SOL    HW120072   1.750   1.882   4.429
 6391SOL    HW220073   1.789   2.008   4.332
 6392SOL     OW20074   4.803   0.172   4.148
 6392SOL    HW120075   4.829   0.262   4.114
 6392SOL    HW220076   4.797   0.108   4.072
 6393SOL     OW20077   1.948   5.182   0.600
 6393SOL    HW120078   2.030   5.237   0.588
 6393SOL    HW220079   1.883   5.231   0.658
 6394SOL     OW20080   1.821   5.211   2.042
 6394SOL    HW120081   1.753   5.143   2.070
 6394SOL    HW220082   1.853   5.261   2.122
 6395SOL     OW20083   1.536   4.299   4.693
 6395SOL    HW120084   1.544   4.382   4.748
 6395SOL    HW220085   1.445   4.294   4.653
 6396SOL     OW20086   1.781   2.979   5.139
 6396SOL    HW120087   1.823   3.059   5.182
 6396SOL    HW220088   1.852   2.917   5.107
 6397SOL     OW20089   6.531   3.256   5.220
 6397SOL    HW120090   6.433   3.262   5.242
 6397SOL    HW220091   6.584   3.303   5.290
 6398SOL     OW20092   1.779   0.069   2.631
 6398SOL    HW120093   1.859   0.129   2.626
 6398SOL    HW220094   1.806   6.991   2.611
 6399SOL     OW20095   2.517   0.043   6.877
 6399SOL    HW120096   2.451   6.993   6.912
 6399SOL    HW220097   2.479   0.135   6.885
 6400SOL     OW20098   0.597   6.585   2.629
 6400SOL    HW120099   0.617   6.519   2.557
 6400SOL    HW220100   0.603   6.678   2.593
 6401SOL     OW20101   3.718   5.198   1.977
 6401SOL    HW120102   3.773   5.214   1.895
 6401SOL    HW220103   3.772   5.219   2.059
 6402SOL     OW20104   3.606   4.475   6.226
 6402SOL    HW120105   3.586   4.454   6.130
 6402SOL    HW220106   3.691   4.528   6.232
 6403SOL     OW20107   4.628   5.579   5.625
 6403SOL    HW120108   4.709   5.574   5.683
 6403SOL    HW220109   4.645   5.532   5.539
 6404SOL     OW20110   4.476   5.647   6.703
 6404SOL    HW120111   4.482   5.697   6.617
 6404SOL    HW220112   4.492   5.710   6.779
 6405SOL     OW20113   4.690   0.836   2.545
 6405SOL    HW120114   4.767   0.822   2.608
 6405SOL    HW220115   4.604   0.832   2.597
 6406SOL     OW20116   0.358   3.221   2.617
 6406SOL    HW120117   0.305   3.288   2.564
 6406SOL    HW220118   0.336   3.230   2.714
 6407SOL     OW20119   0.401   0.013   2.143
 6407SOL    HW120120   0.501   0.018   2.144
 6407SOL    HW220121   0.371   6.961   2.076
 6408SOL     OW20122   0.349   1.329   1.666
 6408SOL    HW120123   0.278   1.339   1.597
 6408SOL    HW220124   0.313   1.355   1.756
 6409SOL     OW20125   5.959   4.285   3.389
 6409SOL    HW120126   5.914   4.212   3.440
 6409SOL    HW220127   6.054   4.258   3.371
 6410SOL     OW20128   1.892   0.749   0.424
 6410SOL    HW120129   1.894   0.848   0.412
 6410SOL    HW220130   1.955   0.706   0.359
 6411SOL     OW20131   0.605   2.235   3.265
 6411SOL    HW120132   0.591   2.192   3.354
 6411SOL    HW220133   0.561   2.180   3.194
 6412SOL     OW20134   3.800   0.699   6.609
 6412SOL    HW120135   3.723   0.656   6.656
 6412SOL    HW220136   3.788   0.798   6.611
 6413SOL     OW20137   4.453   6.009   3.025
 6413SOL    HW120138   4.449   5.915   3.059
 6413SOL    HW220139   4.512   6.064   3.085
 6414SOL     OW20140   3.004   0.353   6.970
 6414SOL    HW120141   2.974   0.439   6.929
 6414SOL    HW220142   3.094   0.365   7.011
 6415SOL     OW20143   0.808   1.662   3.679
 6415SOL    HW120144   0.751   1.591   3.721
 6415SOL    HW220145   0.838   1.631   3.588
 6416SOL     OW20146   2.879   4.975   0.246
 6416SOL    HW120147   2.835   4.886   0.255
 6416SOL    HW220148   2.939   4.975   0.166
 6417SOL     OW20149   4.352   3.384   6.852
 6417SOL    HW120150   4.368   3.450   6.778
 6417SOL    HW220151   4.278   3.322   6.826
 6418SOL     OW20152   4.987   5.506   0.325
 6418SOL    HW120153   5.022   5.413   0.326
 6418SOL    HW220154   4.893   5.506   0.292
 6419SOL     OW20155   0.635   6.850   6.590
 6419SOL    HW120156   0.616   6.929   6.533
 6419SOL    HW220157   0.651   6.881   6.684
 6420SOL     OW20158   2.513   4.557   3.870
 6420SOL    HW120159   2.466   4.479   3.912
 6420SOL    HW220160   2.586   4.588   3.931
 6421SOL     OW20161   5.331   6.658   2.109
 6421SOL    HW120162   5.372   6.647   2.199
 6421SOL    HW220163   5.243   6.706   2.119
 6422SOL     OW20164   0.625   2.323   4.838
 6422SOL    HW120165   0.579   2.278   4.914
 6422SOL    HW220166   0.562   2.388   4.795
 6423SOL     OW20167   0.999   4.467   4.954
 6423SOL    HW120168   0.932   4.531   4.992
 6423SOL    HW220169   1.068   4.517   4.903
 6424SOL     OW20170   6.668   4.354   6.103
 6424SOL    HW120171   6.700   4.281   6.164
 6424SOL    HW220172   6.717   4.349   6.016
 6425SOL     OW20173   0.523   6.395   4.629
 6425SOL    HW120174   0.450   6.398   4.561
 6425SOL    HW220175   0.518   6.309   4.680
 6426SOL     OW20176   4.645   5.468   3.909
 6426SOL    HW120177   4.711   5.501   3.975
 6426SOL    HW220178   4.670   5.502   3.818
 6427SOL     OW20179   3.949   3.126   3.889
 6427SOL    HW120180   4.044   3.154   3.899
 6427SOL    HW220181   3.937   3.079   3.801
 6428SOL     OW20182   5.965   2.683   0.450
 6428SOL    HW120183   5.944   2.673   0.353
 6428SOL    HW220184   5.938   2.600   0.499
 6429SOL     OW20185   2.275   1.437   5.173
 6429SOL    HW120186   2.354   1.460   5.230
 6429SOL    HW220187   2.231   1.521   5.143
 6430SOL     OW20188   5.628   1.567   5.078
 6430SOL    HW120189   5.687   1.538   5.153
 6430SOL    HW220190   5.588   1.486   5.035
 6431SOL     OW20191   3.484   5.191   2.620
 6431SOL    HW120192   3.479   5.288   2.642
 6431SOL    HW220193   3.460   5.177   2.524
 6432SOL     OW20194   4.461   3.468   6.292
 6432SOL    HW120195   4.479   3.375   6.262
 6432SOL    HW220196   4.494   3.480   6.386
 6433SOL     OW20197   3.612   5.306   6.388
 6433SOL    HW120198   3.653   5.230   6.339
 6433SOL    HW220199   3.682   5.373   6.412
 6434SOL     OW20200   5.654   5.299   5.850
 6434SOL    HW120201   5.655   5.383   5.795
 6434SOL    HW220202   5.748   5.266   5.861
 6435SOL     OW20203   4.375   1.153   0.982
 6435SOL    HW120204   4.364   1.071   0.927
 6435SOL    HW220205   4.403   1.229   0.924
 6436SOL     OW20206   0.242   3.629   3.783
 6436SOL    HW120207   0.302   3.582   3.719
 6436SOL    HW220208   0.221   3.568   3.860
 6437SOL     OW20209   1.780   2.800   5.768
 6437SOL    HW120210   1.788   2.896   5.744
 6437SOL    HW220211   1.705   2.788   5.833
 6438SOL     OW20212   0.391   5.157   0.736
 6438SOL    HW120213   0.346   5.173   0.648
 6438SOL    HW220214   0.327   5.112   0.798
 6439SOL     OW20215   5.121   6.849   2.465
 6439SOL    HW120216   5.175   6.816   2.542
 6439SOL    HW220217   5.051   6.912   2.497
 6440SOL     OW20218   2.283   1.713   6.148
 6440SOL    HW120219   2.228   1.756   6.075
 6440SOL    HW220220   2.323   1.628   6.113
 6441SOL     OW20221   0.490   2.646   1.920
 6441SOL    HW120222   0.555   2.576   1.891
 6441SOL    HW220223   0.422   2.605   1.982
 6442SOL     OW20224   2.301   1.810   4.372
 6442SOL    HW120225   2.376   1.875   4.360
 6442SOL    HW220226   2.261   1.788   4.283
 6443SOL     OW20227   3.239   3.100   6.260
 6443SOL    HW120228   3.273   3.147   6.179
 6443SOL    HW220229   3.201   3.166   6.324
 6444SOL     OW20230   6.883   3.683   5.177
 6444SOL    HW120231   6.847   3.599   5.216
 6444SOL    HW220232   6.833   3.705   5.093
 6445SOL     OW20233   3.518   2.886   3.753
 6445SOL    HW120234   3.440   2.858   3.810
 6445SOL    HW220235   3.567   2.961   3.797
 6446SOL     OW20236   1.034   1.089   0.925
 6446SOL    HW120237   1.004   1.010   0.871
 6446SOL    HW220238   1.127   1.073   0.958
 6447SOL     OW20239   6.043   3.632   1.257
 6447SOL    HW120240   6.014   3.586   1.341
 6447SOL    HW220241   6.134   3.602   1.232
 6448SOL     OW20242   4.223   4.839   0.981
 6448SOL    HW120243   4.204   4.766   0.915
 6448SOL    HW220244   4.278   4.803   1.056
 6449SOL     OW20245   3.720   5.174   0.216
 6449SOL    HW120246   3.638   5.118   0.211
 6449SOL    HW220247   3.734   5.206   0.310
 6450SOL     OW20248   5.355   3.965   6.975
 6450SOL    HW120249   5.450   3.992   6.992
 6450SOL    HW220250   5.340   3.873   7.013
 6451SOL     OW20251   4.419   2.799   1.480
 6451SOL    HW120252   4.378   2.718   1.439
 6451SOL    HW220253   4.408   2.877   1.418
 6452SOL     OW20254   4.289   1.847   4.873
 6452SOL    HW120255   4.321   1.822   4.965
 6452SOL    HW220256   4.250   1.939   4.875
 6453SOL     OW20257   2.571   0.144   2.927
 6453SOL    HW120258   2.534   0.153   3.019
 6453SOL    HW220259   2.572   0.234   2.882
 6454SOL     OW20260   5.233   3.338   4.614
 6454SOL    HW120261   5.317   3.311   4.661
 6454SOL    HW220262   5.191   3.257   4.573
 6455SOL     OW20263   0.500   2.721   4.384
 6455SOL    HW120264   0.474   2.808   4.342
 6455SOL    HW220265   0.426   2.654   4.372
 6456SOL     OW20266   6.743   1.808   2.527
 6456SOL    HW120267   6.675   1.752   2.575
 6456SOL    HW220268   6.832   1.799   2.571
 6457SOL     OW20269   2.272   6.434   2.377
 6457SOL    HW120270   2.269   6.436   2.277
 6457SOL    HW220271   2.187   6.470   2.414
 6458SOL     OW20272   0.529   0.047   4.261
 6458SOL    HW120273   0.571   0.135   4.283
 6458SOL    HW220274   0.600   6.997   4.236
 6459SOL     OW20275   0.116   3.164   3.209
 6459SOL    HW120276   0.140   3.187   3.304
 6459SOL    HW220277   0.199   3.157   3.154
 6460SOL     OW20278   1.317   5.451   6.516
 6460SOL    HW120279   1.291   5.531   6.462
 6460SOL    HW220280   1.351   5.380   6.454
 6461SOL     OW20281   0.376   6.389   0.746
 6461SOL    HW120282   0.313   6.320   0.783
 6461SOL    HW220283   0.366   6.392   0.647
 6462SOL     OW20284   1.988   3.923   5.230
 6462SOL    HW120285   2.033   3.848   5.280
 6462SOL    HW220286   2.033   4.010   5.253
 6463SOL     OW20287   4.537   2.653   1.257
 6463SOL    HW120288   4.624   2.636   1.210
 6463SOL    HW220289   4.516   2.751   1.253
 6464SOL     OW20290   0.696   3.522   3.150
 6464SOL    HW120291   0.625   3.564   3.206
 6464SOL    HW220292   0.669   3.525   3.054
 6465SOL     OW20293   2.969   0.726   3.642
 6465SOL    HW120294   3.059   0.758   3.670
 6465SOL    HW220295   2.967   0.626   3.644
 6466SOL     OW20296   6.597   5.266   6.503
 6466SOL    HW120297   6.576   5.198   6.573
 6466SOL    HW220298   6.696   5.267   6.486
 6467SOL     OW20299   2.481   2.982   5.896
 6467SOL    HW120300   2.517   3.066   5.854
 6467SOL    HW220301   2.384   2.974   5.875
 6468SOL     OW20302   0.992   0.851   1.362
 6468SOL    HW120303   0.921   0.889   1.302
 6468SOL    HW220304   0.960   0.766   1.402
 6469SOL     OW20305   1.849   1.234   1.362
 6469SOL    HW120306   1.928   1.184   1.397
 6469SOL    HW220307   1.868   1.267   1.270
 6470SOL     OW20308   5.980   1.794   6.551
 6470SOL    HW120309   5.932   1.844   6.623
 6470SOL    HW220310   6.071   1.833   6.538
 6471SOL     OW20311   0.203   6.466   6.100
 6471SOL    HW120312   0.230   6.501   6.010
 6471SOL    HW220313   0.182   6.369   6.093
 6472SOL     OW20314   0.419   5.999   1.852
 6472SOL    HW120315   0.423   5.911   1.805
 6472SOL    HW220316   0.446   6.071   1.788
 6473SOL     OW20317   3.013   1.624   3.246
 6473SOL    HW120318   3.091   1.571   3.280
 6473SOL    HW220319   3.013   1.715   3.287
 6474SOL     OW20320   4.031   6.530   4.021
 6474SOL    HW120321   4.013   6.457   3.955
 6474SOL    HW220322   4.091   6.598   3.979
 6475SOL     OW20323   5.112   6.092   2.861
 6475SOL    HW120324   5.023   6.120   2.826
 6475SOL    HW220325   5.102   6.011   2.919
 6476SOL     OW20326   4.880   3.816   6.608
 6476SOL    HW120327   4.914   3.833   6.515
 6476SOL    HW220328   4.919   3.884   6.671
 6477SOL     OW20329   0.830   6.205   0.699
 6477SOL    HW120330   0.742   6.243   0.725
 6477SOL    HW220331   0.902   6.273   0.714
 6478SOL     OW20332   1.252   6.462   0.653
 6478SOL    HW120333   1.300   6.547   0.674
 6478SOL    HW220334   1.291   6.422   0.570
 6479SOL     OW20335   4.940   5.656   3.435
 6479SOL    HW120336   4.937   5.729   3.503
 6479SOL    HW220337   4.900   5.573   3.474
 6480SOL     OW20338   3.272   1.378   5.674
 6480SOL    HW120339   3.340   1.309   5.650
 6480SOL    HW220340   3.295   1.419   5.762
 6481SOL     OW20341   4.298   3.290   1.713
 6481SOL    HW120342   4.289   3.190   1.718
 6481SOL    HW220343   4.230   3.333   1.772
 6482SOL     OW20344   4.830   3.202   5.077
 6482SOL    HW120345   4.771   3.250   5.012
 6482SOL    HW220346   4.924   3.203   5.044
 6483SOL     OW20347   2.037   5.954   5.378
 6483SOL    HW120348   1.948   5.990   5.350
 6483SOL    HW220349   2.025   5.863   5.417
 6484SOL     OW20350   4.011   1.921   3.066
 6484SOL    HW120351   4.038   1.843   3.121
 6484SOL    HW220352   3.991   1.890   2.972
 6485SOL     OW20353   2.159   4.958   5.154
 6485SOL    HW120354   2.236   4.907   5.115
 6485SOL    HW220355   2.127   5.025   5.087
 6486SOL     OW20356   6.998   4.019   2.127
 6486SOL    HW120357   6.939   4.100   2.138
 6486SOL    HW220358   0.023   4.021   2.037
 6487SOL     OW20359   6.334   4.999   4.553
 6487SOL    HW120360   6.428   4.965   4.547
 6487SOL    HW220361   6.328   5.065   4.628
 6488SOL     OW20362   3.872   5.306   4.110
 6488SOL    HW120363   3.921   5.368   4.171
 6488SOL    HW220364   3.792   5.353   4.072
 6489SOL     OW20365   6.322   3.024   5.399
 6489SOL    HW120366   6.289   3.043   5.492
 6489SOL    HW220367   6.302   2.929   5.375
 6490SOL     OW20368   2.037   2.442   0.195
 6490SOL    HW120369   2.056   2.447   0.293
 6490SOL    HW220370   2.037   2.346   0.166
 6491SOL     OW20371   1.191   0.665   1.604
 6491SOL    HW120372   1.265   0.718   1.562
 6491SOL    HW220373   1.204   0.664   1.703
 6492SOL     OW20374   4.066   3.705   4.187
 6492SOL    HW120375   3.969   3.717   4.167
 6492SOL    HW220376   4.093   3.611   4.166
 6493SOL     OW20377   1.161   4.938   3.805
 6493SOL    HW120378   1.180   4.900   3.714
 6493SOL    HW220379   1.247   4.945   3.856
 6494SOL     OW20380   6.662   0.714   1.136
 6494SOL    HW120381   6.616   0.718   1.224
 6494SOL    HW220382   6.600   0.675   1.067
 6495SOL     OW20383   6.707   6.907   3.226
 6495SOL    HW120384   6.767   6.977   3.185
 6495SOL    HW220385   6.691   6.834   3.159
 6496SOL     OW20386   3.042   2.237   1.752
 6496SOL    HW120387   2.976   2.294   1.801
 6496SOL    HW220388   3.088   2.291   1.682
 6497SOL     OW20389   0.845   1.984   0.367
 6497SOL    HW120390   0.777   1.912   0.352
 6497SOL    HW220391   0.806   2.073   0.342
 6498SOL     OW20392   1.820   4.879   4.382
 6498SOL    HW120393   1.752   4.896   4.454
 6498SOL    HW220394   1.878   4.802   4.409
 6499SOL     OW20395   4.940   2.417   3.258
 6499SOL    HW120396   5.007   2.490   3.266
 6499SOL    HW220397   4.882   2.433   3.178
 6500SOL     OW20398   1.547   3.887   3.139
 6500SOL    HW120399   1.582   3.897   3.233
 6500SOL    HW220400   1.623   3.867   3.077
 6501SOL     OW20401   6.585   0.786   3.155
 6501SOL    HW120402   6.613   0.881   3.169
 6501SOL    HW220403   6.646   0.743   3.088
 6502SOL     OW20404   0.963   2.817   1.828
 6502SOL    HW120405   0.916   2.876   1.893
 6502SOL    HW220406   0.989   2.870   1.747
 6503SOL     OW20407   6.840   2.883   6.171
 6503SOL    HW120408   6.752   2.859   6.213
 6503SOL    HW220409   6.860   2.980   6.190
 6504SOL     OW20410   3.946   6.969   6.202
 6504SOL    HW120411   3.857   7.012   6.189
 6504SOL    HW220412   4.005   6.990   6.123
 6505SOL     OW20413   0.450   6.653   0.821
 6505SOL    HW120414   0.486   6.563   0.844
 6505SOL    HW220415   0.485   6.681   0.732
 6506SOL     OW20416   6.853   3.626   1.654
 6506SOL    HW120417   6.758   3.615   1.683
 6506SOL    HW220418   6.913   3.603   1.730
 6507SOL     OW20419   3.785   5.785   1.195
 6507SOL    HW120420   3.840   5.701   1.193
 6507SOL    HW220421   3.818   5.845   1.267
 6508SOL     OW20422   6.663   0.330   3.921
 6508SOL    HW120423   6.682   0.243   3.875
 6508SOL    HW220424   6.750   0.375   3.943
 6509SOL     OW20425   2.370   1.663   0.055
 6509SOL    HW120426   2.341   1.638   0.148
 6509SOL    HW220427   2.450   1.722   0.060
 6510SOL     OW20428   3.403   4.945   4.246
 6510SOL    HW120429   3.459   4.938   4.163
 6510SOL    HW220430   3.409   5.039   4.282
 6511SOL     OW20431   3.364   2.402   6.996
 6511SOL    HW120432   3.277   2.383   0.023
 6511SOL    HW220433   3.438   2.366   0.036
 6512SOL     OW20434   4.626   0.656   0.599
 6512SOL    HW120435   4.631   0.565   0.559
 6512SOL    HW220436   4.538   0.667   0.646
 6513SOL     OW20437   3.359   4.980   2.898
 6513SOL    HW120438   3.394   5.073   2.909
 6513SOL    HW220439   3.265   4.975   2.931
 6514SOL     OW20440   5.375   6.038   5.411
 6514SOL    HW120441   5.343   6.096   5.336
 6514SOL    HW220442   5.323   6.059   5.493
 6515SOL     OW20443   0.290   4.916   2.380
 6515SOL    HW120444   0.369   4.885   2.326
 6515SOL    HW220445   0.308   5.008   2.414
 6516SOL     OW20446   6.222   1.881   3.599
 6516SOL    HW120447   6.313   1.855   3.633
 6516SOL    HW220448   6.213   1.980   3.603
 6517SOL     OW20449   6.711   3.623   0.545
 6517SOL    HW120450   6.805   3.630   0.580
 6517SOL    HW220451   6.703   3.678   0.461
 6518SOL     OW20452   0.555   1.623   2.249
 6518SOL    HW120453   0.485   1.686   2.216
 6518SOL    HW220454   0.616   1.670   2.313
 6519SOL     OW20455   1.376   1.213   3.180
 6519SOL    HW120456   1.429   1.248   3.104
 6519SOL    HW220457   1.294   1.270   3.192
 6520SOL     OW20458   6.045   5.364   0.192
 6520SOL    HW120459   6.003   5.290   0.139
 6520SOL    HW220460   6.131   5.331   0.232
 6521SOL     OW20461   2.029   4.743   4.521
 6521SOL    HW120462   2.096   4.722   4.451
 6521SOL    HW220463   1.989   4.658   4.556
 6522SOL     OW20464   2.209   2.980   5.271
 6522SOL    HW120465   2.239   2.977   5.366
 6522SOL    HW220466   2.282   2.946   5.212
 6523SOL     OW20467   5.853   6.417   0.851
 6523SOL    HW120468   5.806   6.340   0.806
 6523SOL    HW220469   5.950   6.395   0.861
 6524SOL     OW20470   3.242   2.942   1.135
 6524SOL    HW120471   3.259   2.925   1.232
 6524SOL    HW220472   3.149   2.977   1.124
 6525SOL     OW20473   1.579   5.104   3.760
 6525SOL    HW120474   1.489   5.136   3.730
 6525SOL    HW220475   1.650   5.163   3.723
 6526SOL     OW20476   6.367   6.660   0.598
 6526SOL    HW120477   6.326   6.749   0.579
 6526SOL    HW220478   6.432   6.637   0.526
 6527SOL     OW20479   5.201   1.409   0.540
 6527SOL    HW120480   5.269   1.465   0.588
 6527SOL    HW220481   5.247   1.356   0.468
 6528SOL     OW20482   4.002   6.621   0.174
 6528SOL    HW120483   3.982   6.698   0.114
 6528SOL    HW220484   3.931   6.552   0.164
 6529SOL     OW20485   4.361   0.229   1.810
 6529SOL    HW120486   4.394   0.211   1.717
 6529SOL    HW220487   4.274   0.181   1.824
 6530SOL     OW20488   6.870   3.123   3.750
 6530SOL    HW120489   6.885   3.054   3.820
 6530SOL    HW220490   6.849   3.079   3.663
 6531SOL     OW20491   3.819   3.550   3.806
 6531SOL    HW120492   3.906   3.588   3.837
 6531SOL    HW220493   3.807   3.568   3.708
 6532SOL     OW20494   0.655   5.957   0.244
 6532SOL    HW120495   0.569   5.911   0.262
 6532SOL    HW220496   0.692   5.994   0.329
 6533SOL     OW20497   4.980   5.320   1.387
 6533SOL    HW120498   4.948   5.225   1.382
 6533SOL    HW220499   5.077   5.324   1.363
 6534SOL     OW20500   0.162   3.889   3.909
 6534SOL    HW120501   0.082   3.947   3.915
 6534SOL    HW220502   0.141   3.808   3.854
 6535SOL     OW20503   5.330   3.622   5.940
 6535SOL    HW120504   5.337   3.718   5.969
 6535SOL    HW220505   5.250   3.612   5.881
 6536SOL     OW20506   0.547   4.696   5.862
 6536SOL    HW120507   0.570   4.604   5.892
 6536SOL    HW220508   0.627   4.739   5.821
 6537SOL     OW20509   6.979   5.472   3.972
 6537SOL    HW120510   6.987   5.486   4.071
 6537SOL    HW220511   6.999   5.558   3.925
 6538SOL     OW20512   1.479   2.983   3.461
 6538SOL    HW120513   1.467   2.954   3.556
 6538SOL    HW220514   1.446   3.077   3.451
 6539SOL     OW20515   4.434   6.856   6.812
 6539SOL    HW120516   4.529   6.887   6.814
 6539SOL    HW220517   4.373   6.935   6.815
 6540SOL     OW20518   0.446   2.820   5.377
 6540SOL    HW120519   0.488   2.744   5.327
 6540SOL    HW220520   0.413   2.888   5.311
 6541SOL     OW20521   4.096   1.652   5.510
 6541SOL    HW120522   4.044   1.737   5.506
 6541SOL    HW220523   4.089   1.604   5.422
 6542SOL     OW20524   1.513   4.596   2.454
 6542SOL    HW120525   1.434   4.535   2.444
 6542SOL    HW220526   1.592   4.543   2.485
 6543SOL     OW20527   4.337   1.384   4.226
 6543SOL    HW120528   4.379   1.345   4.308
 6543SOL    HW220529   4.257   1.438   4.252
 6544SOL     OW20530   0.486   0.258   0.657
 6544SOL    HW120531   0.534   0.198   0.593
 6544SOL    HW220532   0.481   0.214   0.747
 6545SOL     OW20533   5.066   6.133   0.856
 6545SOL    HW120534   5.143   6.181   0.898
 6545SOL    HW220535   4.987   6.195   0.851
 6546SOL     OW20536   4.437   5.114   5.671
 6546SOL    HW120537   4.357   5.169   5.647
 6546SOL    HW220538   4.493   5.099   5.589
 6547SOL     OW20539   0.924   6.359   5.144
 6547SOL    HW120540   0.940   6.301   5.224
 6547SOL    HW220541   0.906   6.453   5.174
 6548SOL     OW20542   1.247   1.675   6.304
 6548SOL    HW120543   1.207   1.750   6.250
 6548SOL    HW220544   1.251   1.592   6.249
 6549SOL     OW20545   3.753   1.439   2.522
 6549SOL    HW120546   3.737   1.353   2.474
 6549SOL    HW220547   3.688   1.448   2.597
 6550SOL     OW20548   6.013   6.543   2.018
 6550SOL    HW120549   6.106   6.573   2.037
 6550SOL    HW220550   6.002   6.448   2.047
 6551SOL     OW20551   2.391   4.993   0.831
 6551SOL    HW120552   2.351   4.928   0.766
 6551SOL    HW220553   2.412   4.945   0.916
 6552SOL     OW20554   2.220   4.404   6.913
 6552SOL    HW120555   2.275   4.366   6.988
 6552SOL    HW220556   2.123   4.400   6.937
 6553SOL     OW20557   0.076   2.011   4.076
 6553SOL    HW120558   0.080   1.968   3.985
 6553SOL    HW220559   6.998   2.035   4.098
 6554SOL     OW20560   1.091   2.188   3.737
 6554SOL    HW120561   1.135   2.185   3.827
 6554SOL    HW220562   1.161   2.191   3.666
 6555SOL     OW20563   1.285   3.533   3.698
 6555SOL    HW120564   1.362   3.518   3.636
 6555SOL    HW220565   1.315   3.587   3.776
 6556SOL     OW20566   5.140   3.335   3.125
 6556SOL    HW120567   5.042   3.349   3.116
 6556SOL    HW220568   5.159   3.276   3.203
 6557SOL     OW20569   2.369   0.667   2.555
 6557SOL    HW120570   2.270   0.681   2.562
 6557SOL    HW220571   2.415   0.724   2.624
 6558SOL     OW20572   5.731   5.939   0.605
 6558SOL    HW120573   5.691   6.022   0.566
 6558SOL    HW220574   5.777   5.961   0.691
 6559SOL     OW20575   0.340   2.115   5.997
 6559SOL    HW120576   0.331   2.123   6.096
 6559SOL    HW220577   0.305   2.026   5.967
 6560SOL     OW20578   6.900   4.573   6.753
 6560SOL    HW120579   6.887   4.545   6.658
 6560SOL    HW220580   6.868   4.501   6.814
 6561SOL     OW20581   2.201   5.284   0.607
 6561SOL    HW120582   2.212   5.374   0.564
 6561SOL    HW220583   2.290   5.251   0.639
 6562SOL     OW20584   5.127   2.343   1.831
 6562SOL    HW120585   5.161   2.313   1.920
 6562SOL    HW220586   5.062   2.276   1.796
 6563SOL     OW20587   6.176   5.200   5.499
 6563SOL    HW120588   6.196   5.297   5.504
 6563SOL    HW220589   6.203   5.164   5.410
 6564SOL     OW20590   5.373   3.202   2.496
 6564SOL    HW120591   5.379   3.299   2.470
 6564SOL    HW220592   5.314   3.154   2.431
 6565SOL     OW20593   5.171   6.075   2.580
 6565SOL    HW120594   5.161   6.087   2.679
 6565SOL    HW220595   5.248   6.128   2.547
 6566SOL     OW20596   5.405   5.221   3.670
 6566SOL    HW120597   5.423   5.211   3.767
 6566SOL    HW220598   5.374   5.314   3.651
 6567SOL     OW20599   2.986   0.839   2.805
 6567SOL    HW120600   3.064   0.854   2.744
 6567SOL    HW220601   2.992   0.902   2.882
 6568SOL     OW20602   5.078   0.853   1.089
 6568SOL    HW120603   4.989   0.853   1.135
 6568SOL    HW220604   5.085   0.934   1.031
 6569SOL     OW20605   1.396   4.682   3.577
 6569SOL    HW120606   1.319   4.747   3.573
 6569SOL    HW220607   1.452   4.692   3.495
 6570SOL     OW20608   4.345   0.193   2.468
 6570SOL    HW120609   4.297   0.277   2.444
 6570SOL    HW220610   4.305   0.116   2.418
 6571SOL     OW20611   2.666   6.659   3.008
 6571SOL    HW120612   2.612   6.575   3.018
 6571SOL    HW220613   2.625   6.732   3.061
 6572SOL     OW20614   2.091   5.824   3.517
 6572SOL    HW120615   2.002   5.779   3.509
 6572SOL    HW220616   2.107   5.881   3.436
 6573SOL     OW20617   0.180   2.090   3.425
 6573SOL    HW120618   0.267   2.118   3.464
 6573SOL    HW220619   0.156   2.150   3.350
 6574SOL     OW20620   0.511   5.067   2.004
 6574SOL    HW120621   0.508   5.149   2.062
 6574SOL    HW220622   0.455   5.081   1.923
 6575SOL     OW20623   6.940   1.639   3.760
 6575SOL    HW120624   6.913   1.599   3.848
 6575SOL    HW220625   0.010   1.689   3.771
 6576SOL     OW20626   3.995   6.993   1.586
 6576SOL    HW120627   3.939   6.966   1.507
 6576SOL    HW220628   4.048   6.914   1.617
 6577SOL     OW20629   3.362   0.732   4.716
 6577SOL    HW120630   3.433   0.799   4.738
 6577SOL    HW220631   3.350   0.669   4.793
 6578SOL     OW20632   1.023   5.318   0.588
 6578SOL    HW120633   0.971   5.332   0.673
 6578SOL    HW220634   1.014   5.223   0.559
 6579SOL     OW20635   1.439   1.629   3.670
 6579SOL    HW120636   1.437   1.597   3.765
 6579SOL    HW220637   1.366   1.696   3.656
 6580SOL     OW20638   3.324   2.089   0.187
 6580SOL    HW120639   3.416   2.060   0.210
 6580SOL    HW220640   3.288   2.032   0.114
 6581SOL     OW20641   0.546   2.414   2.460
 6581SOL    HW120642   0.496   2.488   2.415
 6581SOL    HW220643   0.567   2.441   2.554
 6582SOL     OW20644   5.068   0.765   2.978
 6582SOL    HW120645   4.976   0.734   2.956
 6582SOL    HW220646   5.104   0.817   2.900
 6583SOL     OW20647   2.565   4.454   0.736
 6583SOL    HW120648   2.583   4.358   0.718
 6583SOL    HW220649   2.588   4.475   0.831
 6584SOL     OW20650   4.500   3.158   6.213
 6584SOL    HW120651   4.513   3.115   6.302
 6584SOL    HW220652   4.543   3.102   6.142
 6585SOL     OW20653   5.049   6.832   1.666
 6585SOL    HW120654   5.067   6.771   1.744
 6585SOL    HW220655   4.990   6.785   1.600
 6586SOL     OW20656   6.718   1.170   6.446
 6586SOL    HW120657   6.660   1.093   6.421
 6586SOL    HW220658   6.787   1.140   6.512
 6587SOL     OW20659   3.662   4.910   5.125
 6587SOL    HW120660   3.584   4.849   5.140
 6587SOL    HW220661   3.671   4.930   5.027
 6588SOL     OW20662   1.095   1.274   0.089
 6588SOL    HW120663   1.000   1.244   0.085
 6588SOL    HW220664   1.123   1.306   7.014
 6589SOL     OW20665   6.247   6.920   1.707
 6589SOL    HW120666   6.163   6.866   1.710
 6589SOL    HW220667   6.310   6.889   1.779
 6590SOL     OW20668   1.233   5.949   4.667
 6590SOL    HW120669   1.147   5.939   4.617
 6590SOL    HW220670   1.309   5.932   4.604
 6591SOL     OW20671   6.284   3.031   3.801
 6591SOL    HW120672   6.367   3.000   3.848
 6591SOL    HW220673   6.230   3.088   3.863
 6592SOL     OW20674   6.959   0.469   4.216
 6592SOL    HW120675   7.014   0.548   4.188
 6592SOL    HW220676   6.995   0.386   4.174
 6593SOL     OW20677   1.864   0.686   2.667
 6593SOL    HW120678   1.851   0.774   2.713
 6593SOL    HW220679   1.778   0.657   2.626
 6594SOL     OW20680   5.224   0.320   0.098
 6594SOL    HW120681   5.323   0.336   0.100
 6594SOL    HW220682   5.179   0.376   0.167
 6595SOL     OW20683   0.989   1.644   5.091
 6595SOL    HW120684   0.924   1.688   5.029
 6595SOL    HW220685   1.081   1.652   5.054
 6596SOL     OW20686   5.556   0.957   2.845
 6596SOL    HW120687   5.529   0.870   2.803
 6596SOL    HW220688   5.555   0.948   2.944
 6597SOL     OW20689   0.993   4.731   0.782
 6597SOL    HW120690   1.064   4.737   0.851
 6597SOL    HW220691   0.906   4.707   0.825
 6598SOL     OW20692   0.842   5.191   2.716
 6598SOL    HW120693   0.812   5.256   2.646
 6598SOL    HW220694   0.932   5.155   2.691
 6599SOL     OW20695   0.632   5.615   6.345
 6599SOL    HW120696   0.658   5.664   6.262
 6599SOL    HW220697   0.538   5.581   6.335
 6600SOL     OW20698   4.736   6.298   4.553
 6600SOL    HW120699   4.742   6.207   4.593
 6600SOL    HW220700   4.814   6.353   4.583
 6601SOL     OW20701   1.314   2.794   1.914
 6601SOL    HW120702   1.363   2.739   1.846
 6601SOL    HW220703   1.215   2.781   1.902
 6602SOL     OW20704   6.613   5.275   0.808
 6602SOL    HW120705   6.533   5.335   0.815
 6602SOL    HW220706   6.639   5.264   0.712
 6603SOL     OW20707   0.132   4.348   2.569
 6603SOL    HW120708   0.206   4.282   2.583
 6603SOL    HW220709   0.100   4.342   2.474
 6604SOL     OW20710   1.384   5.557   2.564
 6604SOL    HW120711   1.376   5.554   2.464
 6604SOL    HW220712   1.309   5.505   2.605
 6605SOL     OW20713   0.065   5.345   1.144
 6605SOL    HW120714   0.007   5.426   1.143
 6605SOL    HW220715   0.130   5.349   1.067
 6606SOL     OW20716   2.004   4.310   2.681
 6606SOL    HW120717   2.096   4.285   2.713
 6606SOL    HW220718   1.989   4.271   2.590
 6607SOL     OW20719   6.152   3.433   3.860
 6607SOL    HW120720   6.133   3.336   3.876
 6607SOL    HW220721   6.141   3.484   3.946
 6608SOL     OW20722   1.274   0.550   5.641
 6608SOL    HW120723   1.204   0.523   5.708
 6608SOL    HW220724   1.233   0.612   5.574
 6609SOL     OW20725   3.107   2.099   6.881
 6609SOL    HW120726   3.174   2.144   6.821
 6609SOL    HW220727   3.154   2.033   6.939
 6610SOL     OW20728   3.142   6.798   1.434
 6610SOL    HW120729   3.115   6.883   1.478
 6610SOL    HW220730   3.168   6.731   1.504
 6611SOL     OW20731   3.448   1.160   4.763
 6611SOL    HW120732   3.532   1.200   4.726
 6611SOL    HW220733   3.394   1.121   4.688
 6612SOL     OW20734   0.490   0.296   0.121
 6612SOL    HW120735   0.475   0.383   0.074
 6612SOL    HW220736   0.413   0.276   0.181
 6613SOL     OW20737   4.052   6.644   1.214
 6613SOL    HW120738   4.043   6.596   1.127
 6613SOL    HW220739   4.086   6.737   1.197
 6614SOL     OW20740   3.818   4.751   0.783
 6614SOL    HW120741   3.843   4.679   0.848
 6614SOL    HW220742   3.777   4.710   0.702
 6615SOL     OW20743   3.256   5.658   6.062
 6615SOL    HW120744   3.327   5.675   5.994
 6615SOL    HW220745   3.298   5.647   6.152
 6616SOL     OW20746   4.232   1.376   0.318
 6616SOL    HW120747   4.320   1.391   0.272
 6616SOL    HW220748   4.249   1.354   0.414
 6617SOL     OW20749   3.425   1.170   3.995
 6617SOL    HW120750   3.481   1.139   3.918
 6617SOL    HW220751   3.431   1.103   4.069
 6618SOL     OW20752   6.002   2.812   4.345
 6618SOL    HW120753   6.043   2.848   4.428
 6618SOL    HW220754   6.068   2.753   4.298
 6619SOL     OW20755   4.759   4.944   4.209
 6619SOL    HW120756   4.668   4.920   4.178
 6619SOL    HW220757   4.769   5.044   4.210
 6620SOL     OW20758   1.226   2.594   3.466
 6620SOL    HW120759   1.301   2.551   3.417
 6620SOL    HW220760   1.257   2.622   3.557
 6621SOL     OW20761   3.157   3.388   3.664
 6621SOL    HW120762   3.207   3.302   3.649
 6621SOL    HW220763   3.203   3.463   3.617
 6622SOL     OW20764   0.173   4.965   1.137
 6622SOL    HW120765   0.186   4.877   1.182
 6622SOL    HW220766   0.103   5.018   1.187
 6623SOL     OW20767   3.582   4.094   3.526
 6623SOL    HW120768   3.483   4.101   3.539
 6623SOL    HW220769   3.603   4.010   3.477
 6624SOL     OW20770   2.467   2.503   3.130
 6624SOL    HW120771   2.563   2.479   3.140
 6624SOL    HW220772   2.410   2.422   3.144
 6625SOL     OW20773   6.746   3.802   5.466
 6625SOL    HW120774   6.828   3.755   5.433
 6625SOL    HW220775   6.696   3.742   5.529
 6626SOL     OW20776   3.168   5.886   5.307
 6626SOL    HW120777   3.091   5.949   5.320
 6626SOL    HW220778   3.169   5.854   5.212
 6627SOL     OW20779   2.572   6.409   4.361
 6627SOL    HW120780   2.577   6.318   4.401
 6627SOL    HW220781   2.612   6.408   4.269
 6628SOL     OW20782   3.749   0.512   3.008
 6628SOL    HW120783   3.723   0.597   3.054
 6628SOL    HW220784   3.843   0.519   2.974
 6629SOL     OW20785   4.691   5.475   5.161
 6629SOL    HW120786   4.699   5.575   5.155
 6629SOL    HW220787   4.687   5.437   5.069
 6630SOL     OW20788   1.777   0.461   0.123
 6630SOL    HW120789   1.762   0.514   0.207
 6630SOL    HW220790   1.727   0.375   0.128
 6631SOL     OW20791   2.014   2.725   5.956
 6631SOL    HW120792   1.948   2.701   5.885
 6631SOL    HW220793   1.982   2.806   6.005
 6632SOL     OW20794   1.108   0.539   6.716
 6632SOL    HW120795   1.192   0.511   6.764
 6632SOL    HW220796   1.037   0.560   6.782
 6633SOL     OW20797   3.972   6.223   6.368
 6633SOL    HW120798   3.984   6.126   6.390
 6633SOL    HW220799   4.013   6.243   6.279
 6634SOL     OW20800   2.825   2.223   3.210
 6634SOL    HW120801   2.783   2.296   3.157
 6634SOL    HW220802   2.754   2.160   3.242
 6635SOL     OW20803   5.296   5.751   5.674
 6635SOL    HW120804   5.396   5.749   5.672
 6635SOL    HW220805   5.265   5.838   5.713
 6636SOL     OW20806   4.006   1.316   0.599
 6636SOL    HW120807   3.963   1.264   0.526
 6636SOL    HW220808   4.103   1.290   0.607
 6637SOL     OW20809   0.287   1.804   0.007
 6637SOL    HW120810   0.308   1.843   6.933
 6637SOL    HW220811   0.267   1.707   7.013
 6638SOL     OW20812   3.341   3.185   3.585
 6638SOL    HW120813   3.306   3.093   3.601
 6638SOL    HW220814   3.440   3.182   3.572
 6639SOL     OW20815   4.594   2.358   1.594
 6639SOL    HW120816   4.647   2.411   1.659
 6639SOL    HW220817   4.655   2.298   1.542
 6640SOL     OW20818   1.647   4.076   4.805
 6640SOL    HW120819   1.577   4.133   4.762
 6640SOL    HW220820   1.679   4.121   4.888
 6641SOL     OW20821   6.231   2.834   0.267
 6641SOL    HW120822   6.218   2.924   0.307
 6641SOL    HW220823   6.325   2.826   0.232
 6642SOL     OW20824   0.982   5.386   6.098
 6642SOL    HW120825   0.890   5.349   6.091
 6642SOL    HW220826   1.047   5.312   6.114
 6643SOL     OW20827   3.772   5.543   6.070
 6643SOL    HW120828   3.806   5.622   6.122
 6643SOL    HW220829   3.682   5.564   6.033
 6644SOL     OW20830   2.273   0.194   3.848
 6644SOL    HW120831   2.310   0.202   3.940
 6644SOL    HW220832   2.338   0.233   3.782
 6645SOL     OW20833   4.339   2.455   6.108
 6645SOL    HW120834   4.372   2.425   6.019
 6645SOL    HW220835   4.243   2.429   6.120
 6646SOL     OW20836   4.385   0.057   5.420
 6646SOL    HW120837   4.320   7.009   5.379
 6646SOL    HW220838   4.362   0.069   5.517
 6647SOL     OW20839   4.256   4.380   1.028
 6647SOL    HW120840   4.346   4.388   1.071
 6647SOL    HW220841   4.213   4.295   1.058
 6648SOL     OW20842   3.067   5.617   5.389
 6648SOL    HW120843   3.088   5.704   5.345
 6648SOL    HW220844   2.982   5.625   5.441
 6649SOL     OW20845   4.824   2.816   5.892
 6649SOL    HW120846   4.730   2.848   5.904
 6649SOL    HW220847   4.826   2.716   5.895
 6650SOL     OW20848   2.641   1.336   5.340
 6650SOL    HW120849   2.726   1.386   5.323
 6650SOL    HW220850   2.660   1.254   5.394
 6651SOL     OW20851   6.975   1.621   5.274
 6651SOL    HW120852   0.038   1.574   5.236
 6651SOL    HW220853   6.914   1.648   5.200
 6652SOL     OW20854   6.859   4.101   6.967
 6652SOL    HW120855   6.840   4.192   7.003
 6652SOL    HW220856   6.856   4.034   0.025
 6653SOL     OW20857   5.510   4.642   0.056
 6653SOL    HW120858   5.525   4.573   7.001
 6653SOL    HW220859   5.515   4.733   0.015
 6654SOL     OW20860   6.571   2.485   3.139
 6654SOL    HW120861   6.526   2.485   3.228
 6654SOL    HW220862   6.670   2.488   3.151
 6655SOL     OW20863   6.781   5.963   1.452
 6655SOL    HW120864   6.751   5.985   1.359
 6655SOL    HW220865   6.857   5.899   1.449
 6656SOL     OW20866   4.132   0.849   2.697
 6656SOL    HW120867   4.094   0.935   2.662
 6656SOL    HW220868   4.091   0.828   2.786
 6657SOL     OW20869   4.769   1.468   4.582
 6657SOL    HW120870   4.738   1.373   4.586
 6657SOL    HW220871   4.732   1.518   4.660
 6658SOL     OW20872   6.677   5.668   4.608
 6658SOL    HW120873   6.602   5.602   4.596
 6658SOL    HW220874   6.639   5.759   4.624
 6659SOL     OW20875   0.537   5.440   1.066
 6659SOL    HW120876   0.591   5.503   1.011
 6659SOL    HW220877   0.553   5.458   1.163
 6660SOL     OW20878   0.507   0.576   4.378
 6660SOL    HW120879   0.408   0.564   4.389
 6660SOL    HW220880   0.548   0.489   4.351
 6661SOL     OW20881   4.275   6.136   3.860
 6661SOL    HW120882   4.327   6.055   3.888
 6661SOL    HW220883   4.320   6.218   3.896
 6662SOL     OW20884   3.271   0.125   2.486
 6662SOL    HW120885   3.255   0.220   2.461
 6662SOL    HW220886   3.202   0.067   2.442
 6663SOL     OW20887   1.559   4.119   5.844
 6663SOL    HW120888   1.612   4.200   5.870
 6663SOL    HW220889   1.480   4.147   5.789
 6664SOL     OW20890   3.600   6.867   1.639
 6664SOL    HW120891   3.529   6.880   1.570
 6664SOL    HW220892   3.670   6.805   1.603
 6665SOL     OW20893   2.977   0.862   0.000
 6665SOL    HW120894   3.051   0.875   0.066
 6665SOL    HW220895   2.910   0.936   0.011
 6666SOL     OW20896   3.323   6.320   5.497
 6666SOL    HW120897   3.298   6.373   5.416
 6666SOL    HW220898   3.259   6.340   5.571
 6667SOL     OW20899   1.426   5.933   6.552
 6667SOL    HW120900   1.475   5.884   6.480
 6667SOL    HW220901   1.405   5.870   6.627
 6668SOL     OW20902   6.549   4.238   6.781
 6668SOL    HW120903   6.459   4.196   6.792
 6668SOL    HW220904   6.538   4.331   6.747
 6669SOL     OW20905   1.484   2.514   3.376
 6669SOL    HW120906   1.547   2.490   3.450
 6669SOL    HW220907   1.517   2.596   3.329
 6670SOL     OW20908   3.405   3.337   0.701
 6670SOL    HW120909   3.361   3.382   0.623
 6670SOL    HW220910   3.397   3.396   0.782
 6671SOL     OW20911   4.671   4.972   0.489
 6671SOL    HW120912   4.641   5.034   0.416
 6671SOL    HW220913   4.763   4.938   0.468
 6672SOL     OW20914   1.554   2.692   1.201
 6672SOL    HW120915   1.630   2.628   1.195
 6672SOL    HW220916   1.527   2.722   1.110
 6673SOL     OW20917   5.831   3.190   4.139
 6673SOL    HW120918   5.874   3.261   4.196
 6673SOL    HW220919   5.741   3.221   4.110
 6674SOL     OW20920   6.540   0.356   0.526
 6674SOL    HW120921   6.544   0.440   0.580
 6674SOL    HW220922   6.632   0.331   0.496
 6675SOL     OW20923   4.878   0.635   0.129
 6675SOL    HW120924   4.910   0.547   0.162
 6675SOL    HW220925   4.806   0.670   0.189
 6676SOL     OW20926   0.604   3.999   5.088
 6676SOL    HW120927   0.518   4.002   5.037
 6676SOL    HW220928   0.665   3.932   5.046
 6677SOL     OW20929   0.497   1.987   6.425
 6677SOL    HW120930   0.568   1.923   6.393
 6677SOL    HW220931   0.538   2.076   6.441
 6678SOL     OW20932   3.071   4.168   6.541
 6678SOL    HW120933   3.032   4.223   6.614
 6678SOL    HW220934   3.131   4.098   6.581
 6679SOL     OW20935   1.290   0.590   4.114
 6679SOL    HW120936   1.345   0.542   4.045
 6679SOL    HW220937   1.274   0.684   4.083
 6680SOL     OW20938   6.234   4.754   1.584
 6680SOL    HW120939   6.276   4.743   1.494
 6680SOL    HW220940   6.250   4.848   1.616
 6681SOL     OW20941   2.300   5.915   1.134
 6681SOL    HW120942   2.366   5.840   1.132
 6681SOL    HW220943   2.207   5.877   1.129
 6682SOL     OW20944   2.585   5.533   6.266
 6682SOL    HW120945   2.635   5.468   6.209
 6682SOL    HW220946   2.490   5.506   6.273
 6683SOL     OW20947   6.650   5.332   5.603
 6683SOL    HW120948   6.623   5.238   5.621
 6683SOL    HW220949   6.568   5.389   5.598
 6684SOL     OW20950   2.766   5.685   6.415
 6684SOL    HW120951   2.708   5.633   6.353
 6684SOL    HW220952   2.802   5.765   6.368
 6685SOL     OW20953   4.487   2.605   0.846
 6685SOL    HW120954   4.481   2.699   0.814
 6685SOL    HW220955   4.569   2.562   0.808
 6686SOL     OW20956   4.878   4.692   5.762
 6686SOL    HW120957   4.866   4.685   5.861
 6686SOL    HW220958   4.924   4.610   5.728
 6687SOL     OW20959   0.556   1.803   1.275
 6687SOL    HW120960   0.474   1.811   1.331
 6687SOL    HW220961   0.559   1.878   1.208
 6688SOL     OW20962   4.267   6.162   0.470
 6688SOL    HW120963   4.226   6.234   0.414
 6688SOL    HW220964   4.352   6.131   0.428
 6689SOL     OW20965   3.354   4.778   5.825
 6689SOL    HW120966   3.307   4.709   5.770
 6689SOL    HW220967   3.419   4.827   5.767
 6690SOL     OW20968   0.482   0.957   0.210
 6690SOL    HW120969   0.510   1.048   0.178
 6690SOL    HW220970   0.554   0.891   0.190
 6691SOL     OW20971   2.588   1.206   1.965
 6691SOL    HW120972   2.633   1.293   1.986
 6691SOL    HW220973   2.497   1.205   2.006
 6692SOL     OW20974   4.440   6.085   2.419
 6692SOL    HW120975   4.530   6.091   2.463
 6692SOL    HW220976   4.451   6.090   2.320
 6693SOL     OW20977   3.362   1.109   5.613
 6693SOL    HW120978   3.314   1.100   5.525
 6693SOL    HW220979   3.338   1.031   5.671
 6694SOL     OW20980   4.357   4.096   1.454
 6694SOL    HW120981   4.284   4.062   1.513
 6694SOL    HW220982   4.331   4.184   1.415
 6695SOL     OW20983   2.801   2.436   0.284
 6695SOL    HW120984   2.851   2.494   0.219
 6695SOL    HW220985   2.828   2.459   0.377
 6696SOL     OW20986   3.808   3.074   4.790
 6696SOL    HW120987   3.783   3.127   4.871
 6696SOL    HW220988   3.880   3.122   4.739
 6697SOL     OW20989   4.187   1.982   1.933
 6697SOL    HW120990   4.098   2.010   1.897
 6697SOL    HW220991   4.231   2.060   1.976
 6698SOL     OW20992   3.211   3.921   1.398
 6698SOL    HW120993   3.204   3.872   1.485
 6698SOL    HW220994   3.120   3.926   1.355
 6699SOL     OW20995   1.475   3.327   5.684
 6699SOL    HW120996   1.575   3.318   5.680
 6699SOL    HW220997   1.449   3.377   5.767
 6700SOL     OW20998   5.771   0.224   1.330
 6700SOL    HW120999   5.832   0.145   1.320
 6700SOL    HW221000   5.677   0.193   1.341
 6701SOL     OW21001   5.920   0.105   1.739
 6701SOL    HW121002   5.837   0.099   1.682
 6701SOL    HW221003   5.972   0.187   1.712
 6702SOL     OW21004   3.650   3.416   0.471
 6702SOL    HW121005   3.708   3.417   0.553
 6702SOL    HW221006   3.706   3.397   0.391
 6703SOL     OW21007   0.348   1.233   0.561
 6703SOL    HW121008   0.446   1.236   0.539
 6703SOL    HW221009   0.336   1.238   0.661
 6704SOL     OW21010   3.362   0.074   5.219
 6704SOL    HW121011   3.289   0.067   5.152
 6704SOL    HW221012   3.446   0.107   5.175
 6705SOL     OW21013   0.043   4.306   2.312
 6705SOL    HW121014   6.965   4.308   2.279
 6705SOL    HW221015   0.100   4.257   2.246
 6706SOL     OW21016   0.090   6.878   0.672
 6706SOL    HW121017   0.049   6.963   0.638
 6706SOL    HW221018   0.100   6.813   0.596
 6707SOL     OW21019   4.468   0.930   2.789
 6707SOL    HW121020   4.387   0.904   2.736
 6707SOL    HW221021   4.474   0.873   2.871
 6708SOL     OW21022   0.697   2.833   0.472
 6708SOL    HW121023   0.673   2.764   0.405
 6708SOL    HW221024   0.617   2.858   0.526
 6709SOL     OW21025   2.425   4.426   2.082
 6709SOL    HW121026   2.452   4.388   1.993
 6709SOL    HW221027   2.398   4.352   2.143
 6710SOL     OW21028   4.714   1.274   0.771
 6710SOL    HW121029   4.671   1.216   0.702
 6710SOL    HW221030   4.800   1.312   0.735
 6711SOL     OW21031   3.543   5.950   6.214
 6711SOL    HW121032   3.604   5.891   6.266
 6711SOL    HW221033   3.479   5.996   6.276
 6712SOL     OW21034   4.719   4.426   1.528
 6712SOL    HW121035   4.669   4.415   1.443
 6712SOL    HW221036   4.723   4.523   1.552
 6713SOL     OW21037   1.649   4.514   4.462
 6713SOL    HW121038   1.603   4.460   4.533
 6713SOL    HW221039   1.746   4.493   4.461
 6714SOL     OW21040   5.418   1.697   1.623
 6714SOL    HW121041   5.360   1.641   1.682
 6714SOL    HW221042   5.448   1.643   1.545
 6715SOL     OW21043   1.175   0.372   6.202
 6715SOL    HW121044   1.123   0.455   6.224
 6715SOL    HW221045   1.269   0.383   6.232
 6716SOL     OW21046   1.266   5.643   1.920
 6716SOL    HW121047   1.172   5.672   1.936
 6716SOL    HW221048   1.306   5.699   1.848
 6717SOL     OW21049   6.074   1.932   5.830
 6717SOL    HW121050   6.002   1.988   5.788
 6717SOL    HW221051   6.159   1.944   5.779
 6718SOL     OW21052   4.910   1.552   0.771
 6718SOL    HW121053   4.944   1.467   0.732
 6718SOL    HW221054   4.853   1.599   0.704
 6719SOL     OW21055   1.407   1.553   0.133
 6719SOL    HW121056   1.453   1.581   0.218
 6719SOL    HW221057   1.320   1.602   0.125
 6720SOL     OW21058   1.825   0.899   5.963
 6720SOL    HW121059   1.874   0.817   5.992
 6720SOL    HW221060   1.757   0.873   5.893
 6721SOL     OW21061   6.233   6.622   0.941
 6721SOL    HW121062   6.235   6.719   0.917
 6721SOL    HW221063   6.300   6.605   1.013
 6722SOL     OW21064   5.374   4.208   0.614
 6722SOL    HW121065   5.323   4.124   0.599
 6722SOL    HW221066   5.310   4.283   0.631
 6723SOL     OW21067   1.606   3.256   4.430
 6723SOL    HW121068   1.629   3.205   4.513
 6723SOL    HW221069   1.674   3.327   4.413
 6724SOL     OW21070   2.112   3.885   4.119
 6724SOL    HW121071   2.111   3.786   4.132
 6724SOL    HW221072   2.045   3.927   4.180
 6725SOL     OW21073   4.885   3.468   3.949
 6725SOL    HW121074   4.871   3.506   4.041
 6725SOL    HW221075   4.911   3.372   3.956
 6726SOL     OW21076   0.704   1.307   6.410
 6726SOL    HW121077   0.772   1.361   6.360
 6726SOL    HW221078   0.670   1.359   6.488
 6727SOL     OW21079   1.213   4.978   5.840
 6727SOL    HW121080   1.178   4.940   5.754
 6727SOL    HW221081   1.142   4.970   5.911
 6728SOL     OW21082   3.572   1.609   3.938
 6728SOL    HW121083   3.668   1.592   3.917
 6728SOL    HW221084   3.553   1.584   4.033
 6729SOL     OW21085   3.784   1.133   2.010
 6729SOL    HW121086   3.857   1.066   1.996
 6729SOL    HW221087   3.823   1.224   2.016
 6730SOL     OW21088   6.965   1.964   0.427
 6730SOL    HW121089   6.884   1.973   0.369
 6730SOL    HW221090   0.015   1.904   0.382
 6731SOL     OW21091   4.409   0.323   6.078
 6731SOL    HW121092   4.349   0.253   6.116
 6731SOL    HW221093   4.406   0.319   5.978
 6732SOL     OW21094   0.088   4.844   5.363
 6732SOL    HW121095   0.026   4.923   5.370
 6732SOL    HW221096   0.172   4.872   5.315
 6733SOL     OW21097   4.751   4.966   5.084
 6733SOL    HW121098   4.794   4.938   4.998
 6733SOL    HW221099   4.821   4.997   5.148
 6734SOL     OW21100   5.852   2.274   5.150
 6734SOL    HW121101   5.914   2.206   5.188
 6734SOL    HW221102   5.873   2.364   5.188
 6735SOL     OW21103   5.845   2.422   3.839
 6735SOL    HW121104   5.775   2.364   3.796
 6735SOL    HW221105   5.817   2.518   3.834
 6736SOL     OW21106   3.247   3.797   0.474
 6736SOL    HW121107   3.181   3.762   0.541
 6736SOL    HW221108   3.307   3.723   0.445
 6737SOL     OW21109   6.287   3.490   0.894
 6737SOL    HW121110   6.386   3.500   0.900
 6737SOL    HW221111   6.265   3.399   0.859
 6738SOL     OW21112   2.094   6.439   4.425
 6738SOL    HW121113   2.149   6.356   4.435
 6738SOL    HW221114   2.146   6.518   4.456
 6739SOL     OW21115   6.802   6.834   5.546
 6739SOL    HW121116   6.819   6.775   5.467
 6739SOL    HW221117   6.887   6.849   5.596
 6740SOL     OW21118   0.003   6.914   2.080
 6740SOL    HW121119   0.094   6.927   2.040
 6740SOL    HW221120   6.958   6.986   2.047
 6741SOL     OW21121   3.327   1.906   0.432
 6741SOL    HW121122   3.261   1.917   0.506
 6741SOL    HW221123   3.333   1.990   0.379
 6742SOL     OW21124   6.145   4.339   2.871
 6742SOL    HW121125   6.049   4.318   2.853
 6742SOL    HW221126   6.201   4.309   2.794
 6743SOL     OW21127   4.044   3.315   6.675
 6743SOL    HW121128   3.995   3.270   6.601
 6743SOL    HW221129   4.032   3.263   6.760
 6744SOL     OW21130   6.014   6.632   5.472
 6744SOL    HW121131   6.014   6.629   5.372
 6744SOL    HW221132   6.107   6.648   5.505
 6745SOL     OW21133   6.645   4.058   5.509
 6745SOL    HW121134   6.677   3.963   5.515
 6745SOL    HW221135   6.549   4.058   5.480
 6746SOL     OW21136   1.306   2.079   3.076
 6746SOL    HW121137   1.210   2.098   3.061
 6746SOL    HW221138   1.354   2.162   3.103
 6747SOL     OW21139   0.646   6.340   5.012
 6747SOL    HW121140   0.572   6.350   5.078
 6747SOL    HW221141   0.734   6.353   5.059
 6748SOL     OW21142   2.300   0.703   4.770
 6748SOL    HW121143   2.382   0.738   4.726
 6748SOL    HW221144   2.237   0.778   4.791
 6749SOL     OW21145   4.224   5.102   2.082
 6749SOL    HW121146   4.241   5.197   2.110
 6749SOL    HW221147   4.128   5.079   2.099
 6750SOL     OW21148   3.440   0.747   5.764
 6750SOL    HW121149   3.469   0.704   5.850
 6750SOL    HW221150   3.382   0.825   5.784
 6751SOL     OW21151   4.276   0.470   4.543
 6751SOL    HW121152   4.282   0.412   4.462
 6751SOL    HW221153   4.367   0.482   4.583
 6752SOL     OW21154   2.112   4.565   2.624
 6752SOL    HW121155   2.167   4.576   2.707
 6752SOL    HW221156   2.037   4.502   2.643
 6753SOL     OW21157   3.724   3.557   6.474
 6753SOL    HW121158   3.685   3.612   6.548
 6753SOL    HW221159   3.824   3.560   6.480
 6754SOL     OW21160   6.291   1.059   0.566
 6754SOL    HW121161   6.195   1.074   0.543
 6754SOL    HW221162   6.314   1.112   0.647
 6755SOL     OW21163   2.923   6.036   6.040
 6755SOL    HW121164   3.016   6.000   6.030
 6755SOL    HW221165   2.860   5.981   5.986
 6756SOL     OW21166   3.590   3.302   6.359
 6756SOL    HW121167   3.526   3.364   6.405
 6756SOL    HW221168   3.602   3.332   6.264
 6757SOL     OW21169   4.123   0.090   1.856
 6757SOL    HW121170   4.075   0.142   1.926
 6757SOL    HW221171   4.059   0.063   1.784
 6758SOL     OW21172   5.175   3.170   3.345
 6758SOL    HW121173   5.248   3.102   3.337
 6758SOL    HW221174   5.162   3.193   3.442
 6759SOL     OW21175   0.792   1.672   2.963
 6759SOL    HW121176   0.724   1.601   2.945
 6759SOL    HW221177   0.855   1.678   2.885
 6760SOL     OW21178   5.318   2.200   5.245
 6760SOL    HW121179   5.301   2.289   5.204
 6760SOL    HW221180   5.260   2.190   5.326
 6761SOL     OW21181   3.723   1.523   5.134
 6761SOL    HW121182   3.656   1.559   5.068
 6761SOL    HW221183   3.802   1.584   5.137
 6762SOL     OW21184   6.118   4.936   4.785
 6762SOL    HW121185   6.123   4.836   4.792
 6762SOL    HW221186   6.210   4.973   4.779
 6763SOL     OW21187   5.722   6.899   3.967
 6763SOL    HW121188   5.628   6.895   4.001
 6763SOL    HW221189   5.745   6.812   3.924
 6764SOL     OW21190   0.389   5.072   1.755
 6764SOL    HW121191   0.456   5.049   1.684
 6764SOL    HW221192   0.298   5.072   1.715
 6765SOL     OW21193   0.114   3.405   2.266
 6765SOL    HW121194   0.156   3.474   2.207
 6765SOL    HW221195   0.131   3.314   2.228
 6766SOL     OW21196   6.255   0.191   1.409
 6766SOL    HW121197   6.175   0.206   1.466
 6766SOL    HW221198   6.228   0.193   1.313
 6767SOL     OW21199   3.249   0.067   1.170
 6767SOL    HW121200   3.239   6.989   1.202
 6767SOL    HW221201   3.182   0.126   1.215
 6768SOL     OW21202   1.992   0.047   6.844
 6768SOL    HW121203   2.092   0.044   6.842
 6768SOL    HW221204   1.962   0.083   6.932
 6769SOL     OW21205   4.708   2.903   1.569
 6769SOL    HW121206   4.667   2.987   1.607
 6769SOL    HW221207   4.712   2.909   1.470
 6770SOL     OW21208   0.330   1.293   1.258
 6770SOL    HW121209   0.272   1.327   1.332
 6770SOL    HW221210   0.301   1.333   1.171
 6771SOL     OW21211   4.600   2.021   3.011
 6771SOL    HW121212   4.633   1.926   3.008
 6771SOL    HW221213   4.513   2.024   3.061
 6772SOL     OW21214   3.866   1.913   3.771
 6772SOL    HW121215   3.910   1.973   3.837
 6772SOL    HW221216   3.924   1.833   3.754
 6773SOL     OW21217   0.409   3.637   1.142
 6773SOL    HW121218   0.458   3.634   1.229
 6773SOL    HW221219   0.445   3.711   1.085
 6774SOL     OW21220   0.820   2.761   6.432
 6774SOL    HW121221   0.914   2.784   6.459
 6774SOL    HW221222   0.768   2.845   6.418
 6775SOL     OW21223   1.442   4.667   0.230
 6775SOL    HW121224   1.539   4.658   0.254
 6775SOL    HW221225   1.387   4.625   0.303
 6776SOL     OW21226   6.172   5.401   6.590
 6776SOL    HW121227   6.266   5.434   6.588
 6776SOL    HW221228   6.134   5.405   6.497
 6777SOL     OW21229   4.728   5.842   0.167
 6777SOL    HW121230   4.775   5.782   0.232
 6777SOL    HW221231   4.636   5.806   0.149
 6778SOL     OW21232   6.852   5.449   3.310
 6778SOL    HW121233   6.934   5.506   3.322
 6778SOL    HW221234   6.858   5.402   3.222
 6779SOL     OW21235   6.285   3.636   6.381
 6779SOL    HW121236   6.189   3.629   6.407
 6779SOL    HW221237   6.337   3.562   6.425
 6780SOL     OW21238   0.848   2.728   2.326
 6780SOL    HW121239   0.834   2.823   2.297
 6780SOL    HW221240   0.873   2.727   2.423
 6781SOL     OW21241   5.918   5.188   5.548
 6781SOL    HW121242   6.010   5.185   5.509
 6781SOL    HW221243   5.874   5.099   5.536
 6782SOL     OW21244   6.063   1.164   2.848
 6782SOL    HW121245   6.069   1.260   2.818
 6782SOL    HW221246   5.984   1.121   2.805
 6783SOL     OW21247   0.340   6.317   6.443
 6783SOL    HW121248   0.410   6.359   6.386
 6783SOL    HW221249   0.377   6.234   6.485
 6784SOL     OW21250   3.632   2.663   0.033
 6784SOL    HW121251   3.716   2.704   0.068
 6784SOL    HW221252   3.554   2.718   0.063
 6785SOL     OW21253   6.243   5.575   1.532
 6785SOL    HW121254   6.221   5.671   1.549
 6785SOL    HW221255   6.204   5.518   1.603
 6786SOL     OW21256   1.751   3.498   5.885
 6786SOL    HW121257   1.774   3.548   5.801
 6786SOL    HW221258   1.822   3.514   5.953
 6787SOL     OW21259   1.047   3.445   1.742
 6787SOL    HW121260   1.067   3.451   1.840
 6787SOL    HW221261   0.987   3.520   1.715
 6788SOL     OW21262   2.816   4.871   0.939
 6788SOL    HW121263   2.903   4.823   0.955
 6788SOL    HW221264   2.740   4.810   0.961
 6789SOL     OW21265   0.640   5.520   3.424
 6789SOL    HW121266   0.692   5.475   3.351
 6789SOL    HW221267   0.662   5.477   3.511
 6790SOL     OW21268   1.269   2.536   0.466
 6790SOL    HW121269   1.254   2.633   0.449
 6790SOL    HW221270   1.183   2.493   0.494
 6791SOL     OW21271   3.688   3.893   6.491
 6791SOL    HW121272   3.712   3.977   6.540
 6791SOL    HW221273   3.642   3.916   6.405
 6792SOL     OW21274   0.535   4.700   0.151
 6792SOL    HW121275   0.601   4.627   0.167
 6792SOL    HW221276   0.545   4.771   0.221
 6793SOL     OW21277   5.737   1.410   1.364
 6793SOL    HW121278   5.746   1.491   1.422
 6793SOL    HW221279   5.640   1.390   1.350
 6794SOL     OW21280   4.367   1.398   4.511
 6794SOL    HW121281   4.352   1.323   4.575
 6794SOL    HW221282   4.461   1.432   4.521
 6795SOL     OW21283   2.999   5.938   6.985
 6795SOL    HW121284   3.043   6.006   0.026
 6795SOL    HW221285   2.980   5.977   6.895
 6796SOL     OW21286   4.154   2.236   2.776
 6796SOL    HW121287   4.137   2.261   2.872
 6796SOL    HW221288   4.072   2.195   2.738
 6797SOL     OW21289   6.996   2.564   1.963
 6797SOL    HW121290   6.930   2.494   1.991
 6797SOL    HW221291   6.993   2.575   1.864
 6798SOL     OW21292   6.384   0.334   2.265
 6798SOL    HW121293   6.291   0.314   2.236
 6798SOL    HW221294   6.384   0.416   2.322
 6799SOL     OW21295   5.369   5.818   1.995
 6799SOL    HW121296   5.427   5.809   2.076
 6799SOL    HW221297   5.426   5.836   1.915
 6800SOL     OW21298   3.349   3.910   0.144
 6800SOL    HW121299   3.347   3.821   0.099
 6800SOL    HW221300   3.410   3.906   0.223
 6801SOL     OW21301   1.350   1.578   3.113
 6801SOL    HW121302   1.291   1.592   3.034
 6801SOL    HW221303   1.322   1.640   3.187
 6802SOL     OW21304   2.767   5.070   2.882
 6802SOL    HW121305   2.789   5.067   2.980
 6802SOL    HW221306   2.671   5.046   2.869
 6803SOL     OW21307   4.992   2.213   0.213
 6803SOL    HW121308   4.984   2.240   0.309
 6803SOL    HW221309   5.089   2.200   0.190
 6804SOL     OW21310   1.080   6.976   3.866
 6804SOL    HW121311   1.024   6.999   3.786
 6804SOL    HW221312   1.121   6.886   3.852
 6805SOL     OW21313   5.087   0.993   4.963
 6805SOL    HW121314   5.001   1.043   4.952
 6805SOL    HW221315   5.164   1.057   4.955
 6806SOL     OW21316   5.442   6.506   5.371
 6806SOL    HW121317   5.420   6.547   5.460
 6806SOL    HW221318   5.541   6.502   5.360
 6807SOL     OW21319   3.604   3.173   6.986
 6807SOL    HW121320   3.608   3.129   6.897
 6807SOL    HW221321   3.647   3.114   0.039
 6808SOL     OW21322   1.540   3.086   3.927
 6808SOL    HW121323   1.630   3.046   3.946
 6808SOL    HW221324   1.473   3.049   3.991
 6809SOL     OW21325   2.377   4.063   6.675
 6809SOL    HW121326   2.422   3.984   6.716
 6809SOL    HW221327   2.407   4.073   6.580
 6810SOL     OW21328   5.508   1.914   2.792
 6810SOL    HW121329   5.416   1.945   2.766
 6810SOL    HW221330   5.576   1.960   2.735
 6811SOL     OW21331   5.129   5.662   2.040
 6811SOL    HW121332   5.086   5.708   2.117
 6811SOL    HW221333   5.216   5.706   2.019
 6812SOL     OW21334   3.639   2.854   2.403
 6812SOL    HW121335   3.639   2.813   2.312
 6812SOL    HW221336   3.552   2.834   2.448
 6813SOL     OW21337   4.835   3.723   1.343
 6813SOL    HW121338   4.842   3.657   1.417
 6813SOL    HW221339   4.898   3.697   1.269
 6814SOL     OW21340   2.703   3.166   0.284
 6814SOL    HW121341   2.706   3.205   0.376
 6814SOL    HW221342   2.769   3.213   0.226
 6815SOL     OW21343   1.810   6.763   1.596
 6815SOL    HW121344   1.903   6.768   1.560
 6815SOL    HW221345   1.789   6.846   1.648
 6816SOL     OW21346   6.561   3.974   1.393
 6816SOL    HW121347   6.635   3.939   1.451
 6816SOL    HW221348   6.499   3.899   1.370
 6817SOL     OW21349   0.745   2.270   6.053
 6817SOL    HW121350   0.775   2.342   5.990
 6817SOL    HW221351   0.701   2.311   6.132
 6818SOL     OW21352   3.466   5.852   2.181
 6818SOL    HW121353   3.566   5.860   2.183
 6818SOL    HW221354   3.439   5.762   2.215
 6819SOL     OW21355   3.024   1.055   3.697
 6819SOL    HW121356   3.006   0.976   3.638
 6819SOL    HW221357   3.001   1.139   3.648
 6820SOL     OW21358   1.607   4.827   3.824
 6820SOL    HW121359   1.622   4.923   3.801
 6820SOL    HW221360   1.643   4.770   3.750
 6821SOL     OW21361   2.491   2.511   4.351
 6821SOL    HW121362   2.488   2.486   4.254
 6821SOL    HW221363   2.574   2.474   4.392
 6822SOL     OW21364   4.921   2.057   5.545
 6822SOL    HW121365   4.857   2.125   5.580
 6822SOL    HW221366   4.974   2.020   5.622
 6823SOL     OW21367   3.700   3.807   2.374
 6823SOL    HW121368   3.634   3.766   2.437
 6823SOL    HW221369   3.780   3.839   2.425
 6824SOL     OW21370   1.636   4.946   6.158
 6824SOL    HW121371   1.610   5.037   6.191
 6824SOL    HW221372   1.567   4.914   6.093
 6825SOL     OW21373   5.148   0.154   4.152
 6825SOL    HW121374   5.244   0.177   4.134
 6825SOL    HW221375   5.089   0.198   4.084
 6826SOL     OW21376   0.985   2.540   2.771
 6826SOL    HW121377   1.077   2.501   2.781
 6826SOL    HW221378   0.945   2.554   2.861
 6827SOL     OW21379   6.039   6.291   4.970
 6827SOL    HW121380   6.010   6.329   5.058
 6827SOL    HW221381   5.969   6.307   4.901
 6828SOL     OW21382   2.232   1.749   1.231
 6828SOL    HW121383   2.162   1.681   1.252
 6828SOL    HW221384   2.240   1.813   1.307
 6829SOL     OW21385   5.238   4.980   3.619
 6829SOL    HW121386   5.278   4.919   3.688
 6829SOL    HW221387   5.280   5.070   3.626
 6830SOL     OW21388   5.078   2.231   4.553
 6830SOL    HW121389   5.046   2.291   4.626
 6830SOL    HW221390   5.055   2.137   4.575
 6831SOL     OW21391   0.169   1.079   5.581
 6831SOL    HW121392   0.111   1.159   5.566
 6831SOL    HW221393   0.115   0.995   5.571
 6832SOL     OW21394   2.907   4.990   1.780
 6832SOL    HW121395   2.897   4.931   1.861
 6832SOL    HW221396   2.993   4.970   1.735
 6833SOL     OW21397   4.089   5.609   0.391
 6833SOL    HW121398   4.000   5.587   0.352
 6833SOL    HW221399   4.077   5.667   0.472
 6834SOL     OW21400   3.775   5.499   2.552
 6834SOL    HW121401   3.822   5.575   2.596
 6834SOL    HW221402   3.838   5.450   2.492
 6835SOL     OW21403   3.502   6.531   4.737
 6835SOL    HW121404   3.478   6.450   4.684
 6835SOL    HW221405   3.499   6.509   4.835
 6836SOL     OW21406   3.193   5.899   6.313
 6836SOL    HW121407   3.247   5.977   6.344
 6836SOL    HW221408   3.245   5.814   6.328
 6837SOL     OW21409   0.608   2.795   2.549
 6837SOL    HW121410   0.605   2.700   2.521
 6837SOL    HW221411   0.594   2.854   2.470
 6838SOL     OW21412   2.755   1.916   0.608
 6838SOL    HW121413   2.740   2.015   0.606
 6838SOL    HW221414   2.809   1.889   0.528
 6839SOL     OW21415   4.604   0.737   1.586
 6839SOL    HW121416   4.677   0.805   1.581
 6839SOL    HW221417   4.602   0.684   1.502
 6840SOL     OW21418   1.051   1.178   6.378
 6840SOL    HW121419   0.984   1.151   6.447
 6840SOL    HW221420   1.127   1.226   6.422
 6841SOL     OW21421   0.241   3.406   6.263
 6841SOL    HW121422   0.324   3.429   6.213
 6841SOL    HW221423   0.177   3.484   6.260
 6842SOL     OW21424   2.516   4.527   3.180
 6842SOL    HW121425   2.476   4.436   3.169
 6842SOL    HW221426   2.524   4.571   3.091
 6843SOL     OW21427   4.038   6.776   0.444
 6843SOL    HW121428   4.117   6.756   0.385
 6843SOL    HW221429   3.960   6.721   0.414
 6844SOL     OW21430   5.152   0.614   6.246
 6844SOL    HW121431   5.074   0.651   6.296
 6844SOL    HW221432   5.157   0.657   6.156
 6845SOL     OW21433   4.739   2.476   2.625
 6845SOL    HW121434   4.693   2.541   2.685
 6845SOL    HW221435   4.732   2.384   2.663
 6846SOL     OW21436   2.323   3.681   0.171
 6846SOL    HW121437   2.230   3.666   0.135
 6846SOL    HW221438   2.373   3.739   0.108
 6847SOL     OW21439   6.963   2.688   4.387
 6847SOL    HW121440   0.044   2.682   4.409
 6847SOL    HW221441   6.926   2.775   4.418
 6848SOL     OW21442   6.861   4.890   3.250
 6848SOL    HW121443   6.838   4.805   3.203
 6848SOL    HW221444   6.960   4.903   3.250
 6849SOL     OW21445   3.117   3.795   5.983
 6849SOL    HW121446   3.094   3.734   6.058
 6849SOL    HW221447   3.063   3.771   5.902
 6850SOL     OW21448   4.782   0.553   4.038
 6850SOL    HW121449   4.713   0.595   3.979
 6850SOL    HW221450   4.864   0.534   3.985
 6851SOL     OW21451   2.102   3.366   3.633
 6851SOL    HW121452   2.107   3.392   3.729
 6851SOL    HW221453   2.015   3.320   3.615
 6852SOL     OW21454   4.046   4.620   0.262
 6852SOL    HW121455   4.005   4.543   0.310
 6852SOL    HW221456   4.062   4.695   0.326
 6853SOL     OW21457   4.497   4.243   6.466
 6853SOL    HW121458   4.418   4.208   6.415
 6853SOL    HW221459   4.581   4.220   6.416
 6854SOL     OW21460   5.310   5.924   6.255
 6854SOL    HW121461   5.261   5.842   6.226
 6854SOL    HW221462   5.391   5.898   6.307
 6855SOL     OW21463   4.282   4.989   3.378
 6855SOL    HW121464   4.202   5.023   3.329
 6855SOL    HW221465   4.341   4.938   3.315
 6856SOL     OW21466   0.330   2.357   6.638
 6856SOL    HW121467   0.335   2.281   6.703
 6856SOL    HW221468   0.394   2.428   6.665
 6857SOL     OW21469   1.016   4.102   5.676
 6857SOL    HW121470   1.055   4.142   5.593
 6857SOL    HW221471   0.956   4.026   5.651
 6858SOL     OW21472   1.890   3.995   2.007
 6858SOL    HW121473   1.971   3.985   1.949
 6858SOL    HW221474   1.892   3.927   2.080
 6859SOL     OW21475   1.834   1.525   2.004
 6859SOL    HW121476   1.807   1.524   1.907
 6859SOL    HW221477   1.819   1.616   2.042
 6860SOL     OW21478   0.703   6.493   1.022
 6860SOL    HW121479   0.703   6.417   0.957
 6860SOL    HW221480   0.774   6.559   0.998
 6861SOL     OW21481   6.146   3.201   6.331
 6861SOL    HW121482   6.138   3.259   6.411
 6861SOL    HW221483   6.078   3.227   6.263
 6862SOL     OW21484   0.653   4.241   4.378
 6862SOL    HW121485   0.693   4.151   4.363
 6862SOL    HW221486   0.705   4.310   4.329
 6863SOL     OW21487   5.323   1.339   5.318
 6863SOL    HW121488   5.332   1.432   5.284
 6863SOL    HW221489   5.234   1.302   5.290
 6864SOL     OW21490   1.552   3.629   6.034
 6864SOL    HW121491   1.630   3.601   5.978
 6864SOL    HW221492   1.566   3.602   6.129
 6865SOL     OW21493   2.637   0.473   3.850
 6865SOL    HW121494   2.589   0.547   3.898
 6865SOL    HW221495   2.630   0.488   3.751
 6866SOL     OW21496   1.111   4.766   0.098
 6866SOL    HW121497   1.175   4.691   0.118
 6866SOL    HW221498   1.029   4.730   0.055
 6867SOL     OW21499   1.995   3.697   6.468
 6867SOL    HW121500   2.065   3.720   6.401
 6867SOL    HW221501   2.019   3.738   6.556
 6868SOL     OW21502   2.952   5.238   3.587
 6868SOL    HW121503   3.040   5.256   3.542
 6868SOL    HW221504   2.940   5.302   3.663
 6869SOL     OW21505   2.819   0.801   6.071
 6869SOL    HW121506   2.736   0.797   6.016
 6869SOL    HW221507   2.820   0.725   6.137
 6870SOL     OW21508   5.846   1.954   0.303
 6870SOL    HW121509   5.854   1.907   0.391
 6870SOL    HW221510   5.921   1.924   0.243
 6871SOL     OW21511   6.848   3.482   2.464
 6871SOL    HW121512   6.884   3.391   2.446
 6871SOL    HW221513   6.748   3.481   2.458
 6872SOL     OW21514   1.740   4.261   1.175
 6872SOL    HW121515   1.803   4.309   1.114
 6872SOL    HW221516   1.685   4.328   1.226
 6873SOL     OW21517   0.616   4.380   2.970
 6873SOL    HW121518   0.664   4.342   3.050
 6873SOL    HW221519   0.588   4.305   2.910
 6874SOL     OW21520   4.867   6.117   2.771
 6874SOL    HW121521   4.820   6.036   2.805
 6874SOL    HW221522   4.806   6.196   2.777
 6875SOL     OW21523   2.347   0.978   0.385
 6875SOL    HW121524   2.306   0.920   0.314
 6875SOL    HW221525   2.439   1.005   0.356
 6876SOL     OW21526   5.365   5.487   3.609
 6876SOL    HW121527   5.410   5.545   3.540
 6876SOL    HW221528   5.268   5.479   3.587
 6877SOL     OW21529   0.550   3.462   1.823
 6877SOL    HW121530   0.482   3.398   1.859
 6877SOL    HW221531   0.549   3.458   1.723
 6878SOL     OW21532   1.878   0.900   4.532
 6878SOL    HW121533   1.891   0.834   4.458
 6878SOL    HW221534   1.829   0.856   4.608
 6879SOL     OW21535   1.442   1.257   1.190
 6879SOL    HW121536   1.514   1.260   1.120
 6879SOL    HW221537   1.467   1.317   1.266
 6880SOL     OW21538   1.503   5.696   0.350
 6880SOL    HW121539   1.407   5.673   0.366
 6880SOL    HW221540   1.513   5.795   0.344
 6881SOL     OW21541   0.028   3.002   0.236
 6881SOL    HW121542   6.973   3.066   0.207
 6881SOL    HW221543   7.010   2.946   0.311
 6882SOL     OW21544   2.566   6.417   0.100
 6882SOL    HW121545   2.529   6.326   0.118
 6882SOL    HW221546   2.574   6.467   0.186
 6883SOL     OW21547   5.075   0.458   1.404
 6883SOL    HW121548   5.015   0.515   1.460
 6883SOL    HW221549   5.020   0.394   1.350
 6884SOL     OW21550   1.845   4.119   3.376
 6884SOL    HW121551   1.819   4.193   3.437
 6884SOL    HW221552   1.943   4.122   3.358
 6885SOL     OW21553   6.053   4.347   5.310
 6885SOL    HW121554   6.060   4.434   5.262
 6885SOL    HW221555   5.960   4.335   5.343
 6886SOL     OW21556   5.180   2.712   0.466
 6886SOL    HW121557   5.094   2.689   0.513
 6886SOL    HW221558   5.175   2.684   0.371
 6887SOL     OW21559   5.637   5.923   5.891
 6887SOL    HW121560   5.731   5.938   5.922
 6887SOL    HW221561   5.573   5.954   5.961
 6888SOL     OW21562   6.170   3.851   6.968
 6888SOL    HW121563   6.186   3.753   6.954
 6888SOL    HW221564   6.243   3.889   0.007
 6889SOL     OW21565   0.138   2.084   5.673
 6889SOL    HW121566   0.174   2.083   5.766
 6889SOL    HW221567   0.213   2.083   5.607
 6890SOL     OW21568   4.492   4.553   3.762
 6890SOL    HW121569   4.560   4.544   3.835
 6890SOL    HW221570   4.507   4.480   3.694
 6891SOL     OW21571   1.642   1.715   1.234
 6891SOL    HW121572   1.620   1.807   1.265
 6891SOL    HW221573   1.655   1.715   1.135
 6892SOL     OW21574   3.103   1.072   4.898
 6892SOL    HW121575   3.177   1.004   4.895
 6892SOL    HW221576   3.108   1.123   4.984
 6893SOL     OW21577   6.003   3.270   0.686
 6893SOL    HW121578   5.941   3.215   0.630
 6893SOL    HW221579   6.045   3.341   0.628
 6894SOL     OW21580   5.792   4.860   0.122
 6894SOL    HW121581   5.759   4.837   0.214
 6894SOL    HW221582   5.827   4.777   0.078
 6895SOL     OW21583   0.994   6.125   2.664
 6895SOL    HW121584   1.003   6.203   2.726
 6895SOL    HW221585   1.063   6.056   2.687
 6896SOL     OW21586   4.642   1.122   5.239
 6896SOL    HW121587   4.643   1.025   5.215
 6896SOL    HW221588   4.658   1.177   5.157
 6897SOL     OW21589   4.414   2.683   5.258
 6897SOL    HW121590   4.321   2.662   5.229
 6897SOL    HW221591   4.479   2.651   5.189
 6898SOL     OW21592   1.542   6.950   1.107
 6898SOL    HW121593   1.453   6.995   1.118
 6898SOL    HW221594   1.552   6.879   1.176
 6899SOL     OW21595   5.976   5.983   2.416
 6899SOL    HW121596   6.054   5.946   2.465
 6899SOL    HW221597   5.999   6.074   2.380
 6900SOL     OW21598   6.477   3.595   5.143
 6900SOL    HW121599   6.512   3.688   5.158
 6900SOL    HW221600   6.409   3.574   5.213
 6901SOL     OW21601   5.469   5.028   6.325
 6901SOL    HW121602   5.417   4.950   6.290
 6901SOL    HW221603   5.562   4.998   6.345
 6902SOL     OW21604   0.187   5.503   5.789
 6902SOL    HW121605   0.212   5.407   5.775
 6902SOL    HW221606   0.087   5.511   5.791
 6903SOL     OW21607   1.456   6.163   4.518
 6903SOL    HW121608   1.541   6.212   4.537
 6903SOL    HW221609   1.460   6.071   4.558
 6904SOL     OW21610   0.005   0.132   5.764
 6904SOL    HW121611   7.015   0.061   5.834
 6904SOL    HW221612   0.089   0.120   5.711
 6905SOL     OW21613   5.183   5.924   5.907
 6905SOL    HW121614   5.122   5.948   5.831
 6905SOL    HW221615   5.164   5.831   5.937
 6906SOL     OW21616   2.931   0.926   3.463
 6906SOL    HW121617   2.901   0.841   3.506
 6906SOL    HW221618   2.855   0.967   3.413
 6907SOL     OW21619   6.310   1.770   0.772
 6907SOL    HW121620   6.295   1.821   0.856
 6907SOL    HW221621   6.308   1.672   0.792
 6908SOL     OW21622   3.263   5.191   0.705
 6908SOL    HW121623   3.356   5.200   0.667
 6908SOL    HW221624   3.213   5.276   0.688
 6909SOL     OW21625   5.336   5.127   2.816
 6909SOL    HW121626   5.306   5.148   2.723
 6909SOL    HW221627   5.381   5.207   2.856
 6910SOL     OW21628   0.900   2.014   2.724
 6910SOL    HW121629   0.890   2.005   2.625
 6910SOL    HW221630   0.813   2.043   2.763
 6911SOL     OW21631   2.452   6.175   5.596
 6911SOL    HW121632   2.438   6.152   5.500
 6911SOL    HW221633   2.399   6.256   5.620
 6912SOL     OW21634   2.703   4.034   6.993
 6912SOL    HW121635   2.724   4.041   6.896
 6912SOL    HW221636   2.788   4.024   0.028
 6913SOL     OW21637   4.190   5.672   5.757
 6913SOL    HW121638   4.127   5.629   5.691
 6913SOL    HW221639   4.138   5.703   5.836
 6914SOL     OW21640   5.727   2.356   2.049
 6914SOL    HW121641   5.667   2.363   2.129
 6914SOL    HW221642   5.813   2.312   2.075
 6915SOL     OW21643   0.182   3.239   3.456
 6915SOL    HW121644   0.251   3.309   3.476
 6915SOL    HW221645   0.207   3.154   3.502
 6916SOL     OW21646   4.666   6.374   6.087
 6916SOL    HW121647   4.726   6.297   6.064
 6916SOL    HW221648   4.642   6.424   6.004
 6917SOL     OW21649   3.594   6.655   2.269
 6917SOL    HW121650   3.650   6.585   2.315
 6917SOL    HW221651   3.543   6.706   2.338
 6918SOL     OW21652   2.043   3.444   0.233
 6918SOL    HW121653   2.111   3.496   0.182
 6918SOL    HW221654   2.077   3.427   0.326
 6919SOL     OW21655   6.061   6.423   3.587
 6919SOL    HW121656   6.101   6.361   3.655
 6919SOL    HW221657   6.115   6.421   3.503
 6920SOL     OW21658   6.198   1.474   5.931
 6920SOL    HW121659   6.160   1.534   5.859
 6920SOL    HW221660   6.290   1.504   5.954
 6921SOL     OW21661   4.285   0.368   4.287
 6921SOL    HW121662   4.359   0.412   4.237
 6921SOL    HW221663   4.280   0.271   4.262
 6922SOL     OW21664   2.077   5.017   6.846
 6922SOL    HW121665   2.125   4.953   6.907
 6922SOL    HW221666   2.097   5.111   6.874
 6923SOL     OW21667   5.271   0.197   2.751
 6923SOL    HW121668   5.322   0.127   2.801
 6923SOL    HW221669   5.331   0.239   2.683
 6924SOL     OW21670   3.226   5.891   2.010
 6924SOL    HW121671   3.299   5.896   1.942
 6924SOL    HW221672   3.225   5.974   2.065
 6925SOL     OW21673   5.972   6.625   4.907
 6925SOL    HW121674   5.935   6.574   4.830
 6925SOL    HW221675   5.905   6.626   4.982
 6926SOL     OW21676   3.064   2.102   0.293
 6926SOL    HW121677   3.052   2.137   0.386
 6926SOL    HW221678   3.155   2.126   0.260
 6927SOL     OW21679   4.177   0.282   0.471
 6927SOL    HW121680   4.106   0.353   0.477
 6927SOL    HW221681   4.149   0.203   0.526
 6928SOL     OW21682   3.442   5.244   0.104
 6928SOL    HW121683   3.503   5.259   0.026
 6928SOL    HW221684   3.462   5.155   0.146
 6929SOL     OW21685   5.063   4.867   2.475
 6929SOL    HW121686   5.142   4.925   2.456
 6929SOL    HW221687   4.983   4.924   2.496
 6930SOL     OW21688   0.712   6.761   1.820
 6930SOL    HW121689   0.754   6.847   1.792
 6930SOL    HW221690   0.771   6.715   1.887
 6931SOL     OW21691   3.095   3.549   1.030
 6931SOL    HW121692   3.091   3.640   1.072
 6931SOL    HW221693   3.089   3.479   1.101
 6932SOL     OW21694   3.704   0.059   6.119
 6932SOL    HW121695   3.725   0.137   6.060
 6932SOL    HW221696   3.639   0.087   6.189
 6933SOL     OW21697   3.047   5.484   6.063
 6933SOL    HW121698   2.963   5.539   6.063
 6933SOL    HW221699   3.126   5.545   6.056
 6934SOL     OW21700   4.992   5.426   7.002
 6934SOL    HW121701   5.022   5.522   7.002
 6934SOL    HW221702   5.053   5.372   6.945
 6935SOL     OW21703   4.050   6.135   1.912
 6935SOL    HW121704   3.962   6.143   1.959
 6935SOL    HW221705   4.042   6.174   1.820
 6936SOL     OW21706   0.983   1.629   5.772
 6936SOL    HW121707   1.049   1.619   5.698
 6936SOL    HW221708   1.015   1.699   5.836
 6937SOL     OW21709   5.867   5.465   0.463
 6937SOL    HW121710   5.902   5.515   0.384
 6937SOL    HW221711   5.938   5.402   0.496
 6938SOL     OW21712   2.684   1.325   4.888
 6938SOL    HW121713   2.586   1.327   4.910
 6938SOL    HW221714   2.700   1.380   4.805
 6939SOL     OW21715   5.586   3.661   4.113
 6939SOL    HW121716   5.685   3.661   4.122
 6939SOL    HW221717   5.545   3.709   4.191
 6940SOL     OW21718   2.687   6.430   1.119
 6940SOL    HW121719   2.747   6.354   1.145
 6940SOL    HW221720   2.599   6.394   1.089
 6941SOL     OW21721   3.771   3.503   2.510
 6941SOL    HW121722   3.831   3.582   2.506
 6941SOL    HW221723   3.725   3.499   2.598
 6942SOL     OW21724   6.252   5.257   2.887
 6942SOL    HW121725   6.344   5.222   2.870
 6942SOL    HW221726   6.257   5.356   2.905
 6943SOL     OW21727   4.746   4.997   6.582
 6943SOL    HW121728   4.766   5.016   6.679
 6943SOL    HW221729   4.824   5.024   6.526
 6944SOL     OW21730   1.242   4.624   5.431
 6944SOL    HW121731   1.205   4.715   5.410
 6944SOL    HW221732   1.342   4.627   5.426
 6945SOL     OW21733   5.552   1.698   0.755
 6945SOL    HW121734   5.479   1.756   0.721
 6945SOL    HW221735   5.555   1.702   0.855
 6946SOL     OW21736   5.428   6.165   2.909
 6946SOL    HW121737   5.437   6.254   2.953
 6946SOL    HW221738   5.331   6.144   2.897
 6947SOL     OW21739   6.505   4.196   5.201
 6947SOL    HW121740   6.547   4.126   5.259
 6947SOL    HW221741   6.558   4.206   5.117
 6948SOL     OW21742   0.159   4.354   6.685
 6948SOL    HW121743   0.210   4.301   6.752
 6948SOL    HW221744   0.074   4.386   6.726
 6949SOL     OW21745   2.501   1.429   2.962
 6949SOL    HW121746   2.419   1.393   2.917
 6949SOL    HW221747   2.567   1.355   2.975
 6950SOL     OW21748   1.015   0.782   4.099
 6950SOL    HW121749   0.975   0.851   4.159
 6950SOL    HW221750   0.994   0.691   4.134
 6951SOL     OW21751   1.168   3.807   6.673
 6951SOL    HW121752   1.091   3.744   6.684
 6951SOL    HW221753   1.201   3.835   6.763
 6952SOL     OW21754   5.107   5.772   3.837
 6952SOL    HW121755   5.102   5.684   3.882
 6952SOL    HW221756   5.171   5.832   3.885
 6953SOL     OW21757   6.369   1.336   1.591
 6953SOL    HW121758   6.400   1.241   1.581
 6953SOL    HW221759   6.443   1.398   1.563
 6954SOL     OW21760   6.924   4.499   6.330
 6954SOL    HW121761   6.990   4.573   6.345
 6954SOL    HW221762   6.893   4.463   6.418
 6955SOL     OW21763   4.713   5.911   2.853
 6955SOL    HW121764   4.742   5.904   2.949
 6955SOL    HW221765   4.614   5.906   2.848
 6956SOL     OW21766   5.302   5.125   2.346
 6956SOL    HW121767   5.331   5.110   2.251
 6956SOL    HW221768   5.335   5.049   2.402
 6957SOL     OW21769   6.221   5.281   5.240
 6957SOL    HW121770   6.294   5.212   5.237
 6957SOL    HW221771   6.210   5.322   5.149
 6958SOL     OW21772   3.426   3.348   2.532
 6958SOL    HW121773   3.455   3.321   2.440
 6958SOL    HW221774   3.475   3.293   2.600
 6959SOL     OW21775   1.713   3.786   2.805
 6959SOL    HW121776   1.793   3.826   2.760
 6959SOL    HW221777   1.731   3.778   2.903
 6960SOL     OW21778   4.518   4.762   0.281
 6960SOL    HW121779   4.537   4.745   0.184
 6960SOL    HW221780   4.528   4.677   0.332
 6961SOL     OW21781   4.579   2.716   5.504
 6961SOL    HW121782   4.584   2.811   5.535
 6961SOL    HW221783   4.559   2.713   5.406
 6962SOL     OW21784   2.506   6.123   0.070
 6962SOL    HW121785   2.561   6.086   0.145
 6962SOL    HW221786   2.522   6.068   7.003
 6963SOL     OW21787   6.818   6.308   6.698
 6963SOL    HW121788   6.825   6.404   6.672
 6963SOL    HW221789   6.910   6.270   6.712
 6964SOL     OW21790   2.037   1.635   5.100
 6964SOL    HW121791   2.022   1.642   5.001
 6964SOL    HW221792   2.001   1.549   5.133
 6965SOL     OW21793   1.725   1.446   6.866
 6965SOL    HW121794   1.660   1.442   6.943
 6965SOL    HW221795   1.686   1.501   6.793
 6966SOL     OW21796   0.935   6.452   1.305
 6966SOL    HW121797   0.888   6.503   1.376
 6966SOL    HW221798   1.030   6.435   1.332
 6967SOL     OW21799   4.122   0.984   6.586
 6967SOL    HW121800   4.077   1.024   6.666
 6967SOL    HW221801   4.069   1.005   6.504
 6968SOL     OW21802   3.764   0.552   2.678
 6968SOL    HW121803   3.753   0.457   2.705
 6968SOL    HW221804   3.682   0.604   2.701
 6969SOL     OW21805   1.953   2.644   1.744
 6969SOL    HW121806   1.979   2.728   1.791
 6969SOL    HW221807   1.867   2.610   1.780
 6970SOL     OW21808   3.542   5.438   5.674
 6970SOL    HW121809   3.616   5.411   5.736
 6970SOL    HW221810   3.580   5.491   5.598
 6971SOL     OW21811   6.146   4.399   6.893
 6971SOL    HW121812   6.058   4.355   6.910
 6971SOL    HW221813   6.169   4.391   6.796
 6972SOL     OW21814   5.804   3.858   1.539
 6972SOL    HW121815   5.749   3.795   1.485
 6972SOL    HW221816   5.744   3.919   1.591
 6973SOL     OW21817   1.343   1.538   2.455
 6973SOL    HW121818   1.435   1.497   2.458
 6973SOL    HW221819   1.285   1.494   2.523
 6974SOL     OW21820   3.924   3.400   3.295
 6974SOL    HW121821   3.850   3.364   3.351
 6974SOL    HW221822   3.961   3.328   3.237
 6975SOL     OW21823   2.967   5.886   4.545
 6975SOL    HW121824   3.049   5.928   4.583
 6975SOL    HW221825   2.991   5.831   4.465
 6976SOL     OW21826   4.445   4.900   5.866
 6976SOL    HW121827   4.449   4.987   5.817
 6976SOL    HW221828   4.449   4.825   5.800
 6977SOL     OW21829   4.915   4.735   2.041
 6977SOL    HW121830   4.847   4.717   2.112
 6977SOL    HW221831   4.984   4.798   2.076
 6978SOL     OW21832   0.510   3.162   0.488
 6978SOL    HW121833   0.531   3.119   0.576
 6978SOL    HW221834   0.431   3.116   0.447
 6979SOL     OW21835   1.136   3.578   2.725
 6979SOL    HW121836   1.216   3.522   2.745
 6979SOL    HW221837   1.070   3.570   2.800
 6980SOL     OW21838   2.552   5.121   3.547
 6980SOL    HW121839   2.566   5.148   3.642
 6980SOL    HW221840   2.580   5.026   3.535
 6981SOL     OW21841   4.608   3.150   6.832
 6981SOL    HW121842   4.528   3.184   6.882
 6981SOL    HW221843   4.608   3.050   6.832
 6982SOL     OW21844   0.543   1.100   1.937
 6982SOL    HW121845   0.585   1.169   1.878
 6982SOL    HW221846   0.494   1.033   1.880
 6983SOL     OW21847   6.236   0.144   4.406
 6983SOL    HW121848   6.304   0.205   4.365
 6983SOL    HW221849   6.278   0.091   4.480
 6984SOL     OW21850   1.173   3.095   3.163
 6984SOL    HW121851   1.189   3.013   3.218
 6984SOL    HW221852   1.211   3.081   3.071
 6985SOL     OW21853   5.088   2.848   0.106
 6985SOL    HW121854   5.183   2.848   0.138
 6985SOL    HW221855   5.042   2.765   0.138
 6986SOL     OW21856   4.752   4.931   5.391
 6986SOL    HW121857   4.754   4.907   5.488
 6986SOL    HW221858   4.836   4.979   5.368
 6987SOL     OW21859   6.932   1.124   6.600
 6987SOL    HW121860   6.944   1.060   6.677
 6987SOL    HW221861   6.891   1.209   6.634
 6988SOL     OW21862   2.225   1.189   6.480
 6988SOL    HW121863   2.190   1.112   6.426
 6988SOL    HW221864   2.323   1.176   6.497
 6989SOL     OW21865   0.891   3.649   2.426
 6989SOL    HW121866   0.958   3.575   2.440
 6989SOL    HW221867   0.871   3.656   2.329
 6990SOL     OW21868   4.050   3.735   6.729
 6990SOL    HW121869   4.015   3.827   6.711
 6990SOL    HW221870   4.020   3.673   6.657
 6991SOL     OW21871   5.574   3.588   2.741
 6991SOL    HW121872   5.529   3.623   2.660
 6991SOL    HW221873   5.509   3.535   2.796
 6992SOL     OW21874   1.071   5.183   0.177
 6992SOL    HW121875   1.036   5.192   0.083
 6992SOL    HW221876   1.134   5.259   0.197
 6993SOL     OW21877   3.488   2.271   1.628
 6993SOL    HW121878   3.544   2.282   1.710
 6993SOL    HW221879   3.396   2.307   1.645
 6994SOL     OW21880   2.614   1.286   3.232
 6994SOL    HW121881   2.596   1.382   3.257
 6994SOL    HW221882   2.531   1.246   3.193
 6995SOL     OW21883   0.125   3.815   0.575
 6995SOL    HW121884   0.090   3.805   0.668
 6995SOL    HW221885   0.223   3.836   0.578
 6996SOL     OW21886   1.376   0.729   6.211
 6996SOL    HW121887   1.312   0.716   6.135
 6996SOL    HW221888   1.408   0.639   6.243
 6997SOL     OW21889   6.506   6.190   6.248
 6997SOL    HW121890   6.490   6.277   6.203
 6997SOL    HW221891   6.516   6.204   6.347
 6998SOL     OW21892   0.209   0.569   0.181
 6998SOL    HW121893   0.212   0.616   0.269
 6998SOL    HW221894   0.203   0.471   0.195
 6999SOL     OW21895   0.031   2.612   0.014
 6999SOL    HW121896   6.987   2.536   7.005
 6999SOL    HW221897   6.999   2.672   0.078
 7000SOL     OW21898   0.344   5.664   3.639
 7000SOL    HW121899   0.413   5.714   3.587
 7000SOL    HW221900   0.253   5.695   3.613
 7001SOL     OW21901   6.810   1.615   4.741
 7001SOL    HW121902   6.865   1.535   4.720
 7001SOL    HW221903   6.844   1.694   4.690
 7002SOL     OW21904   1.065   5.149   2.526
 7002SOL    HW121905   1.070   5.049   2.535
 7002SOL    HW221906   1.149   5.183   2.485
 7003SOL     OW21907   0.464   4.754   6.889
 7003SOL    HW121908   0.479   4.672   6.834
 7003SOL    HW221909   0.508   4.743   6.978
 7004SOL     OW21910   1.680   0.024   6.812
 7004SOL    HW121911   1.771   6.997   6.814
 7004SOL    HW221912   1.637   0.007   6.724
 7005SOL     OW21913   1.252   5.643   0.375
 7005SOL    HW121914   1.184   5.707   0.412
 7005SOL    HW221915   1.207   5.557   0.351
 7006SOL     OW21916   0.613   0.120   3.921
 7006SOL    HW121917   0.670   0.045   3.955
 7006SOL    HW221918   0.585   0.177   3.998
 7007SOL     OW21919   2.201   0.292   6.046
 7007SOL    HW121920   2.233   0.224   6.110
 7007SOL    HW221921   2.222   0.384   6.081
 7008SOL     OW21922   5.374   3.177   3.630
 7008SOL    HW121923   5.393   3.274   3.615
 7008SOL    HW221924   5.460   3.126   3.633
 7009SOL     OW21925   4.985   5.446   2.425
 7009SOL    HW121926   4.944   5.463   2.514
 7009SOL    HW221927   5.060   5.510   2.410
 7010SOL     OW21928   4.905   2.985   2.577
 7010SOL    HW121929   4.879   3.023   2.488
 7010SOL    HW221930   4.945   3.057   2.633
 7011SOL     OW21931   2.336   6.571   6.086
 7011SOL    HW121932   2.249   6.580   6.134
 7011SOL    HW221933   2.396   6.647   6.111
 7012SOL     OW21934   6.915   2.965   0.500
 7012SOL    HW121935   6.967   2.907   0.563
 7012SOL    HW221936   6.820   2.935   0.499
 7013SOL     OW21937   3.430   2.596   0.284
 7013SOL    HW121938   3.486   2.545   0.350
 7013SOL    HW221939   3.451   2.693   0.291
 7014SOL     OW21940   5.658   3.255   0.643
 7014SOL    HW121941   5.729   3.324   0.624
 7014SOL    HW221942   5.688   3.199   0.720
 7015SOL     OW21943   5.852   6.238   1.370
 7015SOL    HW121944   5.920   6.238   1.443
 7015SOL    HW221945   5.897   6.258   1.283
 7016SOL     OW21946   3.182   4.843   0.972
 7016SOL    HW121947   3.236   4.923   0.947
 7016SOL    HW221948   3.137   4.859   1.060
 7017SOL     OW21949   6.176   4.870   5.859
 7017SOL    HW121950   6.131   4.780   5.862
 7017SOL    HW221951   6.215   4.883   5.767
 7018SOL     OW21952   4.949   3.449   5.217
 7018SOL    HW121953   4.895   3.446   5.301
 7018SOL    HW221954   4.891   3.474   5.140
 7019SOL     OW21955   4.043   5.542   2.102
 7019SOL    HW121956   3.973   5.577   2.163
 7019SOL    HW221957   4.062   5.609   2.030
 7020SOL     OW21958   0.972   2.084   6.117
 7020SOL    HW121959   0.890   2.046   6.074
 7020SOL    HW221960   0.989   2.175   6.080
 7021SOL     OW21961   1.012   2.031   4.925
 7021SOL    HW121962   1.094   2.088   4.914
 7021SOL    HW221963   0.935   2.074   4.877
 7022SOL     OW21964   2.323   3.479   0.892
 7022SOL    HW121965   2.246   3.540   0.872
 7022SOL    HW221966   2.363   3.446   0.806
 7023SOL     OW21967   0.698   1.554   0.919
 7023SOL    HW121968   0.742   1.515   0.999
 7023SOL    HW221969   0.679   1.651   0.935
 7024SOL     OW21970   3.116   4.135   4.944
 7024SOL    HW121971   3.107   4.061   4.877
 7024SOL    HW221972   3.033   4.190   4.943
 7025SOL     OW21973   2.755   0.556   1.296
 7025SOL    HW121974   2.713   0.630   1.245
 7025SOL    HW221975   2.846   0.584   1.327
 7026SOL     OW21976   3.219   2.193   0.856
 7026SOL    HW121977   3.294   2.140   0.818
 7026SOL    HW221978   3.251   2.285   0.880
 7027SOL     OW21979   3.275   4.811   1.966
 7027SOL    HW121980   3.343   4.882   1.984
 7027SOL    HW221981   3.319   4.734   1.919
 7028SOL     OW21982   3.408   0.438   3.544
 7028SOL    HW121983   3.458   0.445   3.458
 7028SOL    HW221984   3.461   0.384   3.609
 7029SOL     OW21985   3.405   3.570   3.642
 7029SOL    HW121986   3.417   3.533   3.550
 7029SOL    HW221987   3.448   3.509   3.708
 7030SOL     OW21988   6.409   7.006   4.581
 7030SOL    HW121989   6.477   0.061   4.598
 7030SOL    HW221990   6.441   6.945   4.509
 7031SOL     OW21991   4.703   5.977   0.574
 7031SOL    HW121992   4.739   5.903   0.517
 7031SOL    HW221993   4.655   6.043   0.516
 7032SOL     OW21994   4.581   5.040   4.435
 7032SOL    HW121995   4.615   5.134   4.436
 7032SOL    HW221996   4.484   5.040   4.411
 7033SOL     OW21997   1.539   1.543   5.789
 7033SOL    HW121998   1.500   1.581   5.872
 7033SOL    HW221999   1.518   1.604   5.712
 7034SOL     OW22000   6.091   1.033   2.104
 7034SOL    HW122001   6.172   0.984   2.071
 7034SOL    HW222002   6.100   1.130   2.082
 7035SOL     OW22003   2.819   1.276   1.515
 7035SOL    HW122004   2.742   1.212   1.523
 7035SOL    HW222005   2.857   1.294   1.606
 7036SOL     OW22006   6.354   1.109   1.849
 7036SOL    HW122007   6.372   1.078   1.756
 7036SOL    HW222008   6.287   1.184   1.847
 7037SOL     OW22009   1.767   0.702   6.192
 7037SOL    HW122010   1.754   0.636   6.118
 7037SOL    HW222011   1.732   0.663   6.277
 7038SOL     OW22012   0.698   4.362   0.430
 7038SOL    HW122013   0.627   4.367   0.500
 7038SOL    HW222014   0.784   4.332   0.471
 7039SOL     OW22015   6.882   6.910   1.799
 7039SOL    HW122016   6.979   6.931   1.790
 7039SOL    HW222017   6.833   6.991   1.831
 7040SOL     OW22018   5.983   2.001   4.632
 7040SOL    HW122019   6.072   2.033   4.663
 7040SOL    HW222020   5.914   2.027   4.700
 7041SOL     OW22021   1.045   0.053   4.128
 7041SOL    HW122022   1.118   0.018   4.187
 7041SOL    HW222023   1.061   0.023   4.034
 7042SOL     OW22024   5.695   6.311   5.568
 7042SOL    HW122025   5.617   6.293   5.628
 7042SOL    HW222026   5.768   6.355   5.621
 7043SOL     OW22027   1.426   5.952   1.147
 7043SOL    HW122028   1.514   5.946   1.194
 7043SOL    HW222029   1.434   6.013   1.068
 7044SOL     OW22030   4.739   6.079   4.988
 7044SOL    HW122031   4.693   6.151   5.040
 7044SOL    HW222032   4.763   6.004   5.049
 7045SOL     OW22033   6.176   6.034   1.816
 7045SOL    HW122034   6.219   5.944   1.816
 7045SOL    HW222035   6.085   6.027   1.776
 7046SOL     OW22036   2.274   1.678   3.613
 7046SOL    HW122037   2.357   1.623   3.604
 7046SOL    HW222038   2.262   1.735   3.532
 7047SOL     OW22039   0.896   6.524   0.603
 7047SOL    HW122040   0.979   6.580   0.611
 7047SOL    HW222041   0.818   6.576   0.638
 7048SOL     OW22042   0.706   5.949   3.575
 7048SOL    HW122043   0.644   5.976   3.648
 7048SOL    HW222044   0.696   6.012   3.497
 7049SOL     OW22045   3.647   1.556   4.192
 7049SOL    HW122046   3.638   1.635   4.253
 7049SOL    HW222047   3.739   1.518   4.199
 7050SOL     OW22048   4.124   4.165   0.303
 7050SOL    HW122049   4.040   4.113   0.290
 7050SOL    HW222050   4.178   4.123   0.376
 7051SOL     OW22051   1.107   2.164   1.847
 7051SOL    HW122052   1.073   2.071   1.859
 7051SOL    HW222053   1.196   2.173   1.891
 7052SOL     OW22054   4.607   2.067   2.524
 7052SOL    HW122055   4.524   2.094   2.573
 7052SOL    HW222056   4.650   2.149   2.485
 7053SOL     OW22057   1.308   4.168   3.460
 7053SOL    HW122058   1.304   4.259   3.419
 7053SOL    HW222059   1.215   4.139   3.485
 7054SOL     OW22060   4.701   0.004   6.788
 7054SOL    HW122061   4.671   0.098   6.779
 7054SOL    HW222062   4.763   7.012   6.866
 7055SOL     OW22063   2.558   0.203   0.514
 7055SOL    HW122064   2.503   0.119   0.513
 7055SOL    HW222065   2.544   0.254   0.429
 7056SOL     OW22066   0.010   5.207   0.746
 7056SOL    HW122067   0.084   5.185   0.809
 7056SOL    HW222068   6.966   5.275   0.788
 7057SOL     OW22069   3.078   5.520   4.982
 7057SOL    HW122070   3.116   5.463   4.909
 7057SOL    HW222071   3.102   5.482   5.071
 7058SOL     OW22072   6.437   2.176   6.499
 7058SOL    HW122073   6.346   2.150   6.468
 7058SOL    HW222074   6.479   2.237   6.431
 7059SOL     OW22075   2.252   6.994   5.328
 7059SOL    HW122076   2.263   0.041   5.406
 7059SOL    HW222077   2.177   0.010   5.271
 7060SOL     OW22078   3.251   2.398   1.601
 7060SOL    HW122079   3.261   2.389   1.502
 7060SOL    HW222080   3.225   2.492   1.623
 7061SOL     OW22081   1.395   1.035   1.334
 7061SOL    HW122082   1.319   1.067   1.390
 7061SOL    HW222083   1.421   1.107   1.269
 7062SOL     OW22084   3.519   0.580   4.344
 7062SOL    HW122085   3.490   0.541   4.431
 7062SOL    HW222086   3.471   0.535   4.269
 7063SOL     OW22087   0.164   1.647   1.413
 7063SOL    HW122088   0.100   1.683   1.345
 7063SOL    HW222089   0.168   1.548   1.406
 7064SOL     OW22090   3.082   1.471   5.426
 7064SOL    HW122091   3.104   1.416   5.506
 7064SOL    HW222092   3.167   1.500   5.381
 7065SOL     OW22093   3.933   5.523   5.112
 7065SOL    HW122094   3.905   5.586   5.184
 7065SOL    HW222095   4.008   5.564   5.059
 7066SOL     OW22096   3.520   0.151   1.259
 7066SOL    HW122097   3.448   0.133   1.191
 7066SOL    HW222098   3.478   0.157   1.350
 7067SOL     OW22099   2.290   3.783   6.092
 7067SOL    HW122100   2.254   3.774   6.185
 7067SOL    HW222101   2.239   3.723   6.030
 7068SOL     OW22102   5.056   4.269   4.529
 7068SOL    HW122103   4.962   4.295   4.547
 7068SOL    HW222104   5.086   4.306   4.441
 7069SOL     OW22105   4.982   0.877   6.092
 7069SOL    HW122106   5.063   0.854   6.038
 7069SOL    HW222107   4.996   0.851   6.187
 7070SOL     OW22108   0.590   0.737   5.763
 7070SOL    HW122109   0.582   0.638   5.776
 7070SOL    HW222110   0.506   0.782   5.793
 7071SOL     OW22111   4.511   6.409   6.773
 7071SOL    HW122112   4.610   6.419   6.779
 7071SOL    HW222113   4.489   6.343   6.701
 7072SOL     OW22114   0.922   3.749   6.274
 7072SOL    HW122115   0.890   3.801   6.195
 7072SOL    HW222116   0.986   3.805   6.326
 7073SOL     OW22117   4.779   1.224   3.432
 7073SOL    HW122118   4.814   1.132   3.448
 7073SOL    HW222119   4.842   1.291   3.470
 7074SOL     OW22120   5.603   4.410   2.626
 7074SOL    HW122121   5.618   4.392   2.529
 7074SOL    HW222122   5.523   4.358   2.658
 7075SOL     OW22123   2.506   5.111   2.893
 7075SOL    HW122124   2.420   5.066   2.916
 7075SOL    HW222125   2.539   5.164   2.972
 7076SOL     OW22126   5.596   1.779   1.012
 7076SOL    HW122127   5.500   1.806   1.020
 7076SOL    HW222128   5.614   1.700   1.070
 7077SOL     OW22129   3.749   6.171   1.641
 7077SOL    HW122130   3.776   6.085   1.686
 7077SOL    HW222131   3.832   6.219   1.611
 7078SOL     OW22132   6.473   1.146   6.695
 7078SOL    HW122133   6.433   1.187   6.613
 7078SOL    HW222134   6.572   1.164   6.696
 7079SOL     OW22135   1.918   5.540   4.700
 7079SOL    HW122136   2.014   5.535   4.726
 7079SOL    HW222137   1.876   5.449   4.707
 7080SOL     OW22138   3.876   1.613   6.135
 7080SOL    HW122139   3.823   1.657   6.062
 7080SOL    HW222140   3.913   1.527   6.101
 7081SOL     OW22141   2.047   6.558   0.341
 7081SOL    HW122142   1.961   6.608   0.335
 7081SOL    HW222143   2.094   6.581   0.426
 7082SOL     OW22144   0.817   3.786   2.150
 7082SOL    HW122145   0.798   3.761   2.055
 7082SOL    HW222146   0.754   3.858   2.179
 7083SOL     OW22147   5.096   2.627   3.383
 7083SOL    HW122148   5.085   2.656   3.288
 7083SOL    HW222149   5.072   2.703   3.444
 7084SOL     OW22150   1.092   5.003   0.698
 7084SOL    HW122151   1.143   5.035   0.777
 7084SOL    HW222152   1.102   4.904   0.690
 7085SOL     OW22153   0.462   4.318   2.458
 7085SOL    HW122154   0.406   4.235   2.461
 7085SOL    HW222155   0.403   4.398   2.451
 7086SOL     OW22156   5.217   0.815   3.454
 7086SOL    HW122157   5.282   0.749   3.414
 7086SOL    HW222158   5.263   0.865   3.528
 7087SOL     OW22159   4.970   2.250   3.619
 7087SOL    HW122160   5.013   2.224   3.533
 7087SOL    HW222161   4.878   2.286   3.601
 7088SOL     OW22162   6.357   2.581   5.213
 7088SOL    HW122163   6.456   2.576   5.199
 7088SOL    HW222164   6.323   2.491   5.240
 7089SOL     OW22165   2.614   5.585   0.719
 7089SOL    HW122166   2.605   5.495   0.763
 7089SOL    HW222167   2.711   5.608   0.712
 7090SOL     OW22168   4.666   3.158   1.061
 7090SOL    HW122169   4.763   3.141   1.044
 7090SOL    HW222170   4.646   3.148   1.158
 7091SOL     OW22171   6.561   6.662   0.393
 7091SOL    HW122172   6.661   6.661   0.398
 7091SOL    HW222173   6.533   6.674   0.298
 7092SOL     OW22174   4.298   0.061   6.831
 7092SOL    HW122175   4.205   0.043   6.800
 7092SOL    HW222176   4.329   0.149   6.793
 7093SOL     OW22177   3.455   3.596   0.491
 7093SOL    HW122178   3.389   3.549   0.433
 7093SOL    HW222179   3.540   3.543   0.494
 7094SOL     OW22180   4.334   0.549   5.421
 7094SOL    HW122181   4.352   0.641   5.455
 7094SOL    HW222182   4.414   0.516   5.371
 7095SOL     OW22183   2.718   5.230   4.353
 7095SOL    HW122184   2.745   5.183   4.269
 7095SOL    HW222185   2.732   5.328   4.342
 7096SOL     OW22186   6.581   6.351   0.811
 7096SOL    HW122187   6.609   6.409   0.887
 7096SOL    HW222188   6.651   6.355   0.739
 7097SOL     OW22189   4.980   1.523   2.399
 7097SOL    HW122190   5.053   1.467   2.360
 7097SOL    HW222191   4.935   1.472   2.472
 7098SOL     OW22192   0.787   1.231   2.887
 7098SOL    HW122193   0.729   1.177   2.826
 7098SOL    HW222194   0.757   1.216   2.982
 7099SOL     OW22195   3.397   2.080   4.657
 7099SOL    HW122196   3.452   2.017   4.713
 7099SOL    HW222197   3.313   2.102   4.706
 7100SOL     OW22198   0.370   3.924   1.343
 7100SOL    HW122199   0.445   3.928   1.277
 7100SOL    HW222200   0.301   3.993   1.319
 7101SOL     OW22201   2.549   5.751   4.335
 7101SOL    HW122202   2.454   5.721   4.344
 7101SOL    HW222203   2.610   5.675   4.360
 7102SOL     OW22204   5.693   1.487   2.973
 7102SOL    HW122205   5.682   1.509   2.876
 7102SOL    HW222206   5.776   1.531   3.008
 7103SOL     OW22207   5.289   3.786   3.982
 7103SOL    HW122208   5.287   3.848   4.060
 7103SOL    HW222209   5.320   3.695   4.012
 7104SOL     OW22210   5.508   2.864   4.738
 7104SOL    HW122211   5.411   2.889   4.737
 7104SOL    HW222212   5.546   2.878   4.647
 7105SOL     OW22213   3.665   4.029   2.611
 7105SOL    HW122214   3.653   4.073   2.699
 7105SOL    HW222215   3.636   3.933   2.617
 7106SOL     OW22216   2.662   1.582   2.372
 7106SOL    HW122217   2.696   1.664   2.325
 7106SOL    HW222218   2.736   1.515   2.377
 7107SOL     OW22219   3.731   1.371   6.661
 7107SOL    HW122220   3.807   1.366   6.726
 7107SOL    HW222221   3.764   1.348   6.570
 7108SOL     OW22222   3.617   0.100   1.920
 7108SOL    HW122223   3.522   0.115   1.890
 7108SOL    HW222224   3.618   0.083   2.018
 7109SOL     OW22225   3.179   5.925   6.015
 7109SOL    HW122226   3.177   5.833   5.977
 7109SOL    HW222227   3.218   5.923   6.107
 7110SOL     OW22228   2.611   6.188   4.979
 7110SOL    HW122229   2.672   6.108   4.976
 7110SOL    HW222230   2.622   6.235   5.066
 7111SOL     OW22231   6.768   0.919   5.145
 7111SOL    HW122232   6.699   0.980   5.105
 7111SOL    HW222233   6.738   0.824   5.135
 7112SOL     OW22234   0.567   5.056   5.179
 7112SOL    HW122235   0.659   5.060   5.219
 7112SOL    HW222236   0.504   5.109   5.236
 7113SOL     OW22237   3.215   6.679   4.290
 7113SOL    HW122238   3.130   6.653   4.245
 7113SOL    HW222239   3.239   6.609   4.357
 7114SOL     OW22240   6.131   4.099   1.253
 7114SOL    HW122241   6.081   4.115   1.338
 7114SOL    HW222242   6.213   4.156   1.251
 7115SOL     OW22243   4.933   3.073   6.098
 7115SOL    HW122244   4.875   2.991   6.102
 7115SOL    HW222245   4.894   3.139   6.034
 7116SOL     OW22246   6.717   4.205   5.000
 7116SOL    HW122247   6.662   4.138   4.951
 7116SOL    HW222248   6.814   4.192   4.978
 7117SOL     OW22249   4.986   6.717   2.832
 7117SOL    HW122250   4.954   6.759   2.747
 7117SOL    HW222251   5.030   6.787   2.888
 7118SOL     OW22252   4.468   4.468   5.925
 7118SOL    HW122253   4.441   4.484   6.020
 7118SOL    HW222254   4.431   4.380   5.894
 7119SOL     OW22255   2.979   6.973   4.960
 7119SOL    HW122256   3.046   6.979   4.886
 7119SOL    HW222257   3.022   6.934   5.041
 7120SOL     OW22258   4.155   1.543   1.169
 7120SOL    HW122259   4.111   1.515   1.255
 7120SOL    HW222260   4.147   1.468   1.102
 7121SOL     OW22261   1.180   6.270   2.494
 7121SOL    HW122262   1.194   6.224   2.406
 7121SOL    HW222263   1.102   6.229   2.540
 7122SOL     OW22264   4.056   2.100   6.718
 7122SOL    HW122265   4.064   2.007   6.682
 7122SOL    HW222266   3.998   2.099   6.800
 7123SOL     OW22267   5.279   4.864   5.758
 7123SOL    HW122268   5.218   4.925   5.809
 7123SOL    HW222269   5.257   4.769   5.781
 7124SOL     OW22270   2.586   2.775   0.503
 7124SOL    HW122271   2.639   2.832   0.441
 7124SOL    HW222272   2.636   2.764   0.589
 7125SOL     OW22273   0.908   6.437   2.456
 7125SOL    HW122274   0.908   6.385   2.370
 7125SOL    HW222275   0.992   6.492   2.461
 7126SOL     OW22276   3.899   4.876   1.069
 7126SOL    HW122277   3.916   4.966   1.030
 7126SOL    HW222278   3.980   4.818   1.054
 7127SOL     OW22279   2.326   6.173   6.055
 7127SOL    HW122280   2.238   6.217   6.070
 7127SOL    HW222281   2.368   6.150   6.143
 7128SOL     OW22282   3.303   4.171   0.126
 7128SOL    HW122283   3.299   4.209   0.218
 7128SOL    HW222284   3.320   4.073   0.131
 7129SOL     OW22285   0.115   0.211   6.854
 7129SOL    HW122286   0.123   0.296   6.802
 7129SOL    HW222287   0.065   0.228   6.939
 7130SOL     OW22288   3.398   0.375   4.147
 7130SOL    HW122289   3.337   0.354   4.223
 7130SOL    HW222290   3.460   0.298   4.131
 7131SOL     OW22291   2.487   1.355   1.694
 7131SOL    HW122292   2.529   1.445   1.692
 7131SOL    HW222293   2.525   1.302   1.769
 7132SOL     OW22294   4.931   4.382   1.932
 7132SOL    HW122295   4.849   4.395   1.876
 7132SOL    HW222296   4.908   4.398   2.028
 7133SOL     OW22297   4.816   5.776   2.621
 7133SOL    HW122298   4.782   5.792   2.713
 7133SOL    HW222299   4.828   5.864   2.574
 7134SOL     OW22300   4.816   5.230   0.089
 7134SOL    HW122301   4.795   5.177   0.006
 7134SOL    HW222302   4.882   5.301   0.067
 7135SOL     OW22303   2.035   4.198   1.456
 7135SOL    HW122304   2.029   4.153   1.367
 7135SOL    HW222305   2.069   4.132   1.524
 7136SOL     OW22306   1.288   2.447   1.799
 7136SOL    HW122307   1.195   2.479   1.818
 7136SOL    HW222308   1.305   2.363   1.850
 7137SOL     OW22309   2.734   0.992   2.490
 7137SOL    HW122310   2.793   1.065   2.524
 7137SOL    HW222311   2.740   0.912   2.550
 7138SOL     OW22312   0.231   3.438   0.014
 7138SOL    HW122313   0.274   3.376   6.965
 7138SOL    HW222314   0.301   3.481   0.071
 7139SOL     OW22315   5.707   6.140   0.981
 7139SOL    HW122316   5.748   6.231   0.986
 7139SOL    HW222317   5.607   6.148   0.990
 7140SOL     OW22318   6.926   4.864   0.024
 7140SOL    HW122319   7.006   4.806   0.039
 7140SOL    HW222320   6.851   4.835   0.084
 7141SOL     OW22321   3.117   1.031   1.245
 7141SOL    HW122322   3.158   1.036   1.336
 7141SOL    HW222323   3.037   1.091   1.241
 7142SOL     OW22324   4.753   0.243   5.163
 7142SOL    HW122325   4.850   0.260   5.145
 7142SOL    HW222326   4.697   0.300   5.102
 7143SOL     OW22327   3.071   2.817   6.005
 7143SOL    HW122328   3.005   2.768   6.063
 7143SOL    HW222329   3.103   2.899   6.053
 7144SOL     OW22330   0.077   0.902   5.888
 7144SOL    HW122331   0.061   0.928   5.792
 7144SOL    HW222332   7.009   0.918   5.940
 7145SOL     OW22333   5.690   2.374   6.083
 7145SOL    HW122334   5.756   2.308   6.046
 7145SOL    HW222335   5.737   2.458   6.109
 7146SOL     OW22336   0.678   2.144   5.083
 7146SOL    HW122337   0.708   2.237   5.102
 7146SOL    HW222338   0.750   2.080   5.109
 7147SOL     OW22339   6.711   6.931   1.504
 7147SOL    HW122340   6.618   6.968   1.492
 7147SOL    HW222341   6.745   6.956   1.595
 7148SOL     OW22342   6.259   6.901   0.906
 7148SOL    HW122343   6.338   6.941   0.860
 7148SOL    HW222344   6.257   6.933   1.001
 7149SOL     OW22345   5.386   4.085   5.762
 7149SOL    HW122346   5.323   4.130   5.699
 7149SOL    HW222347   5.474   4.133   5.761
 7150SOL     OW22348   2.955   2.316   6.780
 7150SOL    HW122349   3.008   2.350   6.702
 7150SOL    HW222350   2.991   2.227   6.808
 7151SOL     OW22351   5.321   1.423   6.823
 7151SOL    HW122352   5.376   1.376   6.755
 7151SOL    HW222353   5.360   1.408   6.914
 7152SOL     OW22354   4.646   0.155   5.421
 7152SOL    HW122355   4.555   0.112   5.422
 7152SOL    HW222356   4.660   0.201   5.334
 7153SOL     OW22357   3.498   5.528   0.525
 7153SOL    HW122358   3.497   5.465   0.603
 7153SOL    HW222359   3.450   5.486   0.448
 7154SOL     OW22360   4.795   0.863   2.007
 7154SOL    HW122361   4.804   0.950   1.958
 7154SOL    HW222362   4.759   0.793   1.945
 7155SOL     OW22363   1.918   0.460   1.691
 7155SOL    HW122364   1.959   0.370   1.705
 7155SOL    HW222365   1.819   0.455   1.705
 7156SOL     OW22366   6.391   4.217   5.711
 7156SOL    HW122367   6.300   4.179   5.697
 7156SOL    HW222368   6.384   4.316   5.729
 7157SOL     OW22369   0.290   4.119   5.704
 7157SOL    HW122370   0.287   4.131   5.604
 7157SOL    HW222371   0.232   4.042   5.730
 7158SOL     OW22372   5.403   0.211   4.019
 7158SOL    HW122373   5.425   0.297   3.974
 7158SOL    HW222374   5.473   0.191   4.089
 7159SOL     OW22375   0.477   6.299   3.013
 7159SOL    HW122376   0.493   6.352   3.097
 7159SOL    HW222377   0.554   6.236   2.999
 7160SOL     OW22378   5.929   0.036   2.644
 7160SOL    HW122379   6.025   0.033   2.673
 7160SOL    HW222380   5.914   6.985   2.572
 7161SOL     OW22381   4.061   3.697   2.309
 7161SOL    HW122382   4.064   3.700   2.209
 7161SOL    HW222383   4.009   3.775   2.343
 7162SOL     OW22384   0.183   6.190   0.888
 7162SOL    HW122385   0.180   6.129   0.967
 7162SOL    HW222386   0.122   6.268   0.904
 7163SOL     OW22387   6.566   0.448   1.219
 7163SOL    HW122388   6.665   0.444   1.225
 7163SOL    HW222389   6.526   0.426   1.308
 7164SOL     OW22390   1.587   0.762   0.235
 7164SOL    HW122391   1.598   0.813   0.150
 7164SOL    HW222392   1.671   0.770   0.290
 7165SOL     OW22393   5.280   1.988   0.001
 7165SOL    HW122394   5.182   1.977   0.019
 7165SOL    HW222395   5.306   1.929   6.940
 7166SOL     OW22396   0.149   5.377   5.425
 7166SOL    HW122397   0.093   5.395   5.345
 7166SOL    HW222398   0.207   5.456   5.445
 7167SOL     OW22399   0.464   3.092   5.771
 7167SOL    HW122400   0.485   3.113   5.676
 7167SOL    HW222401   0.521   3.016   5.802
 7168SOL     OW22402   1.363   1.776   2.340
 7168SOL    HW122403   1.296   1.827   2.395
 7168SOL    HW222404   1.379   1.686   2.382
 7169SOL     OW22405   1.732   4.536   5.651
 7169SOL    HW122406   1.801   4.480   5.698
 7169SOL    HW222407   1.777   4.598   5.587
 7170SOL     OW22408   3.752   1.275   1.005
 7170SOL    HW122409   3.742   1.244   1.100
 7170SOL    HW222410   3.833   1.333   0.998
 7171SOL     OW22411   6.851   3.828   0.822
 7171SOL    HW122412   6.873   3.751   0.762
 7171SOL    HW222413   6.862   3.800   0.917
 7172SOL     OW22414   0.403   2.250   3.561
 7172SOL    HW122415   0.396   2.248   3.661
 7172SOL    HW222416   0.484   2.198   3.532
 7173SOL     OW22417   4.051   5.210   5.359
 7173SOL    HW122418   4.017   5.191   5.267
 7173SOL    HW222419   3.981   5.184   5.426
 7174SOL     OW22420   6.267   3.934   1.961
 7174SOL    HW122421   6.265   4.034   1.969
 7174SOL    HW222422   6.173   3.898   1.959
 7175SOL     OW22423   6.284   3.941   5.957
 7175SOL    HW122424   6.370   3.978   5.922
 7175SOL    HW222425   6.303   3.883   6.037
 7176SOL     OW22426   0.265   1.199   6.223
 7176SOL    HW122427   0.310   1.229   6.139
 7176SOL    HW222428   0.308   1.114   6.255
 7177SOL     OW22429   1.301   6.046   3.441
 7177SOL    HW122430   1.356   6.108   3.498
 7177SOL    HW222431   1.350   6.026   3.356
 7178SOL     OW22432   1.416   6.839   4.794
 7178SOL    HW122433   1.399   6.925   4.746
 7178SOL    HW222434   1.413   6.855   4.893
 7179SOL     OW22435   4.584   4.727   6.111
 7179SOL    HW122436   4.498   4.746   6.063
 7179SOL    HW222437   4.564   4.674   6.194
 7180SOL     OW22438   1.713   3.025   1.760
 7180SOL    HW122439   1.693   3.112   1.714
 7180SOL    HW222440   1.788   3.038   1.824
 7181SOL     OW22441   2.227   0.828   0.191
 7181SOL    HW122442   2.208   0.841   0.093
 7181SOL    HW222443   2.156   0.771   0.231
 7182SOL     OW22444   1.661   1.446   3.481
 7182SOL    HW122445   1.698   1.526   3.528
 7182SOL    HW222446   1.623   1.474   3.393
 7183SOL     OW22447   1.424   6.858   1.640
 7183SOL    HW122448   1.335   6.904   1.640
 7183SOL    HW222449   1.488   6.911   1.584
 7184SOL     OW22450   6.827   0.598   3.667
 7184SOL    HW122451   6.734   0.610   3.631
 7184SOL    HW222452   6.846   0.669   3.734
 7185SOL     OW22453   3.892   0.281   3.972
 7185SOL    HW122454   3.839   0.364   3.991
 7185SOL    HW222455   3.987   0.307   3.953
 7186SOL     OW22456   6.216   0.950   6.494
 7186SOL    HW122457   6.269   1.034   6.501
 7186SOL    HW222458   6.255   0.881   6.554
 7187SOL     OW22459   3.662   3.489   4.017
 7187SOL    HW122460   3.705   3.507   3.928
 7187SOL    HW222461   3.723   3.518   4.090
 7188SOL     OW22462   4.554   4.493   0.432
 7188SOL    HW122463   4.565   4.403   0.474
 7188SOL    HW222464   4.636   4.514   0.377
 7189SOL     OW22465   0.108   2.497   5.533
 7189SOL    HW122466   0.202   2.469   5.556
 7189SOL    HW222467   0.046   2.420   5.546
 7190SOL     OW22468   6.390   5.051   6.989
 7190SOL    HW122469   6.455   5.087   6.922
 7190SOL    HW222470   6.297   5.078   6.965
 7191SOL     OW22471   6.648   4.532   2.069
 7191SOL    HW122472   6.658   4.554   2.166
 7191SOL    HW222473   6.644   4.433   2.057
 7192SOL     OW22474   2.428   4.154   5.333
 7192SOL    HW122475   2.416   4.071   5.279
 7192SOL    HW222476   2.524   4.180   5.335
 7193SOL     OW22477   3.630   1.893   3.362
 7193SOL    HW122478   3.622   1.969   3.298
 7193SOL    HW222479   3.660   1.926   3.451
 7194SOL     OW22480   2.869   2.692   6.139
 7194SOL    HW122481   2.776   2.690   6.103
 7194SOL    HW222482   2.891   2.604   6.180
 7195SOL     OW22483   1.368   3.574   5.829
 7195SOL    HW122484   1.437   3.601   5.896
 7195SOL    HW222485   1.377   3.631   5.747
 7196SOL     OW22486   3.340   4.207   1.450
 7196SOL    HW122487   3.297   4.290   1.415
 7196SOL    HW222488   3.284   4.128   1.426
 7197SOL     OW22489   3.502   4.945   6.837
 7197SOL    HW122490   3.430   4.883   6.806
 7197SOL    HW222491   3.522   5.011   6.765
 7198SOL     OW22492   0.719   0.505   1.701
 7198SOL    HW122493   0.742   0.418   1.746
 7198SOL    HW222494   0.653   0.555   1.756
 7199SOL     OW22495   5.990   1.301   3.125
 7199SOL    HW122496   6.044   1.311   3.209
 7199SOL    HW222497   6.050   1.275   3.050
 7200SOL     OW22498   1.121   2.906   7.006
 7200SOL    HW122499   1.161   2.944   0.073
 7200SOL    HW222500   1.040   2.853   0.013
 7201SOL     OW22501   5.952   5.921   4.241
 7201SOL    HW122502   6.030   5.877   4.285
 7201SOL    HW222503   5.904   5.979   4.307
 7202SOL     OW22504   4.503   6.725   5.976
 7202SOL    HW122505   4.468   6.639   6.013
 7202SOL    HW222506   4.476   6.734   5.881
 7203SOL     OW22507   0.414   1.939   0.837
 7203SOL    HW122508   0.459   2.028   0.837
 7203SOL    HW222509   0.345   1.937   0.765
 7204SOL     OW22510   6.432   1.057   2.361
 7204SOL    HW122511   6.333   1.069   2.353
 7204SOL    HW222512   6.474   1.144   2.387
 7205SOL     OW22513   3.589   1.768   4.357
 7205SOL    HW122514   3.502   1.742   4.399
 7205SOL    HW222515   3.619   1.856   4.394
 7206SOL     OW22516   2.070   3.764   6.710
 7206SOL    HW122517   2.094   3.843   6.765
 7206SOL    HW222518   2.142   3.695   6.717
 7207SOL     OW22519   2.018   1.349   3.174
 7207SOL    HW122520   2.084   1.412   3.216
 7207SOL    HW222521   1.947   1.327   3.241
 7208SOL     OW22522   4.104   1.098   3.654
 7208SOL    HW122523   4.174   1.073   3.720
 7208SOL    HW222524   4.113   1.195   3.630
 7209SOL     OW22525   3.267   0.923   2.045
 7209SOL    HW122526   3.363   0.930   2.018
 7209SOL    HW222527   3.259   0.866   2.126
 7210SOL     OW22528   3.643   1.199   3.791
 7210SOL    HW122529   3.683   1.209   3.700
 7210SOL    HW222530   3.601   1.285   3.819
 7211SOL     OW22531   3.872   6.155   5.888
 7211SOL    HW122532   3.925   6.077   5.923
 7211SOL    HW222533   3.802   6.179   5.955
 7212SOL     OW22534   0.870   5.700   5.678
 7212SOL    HW122535   0.877   5.622   5.740
 7212SOL    HW222536   0.777   5.735   5.678
 7213SOL     OW22537   4.253   2.399   0.105
 7213SOL    HW122538   4.236   2.460   0.182
 7213SOL    HW222539   4.342   2.355   0.116
 7214SOL     OW22540   6.158   0.724   6.145
 7214SOL    HW122541   6.069   0.726   6.191
 7214SOL    HW222542   6.210   0.645   6.176
 7215SOL     OW22543   6.234   1.428   2.450
 7215SOL    HW122544   6.169   1.396   2.520
 7215SOL    HW222545   6.311   1.365   2.445
 7216SOL     OW22546   5.263   0.198   3.695
 7216SOL    HW122547   5.313   0.123   3.737
 7216SOL    HW222548   5.171   0.168   3.671
 7217SOL     OW22549   1.190   2.887   3.344
 7217SOL    HW122550   1.187   2.895   3.444
 7217SOL    HW222551   1.208   2.791   3.319
 7218SOL     OW22552   6.405   2.449   4.901
 7218SOL    HW122553   6.367   2.536   4.868
 7218SOL    HW222554   6.343   2.410   4.970
 7219SOL     OW22555   3.050   5.877   2.243
 7219SOL    HW122556   3.116   5.870   2.169
 7219SOL    HW222557   3.001   5.790   2.252
 7220SOL     OW22558   6.254   4.173   3.337
 7220SOL    HW122559   6.342   4.205   3.371
 7220SOL    HW222560   6.263   4.149   3.240
 7221SOL     OW22561   3.961   5.163   3.533
 7221SOL    HW122562   3.950   5.233   3.603
 7221SOL    HW222563   4.041   5.107   3.554
 7222SOL     OW22564   6.785   6.253   4.028
 7222SOL    HW122565   6.770   6.351   4.022
 7222SOL    HW222566   6.769   6.222   4.122
 7223SOL     OW22567   0.099   4.373   1.684
 7223SOL    HW122568   0.064   4.403   1.773
 7223SOL    HW222569   0.193   4.340   1.694
 7224SOL     OW22570   4.429   2.364   2.365
 7224SOL    HW122571   4.468   2.451   2.396
 7224SOL    HW222572   4.356   2.336   2.427
 7225SOL     OW22573   0.753   6.324   0.316
 7225SOL    HW122574   0.746   6.320   0.216
 7225SOL    HW222575   0.759   6.231   0.353
 7226SOL     OW22576   6.403   6.346   0.337
 7226SOL    HW122577   6.308   6.317   0.323
 7226SOL    HW222578   6.421   6.352   0.435
 7227SOL     OW22579   1.787   1.512   3.027
 7227SOL    HW122580   1.800   1.563   2.942
 7227SOL    HW222581   1.869   1.456   3.046
 7228SOL     OW22582   5.539   2.922   2.398
 7228SOL    HW122583   5.477   2.892   2.471
 7228SOL    HW222584   5.539   2.855   2.324
 7229SOL     OW22585   6.011   0.519   5.175
 7229SOL    HW122586   5.926   0.478   5.143
 7229SOL    HW222587   6.070   0.448   5.214
 7230SOL     OW22588   2.492   5.231   4.829
 7230SOL    HW122589   2.491   5.243   4.730
 7230SOL    HW222590   2.559   5.294   4.870
 7231SOL     OW22591   4.236   3.272   6.182
 7231SOL    HW122592   4.156   3.213   6.166
 7231SOL    HW222593   4.315   3.215   6.205
 7232SOL     OW22594   4.932   6.124   3.648
 7232SOL    HW122595   4.961   6.149   3.740
 7232SOL    HW222596   4.849   6.068   3.654
 7233SOL     OW22597   0.566   1.115   5.581
 7233SOL    HW122598   0.497   1.082   5.516
 7233SOL    HW222599   0.646   1.056   5.576
 7234SOL     OW22600   5.569   4.291   3.588
 7234SOL    HW122601   5.470   4.279   3.596
 7234SOL    HW222602   5.609   4.301   3.679
 7235SOL     OW22603   5.948   6.909   1.953
 7235SOL    HW122604   5.958   6.989   1.893
 7235SOL    HW222605   5.970   6.936   2.047
 7236SOL     OW22606   1.909   3.904   2.663
 7236SOL    HW122607   1.952   3.921   2.752
 7236SOL    HW222608   1.956   3.830   2.616
 7237SOL     OW22609   5.778   0.927   0.328
 7237SOL    HW122610   5.751   0.904   0.422
 7237SOL    HW222611   5.801   1.025   0.323
 7238SOL     OW22612   4.060   3.908   0.139
 7238SOL    HW122613   4.054   3.845   0.062
 7238SOL    HW222614   4.149   3.899   0.183
 7239SOL     OW22615   5.975   2.576   2.410
 7239SOL    HW122616   5.881   2.596   2.438
 7239SOL    HW222617   5.975   2.527   2.323
 7240SOL     OW22618   6.939   1.600   0.620
 7240SOL    HW122619   6.927   1.621   0.523
 7240SOL    HW222620   6.984   1.511   0.629
 7241SOL     OW22621   2.091   0.688   2.520
 7241SOL    HW122622   2.048   0.724   2.437
 7241SOL    HW222623   2.020   0.661   2.585
 7242SOL     OW22624   6.810   4.500   5.273
 7242SOL    HW122625   6.739   4.486   5.203
 7242SOL    HW222626   6.768   4.496   5.364
 7243SOL     OW22627   5.762   4.752   6.123
 7243SOL    HW122628   5.763   4.812   6.203
 7243SOL    HW222629   5.674   4.760   6.076
 7244SOL     OW22630   0.247   5.888   6.865
 7244SOL    HW122631   0.276   5.887   6.961
 7244SOL    HW222632   0.258   5.980   6.829
 7245SOL     OW22633   1.520   2.834   0.497
 7245SOL    HW122634   1.437   2.873   0.537
 7245SOL    HW222635   1.532   2.741   0.530
 7246SOL     OW22636   4.144   0.087   2.841
 7246SOL    HW122637   4.085   0.011   2.868
 7246SOL    HW222638   4.099   0.142   2.771
 7247SOL     OW22639   3.020   3.987   4.127
 7247SOL    HW122640   2.933   4.037   4.121
 7247SOL    HW222641   3.044   3.951   4.037
 7248SOL     OW22642   3.024   1.331   5.812
 7248SOL    HW122643   3.017   1.243   5.858
 7248SOL    HW222644   3.111   1.336   5.763
 7249SOL     OW22645   4.038   5.004   2.491
 7249SOL    HW122646   4.110   4.963   2.435
 7249SOL    HW222647   3.960   5.028   2.434
 7250SOL     OW22648   5.645   5.273   5.248
 7250SOL    HW122649   5.638   5.176   5.224
 7250SOL    HW222650   5.709   5.318   5.186
 7251SOL     OW22651   1.089   5.292   5.157
 7251SOL    HW122652   1.073   5.281   5.059
 7251SOL    HW222653   1.080   5.388   5.181
 7252SOL     OW22654   4.101   3.679   2.572
 7252SOL    HW122655   4.134   3.595   2.616
 7252SOL    HW222656   4.141   3.688   2.481
 7253SOL     OW22657   2.915   5.163   4.774
 7253SOL    HW122658   2.836   5.145   4.715
 7253SOL    HW222659   2.987   5.096   4.755
 7254SOL     OW22660   6.008   3.381   4.261
 7254SOL    HW122661   6.052   3.462   4.300
 7254SOL    HW222662   6.071   3.304   4.266
 7255SOL     OW22663   4.848   3.782   0.064
 7255SOL    HW122664   4.925   3.841   0.090
 7255SOL    HW222665   4.816   3.807   6.989
 7256SOL     OW22666   3.133   0.488   4.824
 7256SOL    HW122667   3.127   0.503   4.725
 7256SOL    HW222668   3.220   0.522   4.858
 7257SOL     OW22669   1.030   1.383   4.447
 7257SOL    HW122670   0.949   1.411   4.395
 7257SOL    HW222671   1.046   1.447   4.522
 7258SOL     OW22672   5.404   3.467   2.432
 7258SOL    HW122673   5.496   3.436   2.411
 7258SOL    HW222674   5.369   3.522   2.356
 7259SOL     OW22675   1.565   4.281   2.732
 7259SOL    HW122676   1.585   4.188   2.700
 7259SOL    HW222677   1.471   4.305   2.707
 7260SOL     OW22678   5.749   3.030   0.819
 7260SOL    HW122679   5.783   2.973   0.744
 7260SOL    HW222680   5.666   2.989   0.857
 7261SOL     OW22681   6.720   4.405   6.942
 7261SOL    HW122682   6.687   4.321   6.900
 7261SOL    HW222683   6.770   4.383   0.009
 7262SOL     OW22684   5.596   1.281   5.236
 7262SOL    HW122685   5.628   1.203   5.290
 7262SOL    HW222686   5.502   1.304   5.265
 7263SOL     OW22687   6.759   5.623   6.289
 7263SOL    HW122688   6.806   5.571   6.360
 7263SOL    HW222689   6.823   5.686   6.246
 7264SOL     OW22690   5.447   1.322   1.291
 7264SOL    HW122691   5.451   1.299   1.194
 7264SOL    HW222692   5.431   1.238   1.344
 7265SOL     OW22693   3.976   0.688   5.847
 7265SOL    HW122694   3.932   0.756   5.789
 7265SOL    HW222695   4.061   0.657   5.805
 7266SOL     OW22696   0.677   0.874   3.521
 7266SOL    HW122697   0.653   0.968   3.547
 7266SOL    HW222698   0.594   0.820   3.511
 7267SOL     OW22699   6.559   4.115   4.417
 7267SOL    HW122700   6.473   4.164   4.402
 7267SOL    HW222701   6.615   4.167   4.482
 7268SOL     OW22702   6.374   6.862   4.302
 7268SOL    HW122703   6.321   6.789   4.345
 7268SOL    HW222704   6.312   6.936   4.274
 7269SOL     OW22705   2.504   4.501   4.489
 7269SOL    HW122706   2.523   4.515   4.586
 7269SOL    HW222707   2.434   4.431   4.477
 7270SOL     OW22708   0.722   0.820   4.781
 7270SOL    HW122709   0.767   0.901   4.743
 7270SOL    HW222710   0.641   0.798   4.726
 7271SOL     OW22711   0.679   4.613   2.791
 7271SOL    HW122712   0.643   4.523   2.815
 7271SOL    HW222713   0.603   4.676   2.773
 7272SOL     OW22714   6.263   4.218   1.550
 7272SOL    HW122715   6.326   4.217   1.472
 7272SOL    HW222716   6.258   4.126   1.589
 7273SOL     OW22717   0.693   2.124   5.582
 7273SOL    HW122718   0.701   2.074   5.496
 7273SOL    HW222719   0.764   2.094   5.645
 7274SOL     OW22720   0.530   5.094   6.227
 7274SOL    HW122721   0.576   5.008   6.206
 7274SOL    HW222722   0.512   5.099   6.325
 7275SOL     OW22723   0.634   6.145   3.378
 7275SOL    HW122724   0.540   6.165   3.351
 7275SOL    HW222725   0.655   6.189   3.465
 7276SOL     OW22726   5.230   6.210   3.747
 7276SOL    HW122727   5.285   6.126   3.749
 7276SOL    HW222728   5.150   6.199   3.806
 7277SOL     OW22729   4.293   0.442   6.908
 7277SOL    HW122730   4.223   0.385   6.951
 7277SOL    HW222731   4.290   0.534   6.948
 7278SOL     OW22732   3.306   2.849   2.146
 7278SOL    HW122733   3.356   2.923   2.101
 7278SOL    HW222734   3.254   2.886   2.223
 7279SOL     OW22735   3.049   6.690   6.140
 7279SOL    HW122736   2.973   6.637   6.177
 7279SOL    HW222737   3.083   6.647   6.057
 7280SOL     OW22738   4.322   1.705   5.894
 7280SOL    HW122739   4.324   1.701   5.794
 7280SOL    HW222740   4.309   1.614   5.932
 7281SOL     OW22741   5.078   1.197   6.202
 7281SOL    HW122742   5.133   1.278   6.224
 7281SOL    HW222743   5.085   1.178   6.105
 7282SOL     OW22744   5.390   5.422   2.247
 7282SOL    HW122745   5.388   5.331   2.288
 7282SOL    HW222746   5.483   5.441   2.214
 7283SOL     OW22747   2.095   0.943   3.838
 7283SOL    HW122748   2.113   0.873   3.769
 7283SOL    HW222749   2.022   1.004   3.806
 7284SOL     OW22750   0.496   2.566   5.278
 7284SOL    HW122751   0.585   2.551   5.236
 7284SOL    HW222752   0.424   2.556   5.209
 7285SOL     OW22753   5.617   4.850   1.585
 7285SOL    HW122754   5.705   4.892   1.606
 7285SOL    HW222755   5.620   4.811   1.493
 7286SOL     OW22756   2.388   4.085   1.055
 7286SOL    HW122757   2.355   4.172   1.017
 7286SOL    HW222758   2.356   4.010   0.998
 7287SOL     OW22759   5.715   1.448   6.207
 7287SOL    HW122760   5.699   1.356   6.171
 7287SOL    HW222761   5.813   1.466   6.213
 7288SOL     OW22762   3.055   6.648   6.410
 7288SOL    HW122763   3.075   6.667   6.313
 7288SOL    HW222764   2.973   6.697   6.437
 7289SOL     OW22765   5.653   2.138   3.745
 7289SOL    HW122766   5.745   2.100   3.754
 7289SOL    HW222767   5.603   2.125   3.831
 7290SOL     OW22768   3.056   5.008   4.181
 7290SOL    HW122769   3.008   4.934   4.228
 7290SOL    HW222770   3.115   4.970   4.110
 7291SOL     OW22771   3.035   5.154   2.234
 7291SOL    HW122772   3.061   5.079   2.174
 7291SOL    HW222773   2.955   5.127   2.288
 7292SOL     OW22774   3.066   0.042   4.711
 7292SOL    HW122775   3.156   0.081   4.693
 7292SOL    HW222776   3.065   6.962   4.684
 7293SOL     OW22777   1.905   2.213   6.123
 7293SOL    HW122778   1.895   2.242   6.028
 7293SOL    HW222779   1.816   2.219   6.169
 7294SOL     OW22780   3.927   5.871   0.358
 7294SOL    HW122781   3.980   5.853   0.275
 7294SOL    HW222782   3.958   5.957   0.398
 7295SOL     OW22783   5.663   0.069   1.633
 7295SOL    HW122784   5.618   7.002   1.664
 7295SOL    HW222785   5.595   0.140   1.617
 7296SOL     OW22786   4.330   5.352   1.888
 7296SOL    HW122787   4.413   5.398   1.920
 7296SOL    HW222788   4.266   5.420   1.852
 7297SOL     OW22789   5.368   6.668   2.389
 7297SOL    HW122790   5.279   6.636   2.424
 7297SOL    HW222791   5.436   6.661   2.462
 7298SOL     OW22792   6.053   3.723   3.894
 7298SOL    HW122793   5.963   3.738   3.853
 7298SOL    HW222794   6.115   3.684   3.826
 7299SOL     OW22795   5.591   3.524   6.889
 7299SOL    HW122796   5.556   3.476   6.810
 7299SOL    HW222797   5.522   3.526   6.961
 7300SOL     OW22798   4.630   5.008   0.951
 7300SOL    HW122799   4.658   5.058   0.869
 7300SOL    HW222800   4.541   5.042   0.981
 7301SOL     OW22801   6.821   0.726   6.163
 7301SOL    HW122802   6.754   0.697   6.232
 7301SOL    HW222803   6.911   0.691   6.188
 7302SOL     OW22804   4.887   0.686   6.271
 7302SOL    HW122805   4.843   0.695   6.181
 7302SOL    HW222806   4.821   0.653   6.337
 7303SOL     OW22807   3.394   1.182   1.102
 7303SOL    HW122808   3.445   1.175   1.017
 7303SOL    HW222809   3.312   1.125   1.097
 7304SOL     OW22810   3.263   4.163   5.160
 7304SOL    HW122811   3.217   4.215   5.233
 7304SOL    HW222812   3.204   4.162   5.079
 7305SOL     OW22813   5.738   0.836   7.008
 7305SOL    HW122814   5.831   0.814   0.020
 7305SOL    HW222815   5.690   0.879   0.067
 7306SOL     OW22816   4.678   4.946   1.708
 7306SOL    HW122817   4.662   4.873   1.775
 7306SOL    HW222818   4.593   4.995   1.690
 7307SOL     OW22819   4.158   6.780   2.736
 7307SOL    HW122820   4.179   6.684   2.721
 7307SOL    HW222821   4.175   6.832   2.652
 7308SOL     OW22822   6.405   1.986   4.490
 7308SOL    HW122823   6.423   2.054   4.562
 7308SOL    HW222824   6.446   1.899   4.516
 7309SOL     OW22825   4.352   5.830   2.129
 7309SOL    HW122826   4.253   5.818   2.137
 7309SOL    HW222827   4.373   5.900   2.061
 7310SOL     OW22828   2.176   5.313   1.312
 7310SOL    HW122829   2.258   5.357   1.275
 7310SOL    HW222830   2.190   5.294   1.410
 7311SOL     OW22831   2.705   2.282   2.200
 7311SOL    HW122832   2.776   2.314   2.137
 7311SOL    HW222833   2.726   2.313   2.293
 7312SOL     OW22834   6.611   1.605   5.772
 7312SOL    HW122835   6.598   1.509   5.748
 7312SOL    HW222836   6.640   1.656   5.691
 7313SOL     OW22837   4.088   2.767   6.863
 7313SOL    HW122838   4.049   2.857   6.882
 7313SOL    HW222839   4.070   2.742   6.768
 7314SOL     OW22840   0.678   2.796   4.589
 7314SOL    HW122841   0.733   2.713   4.595
 7314SOL    HW222842   0.632   2.800   4.500
 7315SOL     OW22843   6.960   0.333   5.256
 7315SOL    HW122844   6.928   0.417   5.300
 7315SOL    HW222845   6.897   0.308   5.183
 7316SOL     OW22846   3.611   4.097   5.472
 7316SOL    HW122847   3.647   4.004   5.465
 7316SOL    HW222848   3.605   4.138   5.382
 7317SOL     OW22849   2.762   1.271   3.604
 7317SOL    HW122850   2.763   1.314   3.694
 7317SOL    HW222851   2.754   1.342   3.533
 7318SOL     OW22852   1.461   1.931   1.569
 7318SOL    HW122853   1.526   1.872   1.617
 7318SOL    HW222854   1.368   1.898   1.586
 7319SOL     OW22855   6.728   3.983   6.762
 7319SOL    HW122856   6.758   4.045   6.835
 7319SOL    HW222857   6.809   3.941   6.720
 7320SOL     OW22858   6.736   2.499   2.118
 7320SOL    HW122859   6.790   2.416   2.107
 7320SOL    HW222860   6.716   2.537   2.028
 7321SOL     OW22861   2.885   1.181   4.459
 7321SOL    HW122862   2.896   1.152   4.554
 7321SOL    HW222863   2.801   1.234   4.450
 7322SOL     OW22864   0.489   3.515   2.204
 7322SOL    HW122865   0.467   3.525   2.301
 7322SOL    HW222866   0.588   3.498   2.195
 7323SOL     OW22867   2.070   3.899   3.022
 7323SOL    HW122868   2.122   3.947   2.951
 7323SOL    HW222869   2.074   3.950   3.107
 7324SOL     OW22870   5.273   5.886   2.349
 7324SOL    HW122871   5.258   5.943   2.429
 7324SOL    HW222872   5.186   5.846   2.320
 7325SOL     OW22873   2.710   6.343   0.421
 7325SOL    HW122874   2.652   6.417   0.455
 7325SOL    HW222875   2.798   6.345   0.468
 7326SOL     OW22876   2.811   0.192   4.637
 7326SOL    HW122877   2.781   0.189   4.542
 7326SOL    HW222878   2.904   0.157   4.644
 7327SOL     OW22879   1.659   2.473   5.391
 7327SOL    HW122880   1.755   2.461   5.417
 7327SOL    HW222881   1.650   2.552   5.330
 7328SOL     OW22882   2.420   6.846   0.030
 7328SOL    HW122883   2.342   6.789   0.006
 7328SOL    HW222884   2.503   6.807   7.006
 7329SOL     OW22885   4.323   3.401   1.440
 7329SOL    HW122886   4.275   3.346   1.371
 7329SOL    HW222887   4.318   3.355   1.529
 7330SOL     OW22888   4.238   1.946   0.628
 7330SOL    HW122889   4.205   2.015   0.691
 7330SOL    HW222890   4.297   1.881   0.676
 7331SOL     OW22891   5.165   1.283   1.523
 7331SOL    HW122892   5.188   1.363   1.467
 7331SOL    HW222893   5.101   1.311   1.595
 7332SOL     OW22894   3.724   5.320   1.134
 7332SOL    HW122895   3.805   5.263   1.125
 7332SOL    HW222896   3.706   5.337   1.231
 7333SOL     OW22897   0.390   5.057   2.631
 7333SOL    HW122898   0.452   5.106   2.569
 7333SOL    HW222899   0.344   5.123   2.690
 7334SOL     OW22900   3.966   6.578   4.283
 7334SOL    HW122901   3.918   6.666   4.291
 7334SOL    HW222902   3.988   6.560   4.187
 7335SOL     OW22903   1.603   2.632   2.578
 7335SOL    HW122904   1.541   2.642   2.500
 7335SOL    HW222905   1.628   2.722   2.613
 7336SOL     OW22906   1.848   6.540   3.752
 7336SOL    HW122907   1.908   6.610   3.713
 7336SOL    HW222908   1.899   6.487   3.820
 7337SOL     OW22909   5.545   2.412   2.234
 7337SOL    HW122910   5.450   2.437   2.251
 7337SOL    HW222911   5.581   2.362   2.313
 7338SOL     OW22912   6.472   3.533   0.259
 7338SOL    HW122913   6.481   3.568   0.166
 7338SOL    HW222914   6.407   3.590   0.310
 7339SOL     OW22915   1.183   5.361   4.624
 7339SOL    HW122916   1.277   5.342   4.596
 7339SOL    HW222917   1.145   5.433   4.567
 7340SOL     OW22918   1.741   0.110   6.414
 7340SOL    HW122919   1.689   0.178   6.362
 7340SOL    HW222920   1.838   0.130   6.406
 7341SOL     OW22921   6.512   2.391   6.917
 7341SOL    HW122922   6.544   2.322   6.853
 7341SOL    HW222923   6.448   2.350   6.982
 7342SOL     OW22924   0.075   0.052   2.286
 7342SOL    HW122925   0.011   0.050   2.363
 7342SOL    HW222926   0.070   6.982   2.236
 7343SOL     OW22927   5.453   2.997   0.797
 7343SOL    HW122928   5.422   3.081   0.753
 7343SOL    HW222929   5.430   2.919   0.739
 7344SOL     OW22930   1.615   6.537   5.875
 7344SOL    HW122931   1.701   6.532   5.823
 7344SOL    HW222932   1.635   6.566   5.969
 7345SOL     OW22933   3.118   5.061   6.261
 7345SOL    HW122934   3.136   5.159   6.272
 7345SOL    HW222935   3.115   5.017   6.351
 7346SOL     OW22936   4.502   4.479   2.758
 7346SOL    HW122937   4.420   4.528   2.788
 7346SOL    HW222938   4.574   4.545   2.738
 7347SOL     OW22939   5.905   1.988   6.749
 7347SOL    HW122940   5.897   2.086   6.767
 7347SOL    HW222941   5.826   1.940   6.786
 7348SOL     OW22942   6.324   4.380   1.149
 7348SOL    HW122943   6.324   4.417   1.056
 7348SOL    HW222944   6.332   4.455   1.214
 7349SOL     OW22945   3.892   1.719   2.073
 7349SOL    HW122946   3.841   1.653   2.128
 7349SOL    HW222947   3.829   1.777   2.023
 7350SOL     OW22948   3.327   0.963   4.244
 7350SOL    HW122949   3.372   0.903   4.178
 7350SOL    HW222950   3.350   0.933   4.337
 7351SOL     OW22951   2.933   4.747   3.979
 7351SOL    HW122952   2.916   4.845   3.989
 7351SOL    HW222953   3.031   4.732   3.967
 7352SOL     OW22954   6.463   3.228   4.214
 7352SOL    HW122955   6.513   3.153   4.258
 7352SOL    HW222956   6.367   3.224   4.241
 7353SOL     OW22957   6.491   0.584   6.217
 7353SOL    HW122958   6.541   0.600   6.302
 7353SOL    HW222959   6.427   0.509   6.229
 7354SOL     OW22960   0.167   1.335   3.460
 7354SOL    HW122961   0.138   1.363   3.551
 7354SOL    HW222962   0.090   1.344   3.396
 7355SOL     OW22963   2.668   1.557   0.027
 7355SOL    HW122964   2.611   1.517   6.971
 7355SOL    HW222965   2.634   1.648   0.049
 7356SOL     OW22966   4.391   3.949   6.156
 7356SOL    HW122967   4.482   3.913   6.179
 7356SOL    HW222968   4.372   3.934   6.059
 7357SOL     OW22969   5.018   5.805   2.279
 7357SOL    HW122970   4.941   5.752   2.245
 7357SOL    HW222971   5.077   5.746   2.334
 7358SOL     OW22972   5.745   1.214   3.051
 7358SOL    HW122973   5.693   1.293   3.082
 7358SOL    HW222974   5.842   1.229   3.069
 7359SOL     OW22975   4.830   0.114   1.743
 7359SOL    HW122976   4.765   0.082   1.812
 7359SOL    HW222977   4.781   0.170   1.676
 7360SOL     OW22978   3.160   3.389   4.921
 7360SOL    HW122979   3.122   3.364   4.832
 7360SOL    HW222980   3.097   3.363   4.993
 7361SOL     OW22981   6.744   0.612   2.989
 7361SOL    HW122982   6.799   0.546   3.041
 7361SOL    HW222983   6.668   0.565   2.945
 7362SOL     OW22984   3.037   5.374   0.035
 7362SOL    HW122985   3.054   5.472   0.024
 7362SOL    HW222986   3.077   5.325   6.975
 7363SOL     OW22987   3.474   1.191   0.187
 7363SOL    HW122988   3.436   1.106   0.223
 7363SOL    HW222989   3.432   1.269   0.235
 7364SOL     OW22990   5.705   6.457   1.445
 7364SOL    HW122991   5.743   6.368   1.421
 7364SOL    HW222992   5.773   6.511   1.494
 7365SOL     OW22993   5.275   4.463   2.509
 7365SOL    HW122994   5.317   4.536   2.456
 7365SOL    HW222995   5.176   4.474   2.510
 7366SOL     OW22996   1.683   0.563   3.993
 7366SOL    HW122997   1.586   0.545   3.978
 7366SOL    HW222998   1.709   0.646   3.944
 7367SOL     OW22999   3.539   1.199   6.936
 7367SOL    HW123000   3.526   1.217   0.018
 7367SOL    HW223001   3.504   1.107   6.915
 7368SOL     OW23002   3.765   3.297   3.654
 7368SOL    HW123003   3.813   3.372   3.698
 7368SOL    HW223004   3.701   3.333   3.586
 7369SOL     OW23005   5.278   2.170   0.210
 7369SOL    HW123006   5.293   2.095   0.145
 7369SOL    HW223007   5.303   2.257   0.167
 7370SOL     OW23008   2.066   1.046   4.142
 7370SOL    HW123009   2.116   0.976   4.091
 7370SOL    HW223010   2.033   1.116   4.079
 7371SOL     OW23011   4.217   1.375   3.650
 7371SOL    HW123012   4.190   1.362   3.745
 7371SOL    HW223013   4.316   1.367   3.641
 7372SOL     OW23014   5.734   1.031   5.339
 7372SOL    HW123015   5.702   1.043   5.433
 7372SOL    HW223016   5.804   1.100   5.319
 7373SOL     OW23017   5.957   3.216   4.696
 7373SOL    HW123018   6.016   3.186   4.771
 7373SOL    HW223019   6.007   3.282   4.639
 7374SOL     OW23020   6.628   2.345   5.707
 7374SOL    HW123021   6.536   2.380   5.723
 7374SOL    HW223022   6.624   2.247   5.689
 7375SOL     OW23023   1.533   3.715   1.761
 7375SOL    HW123024   1.436   3.710   1.786
 7375SOL    HW223025   1.573   3.798   1.800
 7376SOL     OW23026   6.975   3.281   0.686
 7376SOL    HW123027   0.050   3.282   0.647
 7376SOL    HW223028   6.922   3.206   0.645
 7377SOL     OW23029   2.176   6.511   0.852
 7377SOL    HW123030   2.155   6.418   0.880
 7377SOL    HW223031   2.151   6.574   0.926
 7378SOL     OW23032   1.492   5.309   4.314
 7378SOL    HW123033   1.576   5.343   4.273
 7378SOL    HW223034   1.507   5.291   4.411
 7379SOL     OW23035   4.256   1.099   2.008
 7379SOL    HW123036   4.322   1.062   1.943
 7379SOL    HW223037   4.170   1.049   2.000
 7380SOL     OW23038   5.116   4.222   1.773
 7380SOL    HW123039   5.165   4.175   1.847
 7380SOL    HW223040   5.034   4.265   1.810
 7381SOL     OW23041   3.829   0.271   1.833
 7381SOL    HW123042   3.761   0.208   1.871
 7381SOL    HW223043   3.818   0.276   1.734
 7382SOL     OW23044   6.154   1.377   6.170
 7382SOL    HW123045   6.239   1.378   6.223
 7382SOL    HW223046   6.175   1.385   6.073
 7383SOL     OW23047   2.245   0.363   0.775
 7383SOL    HW123048   2.255   0.273   0.733
 7383SOL    HW223049   2.147   0.384   0.785
 7384SOL     OW23050   6.603   6.738   0.730
 7384SOL    HW123051   6.596   6.820   0.787
 7384SOL    HW223052   6.524   6.679   0.748
 7385SOL     OW23053   6.317   4.235   2.642
 7385SOL    HW123054   6.391   4.225   2.708
 7385SOL    HW223055   6.353   4.275   2.557
 7386SOL     OW23056   5.288   3.567   6.991
 7386SOL    HW123057   5.278   3.599   0.069
 7386SOL    HW223058   5.266   3.641   6.928
 7387SOL     OW23059   6.543   5.433   4.605
 7387SOL    HW123060   6.605   5.381   4.546
 7387SOL    HW223061   6.470   5.373   4.639
 7388SOL     OW23062   2.273   4.602   2.850
 7388SOL    HW123063   2.212   4.650   2.912
 7388SOL    HW223064   2.368   4.629   2.868
 7389SOL     OW23065   6.448   3.151   0.504
 7389SOL    HW123066   6.488   3.233   0.463
 7389SOL    HW223067   6.364   3.127   0.455
 7390SOL     OW23068   2.449   2.686   3.713
 7390SOL    HW123069   2.487   2.778   3.711
 7390SOL    HW223070   2.507   2.626   3.768
 7391SOL     OW23071   3.382   4.006   3.207
 7391SOL    HW123072   3.351   4.032   3.115
 7391SOL    HW223073   3.473   4.043   3.223
 7392SOL     OW23074   2.959   6.825   6.708
 7392SOL    HW123075   2.983   6.731   6.731
 7392SOL    HW223076   2.873   6.826   6.656
 7393SOL     OW23077   5.314   5.117   4.101
 7393SOL    HW123078   5.389   5.183   4.100
 7393SOL    HW223079   5.286   5.098   4.006
 7394SOL     OW23080   2.261   1.710   5.521
 7394SOL    HW123081   2.260   1.640   5.450
 7394SOL    HW223082   2.172   1.757   5.522
 7395SOL     OW23083   2.553   6.294   0.903
 7395SOL    HW123084   2.567   6.252   0.814
 7395SOL    HW223085   2.474   6.251   0.948
 7396SOL     OW23086   1.904   5.086   2.373
 7396SOL    HW123087   1.993   5.041   2.378
 7396SOL    HW223088   1.878   5.119   2.463
 7397SOL     OW23089   6.014   4.322   3.914
 7397SOL    HW123090   5.960   4.238   3.905
 7397SOL    HW223091   5.953   4.401   3.904
 7398SOL     OW23092   3.027   4.851   2.559
 7398SOL    HW123093   3.084   4.914   2.611
 7398SOL    HW223094   3.085   4.795   2.499
 7399SOL     OW23095   5.230   1.778   5.688
 7399SOL    HW123096   5.317   1.749   5.727
 7399SOL    HW223097   5.245   1.806   5.593
 7400SOL     OW23098   5.255   3.223   6.036
 7400SOL    HW123099   5.187   3.282   5.992
 7400SOL    HW223100   5.227   3.128   6.026
 7401SOL     OW23101   1.571   2.693   4.574
 7401SOL    HW123102   1.660   2.648   4.562
 7401SOL    HW223103   1.566   2.773   4.514
 7402SOL     OW23104   3.925   5.801   4.382
 7402SOL    HW123105   3.964   5.843   4.300
 7402SOL    HW223106   3.859   5.731   4.355
 7403SOL     OW23107   1.265   4.322   4.671
 7403SOL    HW123108   1.292   4.315   4.575
 7403SOL    HW223109   1.222   4.236   4.700
 7404SOL     OW23110   3.306   3.617   0.857
 7404SOL    HW123111   3.382   3.651   0.913
 7404SOL    HW223112   3.232   3.587   0.917
 7405SOL     OW23113   4.177   6.574   4.801
 7405SOL    HW123114   4.079   6.561   4.819
 7405SOL    HW223115   4.203   6.667   4.826
 7406SOL     OW23116   0.999   1.884   4.657
 7406SOL    HW123117   1.021   1.953   4.725
 7406SOL    HW223118   0.930   1.920   4.593
 7407SOL     OW23119   1.021   5.782   5.216
 7407SOL    HW123120   1.095   5.834   5.261
 7407SOL    HW223121   1.050   5.757   5.124
 7408SOL     OW23122   4.282   5.079   5.338
 7408SOL    HW123123   4.221   5.159   5.337
 7408SOL    HW223124   4.294   5.046   5.245
 7409SOL     OW23125   6.924   3.666   1.027
 7409SOL    HW123126   7.011   3.683   1.072
 7409SOL    HW223127   6.931   3.584   0.970
 7410SOL     OW23128   6.840   0.607   0.725
 7410SOL    HW123129   6.743   0.616   0.702
 7410SOL    HW223130   6.878   0.698   0.744
 7411SOL     OW23131   2.828   1.539   5.302
 7411SOL    HW123132   2.915   1.524   5.347
 7411SOL    HW223133   2.778   1.613   5.348
 7412SOL     OW23134   3.661   0.162   0.002
 7412SOL    HW123135   3.674   0.261   7.015
 7412SOL    HW223136   3.569   0.141   0.034
 7413SOL     OW23137   4.811   0.639   3.013
 7413SOL    HW123138   4.721   0.602   3.036
 7413SOL    HW223139   4.808   0.739   3.014
 7414SOL     OW23140   2.732   1.101   3.371
 7414SOL    HW123141   2.765   1.135   3.459
 7414SOL    HW223142   2.712   1.179   3.311
 7415SOL     OW23143   4.201   6.592   6.520
 7415SOL    HW123144   4.231   6.594   6.616
 7415SOL    HW223145   4.198   6.686   6.484
 7416SOL     OW23146   1.795   0.877   1.855
 7416SOL    HW123147   1.856   0.898   1.778
 7416SOL    HW223148   1.773   0.961   1.904
 7417SOL     OW23149   0.735   0.714   2.455
 7417SOL    HW123150   0.834   0.723   2.444
 7417SOL    HW223151   0.694   0.805   2.461
 7418SOL     OW23152   1.284   4.027   6.061
 7418SOL    HW123153   1.235   3.957   6.113
 7418SOL    HW223154   1.382   4.021   6.081
 7419SOL     OW23155   6.958   3.704   4.060
 7419SOL    HW123156   6.944   3.717   4.158
 7419SOL    HW223157   6.947   3.792   4.013
 7420SOL     OW23158   0.200   6.602   0.973
 7420SOL    HW123159   0.242   6.616   1.062
 7420SOL    HW223160   0.264   6.627   0.901
 7421SOL     OW23161   5.914   3.876   1.197
 7421SOL    HW123162   5.969   3.793   1.207
 7421SOL    HW223163   5.974   3.953   1.176
 7422SOL     OW23164   5.637   2.732   2.209
 7422SOL    HW123165   5.671   2.706   2.299
 7422SOL    HW223166   5.620   2.650   2.154
 7423SOL     OW23167   4.928   2.324   5.852
 7423SOL    HW123168   4.967   2.287   5.937
 7423SOL    HW223169   5.000   2.366   5.797
 7424SOL     OW23170   0.129   2.503   3.334
 7424SOL    HW123171   0.091   2.552   3.413
 7424SOL    HW223172   0.227   2.492   3.346
 7425SOL     OW23173   5.744   0.879   0.597
 7425SOL    HW123174   5.704   0.799   0.642
 7425SOL    HW223175   5.843   0.868   0.591
 7426SOL     OW23176   3.297   2.814   5.535
 7426SOL    HW123177   3.274   2.783   5.443
 7426SOL    HW223178   3.249   2.756   5.602
 7427SOL     OW23179   3.181   0.803   3.387
 7427SOL    HW123180   3.236   0.754   3.453
 7427SOL    HW223181   3.095   0.831   3.430
 7428SOL     OW23182   3.795   6.009   4.983
 7428SOL    HW123183   3.887   6.031   4.951
 7428SOL    HW223184   3.776   5.912   4.968
 7429SOL     OW23185   0.654   0.037   1.814
 7429SOL    HW123186   0.586   6.981   1.806
 7429SOL    HW223187   0.655   0.072   1.908
 7430SOL     OW23188   6.528   4.599   3.034
 7430SOL    HW123189   6.490   4.506   3.031
 7430SOL    HW223190   6.456   4.663   3.060
 7431SOL     OW23191   0.869   1.544   3.433
 7431SOL    HW123192   0.968   1.549   3.448
 7431SOL    HW223193   0.840   1.449   3.430
 7432SOL     OW23194   2.127   0.871   3.116
 7432SOL    HW123195   2.163   0.964   3.115
 7432SOL    HW223196   2.154   0.823   3.032
 7433SOL     OW23197   2.759   6.518   6.652
 7433SOL    HW123198   2.698   6.468   6.713
 7433SOL    HW223199   2.707   6.551   6.573
 7434SOL     OW23200   4.336   6.654   4.032
 7434SOL    HW123201   4.399   6.710   4.085
 7434SOL    HW223202   4.311   6.573   4.084
 7435SOL     OW23203   4.782   4.180   3.008
 7435SOL    HW123204   4.700   4.137   3.048
 7435SOL    HW223205   4.772   4.183   2.909
 7436SOL     OW23206   5.644   2.710   5.762
 7436SOL    HW123207   5.593   2.642   5.710
 7436SOL    HW223208   5.581   2.780   5.796
 7437SOL     OW23209   3.311   0.048   0.891
 7437SOL    HW123210   3.275   0.048   0.984
 7437SOL    HW223211   3.275   0.127   0.841
 7438SOL     OW23212   1.926   0.133   0.072
 7438SOL    HW123213   1.837   0.164   0.106
 7438SOL    HW223214   1.985   0.113   0.150
 7439SOL     OW23215   0.936   4.761   6.270
 7439SOL    HW123216   1.003   4.702   6.315
 7439SOL    HW223217   0.921   4.843   6.325
 7440SOL     OW23218   5.529   4.141   4.043
 7440SOL    HW123219   5.529   4.159   4.141
 7440SOL    HW223220   5.441   4.170   4.004
 7441SOL     OW23221   5.038   5.927   0.689
 7441SOL    HW123222   5.039   6.007   0.749
 7441SOL    HW223223   5.052   5.956   0.595
 7442SOL     OW23224   5.415   0.551   6.225
 7442SOL    HW123225   5.316   0.551   6.236
 7442SOL    HW223226   5.441   0.485   6.155
 7443SOL     OW23227   0.023   0.910   1.426
 7443SOL    HW123228   0.064   0.885   1.338
 7443SOL    HW223229   0.095   0.929   1.492
 7444SOL     OW23230   1.520   6.640   0.285
 7444SOL    HW123231   1.440   6.629   0.345
 7444SOL    HW223232   1.489   6.653   0.191
 7445SOL     OW23233   3.839   5.911   1.766
 7445SOL    HW123234   3.804   5.818   1.773
 7445SOL    HW223235   3.845   5.951   1.858
 7446SOL     OW23236   5.733   4.604   6.827
 7446SOL    HW123237   5.750   4.546   6.747
 7446SOL    HW223238   5.812   4.663   6.842
 7447SOL     OW23239   0.393   5.008   0.208
 7447SOL    HW123240   0.407   4.931   0.145
 7447SOL    HW223241   0.422   4.981   0.300
 7448SOL     OW23242   4.623   6.035   6.682
 7448SOL    HW123243   4.597   6.078   6.768
 7448SOL    HW223244   4.718   6.057   6.662
 7449SOL     OW23245   6.638   4.723   5.837
 7449SOL    HW123246   6.738   4.727   5.844
 7449SOL    HW223247   6.597   4.764   5.918
 7450SOL     OW23248   5.510   2.492   5.910
 7450SOL    HW123249   5.570   2.442   5.972
 7450SOL    HW223250   5.496   2.438   5.827
 7451SOL     OW23251   4.435   4.564   3.293
 7451SOL    HW123252   4.531   4.538   3.290
 7451SOL    HW223253   4.414   4.605   3.382
 7452SOL     OW23254   6.433   5.511   5.796
 7452SOL    HW123255   6.414   5.500   5.698
 7452SOL    HW223256   6.360   5.565   5.838
 7453SOL     OW23257   3.799   5.805   6.164
 7453SOL    HW123258   3.897   5.798   6.184
 7453SOL    HW223259   3.782   5.887   6.109
 7454SOL     OW23260   4.082   2.614   1.012
 7454SOL    HW123261   3.983   2.602   1.000
 7454SOL    HW223262   4.115   2.546   1.078
 7455SOL     OW23263   6.504   1.562   3.360
 7455SOL    HW123264   6.569   1.624   3.316
 7455SOL    HW223265   6.525   1.557   3.458
 7456SOL     OW23266   2.561   2.135   5.960
 7456SOL    HW123267   2.607   2.222   5.977
 7456SOL    HW223268   2.613   2.060   6.002
 7457SOL     OW23269   0.997   1.464   2.399
 7457SOL    HW123270   0.964   1.555   2.378
 7457SOL    HW223271   1.060   1.433   2.327
 7458SOL     OW23272   1.739   5.539   5.496
 7458SOL    HW123273   1.827   5.573   5.527
 7458SOL    HW223274   1.751   5.450   5.452
 7459SOL     OW23275   5.926   0.248   2.808
 7459SOL    HW123276   5.918   0.197   2.723
 7459SOL    HW223277   5.934   0.185   2.885
 7460SOL     OW23278   1.528   0.269   1.634
 7460SOL    HW123279   1.622   0.289   1.609
 7460SOL    HW223280   1.466   0.308   1.566
 7461SOL     OW23281   2.558   4.616   5.393
 7461SOL    HW123282   2.575   4.605   5.295
 7461SOL    HW223283   2.479   4.677   5.407
 7462SOL     OW23284   1.574   3.850   0.914
 7462SOL    HW123285   1.523   3.765   0.928
 7462SOL    HW223286   1.590   3.895   1.002
 7463SOL     OW23287   3.896   5.003   0.759
 7463SOL    HW123288   3.888   4.904   0.770
 7463SOL    HW223289   3.977   5.035   0.809
 7464SOL     OW23290   5.985   6.401   5.211
 7464SOL    HW123291   5.901   6.360   5.248
 7464SOL    HW223292   6.063   6.371   5.265
 7465SOL     OW23293   1.591   4.801   0.058
 7465SOL    HW123294   1.518   4.775   0.121
 7465SOL    HW223295   1.568   4.768   6.982
 7466SOL     OW23296   0.604   0.305   5.529
 7466SOL    HW123297   0.559   0.274   5.445
 7466SOL    HW223298   0.536   0.322   5.600
 7467SOL     OW23299   1.033   3.684   4.892
 7467SOL    HW123300   1.013   3.665   4.796
 7467SOL    HW223301   1.085   3.769   4.899
 7468SOL     OW23302   5.483   2.885   6.145
 7468SOL    HW123303   5.520   2.800   6.183
 7468SOL    HW223304   5.476   2.954   6.218
 7469SOL     OW23305   0.687   2.177   0.259
 7469SOL    HW123306   0.613   2.245   0.256
 7469SOL    HW223307   0.773   2.222   0.237
 7470SOL     OW23308   5.822   2.763   3.069
 7470SOL    HW123309   5.742   2.704   3.071
 7470SOL    HW223310   5.895   2.721   3.124
 7471SOL     OW23311   3.721   6.987   6.535
 7471SOL    HW123312   3.648   6.929   6.498
 7471SOL    HW223313   3.797   6.929   6.565
 7472SOL     OW23314   6.323   6.989   6.009
 7472SOL    HW123315   6.355   6.916   5.948
 7472SOL    HW223316   6.267   6.950   6.082
 7473SOL     OW23317   3.592   5.891   3.758
 7473SOL    HW123318   3.505   5.852   3.729
 7473SOL    HW223319   3.667   5.843   3.712
 7474SOL     OW23320   6.051   1.890   0.151
 7474SOL    HW123321   6.083   1.930   0.064
 7474SOL    HW223322   6.105   1.927   0.226
 7475SOL     OW23323   4.941   2.224   0.959
 7475SOL    HW123324   4.852   2.259   0.988
 7475SOL    HW223325   4.934   2.187   0.866
 7476SOL     OW23326   2.429   0.580   3.243
 7476SOL    HW123327   2.343   0.531   3.257
 7476SOL    HW223328   2.423   0.670   3.287
 7477SOL     OW23329   1.540   2.961   5.643
 7477SOL    HW123330   1.551   2.861   5.636
 7477SOL    HW223331   1.484   2.994   5.568
 7478SOL     OW23332   0.364   1.149   5.757
 7478SOL    HW123333   0.281   1.113   5.714
 7478SOL    HW223334   0.439   1.147   5.691
 7479SOL     OW23335   4.896   2.718   1.633
 7479SOL    HW123336   4.846   2.653   1.691
 7479SOL    HW223337   4.832   2.786   1.597
 7480SOL     OW23338   3.782   5.078   2.358
 7480SOL    HW123339   3.728   5.160   2.339
 7480SOL    HW223340   3.725   5.009   2.402
 7481SOL     OW23341   6.962   3.859   6.711
 7481SOL    HW123342   6.974   3.880   6.614
 7481SOL    HW223343   0.012   3.789   6.739
 7482SOL     OW23344   5.451   2.230   3.517
 7482SOL    HW123345   5.522   2.207   3.583
 7482SOL    HW223346   5.416   2.322   3.537
 7483SOL     OW23347   4.078   1.807   5.874
 7483SOL    HW123348   4.053   1.900   5.847
 7483SOL    HW223349   4.178   1.799   5.877
 7484SOL     OW23350   3.148   0.443   3.427
 7484SOL    HW123351   3.143   0.495   3.341
 7484SOL    HW223352   3.222   0.479   3.483
 7485SOL     OW23353   3.520   6.809   6.495
 7485SOL    HW123354   3.439   6.821   6.437
 7485SOL    HW223355   3.579   6.738   6.456
 7486SOL     OW23356   3.188   6.875   0.742
 7486SOL    HW123357   3.148   6.938   0.675
 7486SOL    HW223358   3.248   6.926   0.804
 7487SOL     OW23359   3.461   6.314   4.579
 7487SOL    HW123360   3.555   6.290   4.602
 7487SOL    HW223361   3.401   6.238   4.601
 7488SOL     OW23362   1.154   5.807   4.046
 7488SOL    HW123363   1.055   5.810   4.065
 7488SOL    HW223364   1.171   5.751   3.965
 7489SOL     OW23365   5.427   2.888   7.014
 7489SOL    HW123366   5.412   2.919   0.092
 7489SOL    HW223367   5.437   2.968   6.954
 7490SOL     OW23368   1.507   2.885   2.124
 7490SOL    HW123369   1.428   2.863   2.067
 7490SOL    HW223370   1.591   2.860   2.076
 7491SOL     OW23371   4.361   4.097   6.749
 7491SOL    HW123372   4.343   4.009   6.793
 7491SOL    HW223373   4.437   4.088   6.686
 7492SOL     OW23374   1.406   0.376   3.943
 7492SOL    HW123375   1.495   0.339   3.969
 7492SOL    HW223376   1.348   0.303   3.907
 7493SOL     OW23377   6.357   4.623   5.183
 7493SOL    HW123378   6.364   4.549   5.250
 7493SOL    HW223379   6.262   4.637   5.158
 7494SOL     OW23380   6.319   0.922   2.047
 7494SOL    HW123381   6.335   0.981   1.968
 7494SOL    HW223382   6.398   0.862   2.061
 7495SOL     OW23383   1.294   3.038   4.826
 7495SOL    HW123384   1.217   3.097   4.800
 7495SOL    HW223385   1.346   3.014   4.744
 7496SOL     OW23386   5.915   4.249   2.689
 7496SOL    HW123387   5.837   4.203   2.646
 7496SOL    HW223388   5.899   4.348   2.689
 7497SOL     OW23389   6.307   6.477   1.509
 7497SOL    HW123390   6.309   6.432   1.420
 7497SOL    HW223391   6.215   6.469   1.548
 7498SOL     OW23392   3.133   6.590   3.297
 7498SOL    HW123393   3.086   6.674   3.273
 7498SOL    HW223394   3.169   6.546   3.214
 7499SOL     OW23395   3.018   1.640   3.586
 7499SOL    HW123396   3.027   1.704   3.510
 7499SOL    HW223397   3.018   1.691   3.672
 7500SOL     OW23398   4.096   1.232   3.275
 7500SOL    HW123399   4.178   1.188   3.239
 7500SOL    HW223400   4.021   1.166   3.278
 7501SOL     OW23401   6.699   2.282   5.165
 7501SOL    HW123402   6.647   2.361   5.134
 7501SOL    HW223403   6.757   2.249   5.092
 7502SOL     OW23404   4.278   0.570   3.933
 7502SOL    HW123405   4.209   0.608   3.994
 7502SOL    HW223406   4.304   0.638   3.865
 7503SOL     OW23407   1.953   5.810   1.824
 7503SOL    HW123408   1.983   5.846   1.912
 7503SOL    HW223409   1.863   5.768   1.834
 7504SOL     OW23410   5.971   6.551   4.352
 7504SOL    HW123411   5.905   6.600   4.294
 7504SOL    HW223412   5.922   6.489   4.413
 7505SOL     OW23413   0.149   6.090   4.886
 7505SOL    HW123414   0.207   6.025   4.935
 7505SOL    HW223415   0.054   6.057   4.887
 7506SOL     OW23416   3.087   2.173   3.417
 7506SOL    HW123417   3.005   2.140   3.463
 7506SOL    HW223418   3.065   2.199   3.323
 7507SOL     OW23419   6.408   4.409   6.365
 7507SOL    HW123420   6.466   4.490   6.356
 7507SOL    HW223421   6.322   4.423   6.315
 7508SOL     OW23422   3.041   5.751   0.690
 7508SOL    HW123423   3.079   5.842   0.707
 7508SOL    HW223424   3.084   5.712   0.609
 7509SOL     OW23425   6.003   4.684   2.426
 7509SOL    HW123426   6.050   4.607   2.470
 7509SOL    HW223427   5.954   4.737   2.496
 7510SOL     OW23428   3.410   4.002   2.426
 7510SOL    HW123429   3.498   4.034   2.460
 7510SOL    HW223430   3.411   3.903   2.419
 7511SOL     OW23431   4.559   5.886   4.334
 7511SOL    HW123432   4.496   5.904   4.410
 7511SOL    HW223433   4.512   5.834   4.263
 7512SOL     OW23434   3.802   1.196   1.262
 7512SOL    HW123435   3.742   1.122   1.290
 7512SOL    HW223436   3.890   1.186   1.307
 7513SOL     OW23437   1.593   1.886   2.168
 7513SOL    HW123438   1.514   1.862   2.224
 7513SOL    HW223439   1.584   1.980   2.136
 7514SOL     OW23440   0.843   6.284   2.185
 7514SOL    HW123441   0.908   6.209   2.193
 7514SOL    HW223442   0.867   6.342   2.107
 7515SOL     OW23443   0.322   4.120   5.423
 7515SOL    HW123444   0.272   4.177   5.358
 7515SOL    HW223445   0.322   4.025   5.391
 7516SOL     OW23446   1.985   6.284   5.542
 7516SOL    HW123447   1.915   6.280   5.613
 7516SOL    HW223448   1.953   6.235   5.461
 7517SOL     OW23449   1.176   1.109   5.801
 7517SOL    HW123450   1.180   1.039   5.872
 7517SOL    HW223451   1.083   1.143   5.793
 7518SOL     OW23452   4.643   1.811   4.083
 7518SOL    HW123453   4.603   1.761   4.007
 7518SOL    HW223454   4.735   1.843   4.059
 7519SOL     OW23455   4.290   6.436   4.181
 7519SOL    HW123456   4.268   6.496   4.257
 7519SOL    HW223457   4.381   6.396   4.195
 7520SOL     OW23458   1.471   1.634   0.647
 7520SOL    HW123459   1.373   1.614   0.641
 7520SOL    HW223460   1.485   1.731   0.663
 7521SOL     OW23461   3.876   1.441   4.335
 7521SOL    HW123462   3.913   1.504   4.403
 7521SOL    HW223463   3.859   1.352   4.377
 7522SOL     OW23464   2.492   6.924   3.880
 7522SOL    HW123465   2.493   6.828   3.852
 7522SOL    HW223466   2.402   6.963   3.861
 7523SOL     OW23467   5.818   0.609   1.041
 7523SOL    HW123468   5.742   0.608   1.107
 7523SOL    HW223469   5.849   0.702   1.027
 7524SOL     OW23470   0.785   4.011   4.330
 7524SOL    HW123471   0.846   4.065   4.272
 7524SOL    HW223472   0.837   3.940   4.376
 7525SOL     OW23473   3.667   4.831   6.135
 7525SOL    HW123474   3.573   4.855   6.159
 7525SOL    HW223475   3.677   4.828   6.035
 7526SOL     OW23476   2.770   3.875   1.085
 7526SOL    HW123477   2.784   3.791   1.032
 7526SOL    HW223478   2.760   3.953   1.022
 7527SOL     OW23479   3.698   5.177   3.435
 7527SOL    HW123480   3.788   5.172   3.479
 7527SOL    HW223481   3.657   5.086   3.434
 7528SOL     OW23482   6.713   2.575   6.020
 7528SOL    HW123483   6.657   2.619   6.089
 7528SOL    HW223484   6.747   2.644   5.956
 7529SOL     OW23485   6.355   3.690   3.829
 7529SOL    HW123486   6.381   3.698   3.925
 7529SOL    HW223487   6.368   3.596   3.798
 7530SOL     OW23488   0.980   2.723   2.559
 7530SOL    HW123489   0.964   2.659   2.634
 7530SOL    HW223490   1.078   2.739   2.548
 7531SOL     OW23491   3.757   2.034   4.294
 7531SOL    HW123492   3.671   2.055   4.341
 7531SOL    HW223493   3.741   2.030   4.195
 7532SOL     OW23494   4.846   5.417   6.408
 7532SOL    HW123495   4.771   5.352   6.420
 7532SOL    HW223496   4.925   5.386   6.462
 7533SOL     OW23497   4.218   4.495   1.708
 7533SOL    HW123498   4.258   4.554   1.638
 7533SOL    HW223499   4.277   4.416   1.723
 7534SOL     OW23500   4.636   6.139   5.271
 7534SOL    HW123501   4.718   6.194   5.262
 7534SOL    HW223502   4.565   6.173   5.209
 7535SOL     OW23503   0.407   6.442   3.502
 7535SOL    HW123504   0.484   6.395   3.546
 7535SOL    HW223505   0.371   6.511   3.565
 7536SOL     OW23506   6.118   6.379   4.007
 7536SOL    HW123507   6.158   6.320   3.936
 7536SOL    HW223508   6.120   6.331   4.095
 7537SOL     OW23509   2.045   6.299   2.733
 7537SOL    HW123510   2.050   6.233   2.809
 7537SOL    HW223511   2.133   6.305   2.687
 7538SOL     OW23512   0.778   3.922   0.675
 7538SOL    HW123513   0.835   3.916   0.592
 7538SOL    HW223514   0.793   4.010   0.720
 7539SOL     OW23515   0.051   0.252   4.570
 7539SOL    HW123516   0.130   0.242   4.509
 7539SOL    HW223517   0.008   0.162   4.583
 7540SOL     OW23518   5.615   4.778   3.332
 7540SOL    HW123519   5.693   4.743   3.280
 7540SOL    HW223520   5.549   4.705   3.347
 7541SOL     OW23521   2.655   4.187   5.636
 7541SOL    HW123522   2.650   4.235   5.548
 7541SOL    HW223523   2.678   4.253   5.708
 7542SOL     OW23524   6.448   6.097   4.519
 7542SOL    HW123525   6.494   6.185   4.522
 7542SOL    HW223526   6.407   6.084   4.428
 7543SOL     OW23527   2.843   1.450   0.187
 7543SOL    HW123528   2.920   1.511   0.205
 7543SOL    HW223529   2.770   1.502   0.143
 7544SOL     OW23530   6.584   1.546   4.436
 7544SOL    HW123531   6.524   1.609   4.486
 7544SOL    HW223532   6.536   1.512   4.355
 7545SOL     OW23533   2.065   5.470   5.591
 7545SOL    HW123534   2.028   5.383   5.560
 7545SOL    HW223535   2.049   5.480   5.689
 7546SOL     OW23536   2.370   2.523   2.240
 7546SOL    HW123537   2.379   2.523   2.140
 7546SOL    HW223538   2.395   2.612   2.276
 7547SOL     OW23539   3.949   0.187   2.068
 7547SOL    HW123540   3.924   0.234   1.984
 7547SOL    HW223541   3.869   0.139   2.105
 7548SOL     OW23542   3.043   2.907   6.307
 7548SOL    HW123543   3.060   2.811   6.331
 7548SOL    HW223544   3.130   2.957   6.309
 7549SOL     OW23545   5.225   0.901   5.397
 7549SOL    HW123546   5.185   0.977   5.447
 7549SOL    HW223547   5.319   0.887   5.428
 7550SOL     OW23548   2.295   5.490   4.508
 7550SOL    HW123549   2.350   5.406   4.508
 7550SOL    HW223550   2.255   5.504   4.598
 7551SOL     OW23551   6.331   2.300   6.168
 7551SOL    HW123552   6.427   2.291   6.141
 7551SOL    HW223553   6.321   2.375   6.233
 7552SOL     OW23554   2.572   6.854   4.851
 7552SOL    HW123555   2.512   6.782   4.816
 7552SOL    HW223556   2.656   6.856   4.798
 7553SOL     OW23557   6.028   6.751   5.903
 7553SOL    HW123558   6.044   6.786   5.995
 7553SOL    HW223559   5.978   6.819   5.849
 7554SOL     OW23560   4.264   1.360   0.585
 7554SOL    HW123561   4.280   1.261   0.589
 7554SOL    HW223562   4.312   1.405   0.661
 7555SOL     OW23563   4.330   5.022   4.362
 7555SOL    HW123564   4.274   5.096   4.326
 7555SOL    HW223565   4.300   4.935   4.323
 7556SOL     OW23566   0.808   6.623   1.517
 7556SOL    HW123567   0.720   6.642   1.472
 7556SOL    HW223568   0.867   6.703   1.510
 7557SOL     OW23569   4.640   6.914   1.632
 7557SOL    HW123570   4.706   6.979   1.594
 7557SOL    HW223571   4.603   6.858   1.558
 7558SOL     OW23572   0.459   1.824   3.758
 7558SOL    HW123573   0.504   1.911   3.739
 7558SOL    HW223574   0.489   1.756   3.692
 7559SOL     OW23575   2.644   1.808   4.895
 7559SOL    HW123576   2.615   1.841   4.985
 7559SOL    HW223577   2.574   1.747   4.857
 7560SOL     OW23578   1.554   1.280   5.796
 7560SOL    HW123579   1.494   1.222   5.851
 7560SOL    HW223580   1.525   1.375   5.804
 7561SOL     OW23581   5.915   1.504   5.568
 7561SOL    HW123582   5.922   1.506   5.468
 7561SOL    HW223583   6.001   1.534   5.608
 7562SOL     OW23584   2.081   5.318   2.998
 7562SOL    HW123585   2.080   5.367   3.086
 7562SOL    HW223586   2.002   5.346   2.944
 7563SOL     OW23587   3.559   5.968   2.600
 7563SOL    HW123588   3.622   5.929   2.533
 7563SOL    HW223589   3.505   5.894   2.641
 7564SOL     OW23590   3.643   1.679   5.415
 7564SOL    HW123591   3.644   1.614   5.339
 7564SOL    HW223592   3.557   1.669   5.466
 7565SOL     OW23593   6.475   3.717   5.829
 7565SOL    HW123594   6.468   3.808   5.867
 7565SOL    HW223595   6.480   3.650   5.903
 7566SOL     OW23596   4.594   4.697   1.791
 7566SOL    HW123597   4.566   4.670   1.699
 7566SOL    HW223598   4.669   4.638   1.822
 7567SOL     OW23599   1.298   6.726   4.131
 7567SOL    HW123600   1.393   6.694   4.131
 7567SOL    HW223601   1.278   6.770   4.218
 7568SOL     OW23602   5.891   4.855   1.585
 7568SOL    HW123603   5.925   4.920   1.517
 7568SOL    HW223604   5.880   4.765   1.543
 7569SOL     OW23605   4.711   3.446   0.439
 7569SOL    HW123606   4.700   3.488   0.349
 7569SOL    HW223607   4.727   3.518   0.507
 7570SOL     OW23608   0.765   3.291   2.296
 7570SOL    HW123609   0.862   3.312   2.307
 7570SOL    HW223610   0.738   3.305   2.201
 7571SOL     OW23611   4.360   2.080   2.697
 7571SOL    HW123612   4.400   2.034   2.776
 7571SOL    HW223613   4.304   2.157   2.728
 7572SOL     OW23614   4.545   0.029   3.758
 7572SOL    HW123615   4.448   0.020   3.735
 7572SOL    HW223616   4.596   0.052   3.675
 7573SOL     OW23617   3.992   6.729   6.358
 7573SOL    HW123618   4.076   6.710   6.308
 7573SOL    HW223619   3.953   6.815   6.327
 7574SOL     OW23620   0.384   2.231   3.826
 7574SOL    HW123621   0.297   2.205   3.868
 7574SOL    HW223622   0.434   2.293   3.887
 7575SOL     OW23623   0.166   6.530   2.672
 7575SOL    HW123624   0.131   6.442   2.641
 7575SOL    HW223625   0.254   6.516   2.719
 7576SOL     OW23626   4.925   2.468   0.054
 7576SOL    HW123627   4.925   2.381   0.102
 7576SOL    HW223628   4.958   2.455   6.977
 7577SOL     OW23629   0.710   0.680   0.361
 7577SOL    HW123630   0.683   0.765   0.405
 7577SOL    HW223631   0.647   0.607   0.390
 7578SOL     OW23632   6.421   5.966   3.545
 7578SOL    HW123633   6.359   5.889   3.563
 7578SOL    HW223634   6.367   6.048   3.525
 7579SOL     OW23635   0.992   1.784   6.890
 7579SOL    HW123636   0.922   1.792   6.819
 7579SOL    HW223637   1.036   1.873   6.905
 7580SOL     OW23638   2.279   5.183   3.490
 7580SOL    HW123639   2.206   5.198   3.557
 7580SOL    HW223640   2.365   5.165   3.538
 7581SOL     OW23641   0.076   0.774   2.333
 7581SOL    HW123642   7.005   0.819   2.353
 7581SOL    HW223643   0.058   0.684   2.293
 7582SOL     OW23644   2.414   1.879   6.322
 7582SOL    HW123645   2.397   1.976   6.304
 7582SOL    HW223646   2.357   1.824   6.262
 7583SOL     OW23647   5.426   3.401   2.862
 7583SOL    HW123648   5.334   3.416   2.900
 7583SOL    HW223649   5.427   3.316   2.809
 7584SOL     OW23650   0.750   1.270   3.361
 7584SOL    HW123651   0.761   1.197   3.293
 7584SOL    HW223652   0.742   1.229   3.452
 7585SOL     OW23653   0.988   1.305   6.038
 7585SOL    HW123654   0.945   1.218   6.017
 7585SOL    HW223655   1.039   1.338   5.958
 7586SOL     OW23656   2.000   6.961   3.307
 7586SOL    HW123657   1.920   6.926   3.357
 7586SOL    HW223658   1.968   7.016   3.229
 7587SOL     OW23659   4.156   0.117   1.259
 7587SOL    HW123660   4.064   0.085   1.236
 7587SOL    HW223661   4.179   0.196   1.202
 7588SOL     OW23662   2.459   2.632   4.694
 7588SOL    HW123663   2.395   2.597   4.626
 7588SOL    HW223664   2.531   2.565   4.710
 7589SOL     OW23665   0.133   0.315   2.601
 7589SOL    HW123666   0.070   0.320   2.524
 7589SOL    HW223667   0.177   0.225   2.602
 7590SOL     OW23668   6.513   1.069   0.040
 7590SOL    HW123669   6.438   1.135   0.034
 7590SOL    HW223670   6.536   1.055   0.137
 7591SOL     OW23671   3.075   3.017   4.846
 7591SOL    HW123672   3.039   2.931   4.883
 7591SOL    HW223673   3.035   3.034   4.756
 7592SOL     OW23674   6.809   6.521   3.907
 7592SOL    HW123675   6.895   6.572   3.915
 7592SOL    HW223676   6.789   6.502   3.811
 7593SOL     OW23677   0.312   0.782   5.549
 7593SOL    HW123678   0.348   0.786   5.642
 7593SOL    HW223679   0.334   0.867   5.501
 7594SOL     OW23680   6.958   3.916   6.451
 7594SOL    HW123681   0.002   3.993   6.431
 7594SOL    HW223682   6.990   3.834   6.403
 7595SOL     OW23683   1.208   3.439   0.225
 7595SOL    HW123684   1.307   3.424   0.217
 7595SOL    HW223685   1.162   3.404   0.144
 7596SOL     OW23686   3.309   1.545   6.496
 7596SOL    HW123687   3.303   1.535   6.595
 7596SOL    HW223688   3.405   1.550   6.470
 7597SOL     OW23689   1.812   5.038   1.505
 7597SOL    HW123690   1.802   5.123   1.454
 7597SOL    HW223691   1.751   5.039   1.584
 7598SOL     OW23692   6.156   0.628   1.973
 7598SOL    HW123693   6.114   0.632   2.064
 7598SOL    HW223694   6.161   0.533   1.943
 7599SOL     OW23695   3.315   4.091   0.975
 7599SOL    HW123696   3.323   4.008   0.920
 7599SOL    HW223697   3.350   4.073   1.067
 7600SOL     OW23698   1.155   6.750   3.724
 7600SOL    HW123699   1.253   6.739   3.710
 7600SOL    HW223700   1.117   6.666   3.761
 7601SOL     OW23701   2.971   0.118   2.249
 7601SOL    HW123702   2.987   0.182   2.173
 7601SOL    HW223703   2.881   0.075   2.238
 7602SOL     OW23704   0.399   1.585   1.120
 7602SOL    HW123705   0.490   1.625   1.107
 7602SOL    HW223706   0.400   1.528   1.202
 7603SOL     OW23707   3.820   1.015   6.045
 7603SOL    HW123708   3.878   0.952   6.097
 7603SOL    HW223709   3.863   1.034   5.957
 7604SOL     OW23710   1.222   2.466   4.950
 7604SOL    HW123711   1.235   2.539   4.883
 7604SOL    HW223712   1.189   2.504   5.036
 7605SOL     OW23713   2.142   6.169   6.940
 7605SOL    HW123714   2.068   6.235   6.924
 7605SOL    HW223715   2.131   6.090   6.880
 7606SOL     OW23716   6.814   1.043   3.460
 7606SOL    HW123717   6.730   1.037   3.407
 7606SOL    HW223718   6.841   1.139   3.469
 7607SOL     OW23719   1.817   6.079   5.290
 7607SOL    HW123720   1.721   6.092   5.314
 7607SOL    HW223721   1.826   6.080   5.190
 7608SOL     OW23722   6.843   2.072   6.584
 7608SOL    HW123723   6.808   2.163   6.608
 7608SOL    HW223724   6.811   2.005   6.650
 7609SOL     OW23725   3.110   1.322   4.680
 7609SOL    HW123726   3.092   1.303   4.584
 7609SOL    HW223727   3.193   1.274   4.709
 7610SOL     OW23728   4.270   5.310   4.486
 7610SOL    HW123729   4.304   5.275   4.574
 7610SOL    HW223730   4.217   5.393   4.501
 7611SOL     OW23731   4.792   2.766   0.883
 7611SOL    HW123732   4.742   2.700   0.828
 7611SOL    HW223733   4.799   2.853   0.833
 7612SOL     OW23734   4.296   2.253   3.039
 7612SOL    HW123735   4.264   2.266   3.133
 7612SOL    HW223736   4.380   2.305   3.024
 7613SOL     OW23737   1.169   0.506   0.791
 7613SOL    HW123738   1.093   0.569   0.804
 7613SOL    HW223739   1.231   0.512   0.870
 7614SOL     OW23740   5.253   3.923   0.553
 7614SOL    HW123741   5.256   3.823   0.555
 7614SOL    HW223742   5.290   3.955   0.466
 7615SOL     OW23743   6.218   3.150   5.178
 7615SOL    HW123744   6.233   3.085   5.253
 7615SOL    HW223745   6.169   3.230   5.213
 7616SOL     OW23746   6.774   6.728   3.007
 7616SOL    HW123747   6.864   6.687   2.992
 7616SOL    HW223748   6.708   6.685   2.946
 7617SOL     OW23749   6.269   4.118   3.056
 7617SOL    HW123750   6.337   4.061   3.010
 7617SOL    HW223751   6.179   4.102   3.017
 7618SOL     OW23752   2.390   2.256   0.095
 7618SOL    HW123753   2.418   2.348   0.121
 7618SOL    HW223754   2.415   2.240   7.015
 7619SOL     OW23755   2.006   1.671   4.826
 7619SOL    HW123756   1.991   1.760   4.784
 7619SOL    HW223757   2.084   1.626   4.783
 7620SOL     OW23758   3.132   4.552   1.112
 7620SOL    HW123759   3.228   4.577   1.116
 7620SOL    HW223760   3.080   4.604   1.180
 7621SOL     OW23761   5.919   4.108   0.233
 7621SOL    HW123762   6.006   4.076   0.269
 7621SOL    HW223763   5.880   4.037   0.174
 7622SOL     OW23764   3.093   3.860   1.908
 7622SOL    HW123765   3.044   3.819   1.985
 7622SOL    HW223766   3.028   3.908   1.849
 7623SOL     OW23767   5.380   4.356   1.774
 7623SOL    HW123768   5.382   4.440   1.829
 7623SOL    HW223769   5.326   4.287   1.821
 7624SOL     OW23770   1.028   3.423   2.517
 7624SOL    HW123771   1.023   3.323   2.522
 7624SOL    HW223772   1.078   3.458   2.595
 7625SOL     OW23773   5.323   0.702   2.074
 7625SOL    HW123774   5.243   0.701   2.014
 7625SOL    HW223775   5.366   0.612   2.073
 7626SOL     OW23776   4.429   0.284   6.724
 7626SOL    HW123777   4.401   0.323   6.636
 7626SOL    HW223778   4.385   0.335   6.798
 7627SOL     OW23779   3.717   3.079   6.471
 7627SOL    HW123780   3.715   2.986   6.434
 7627SOL    HW223781   3.666   3.140   6.410
 7628SOL     OW23782   3.251   2.386   0.328
 7628SOL    HW123783   3.299   2.468   0.297
 7628SOL    HW223784   3.180   2.363   0.263
 7629SOL     OW23785   5.984   2.228   2.776
 7629SOL    HW123786   5.985   2.215   2.677
 7629SOL    HW223787   6.073   2.262   2.806
 7630SOL     OW23788   1.072   6.493   3.813
 7630SOL    HW123789   1.005   6.520   3.882
 7630SOL    HW223790   1.142   6.436   3.855
 7631SOL     OW23791   0.902   0.817   5.161
 7631SOL    HW123792   0.900   0.837   5.063
 7631SOL    HW223793   0.909   0.719   5.175
 7632SOL     OW23794   4.830   5.713   1.134
 7632SOL    HW123795   4.920   5.699   1.174
 7632SOL    HW223796   4.774   5.631   1.146
 7633SOL     OW23797   6.284   0.916   1.387
 7633SOL    HW123798   6.208   0.940   1.326
 7633SOL    HW223799   6.288   0.817   1.398
 7634SOL     OW23800   0.096   2.048   6.611
 7634SOL    HW123801   0.133   1.955   6.613
 7634SOL    HW223802   7.013   2.045   6.596
 7635SOL     OW23803   2.068   2.980   5.565
 7635SOL    HW123804   1.991   3.044   5.562
 7635SOL    HW223805   2.054   2.907   5.499
 7636SOL     OW23806   6.563   3.957   3.954
 7636SOL    HW123807   6.647   3.987   3.998
 7636SOL    HW223808   6.529   3.875   3.999
 7637SOL     OW23809   0.801   4.653   5.040
 7637SOL    HW123810   0.747   4.606   5.109
 7637SOL    HW223811   0.742   4.713   4.986
 7638SOL     OW23812   0.250   6.254   1.269
 7638SOL    HW123813   0.228   6.188   1.197
 7638SOL    HW223814   0.335   6.228   1.314
 7639SOL     OW23815   1.416   0.664   0.417
 7639SOL    HW123816   1.478   0.684   0.341
 7639SOL    HW223817   1.323   0.651   0.382
 7640SOL     OW23818   3.019   1.578   1.025
 7640SOL    HW123819   3.012   1.668   1.067
 7640SOL    HW223820   3.104   1.572   0.972
 7641SOL     OW23821   0.118   4.160   4.543
 7641SOL    HW123822   0.152   4.252   4.523
 7641SOL    HW223823   0.082   4.157   4.636
 7642SOL     OW23824   5.361   0.964   3.219
 7642SOL    HW123825   5.316   1.041   3.174
 7642SOL    HW223826   5.336   0.879   3.171
 7643SOL     OW23827   5.161   3.804   4.488
 7643SOL    HW123828   5.072   3.793   4.532
 7643SOL    HW223829   5.230   3.753   4.539
 7644SOL     OW23830   5.000   3.792   1.076
 7644SOL    HW123831   4.939   3.763   1.002
 7644SOL    HW223832   4.975   3.884   1.106
 7645SOL     OW23833   3.854   4.862   0.059
 7645SOL    HW123834   3.819   4.861   0.152
 7645SOL    HW223835   3.954   4.856   0.061
 7646SOL     OW23836   6.696   1.772   0.220
 7646SOL    HW123837   6.666   1.840   0.287
 7646SOL    HW223838   6.627   1.701   0.211
 7647SOL     OW23839   6.911   2.372   4.143
 7647SOL    HW123840   6.877   2.280   4.128
 7647SOL    HW223841   6.834   2.435   4.154
 7648SOL     OW23842   2.114   2.199   1.907
 7648SOL    HW123843   2.120   2.264   1.983
 7648SOL    HW223844   2.089   2.248   1.824
 7649SOL     OW23845   4.000   1.116   6.816
 7649SOL    HW123846   4.038   1.124   6.908
 7649SOL    HW223847   3.978   1.207   6.781
 7650SOL     OW23848   3.964   2.341   0.057
 7650SOL    HW123849   4.060   2.325   0.082
 7650SOL    HW223850   3.912   2.364   0.139
 7651SOL     OW23851   3.368   5.294   6.476
 7651SOL    HW123852   3.458   5.302   6.433
 7651SOL    HW223853   3.297   5.308   6.407
 7652SOL     OW23854   1.129   0.914   3.885
 7652SOL    HW123855   1.090   0.854   3.955
 7652SOL    HW223856   1.226   0.894   3.875
 7653SOL     OW23857   2.593   0.486   0.111
 7653SOL    HW123858   2.605   0.525   0.020
 7653SOL    HW223859   2.667   0.518   0.171
 7654SOL     OW23860   6.314   2.020   6.168
 7654SOL    HW123861   6.299   2.118   6.184
 7654SOL    HW223862   6.367   2.009   6.084
 7655SOL     OW23863   3.452   1.408   4.544
 7655SOL    HW123864   3.359   1.435   4.566
 7655SOL    HW223865   3.456   1.375   4.449
 7656SOL     OW23866   5.679   4.243   6.927
 7656SOL    HW123867   5.721   4.154   6.910
 7656SOL    HW223868   5.602   4.256   6.865
 7657SOL     OW23869   1.155   4.191   4.986
 7657SOL    HW123870   1.237   4.247   4.994
 7657SOL    HW223871   1.074   4.249   5.000
 7658SOL     OW23872   2.729   0.600   0.734
 7658SOL    HW123873   2.661   0.536   0.696
 7658SOL    HW223874   2.810   0.549   0.763
 7659SOL     OW23875   4.955   4.212   5.855
 7659SOL    HW123876   4.870   4.238   5.900
 7659SOL    HW223877   4.965   4.113   5.855
 7660SOL     OW23878   6.683   5.659   5.850
 7660SOL    HW123879   6.712   5.708   5.932
 7660SOL    HW223880   6.595   5.615   5.867
 7661SOL     OW23881   3.945   1.183   5.056
 7661SOL    HW123882   3.871   1.225   5.109
 7661SOL    HW223883   3.932   1.202   4.959
 7662SOL     OW23884   6.986   5.886   1.209
 7662SOL    HW123885   6.896   5.880   1.166
 7662SOL    HW223886   6.976   5.887   1.308
 7663SOL     OW23887   0.777   5.508   5.108
 7663SOL    HW123888   0.868   5.508   5.150
 7663SOL    HW223889   0.762   5.421   5.061
 7664SOL     OW23890   4.003   2.125   2.373
 7664SOL    HW123891   3.966   2.044   2.329
 7664SOL    HW223892   3.990   2.119   2.472
 7665SOL     OW23893   3.662   0.625   5.623
 7665SOL    HW123894   3.598   0.692   5.662
 7665SOL    HW223895   3.667   0.545   5.683
 7666SOL     OW23896   5.498   4.809   4.057
 7666SOL    HW123897   5.571   4.752   4.095
 7666SOL    HW223898   5.528   4.904   4.052
 7667SOL     OW23899   4.334   6.253   2.654
 7667SOL    HW123900   4.263   6.301   2.602
 7667SOL    HW223901   4.373   6.181   2.597
 7668SOL     OW23902   1.659   5.714   0.808
 7668SOL    HW123903   1.561   5.694   0.809
 7668SOL    HW223904   1.701   5.682   0.893
 7669SOL     OW23905   2.633   1.393   6.659
 7669SOL    HW123906   2.660   1.447   6.579
 7669SOL    HW223907   2.546   1.428   6.694
 7670SOL     OW23908   0.678   0.670   0.671
 7670SOL    HW123909   0.622   0.597   0.630
 7670SOL    HW223910   0.670   0.753   0.617
 7671SOL     OW23911   3.149   6.801   1.157
 7671SOL    HW123912   3.063   6.820   1.109
 7671SOL    HW223913   3.130   6.786   1.254
 7672SOL     OW23914   5.192   4.297   2.156
 7672SOL    HW123915   5.135   4.371   2.119
 7672SOL    HW223916   5.216   4.234   2.082
 7673SOL     OW23917   1.924   6.963   4.862
 7673SOL    HW123918   1.877   0.033   4.844
 7673SOL    HW223919   1.857   6.889   4.869
 7674SOL     OW23920   4.122   5.931   4.622
 7674SOL    HW123921   4.041   5.885   4.658
 7674SOL    HW223922   4.095   5.990   4.546
 7675SOL     OW23923   4.771   5.899   3.133
 7675SOL    HW123924   4.856   5.948   3.150
 7675SOL    HW223925   4.700   5.932   3.195
 7676SOL     OW23926   3.572   3.084   5.265
 7676SOL    HW123927   3.556   3.114   5.359
 7676SOL    HW223928   3.621   2.997   5.265
 7677SOL     OW23929   6.275   4.759   0.280
 7677SOL    HW123930   6.192   4.809   0.256
 7677SOL    HW223931   6.283   4.678   0.223
 7678SOL     OW23932   3.335   1.933   4.997
 7678SOL    HW123933   3.307   1.867   5.067
 7678SOL    HW223934   3.264   2.001   4.985
 7679SOL     OW23935   3.772   5.789   4.623
 7679SOL    HW123936   3.824   5.799   4.538
 7679SOL    HW223937   3.697   5.855   4.624
 7680SOL     OW23938   1.939   6.753   4.283
 7680SOL    HW123939   1.990   6.714   4.207
 7680SOL    HW223940   1.854   6.795   4.249
 7681SOL     OW23941   2.312   2.841   5.510
 7681SOL    HW123942   2.255   2.876   5.584
 7681SOL    HW223943   2.409   2.849   5.535
 7682SOL     OW23944   3.229   0.902   2.644
 7682SOL    HW123945   3.228   0.953   2.557
 7682SOL    HW223946   3.308   0.931   2.698
 7683SOL     OW23947   0.894   4.379   4.646
 7683SOL    HW123948   0.801   4.415   4.653
 7683SOL    HW223949   0.934   4.372   4.737
 7684SOL     OW23950   5.203   3.331   1.544
 7684SOL    HW123951   5.253   3.267   1.602
 7684SOL    HW223952   5.104   3.321   1.561
 7685SOL     OW23953   2.547   0.211   0.803
 7685SOL    HW123954   2.484   0.141   0.835
 7685SOL    HW223955   2.541   0.218   0.703
 7686SOL     OW23956   6.890   6.814   4.829
 7686SOL    HW123957   6.795   6.843   4.818
 7686SOL    HW223958   6.939   6.883   4.882
 7687SOL     OW23959   5.173   3.242   6.466
 7687SOL    HW123960   5.244   3.211   6.401
 7687SOL    HW223961   5.083   3.234   6.423
 7688SOL     OW23962   6.389   2.968   6.817
 7688SOL    HW123963   6.356   3.062   6.824
 7688SOL    HW223964   6.489   2.969   6.810
 7689SOL     OW23965   5.338   0.040   1.790
 7689SOL    HW123966   5.389   0.068   1.871
 7689SOL    HW223967   5.250   0.087   1.787
 7690SOL     OW23968   6.039   5.109   2.532
 7690SOL    HW123969   5.980   5.039   2.572
 7690SOL    HW223970   6.133   5.074   2.527
 7691SOL     OW23971   4.904   3.169   3.951
 7691SOL    HW123972   4.866   3.103   4.016
 7691SOL    HW223973   4.855   3.164   3.865
 7692SOL     OW23974   2.779   6.574   2.468
 7692SOL    HW123975   2.785   6.640   2.543
 7692SOL    HW223976   2.801   6.483   2.503
 7693SOL     OW23977   2.924   1.292   1.814
 7693SOL    HW123978   2.874   1.206   1.825
 7693SOL    HW223979   3.001   1.295   1.879
 7694SOL     OW23980   4.338   1.838   6.704
 7694SOL    HW123981   4.370   1.807   6.615
 7694SOL    HW223982   4.383   1.924   6.728
 7695SOL     OW23983   5.379   0.430   3.800
 7695SOL    HW123984   5.333   0.362   3.743
 7695SOL    HW223985   5.444   0.482   3.744
 7696SOL     OW23986   2.540   2.238   5.670
 7696SOL    HW123987   2.573   2.201   5.583
 7696SOL    HW223988   2.461   2.185   5.701
 7697SOL     OW23989   6.083   6.744   3.212
 7697SOL    HW123990   5.998   6.748   3.265
 7697SOL    HW223991   6.141   6.821   3.235
 7698SOL     OW23992   6.103   2.974   1.123
 7698SOL    HW123993   6.189   3.015   1.151
 7698SOL    HW223994   6.074   3.011   1.035
 7699SOL     OW23995   4.498   6.202   5.760
 7699SOL    HW123996   4.520   6.298   5.774
 7699SOL    HW223997   4.480   6.185   5.664
 7700SOL     OW23998   5.394   5.571   1.511
 7700SOL    HW123999   5.357   5.517   1.586
 7700SOL    HW224000   5.456   5.640   1.547
 7701SOL     OW24001   1.662   2.281   6.270
 7701SOL    HW124002   1.661   2.322   6.361
 7701SOL    HW224003   1.601   2.202   6.268
 7702SOL     OW24004   5.007   6.568   4.518
 7702SOL    HW124005   5.082   6.554   4.583
 7702SOL    HW224006   4.981   6.665   4.517
 7703SOL     OW24007   0.112   6.763   5.391
 7703SOL    HW124008   0.200   6.804   5.410
 7703SOL    HW224009   0.123   6.691   5.322
 7704SOL     OW24010   1.226   1.701   4.918
 7704SOL    HW124011   1.178   1.655   4.843
 7704SOL    HW224012   1.322   1.713   4.892
 7705SOL     OW24013   1.111   4.883   6.801
 7705SOL    HW124014   1.166   4.858   6.880
 7705SOL    HW224015   1.127   4.818   6.727
 7706SOL     OW24016   3.471   3.148   2.323
 7706SOL    HW124017   3.570   3.133   2.320
 7706SOL    HW224018   3.433   3.136   2.232
 7707SOL     OW24019   6.453   4.513   6.686
 7707SOL    HW124020   6.520   4.542   6.617
 7707SOL    HW224021   6.468   4.564   6.771
 7708SOL     OW24022   1.635   0.258   4.020
 7708SOL    HW124023   1.729   0.226   4.028
 7708SOL    HW224024   1.578   0.213   4.088
 7709SOL     OW24025   6.815   4.867   1.208
 7709SOL    HW124026   6.795   4.809   1.287
 7709SOL    HW224027   6.891   4.928   1.230
 7710SOL     OW24028   6.280   2.803   1.397
 7710SOL    HW124029   6.215   2.874   1.424
 7710SOL    HW224030   6.254   2.767   1.307
 7711SOL     OW24031   0.548   4.569   4.386
 7711SOL    HW124032   0.551   4.501   4.460
 7711SOL    HW224033   0.453   4.591   4.364
 7712SOL     OW24034   0.446   5.106   4.949
 7712SOL    HW124035   0.351   5.125   4.971
 7712SOL    HW224036   0.497   5.087   5.033
 7713SOL     OW24037   1.006   4.643   0.430
 7713SOL    HW124038   0.978   4.683   0.518
 7713SOL    HW224039   0.949   4.681   0.357
 7714SOL     OW24040   6.193   1.861   5.355
 7714SOL    HW124041   6.225   1.769   5.379
 7714SOL    HW224042   6.193   1.871   5.255
 7715SOL     OW24043   3.452   3.218   5.814
 7715SOL    HW124044   3.517   3.282   5.773
 7715SOL    HW224045   3.403   3.169   5.742
 7716SOL     OW24046   1.492   6.950   5.908
 7716SOL    HW124047   1.442   6.887   5.968
 7716SOL    HW224048   1.445   0.022   5.906
 7717SOL     OW24049   0.303   2.380   6.342
 7717SOL    HW124050   0.338   2.371   6.435
 7717SOL    HW224051   0.233   2.451   6.339
 7718SOL     OW24052   0.068   3.064   2.939
 7718SOL    HW124053   0.124   2.982   2.948
 7718SOL    HW224054   0.052   3.103   3.030
 7719SOL     OW24055   1.781   5.368   5.228
 7719SOL    HW124056   1.779   5.468   5.223
 7719SOL    HW224057   1.875   5.337   5.237
 7720SOL     OW24058   4.568   0.997   6.606
 7720SOL    HW124059   4.628   0.996   6.527
 7720SOL    HW224060   4.479   0.958   6.581
 7721SOL     OW24061   6.405   6.246   2.723
 7721SOL    HW124062   6.417   6.158   2.677
 7721SOL    HW224063   6.322   6.242   2.779
 7722SOL     OW24064   1.014   6.110   3.455
 7722SOL    HW124065   0.973   6.146   3.372
 7722SOL    HW224066   1.100   6.064   3.433
 7723SOL     OW24067   4.893   4.219   6.856
 7723SOL    HW124068   4.823   4.151   6.877
 7723SOL    HW224069   4.982   4.173   6.846
 7724SOL     OW24070   1.992   3.902   0.672
 7724SOL    HW124071   1.975   4.001   0.672
 7724SOL    HW224072   2.057   3.879   0.600
 7725SOL     OW24073   5.730   2.681   4.658
 7725SOL    HW124074   5.810   2.703   4.714
 7725SOL    HW224075   5.648   2.718   4.701
 7726SOL     OW24076   1.871   3.939   6.873
 7726SOL    HW124077   1.934   3.876   6.828
 7726SOL    HW224078   1.897   4.033   6.852
 7727SOL     OW24079   5.133   0.218   2.052
 7727SOL    HW124080   5.085   0.302   2.080
 7727SOL    HW224081   5.131   0.153   2.128
 7728SOL     OW24082   1.848   3.735   4.513
 7728SOL    HW124083   1.886   3.726   4.606
 7728SOL    HW224084   1.752   3.762   4.519
 7729SOL     OW24085   0.139   1.156   2.554
 7729SOL    HW124086   0.194   1.230   2.592
 7729SOL    HW224087   0.082   1.116   2.626
 7730SOL     OW24088   6.484   4.812   5.345
 7730SOL    HW124089   6.441   4.751   5.278
 7730SOL    HW224090   6.504   4.760   5.428
 7731SOL     OW24091   6.249   6.969   5.641
 7731SOL    HW124092   6.297   7.010   5.564
 7731SOL    HW224093   6.302   6.891   5.675
 7732SOL     OW24094   4.382   0.598   6.603
 7732SOL    HW124095   4.346   0.564   6.690
 7732SOL    HW224096   4.371   0.697   6.600
 7733SOL     OW24097   6.805   5.164   1.448
 7733SOL    HW124098   6.753   5.245   1.472
 7733SOL    HW224099   6.796   5.096   1.521
 7734SOL     OW24100   3.893   3.922   3.672
 7734SOL    HW124101   3.938   3.883   3.752
 7734SOL    HW224102   3.838   4.001   3.700
 7735SOL     OW24103   0.534   6.001   0.689
 7735SOL    HW124104   0.605   6.039   0.630
 7735SOL    HW224105   0.450   5.989   0.636
 7736SOL     OW24106   1.612   2.416   6.866
 7736SOL    HW124107   1.667   2.443   6.788
 7736SOL    HW224108   1.537   2.481   6.879
 7737SOL     OW24109   4.356   4.590   6.993
 7737SOL    HW124110   4.340   4.504   0.025
 7737SOL    HW224111   4.269   4.625   6.957
 7738SOL     OW24112   2.031   0.494   4.986
 7738SOL    HW124113   2.011   0.397   4.973
 7738SOL    HW224114   2.128   0.511   4.973
 7739SOL     OW24115   1.704   2.377   0.362
 7739SOL    HW124116   1.762   2.443   0.410
 7739SOL    HW224117   1.688   2.409   0.268
 7740SOL     OW24118   2.429   0.906   4.619
 7740SOL    HW124119   2.483   0.989   4.633
 7740SOL    HW224120   2.490   0.831   4.593
 7741SOL     OW24121   0.345   4.451   6.084
 7741SOL    HW124122   0.445   4.450   6.087
 7741SOL    HW224123   0.313   4.541   6.056
 7742SOL     OW24124   4.760   2.446   3.991
 7742SOL    HW124125   4.704   2.510   4.045
 7742SOL    HW224126   4.822   2.498   3.932
 7743SOL     OW24127   3.595   1.447   5.870
 7743SOL    HW124128   3.642   1.458   5.782
 7743SOL    HW224129   3.649   1.489   5.942
 7744SOL     OW24130   0.988   7.012   4.570
 7744SOL    HW124131   1.015   6.920   4.542
 7744SOL    HW224132   0.908   7.007   4.629
 7745SOL     OW24133   2.833   6.713   1.472
 7745SOL    HW124134   2.823   6.710   1.373
 7745SOL    HW224135   2.928   6.730   1.496
 7746SOL     OW24136   0.463   5.819   1.650
 7746SOL    HW124137   0.475   5.736   1.596
 7746SOL    HW224138   0.404   5.883   1.602
 7747SOL     OW24139   0.093   5.894   0.320
 7747SOL    HW124140   0.072   5.809   0.368
 7747SOL    HW224141   0.064   5.971   0.377
 7748SOL     OW24142   4.306   1.447   6.020
 7748SOL    HW124143   4.237   1.490   6.078
 7748SOL    HW224144   4.270   1.361   5.984
 7749SOL     OW24145   3.754   3.097   2.969
 7749SOL    HW124146   3.712   3.038   2.901
 7749SOL    HW224147   3.762   3.048   3.056
 7750SOL     OW24148   5.041   5.081   5.768
 7750SOL    HW124149   5.106   5.157   5.779
 7750SOL    HW224150   5.053   5.017   5.844
 7751SOL     OW24151   6.702   1.296   4.560
 7751SOL    HW124152   6.789   1.315   4.605
 7751SOL    HW224153   6.667   1.380   4.519
 7752SOL     OW24154   6.757   4.934   5.139
 7752SOL    HW124155   6.688   4.861   5.130
 7752SOL    HW224156   6.721   5.006   5.197
 7753SOL     OW24157   2.498   0.992   4.960
 7753SOL    HW124158   2.543   0.994   4.871
 7753SOL    HW224159   2.496   1.084   4.999
 7754SOL     OW24160   6.421   1.058   1.592
 7754SOL    HW124161   6.518   1.068   1.570
 7754SOL    HW224162   6.377   1.000   1.523
 7755SOL     OW24163   1.742   6.094   4.952
 7755SOL    HW124164   1.660   6.069   5.004
 7755SOL    HW224165   1.760   6.025   4.882
 7756SOL     OW24166   3.831   5.563   3.061
 7756SOL    HW124167   3.793   5.597   3.147
 7756SOL    HW224168   3.930   5.575   3.061
 7757SOL     OW24169   3.593   6.804   5.781
 7757SOL    HW124170   3.631   6.876   5.723
 7757SOL    HW224171   3.665   6.768   5.840
 7758SOL     OW24172   3.267   2.654   6.502
 7758SOL    HW124173   3.350   2.624   6.549
 7758SOL    HW224174   3.188   2.603   6.537
 7759SOL     OW24175   1.750   0.774   4.745
 7759SOL    HW124176   1.650   0.772   4.739
 7759SOL    HW224177   1.782   0.688   4.785
 7760SOL     OW24178   5.460   1.688   3.503
 7760SOL    HW124179   5.405   1.766   3.532
 7760SOL    HW224180   5.475   1.627   3.581
 7761SOL     OW24181   4.136   0.767   6.787
 7761SOL    HW124182   4.095   0.841   6.734
 7761SOL    HW224183   4.132   0.790   6.884
 7762SOL     OW24184   1.666   1.878   0.390
 7762SOL    HW124185   1.741   1.900   0.452
 7762SOL    HW224186   1.602   1.955   0.387
 7763SOL     OW24187   2.445   2.114   1.453
 7763SOL    HW124188   2.491   2.126   1.541
 7763SOL    HW224189   2.462   2.193   1.395
 7764SOL     OW24190   4.091   3.382   2.355
 7764SOL    HW124191   4.086   3.363   2.453
 7764SOL    HW224192   4.103   3.480   2.341
 7765SOL     OW24193   0.078   1.939   2.524
 7765SOL    HW124194   0.125   2.025   2.508
 7765SOL    HW224195   0.098   1.875   2.449
 7766SOL     OW24196   6.954   3.445   0.303
 7766SOL    HW124197   6.926   3.367   0.358
 7766SOL    HW224198   0.025   3.481   0.337
 7767SOL     OW24199   5.721   4.038   5.290
 7767SOL    HW124200   5.740   4.009   5.196
 7767SOL    HW224201   5.624   4.029   5.309
 7768SOL     OW24202   4.272   5.435   1.464
 7768SOL    HW124203   4.212   5.416   1.541
 7768SOL    HW224204   4.298   5.532   1.465
 7769SOL     OW24205   6.275   1.782   2.078
 7769SOL    HW124206   6.340   1.847   2.038
 7769SOL    HW224207   6.244   1.815   2.167
 7770SOL     OW24208   3.440   5.569   1.104
 7770SOL    HW124209   3.517   5.524   1.059
 7770SOL    HW224210   3.388   5.622   1.037
 7771SOL     OW24211   2.301   1.161   4.247
 7771SOL    HW124212   2.219   1.133   4.197
 7771SOL    HW224213   2.308   1.261   4.244
 7772SOL     OW24214   5.631   0.955   4.986
 7772SOL    HW124215   5.551   0.959   5.044
 7772SOL    HW224216   5.704   0.904   5.032
 7773SOL     OW24217   3.642   4.460   5.533
 7773SOL    HW124218   3.693   4.420   5.457
 7773SOL    HW224219   3.629   4.392   5.604
 7774SOL     OW24220   4.652   1.744   6.774
 7774SOL    HW124221   4.666   1.647   6.755
 7774SOL    HW224222   4.566   1.756   6.824
 7775SOL     OW24223   2.163   6.894   2.051
 7775SOL    HW124224   2.228   6.842   1.996
 7775SOL    HW224225   2.070   6.878   2.017
 7776SOL     OW24226   3.747   3.970   0.850
 7776SOL    HW124227   3.699   3.968   0.762
 7776SOL    HW224228   3.709   4.043   0.907
 7777SOL     OW24229   1.189   0.460   6.478
 7777SOL    HW124230   1.140   0.379   6.448
 7777SOL    HW224231   1.149   0.493   6.564
 7778SOL     OW24232   5.008   0.974   1.387
 7778SOL    HW124233   4.986   1.064   1.348
 7778SOL    HW224234   5.107   0.966   1.399
 7779SOL     OW24235   4.166   2.846   0.386
 7779SOL    HW124236   4.167   2.832   0.485
 7779SOL    HW224237   4.201   2.764   0.341
 7780SOL     OW24238   0.957   0.311   4.549
 7780SOL    HW124239   0.945   0.256   4.466
 7780SOL    HW224240   0.874   0.362   4.568
 7781SOL     OW24241   1.512   4.594   5.338
 7781SOL    HW124242   1.509   4.500   5.370
 7781SOL    HW224243   1.579   4.602   5.264
 7782SOL     OW24244   4.343   4.956   0.388
 7782SOL    HW124245   4.426   4.901   0.391
 7782SOL    HW224246   4.325   4.984   0.294
 7783SOL     OW24247   2.179   5.261   6.938
 7783SOL    HW124248   2.210   5.344   6.892
 7783SOL    HW224249   2.258   5.213   6.978
 7784SOL     OW24250   0.198   2.919   0.037
 7784SOL    HW124251   0.277   2.980   0.037
 7784SOL    HW224252   0.153   2.924   0.126
 7785SOL     OW24253   1.984   5.635   5.362
 7785SOL    HW124254   2.009   5.598   5.451
 7785SOL    HW224255   2.050   5.606   5.293
 7786SOL     OW24256   3.328   4.067   4.457
 7786SOL    HW124257   3.372   4.075   4.547
 7786SOL    HW224258   3.396   4.087   4.386
 7787SOL     OW24259   2.950   2.315   5.309
 7787SOL    HW124260   2.896   2.330   5.226
 7787SOL    HW224261   3.047   2.328   5.289
 7788SOL     OW24262   0.462   1.644   0.514
 7788SOL    HW124263   0.527   1.719   0.526
 7788SOL    HW224264   0.487   1.590   0.434
 7789SOL     OW24265   2.335   0.405   1.437
 7789SOL    HW124266   2.386   0.462   1.502
 7789SOL    HW224267   2.280   0.339   1.487
 7790SOL     OW24268   5.943   3.734   3.014
 7790SOL    HW124269   5.937   3.734   2.914
 7790SOL    HW224270   5.935   3.828   3.047
 7791SOL     OW24271   0.732   4.446   5.260
 7791SOL    HW124272   0.696   4.354   5.245
 7791SOL    HW224273   0.718   4.472   5.355
 7792SOL     OW24274   2.092   5.746   6.230
 7792SOL    HW124275   2.122   5.659   6.191
 7792SOL    HW224276   2.157   5.776   6.299
 7793SOL     OW24277   1.843   1.165   6.401
 7793SOL    HW124278   1.817   1.102   6.474
 7793SOL    HW224279   1.830   1.119   6.312
 7794SOL     OW24280   5.150   5.767   2.900
 7794SOL    HW124281   5.250   5.773   2.901
 7794SOL    HW224282   5.117   5.771   2.805
 7795SOL     OW24283   1.837   4.840   5.987
 7795SOL    HW124284   1.769   4.883   6.045
 7795SOL    HW224285   1.838   4.886   5.898
 7796SOL     OW24286   4.039   3.466   4.376
 7796SOL    HW124287   4.090   3.425   4.301
 7796SOL    HW224288   4.080   3.554   4.400
 7797SOL     OW24289   0.876   0.071   2.750
 7797SOL    HW124290   0.945   0.140   2.774
 7797SOL    HW224291   0.922   7.000   2.731
 7798SOL     OW24292   3.991   5.965   6.422
 7798SOL    HW124293   4.012   5.887   6.363
 7798SOL    HW224294   4.061   5.973   6.492
 7799SOL     OW24295   6.275   4.856   1.321
 7799SOL    HW124296   6.367   4.875   1.289
 7799SOL    HW224297   6.225   4.804   1.252
 7800SOL     OW24298   0.644   6.546   2.142
 7800SOL    HW124299   0.579   6.507   2.208
 7800SOL    HW224300   0.609   6.531   2.050
 7801SOL     OW24301   3.789   2.348   5.431
 7801SOL    HW124302   3.760   2.375   5.523
 7801SOL    HW224303   3.721   2.377   5.364
 7802SOL     OW24304   5.873   1.902   0.561
 7802SOL    HW124305   5.793   1.927   0.617
 7802SOL    HW224306   5.954   1.950   0.595
 7803SOL     OW24307   2.680   4.210   5.341
 7803SOL    HW124308   2.751   4.147   5.309
 7803SOL    HW224309   2.719   4.301   5.351
 7804SOL     OW24310   4.949   1.415   6.388
 7804SOL    HW124311   4.891   1.337   6.365
 7804SOL    HW224312   5.029   1.416   6.328
 7805SOL     OW24313   5.566   3.429   2.093
 7805SOL    HW124314   5.569   3.330   2.099
 7805SOL    HW224315   5.639   3.468   2.149
 7806SOL     OW24316   4.823   3.432   6.811
 7806SOL    HW124317   4.748   3.440   6.877
 7806SOL    HW224318   4.806   3.355   6.750
 7807SOL     OW24319   6.933   3.437   6.811
 7807SOL    HW124320   6.962   3.428   6.907
 7807SOL    HW224321   6.911   3.346   6.775
 7808SOL     OW24322   0.931   1.668   5.378
 7808SOL    HW124323   1.010   1.611   5.401
 7808SOL    HW224324   0.932   1.688   5.280
 7809SOL     OW24325   1.667   5.352   5.748
 7809SOL    HW124326   1.750   5.403   5.770
 7809SOL    HW224327   1.638   5.299   5.828
 7810SOL     OW24328   2.082   1.154   6.962
 7810SOL    HW124329   2.177   1.139   6.936
 7810SOL    HW224330   2.042   1.225   6.904
 7811SOL     OW24331   0.494   4.715   4.683
 7811SOL    HW124332   0.531   4.648   4.619
 7811SOL    HW224333   0.567   4.778   4.712
 7812SOL     OW24334   0.373   1.922   4.187
 7812SOL    HW124335   0.283   1.962   4.172
 7812SOL    HW224336   0.387   1.845   4.125
 7813SOL     OW24337   6.577   2.542   1.017
 7813SOL    HW124338   6.575   2.593   1.103
 7813SOL    HW224339   6.495   2.562   0.965
 7814SOL     OW24340   1.782   3.904   3.691
 7814SOL    HW124341   1.859   3.843   3.710
 7814SOL    HW224342   1.807   3.998   3.715
 7815SOL     OW24343   6.980   1.562   5.990
 7815SOL    HW124344   6.992   1.552   5.891
 7815SOL    HW224345   6.893   1.607   6.008
 7816SOL     OW24346   1.218   3.907   4.942
 7816SOL    HW124347   1.288   3.878   5.007
 7816SOL    HW224348   1.184   3.997   4.969
 7817SOL     OW24349   5.413   3.050   5.103
 7817SOL    HW124350   5.479   2.976   5.107
 7817SOL    HW224351   5.325   3.019   5.139
 7818SOL     OW24352   5.137   4.737   2.741
 7818SOL    HW124353   5.064   4.785   2.789
 7818SOL    HW224354   5.135   4.761   2.644
 7819SOL     OW24355   0.344   1.851   1.415
 7819SOL    HW124356   0.265   1.907   1.389
 7819SOL    HW224357   0.316   1.755   1.420
 7820SOL     OW24358   1.990   0.092   6.381
 7820SOL    HW124359   1.962   0.046   6.296
 7820SOL    HW224360   2.057   0.035   6.428
 7821SOL     OW24361   2.867   5.160   0.996
 7821SOL    HW124362   2.956   5.203   1.013
 7821SOL    HW224363   2.878   5.061   0.995
 7822SOL     OW24364   1.808   6.733   5.328
 7822SOL    HW124365   1.830   6.723   5.425
 7822SOL    HW224366   1.892   6.730   5.274
 7823SOL     OW24367   1.780   4.159   5.062
 7823SOL    HW124368   1.870   4.150   5.105
 7823SOL    HW224369   1.720   4.212   5.121
 7824SOL     OW24370   0.408   3.363   5.534
 7824SOL    HW124371   0.326   3.325   5.490
 7824SOL    HW224372   0.479   3.293   5.539
 7825SOL     OW24373   3.248   0.633   6.972
 7825SOL    HW124374   3.319   0.564   6.970
 7825SOL    HW224375   3.285   0.721   6.942
 7826SOL     OW24376   0.655   3.411   5.795
 7826SOL    HW124377   0.697   3.363   5.718
 7826SOL    HW224378   0.711   3.491   5.819
 7827SOL     OW24379   6.299   5.170   4.771
 7827SOL    HW124380   6.239   5.229   4.824
 7827SOL    HW224381   6.387   5.162   4.818
 7828SOL     OW24382   0.719   4.737   6.607
 7828SOL    HW124383   0.620   4.750   6.597
 7828SOL    HW224384   0.737   4.643   6.637
 7829SOL     OW24385   4.102   3.898   0.599
 7829SOL    HW124386   4.043   3.943   0.532
 7829SOL    HW224387   4.078   3.929   0.691
 7830SOL     OW24388   2.978   5.766   4.053
 7830SOL    HW124389   3.012   5.698   3.988
 7830SOL    HW224390   3.035   5.848   4.047
 7831SOL     OW24391   1.593   6.970   6.572
 7831SOL    HW124392   1.635   0.017   6.507
 7831SOL    HW224393   1.587   6.879   6.531
 7832SOL     OW24394   6.664   0.715   4.855
 7832SOL    HW124395   6.586   0.672   4.810
 7832SOL    HW224396   6.660   0.695   4.953
 7833SOL     OW24397   0.953   0.705   2.775
 7833SOL    HW124398   0.869   0.651   2.773
 7833SOL    HW224399   1.026   0.656   2.728
 7834SOL     OW24400   6.467   2.962   5.816
 7834SOL    HW124401   6.496   3.031   5.750
 7834SOL    HW224402   6.466   2.872   5.773
 7835SOL     OW24403   4.219   2.472   5.744
 7835SOL    HW124404   4.136   2.439   5.698
 7835SOL    HW224405   4.214   2.571   5.753
 7836SOL     OW24406   3.070   3.955   4.398
 7836SOL    HW124407   3.055   3.987   4.304
 7836SOL    HW224408   3.144   4.008   4.440
 7837SOL     OW24409   0.550   5.861   6.816
 7837SOL    HW124410   0.613   5.938   6.827
 7837SOL    HW224411   0.579   5.805   6.738
 7838SOL     OW24412   4.793   5.704   2.166
 7838SOL    HW124413   4.769   5.694   2.069
 7838SOL    HW224414   4.759   5.624   2.216
 7839SOL     OW24415   6.126   3.601   4.346
 7839SOL    HW124416   6.205   3.648   4.307
 7839SOL    HW224417   6.068   3.667   4.394
 7840SOL     OW24418   1.903   3.147   4.046
 7840SOL    HW124419   1.905   3.187   4.138
 7840SOL    HW224420   1.994   3.114   4.022
 7841SOL     OW24421   3.686   2.251   6.176
 7841SOL    HW124422   3.624   2.266   6.253
 7841SOL    HW224423   3.770   2.207   6.208
 7842SOL     OW24424   1.096   1.019   1.574
 7842SOL    HW124425   1.035   1.096   1.593
 7842SOL    HW224426   1.057   0.964   1.500
 7843SOL     OW24427   0.076   6.099   2.842
 7843SOL    HW124428   0.156   6.090   2.783
 7843SOL    HW224429   0.000   6.139   2.791
 7844SOL     OW24430   3.836   6.986   2.524
 7844SOL    HW124431   3.918   0.027   2.518
 7844SOL    HW224432   3.808   6.959   2.432
 7845SOL     OW24433   6.623   2.624   1.289
 7845SOL    HW124434   6.567   2.616   1.371
 7845SOL    HW224435   6.629   2.720   1.262
 7846SOL     OW24436   0.925   0.919   0.710
 7846SOL    HW124437   1.022   0.901   0.694
 7846SOL    HW224438   0.898   1.003   0.661
 7847SOL     OW24439   5.731   4.525   6.319
 7847SOL    HW124440   5.804   4.532   6.387
 7847SOL    HW224441   5.748   4.591   6.246
 7848SOL     OW24442   3.485   4.822   0.448
 7848SOL    HW124443   3.435   4.824   0.534
 7848SOL    HW224444   3.488   4.729   0.413
 7849SOL     OW24445   4.350   5.275   6.964
 7849SOL    HW124446   4.326   5.238   6.875
 7849SOL    HW224447   4.298   5.360   6.980
 7850SOL     OW24448   0.197   1.057   4.572
 7850SOL    HW124449   0.206   1.138   4.631
 7850SOL    HW224450   0.101   1.032   4.565
 7851SOL     OW24451   6.954   4.676   1.065
 7851SOL    HW124452   6.877   4.725   1.108
 7851SOL    HW224453   6.936   4.667   0.967
 7852SOL     OW24454   1.363   2.916   6.607
 7852SOL    HW124455   1.346   2.817   6.608
 7852SOL    HW224456   1.303   2.959   6.540
 7853SOL     OW24457   4.302   2.993   1.698
 7853SOL    HW124458   4.356   2.914   1.726
 7853SOL    HW224459   4.279   2.986   1.601
 7854SOL     OW24460   4.506   1.322   0.223
 7854SOL    HW124461   4.549   1.369   0.300
 7854SOL    HW224462   4.573   1.313   0.149
 7855SOL     OW24463   5.611   6.622   3.975
 7855SOL    HW124464   5.553   6.621   3.894
 7855SOL    HW224465   5.605   6.534   4.023
 7856SOL     OW24466   2.238   6.488   5.292
 7856SOL    HW124467   2.180   6.441   5.226
 7856SOL    HW224468   2.189   6.495   5.380
 7857SOL     OW24469   6.229   4.192   0.910
 7857SOL    HW124470   6.292   4.270   0.904
 7857SOL    HW224471   6.221   4.149   0.820
 7858SOL     OW24472   6.677   3.728   6.160
 7858SOL    HW124473   6.723   3.678   6.087
 7858SOL    HW224474   6.578   3.717   6.151
 7859SOL     OW24475   4.802   1.927   0.405
 7859SOL    HW124476   4.898   1.944   0.384
 7859SOL    HW224477   4.745   1.964   0.332
 7860SOL     OW24478   2.927   1.478   4.301
 7860SOL    HW124479   2.858   1.479   4.373
 7860SOL    HW224480   2.927   1.389   4.257
 7861SOL     OW24481   1.988   6.331   0.631
 7861SOL    HW124482   1.963   6.305   0.538
 7861SOL    HW224483   1.919   6.392   0.669
 7862SOL     OW24484   1.457   6.688   0.004
 7862SOL    HW124485   1.472   6.780   6.985
 7862SOL    HW224486   1.365   6.681   0.043
 7863SOL     OW24487   1.390   4.255   3.952
 7863SOL    HW124488   1.323   4.315   3.996
 7863SOL    HW224489   1.347   4.206   3.877
 7864SOL     OW24490   2.497   5.811   5.173
 7864SOL    HW124491   2.558   5.870   5.226
 7864SOL    HW224492   2.403   5.842   5.183
 7865SOL     OW24493   5.898   3.953   3.291
 7865SOL    HW124494   5.990   3.927   3.321
 7865SOL    HW224495   5.897   4.050   3.268
 7866SOL     OW24496   0.694   0.868   5.552
 7866SOL    HW124497   0.794   0.867   5.546
 7866SOL    HW224498   0.665   0.803   5.623
 7867SOL     OW24499   4.252   5.456   3.784
 7867SOL    HW124500   4.242   5.377   3.845
 7867SOL    HW224501   4.307   5.430   3.705
 7868SOL     OW24502   2.965   6.189   1.532
 7868SOL    HW124503   2.978   6.114   1.467
 7868SOL    HW224504   3.043   6.250   1.529
 7869SOL     OW24505   6.078   4.846   7.005
 7869SOL    HW124506   6.163   4.819   6.960
 7869SOL    HW224507   6.028   4.765   0.019
 7870SOL     OW24508   5.783   6.121   4.012
 7870SOL    HW124509   5.859   6.056   4.011
 7870SOL    HW224510   5.793   6.183   4.090
 7871SOL     OW24511   4.302   1.085   0.578
 7871SOL    HW124512   4.236   1.092   0.504
 7871SOL    HW224513   4.371   1.016   0.557
 7872SOL     OW24514   0.575   5.173   2.936
 7872SOL    HW124515   0.585   5.078   2.906
 7872SOL    HW224516   0.601   5.234   2.862
 7873SOL     OW24517   5.030   1.948   0.096
 7873SOL    HW124518   4.970   1.921   0.021
 7873SOL    HW224519   4.984   2.017   0.152
 7874SOL     OW24520   6.006   2.396   0.686
 7874SOL    HW124521   5.937   2.332   0.720
 7874SOL    HW224522   6.040   2.364   0.598
 7875SOL     OW24523   6.206   4.770   6.677
 7875SOL    HW124524   6.255   4.779   6.763
 7875SOL    HW224525   6.264   4.724   6.610
 7876SOL     OW24526   1.181   0.179   3.517
 7876SOL    HW124527   1.209   0.273   3.496
 7876SOL    HW224528   1.203   0.120   3.439
 7877SOL     OW24529   0.241   2.857   3.031
 7877SOL    HW124530   0.284   2.770   3.053
 7877SOL    HW224531   0.297   2.906   2.964
 7878SOL     OW24532   4.216   6.156   3.087
 7878SOL    HW124533   4.158   6.180   3.009
 7878SOL    HW224534   4.274   6.079   3.063
 7879SOL     OW24535   3.367   5.792   3.167
 7879SOL    HW124536   3.378   5.855   3.089
 7879SOL    HW224537   3.387   5.699   3.137
 7880SOL     OW24538   0.985   4.901   2.226
 7880SOL    HW124539   1.064   4.882   2.168
 7880SOL    HW224540   0.903   4.860   2.185
 7881SOL     OW24541   4.929   4.058   3.565
 7881SOL    HW124542   4.992   4.013   3.501
 7881SOL    HW224543   4.935   4.014   3.654
 7882SOL     OW24544   0.758   3.343   0.099
 7882SOL    HW124545   0.768   3.318   0.003
 7882SOL    HW224546   0.673   3.304   0.135
 7883SOL     OW24547   1.107   0.444   4.948
 7883SOL    HW124548   1.011   0.440   4.921
 7883SOL    HW224549   1.145   0.352   4.955
 7884SOL     OW24550   0.811   2.979   4.270
 7884SOL    HW124551   0.715   2.990   4.247
 7884SOL    HW224552   0.832   3.028   4.354
 7885SOL     OW24553   0.273   6.144   6.754
 7885SOL    HW124554   0.335   6.114   6.682
 7885SOL    HW224555   0.322   6.205   6.817
 7886SOL     OW24556   5.380   4.186   1.068
 7886SOL    HW124557   5.453   4.128   1.104
 7886SOL    HW224558   5.392   4.279   1.102
 7887SOL     OW24559   4.796   3.024   6.402
 7887SOL    HW124560   4.839   3.110   6.376
 7887SOL    HW224561   4.765   2.976   6.319
 7888SOL     OW24562   5.225   6.232   4.782
 7888SOL    HW124563   5.219   6.179   4.698
 7888SOL    HW224564   5.218   6.171   4.861
 7889SOL     OW24565   6.862   5.276   3.119
 7889SOL    HW124566   6.911   5.214   3.180
 7889SOL    HW224567   6.900   5.269   3.027
 7890SOL     OW24568   2.154   3.136   2.288
 7890SOL    HW124569   2.191   3.049   2.258
 7890SOL    HW224570   2.166   3.145   2.387
 7891SOL     OW24571   1.065   4.905   2.773
 7891SOL    HW124572   1.102   4.887   2.681
 7891SOL    HW224573   1.126   4.865   2.842
 7892SOL     OW24574   2.312   2.227   5.100
 7892SOL    HW124575   2.213   2.224   5.110
 7892SOL    HW224576   2.352   2.279   5.175
 7893SOL     OW24577   6.398   6.990   1.488
 7893SOL    HW124578   6.361   6.957   1.575
 7893SOL    HW224579   6.355   0.061   1.465
 7894SOL     OW24580   2.940   0.176   1.966
 7894SOL    HW124581   2.969   0.256   1.913
 7894SOL    HW224582   2.840   0.174   1.971
 7895SOL     OW24583   6.649   1.487   3.579
 7895SOL    HW124584   6.698   1.574   3.566
 7895SOL    HW224585   6.698   1.414   3.531
 7896SOL     OW24586   4.069   1.813   6.623
 7896SOL    HW124587   4.165   1.837   6.613
 7896SOL    HW224588   4.020   1.835   6.539
 7897SOL     OW24589   3.372   3.042   6.549
 7897SOL    HW124590   3.395   3.057   6.453
 7897SOL    HW224591   3.298   3.104   6.576
 7898SOL     OW24592   5.178   1.508   4.066
 7898SOL    HW124593   5.240   1.569   4.018
 7898SOL    HW224594   5.133   1.448   4.001
 7899SOL     OW24595   4.196   1.445   2.403
 7899SOL    HW124596   4.197   1.379   2.478
 7899SOL    HW224597   4.266   1.515   2.420
 7900SOL     OW24598   1.286   5.715   1.067
 7900SOL    HW124599   1.329   5.805   1.072
 7900SOL    HW224600   1.321   5.665   0.988
 7901SOL     OW24601   6.138   5.553   0.905
 7901SOL    HW124602   6.084   5.588   0.981
 7901SOL    HW224603   6.090   5.571   0.819
 7902SOL     OW24604   5.218   4.604   5.829
 7902SOL    HW124605   5.147   4.551   5.783
 7902SOL    HW224606   5.295   4.543   5.849
 7903SOL     OW24607   0.323   2.701   6.887
 7903SOL    HW124608   0.323   2.604   6.912
 7903SOL    HW224609   0.259   2.751   6.944
 7904SOL     OW24610   6.237   1.865   2.328
 7904SOL    HW124611   6.260   1.958   2.299
 7904SOL    HW224612   6.156   1.868   2.386
 7905SOL     OW24613   2.076   2.394   1.705
 7905SOL    HW124614   2.035   2.485   1.703
 7905SOL    HW224615   2.176   2.403   1.702
 7906SOL     OW24616   0.466   4.407   0.539
 7906SOL    HW124617   0.437   4.384   0.446
 7906SOL    HW224618   0.459   4.506   0.553
 7907SOL     OW24619   6.503   2.829   2.062
 7907SOL    HW124620   6.409   2.812   2.093
 7907SOL    HW224621   6.511   2.802   1.966
 7908SOL     OW24622   6.754   1.043   2.786
 7908SOL    HW124623   6.685   0.982   2.746
 7908SOL    HW224624   6.708   1.115   2.839
 7909SOL     OW24625   4.049   6.087   4.913
 7909SOL    HW124626   4.097   6.127   4.991
 7909SOL    HW224627   4.076   6.135   4.830
 7910SOL     OW24628   5.751   3.154   6.238
 7910SOL    HW124629   5.805   3.159   6.155
 7910SOL    HW224630   5.744   3.245   6.279
 7911SOL     OW24631   0.061   5.367   6.809
 7911SOL    HW124632   7.011   5.438   6.784
 7911SOL    HW224633   0.040   5.283   6.757
 7912SOL     OW24634   0.375   4.922   5.397
 7912SOL    HW124635   0.368   4.880   5.488
 7912SOL    HW224636   0.387   5.021   5.407
 7913SOL     OW24637   1.440   6.371   6.507
 7913SOL    HW124638   1.419   6.293   6.565
 7913SOL    HW224639   1.358   6.397   6.455
 7914SOL     OW24640   6.550   3.948   1.038
 7914SOL    HW124641   6.582   3.855   1.057
 7914SOL    HW224642   6.450   3.949   1.037
 7915SOL     OW24643   3.635   1.106   2.703
 7915SOL    HW124644   3.669   1.172   2.770
 7915SOL    HW224645   3.535   1.114   2.697
 7916SOL     OW24646   4.801   3.734   5.749
 7916SOL    HW124647   4.845   3.743   5.839
 7916SOL    HW224648   4.763   3.823   5.722
 7917SOL     OW24649   4.089   3.618   3.595
 7917SOL    HW124650   4.113   3.636   3.500
 7917SOL    HW224651   4.080   3.704   3.645
 7918SOL     OW24652   6.723   2.499   2.667
 7918SOL    HW124653   6.799   2.496   2.732
 7918SOL    HW224654   6.656   2.567   2.698
 7919SOL     OW24655   5.688   4.411   1.756
 7919SOL    HW124656   5.590   4.412   1.777
 7919SOL    HW224657   5.723   4.505   1.759
 7920SOL     OW24658   0.249   6.592   2.084
 7920SOL    HW124659   0.277   6.497   2.099
 7920SOL    HW224660   0.149   6.597   2.075
 7921SOL     OW24661   2.400   6.364   2.106
 7921SOL    HW124662   2.374   6.275   2.068
 7921SOL    HW224663   2.462   6.351   2.183
 7922SOL     OW24664   0.838   4.602   6.057
 7922SOL    HW124665   0.875   4.669   6.120
 7922SOL    HW224666   0.882   4.611   5.968
 7923SOL     OW24667   0.412   1.825   3.168
 7923SOL    HW124668   0.467   1.806   3.249
 7923SOL    HW224669   0.355   1.745   3.147
 7924SOL     OW24670   1.848   1.048   3.741
 7924SOL    HW124671   1.856   1.090   3.651
 7924SOL    HW224672   1.765   1.080   3.786
 7925SOL     OW24673   0.262   1.567   6.568
 7925SOL    HW124674   0.331   1.605   6.630
 7925SOL    HW224675   0.181   1.626   6.568
 7926SOL     OW24676   3.354   0.117   1.834
 7926SOL    HW124677   3.301   0.153   1.757
 7926SOL    HW224678   3.300   0.048   1.883
 7927SOL     OW24679   4.698   4.190   4.510
 7927SOL    HW124680   4.613   4.178   4.560
 7927SOL    HW224681   4.746   4.271   4.544
 7928SOL     OW24682   1.050   4.416   6.887
 7928SOL    HW124683   1.112   4.464   6.948
 7928SOL    HW224684   1.075   4.319   6.883
 7929SOL     OW24685   4.095   3.734   4.464
 7929SOL    HW124686   4.054   3.817   4.503
 7929SOL    HW224687   4.078   3.732   4.365
 7930SOL     OW24688   5.387   6.280   3.247
 7930SOL    HW124689   5.348   6.312   3.333
 7930SOL    HW224690   5.319   6.288   3.175
 7931SOL     OW24691   2.959   3.294   6.884
 7931SOL    HW124692   3.001   3.383   6.867
 7931SOL    HW224693   2.874   3.287   6.831
 7932SOL     OW24694   3.063   0.039   0.570
 7932SOL    HW124695   3.063   0.020   0.472
 7932SOL    HW224696   2.989   0.102   0.593
 7933SOL     OW24697   1.805   1.109   6.144
 7933SOL    HW124698   1.804   1.036   6.075
 7933SOL    HW224699   1.802   1.198   6.098
 7934SOL     OW24700   4.016   2.722   5.751
 7934SOL    HW124701   3.960   2.738   5.833
 7934SOL    HW224702   4.110   2.753   5.769
 7935SOL     OW24703   4.692   5.723   1.912
 7935SOL    HW124704   4.768   5.700   1.851
 7935SOL    HW224705   4.622   5.771   1.860
 7936SOL     OW24706   4.261   5.977   2.765
 7936SOL    HW124707   4.296   6.070   2.759
 7936SOL    HW224708   4.315   5.925   2.831
 7937SOL     OW24709   6.019   0.628   5.670
 7937SOL    HW124710   6.084   0.597   5.601
 7937SOL    HW224711   6.066   0.636   5.758
 7938SOL     OW24712   6.254   4.754   4.436
 7938SOL    HW124713   6.331   4.751   4.373
 7938SOL    HW224714   6.252   4.842   4.483
 7939SOL     OW24715   0.171   6.748   4.052
 7939SOL    HW124716   0.216   6.830   4.018
 7939SOL    HW224717   0.238   6.688   4.095
 7940SOL     OW24718   1.712   5.917   0.616
 7940SOL    HW124719   1.691   6.005   0.657
 7940SOL    HW224720   1.678   5.844   0.675
 7941SOL     OW24721   7.004   0.246   0.926
 7941SOL    HW124722   0.082   0.278   0.939
 7941SOL    HW224723   6.943   0.295   0.987
 7942SOL     OW24724   1.283   0.971   0.949
 7942SOL    HW124725   1.236   0.918   0.877
 7942SOL    HW224726   1.275   0.923   1.036
 7943SOL     OW24727   6.326   2.308   0.143
 7943SOL    HW124728   6.237   2.338   0.177
 7943SOL    HW224729   6.398   2.346   0.200
 7944SOL     OW24730   6.970   3.502   1.870
 7944SOL    HW124731   0.046   3.536   1.851
 7944SOL    HW224732   6.953   3.508   1.969
 7945SOL     OW24733   5.115   6.807   1.159
 7945SOL    HW124734   5.061   6.833   1.079
 7945SOL    HW224735   5.184   6.876   1.177
 7946SOL     OW24736   1.310   1.444   6.092
 7946SOL    HW124737   1.241   1.423   6.022
 7946SOL    HW224738   1.338   1.359   6.137
 7947SOL     OW24739   4.558   5.110   6.264
 7947SOL    HW124740   4.637   5.076   6.212
 7947SOL    HW224741   4.591   5.165   6.341
 7948SOL     OW24742   0.822   5.047   6.107
 7948SOL    HW124743   0.773   4.964   6.132
 7948SOL    HW224744   0.762   5.106   6.052
 7949SOL     OW24745   6.287   3.977   3.910
 7949SOL    HW124746   6.386   3.978   3.925
 7949SOL    HW224747   6.260   3.890   3.871
 7950SOL     OW24748   3.652   5.050   4.339
 7950SOL    HW124749   3.733   5.110   4.343
 7950SOL    HW224750   3.642   5.014   4.246
 7951SOL     OW24751   3.062   3.340   0.459
 7951SOL    HW124752   2.993   3.348   0.387
 7951SOL    HW224753   3.031   3.392   0.540
 7952SOL     OW24754   5.181   4.408   0.684
 7952SOL    HW124755   5.220   4.499   0.698
 7952SOL    HW224756   5.112   4.412   0.612
 7953SOL     OW24757   2.137   3.606   3.121
 7953SOL    HW124758   2.164   3.559   3.205
 7953SOL    HW224759   2.147   3.705   3.134
 7954SOL     OW24760   5.352   5.657   4.595
 7954SOL    HW124761   5.417   5.625   4.526
 7954SOL    HW224762   5.391   5.646   4.686
 7955SOL     OW24763   1.916   6.465   6.003
 7955SOL    HW124764   1.876   6.543   6.052
 7955SOL    HW224765   1.985   6.498   5.938
 7956SOL     OW24766   6.479   6.557   3.168
 7956SOL    HW124767   6.500   6.487   3.100
 7956SOL    HW224768   6.425   6.630   3.125
 7957SOL     OW24769   0.622   2.034   1.111
 7957SOL    HW124770   0.576   2.094   1.046
 7957SOL    HW224771   0.693   2.085   1.159
 7958SOL     OW24772   2.770   5.684   3.622
 7958SOL    HW124773   2.691   5.736   3.590
 7958SOL    HW224774   2.816   5.642   3.544
 7959SOL     OW24775   5.156   5.510   0.796
 7959SOL    HW124776   5.192   5.464   0.878
 7959SOL    HW224777   5.231   5.545   0.742
 7960SOL     OW24778   2.252   2.426   1.119
 7960SOL    HW124779   2.329   2.412   1.182
 7960SOL    HW224780   2.190   2.496   1.156
 7961SOL     OW24781   1.397   5.959   0.034
 7961SOL    HW124782   1.339   6.021   6.998
 7961SOL    HW224783   1.491   5.965   0.002
 7962SOL     OW24784   1.606   6.834   2.136
 7962SOL    HW124785   1.665   6.795   2.207
 7962SOL    HW224786   1.570   6.760   2.079
 7963SOL     OW24787   1.194   6.417   4.945
 7963SOL    HW124788   1.242   6.366   4.873
 7963SOL    HW224789   1.104   6.376   4.960
 7964SOL     OW24790   6.218   5.414   3.636
 7964SOL    HW124791   6.258   5.506   3.634
 7964SOL    HW224792   6.180   5.393   3.546
 7965SOL     OW24793   5.298   1.726   0.400
 7965SOL    HW124794   5.233   1.658   0.366
 7965SOL    HW224795   5.265   1.763   0.487
 7966SOL     OW24796   0.147   6.824   3.558
 7966SOL    HW124797   0.112   6.765   3.485
 7966SOL    HW224798   0.097   6.910   3.558
 7967SOL     OW24799   3.216   0.141   3.096
 7967SOL    HW124800   3.254   0.109   3.182
 7967SOL    HW224801   3.125   0.180   3.111
 7968SOL     OW24802   2.119   0.644   1.643
 7968SOL    HW124803   2.202   0.595   1.667
 7968SOL    HW224804   2.039   0.589   1.668
 7969SOL     OW24805   3.183   1.922   3.174
 7969SOL    HW124806   3.224   1.866   3.247
 7969SOL    HW224807   3.192   1.873   3.087
 7970SOL     OW24808   0.193   5.097   3.085
 7970SOL    HW124809   0.124   5.034   3.049
 7970SOL    HW224810   0.243   5.139   3.010
 7971SOL     OW24811   2.955   1.520   2.404
 7971SOL    HW124812   2.988   1.567   2.323
 7971SOL    HW224813   2.925   1.428   2.379
 7972SOL     OW24814   6.876   4.968   1.651
 7972SOL    HW124815   6.907   4.909   1.576
 7972SOL    HW224816   6.797   4.926   1.696
 7973SOL     OW24817   4.901   2.221   2.717
 7973SOL    HW124818   4.821   2.211   2.777
 7973SOL    HW224819   4.909   2.141   2.658
 7974SOL     OW24820   5.710   6.430   3.645
 7974SOL    HW124821   5.745   6.508   3.697
 7974SOL    HW224822   5.728   6.444   3.548
 7975SOL     OW24823   1.864   1.659   2.821
 7975SOL    HW124824   1.802   1.675   2.745
 7975SOL    HW224825   1.929   1.735   2.828
 7976SOL     OW24826   0.550   6.339   5.969
 7976SOL    HW124827   0.638   6.385   5.978
 7976SOL    HW224828   0.516   6.351   5.876
 7977SOL     OW24829   4.686   6.429   1.563
 7977SOL    HW124830   4.649   6.347   1.519
 7977SOL    HW224831   4.742   6.401   1.641
 7978SOL     OW24832   3.613   2.574   5.368
 7978SOL    HW124833   3.550   2.647   5.339
 7978SOL    HW224834   3.580   2.486   5.334
 7979SOL     OW24835   5.233   6.914   4.213
 7979SOL    HW124836   5.194   7.000   4.181
 7979SOL    HW224837   5.159   6.848   4.229
 7980SOL     OW24838   2.702   0.629   2.181
 7980SOL    HW124839   2.757   0.634   2.264
 7980SOL    HW224840   2.606   0.645   2.203
 7981SOL     OW24841   1.138   5.899   2.742
 7981SOL    HW124842   1.236   5.893   2.723
 7981SOL    HW224843   1.119   5.865   2.834
 7982SOL     OW24844   0.056   2.410   0.376
 7982SOL    HW124845   0.124   2.403   0.303
 7982SOL    HW224846   0.096   2.456   0.455
 7983SOL     OW24847   4.700   2.777   2.156
 7983SOL    HW124848   4.705   2.877   2.144
 7983SOL    HW224849   4.677   2.756   2.251
 7984SOL     OW24850   6.970   0.247   0.052
 7984SOL    HW124851   6.929   0.156   0.062
 7984SOL    HW224852   0.028   0.258   0.118
 7985SOL     OW24853   0.580   0.915   1.166
 7985SOL    HW124854   0.541   0.885   1.079
 7985SOL    HW224855   0.513   0.904   1.239
 7986SOL     OW24856   4.955   3.103   0.139
 7986SOL    HW124857   5.011   3.029   0.103
 7986SOL    HW224858   4.879   3.122   0.077
 7987SOL     OW24859   1.113   2.739   4.808
 7987SOL    HW124860   1.061   2.824   4.808
 7987SOL    HW224861   1.071   2.673   4.746
 7988SOL     OW24862   2.940   1.689   5.626
 7988SOL    HW124863   2.913   1.652   5.537
 7988SOL    HW224864   2.882   1.768   5.647
 7989SOL     OW24865   3.614   3.462   6.117
 7989SOL    HW124866   3.582   3.391   6.055
 7989SOL    HW224867   3.714   3.467   6.114
 7990SOL     OW24868   2.327   2.822   4.859
 7990SOL    HW124869   2.367   2.874   4.935
 7990SOL    HW224870   2.386   2.744   4.837
 7991SOL     OW24871   1.324   3.028   5.825
 7991SOL    HW124872   1.324   3.113   5.877
 7991SOL    HW224873   1.394   3.032   5.753
 7992SOL     OW24874   2.748   1.499   0.762
 7992SOL    HW124875   2.727   1.589   0.723
 7992SOL    HW224876   2.834   1.503   0.813
 7993SOL     OW24877   2.424   6.378   6.472
 7993SOL    HW124878   2.477   6.315   6.416
 7993SOL    HW224879   2.329   6.348   6.475
 7994SOL     OW24880   5.871   1.063   4.593
 7994SOL    HW124881   5.970   1.069   4.607
 7994SOL    HW224882   5.849   1.090   4.499
 7995SOL     OW24883   4.183   5.510   3.365
 7995SOL    HW124884   4.262   5.559   3.401
 7995SOL    HW224885   4.212   5.423   3.326
 7996SOL     OW24886   4.337   0.982   5.271
 7996SOL    HW124887   4.410   0.930   5.227
 7996SOL    HW224888   4.283   1.030   5.202
 7997SOL     OW24889   5.406   2.634   2.379
 7997SOL    HW124890   5.349   2.585   2.445
 7997SOL    HW224891   5.351   2.703   2.332
 7998SOL     OW24892   6.447   4.902   6.494
 7998SOL    HW124893   6.517   4.918   6.564
 7998SOL    HW224894   6.367   4.958   6.515
 7999SOL     OW24895   2.208   0.477   5.668
 7999SOL    HW124896   2.112   0.470   5.695
 7999SOL    HW224897   2.215   0.530   5.584
 8000SOL     OW24898   5.397   0.450   5.776
 8000SOL    HW124899   5.380   0.385   5.702
 8000SOL    HW224900   5.314   0.503   5.794
 8001SOL     OW24901   2.537   5.760   1.117
 8001SOL    HW124902   2.562   5.681   1.174
 8001SOL    HW224903   2.616   5.785   1.060
 8002SOL     OW24904   5.124   2.449   5.447
 8002SOL    HW124905   5.176   2.519   5.398
 8002SOL    HW224906   5.039   2.430   5.399
 8003SOL     OW24907   3.839   6.075   3.836
 8003SOL    HW124908   3.744   6.052   3.854
 8003SOL    HW224909   3.899   6.006   3.877
 8004SOL     OW24910   1.043   4.256   2.751
 8004SOL    HW124911   1.015   4.165   2.781
 8004SOL    HW224912   1.000   4.277   2.663
 8005SOL     OW24913   2.203   0.492   2.338
 8005SOL    HW124914   2.162   0.572   2.383
 8005SOL    HW224915   2.194   0.500   2.239
 8006SOL     OW24916   3.637   6.337   1.883
 8006SOL    HW124917   3.608   6.416   1.829
 8006SOL    HW224918   3.651   6.258   1.823
 8007SOL     OW24919   0.487   1.238   4.077
 8007SOL    HW124920   0.487   1.140   4.098
 8007SOL    HW224921   0.568   1.261   4.023
 8008SOL     OW24922   5.993   5.649   0.652
 8008SOL    HW124923   6.087   5.663   0.622
 8008SOL    HW224924   5.947   5.586   0.590
 8009SOL     OW24925   0.018   0.038   4.313
 8009SOL    HW124926   0.005   6.957   4.290
 8009SOL    HW224927   6.968   0.064   4.383
 8010SOL     OW24928   1.742   3.021   6.754
 8010SOL    HW124929   1.753   3.076   6.838
 8010SOL    HW224930   1.810   3.049   6.687
 8011SOL     OW24931   2.129   2.480   0.462
 8011SOL    HW124932   2.201   2.550   0.458
 8011SOL    HW224933   2.170   2.389   0.460
 8012SOL     OW24934   2.878   0.373   3.461
 8012SOL    HW124935   2.969   0.367   3.421
 8012SOL    HW224936   2.816   0.419   3.397
 8013SOL     OW24937   5.602   5.656   4.741
 8013SOL    HW124938   5.683   5.678   4.687
 8013SOL    HW224939   5.588   5.726   4.811
 8014SOL     OW24940   2.201   6.842   6.772
 8014SOL    HW124941   2.290   6.839   6.727
 8014SOL    HW224942   2.205   6.792   6.859
 8015SOL     OW24943   1.491   1.945   5.843
 8015SOL    HW124944   1.490   2.045   5.843
 8015SOL    HW224945   1.566   1.912   5.899
 8016SOL     OW24946   3.839   5.970   2.044
 8016SOL    HW124947   3.765   6.035   2.057
 8016SOL    HW224948   3.808   5.878   2.070
 8017SOL     OW24949   5.813   3.525   5.707
 8017SOL    HW124950   5.802   3.625   5.706
 8017SOL    HW224951   5.731   3.482   5.743
 8018SOL     OW24952   6.088   2.529   4.929
 8018SOL    HW124953   6.074   2.541   5.027
 8018SOL    HW224954   6.031   2.453   4.896
 8019SOL     OW24955   1.873   4.947   1.234
 8019SOL    HW124956   1.907   4.954   1.327
 8019SOL    HW224957   1.802   5.016   1.219
 8020SOL     OW24958   5.862   6.293   6.411
 8020SOL    HW124959   5.936   6.333   6.356
 8020SOL    HW224960   5.841   6.354   6.487
 8021SOL     OW24961   6.910   0.862   0.769
 8021SOL    HW124962   6.835   0.887   0.830
 8021SOL    HW224963   6.969   0.942   0.754
 8022SOL     OW24964   4.241   5.279   3.243
 8022SOL    HW124965   4.160   5.222   3.230
 8022SOL    HW224966   4.323   5.228   3.216
 8023SOL     OW24967   6.759   6.184   3.593
 8023SOL    HW124968   6.673   6.139   3.570
 8023SOL    HW224969   6.827   6.116   3.620
 8024SOL     OW24970   4.735   5.512   4.809
 8024SOL    HW124971   4.755   5.414   4.798
 8024SOL    HW224972   4.699   5.548   4.723
 8025SOL     OW24973   2.789   5.849   0.792
 8025SOL    HW124974   2.886   5.864   0.774
 8025SOL    HW224975   2.734   5.900   0.726
 8026SOL     OW24976   2.369   2.939   0.478
 8026SOL    HW124977   2.450   2.887   0.504
 8026SOL    HW224978   2.389   2.995   0.397
 8027SOL     OW24979   4.969   3.128   5.766
 8027SOL    HW124980   4.969   3.033   5.737
 8027SOL    HW224981   4.920   3.137   5.852
 8028SOL     OW24982   5.343   5.610   0.607
 8028SOL    HW124983   5.284   5.629   0.529
 8028SOL    HW224984   5.434   5.648   0.591
 8029SOL     OW24985   3.099   4.282   0.003
 8029SOL    HW124986   3.179   4.244   0.048
 8029SOL    HW224987   3.026   4.295   0.070
 8030SOL     OW24988   5.943   3.674   0.734
 8030SOL    HW124989   6.041   3.687   0.718
 8030SOL    HW224990   5.903   3.759   0.768
 8031SOL     OW24991   3.664   6.491   1.342
 8031SOL    HW124992   3.565   6.480   1.337
 8031SOL    HW224993   3.693   6.562   1.278
 8032SOL     OW24994   4.766   4.909   5.656
 8032SOL    HW124995   4.804   4.823   5.691
 8032SOL    HW224996   4.786   4.983   5.719
 8033SOL     OW24997   6.571   2.063   0.721
 8033SOL    HW124998   6.562   2.070   0.820
 8033SOL    HW224999   6.641   2.127   0.689
 8034SOL     OW25000   6.544   1.549   4.792
 8034SOL    HW125001   6.562   1.457   4.826
 8034SOL    HW225002   6.626   1.583   4.745
 8035SOL     OW25003   5.631   6.005   0.038
 8035SOL    HW125004   5.545   5.959   0.015
 8035SOL    HW225005   5.702   5.978   6.989
 8036SOL     OW25006   1.212   4.590   1.440
 8036SOL    HW125007   1.124   4.580   1.393
 8036SOL    HW225008   1.212   4.533   1.522
 8037SOL     OW25009   2.026   2.926   1.789
 8037SOL    HW125010   2.004   2.967   1.701
 8037SOL    HW225011   2.023   2.996   1.860
 8038SOL     OW25012   6.079   1.251   4.054
 8038SOL    HW125013   6.112   1.260   4.148
 8038SOL    HW225014   6.151   1.278   3.991
 8039SOL     OW25015   3.086   6.807   4.602
 8039SOL    HW125016   3.102   6.774   4.509
 8039SOL    HW225017   3.149   6.760   4.665
 8040SOL     OW25018   6.217   5.795   0.509
 8040SOL    HW125019   6.172   5.882   0.495
 8040SOL    HW225020   6.232   5.750   0.421
 8041SOL     OW25021   4.156   2.130   0.800
 8041SOL    HW125022   4.096   2.167   0.871
 8041SOL    HW225023   4.177   2.203   0.734
 8042SOL     OW25024   2.563   4.182   0.733
 8042SOL    HW125025   2.590   4.139   0.819
 8042SOL    HW225026   2.505   4.119   0.681
 8043SOL     OW25027   2.709   0.332   1.161
 8043SOL    HW125028   2.623   0.356   1.115
 8043SOL    HW225029   2.736   0.407   1.222
 8044SOL     OW25030   3.160   3.797   1.649
 8044SOL    HW125031   3.117   3.886   1.665
 8044SOL    HW225032   3.191   3.758   1.736
 8045SOL     OW25033   6.204   2.815   3.668
 8045SOL    HW125034   6.217   2.907   3.704
 8045SOL    HW225035   6.275   2.755   3.703
 8046SOL     OW25036   0.166   5.210   5.634
 8046SOL    HW125037   0.245   5.150   5.621
 8046SOL    HW225038   0.161   5.275   5.559
 8047SOL     OW25039   3.039   0.029   4.219
 8047SOL    HW125040   3.002   0.036   4.312
 8047SOL    HW225041   2.991   6.974   4.169
 8048SOL     OW25042   6.172   1.079   5.932
 8048SOL    HW125043   6.101   1.024   5.977
 8048SOL    HW225044   6.128   1.142   5.868
 8049SOL     OW25045   1.176   6.560   0.386
 8049SOL    HW125046   1.143   6.473   0.422
 8049SOL    HW225047   1.202   6.549   0.290
 8050SOL     OW25048   0.377   3.282   1.242
 8050SOL    HW125049   0.278   3.267   1.234
 8050SOL    HW225050   0.423   3.245   1.162
 8051SOL     OW25051   3.536   1.887   3.784
 8051SOL    HW125052   3.562   1.791   3.791
 8051SOL    HW225053   3.576   1.927   3.701
 8052SOL     OW25054   3.805   2.113   3.109
 8052SOL    HW125055   3.748   2.106   3.027
 8052SOL    HW225056   3.888   2.059   3.097
 8053SOL     OW25057   4.137   3.431   1.899
 8053SOL    HW125058   4.110   3.361   1.965
 8053SOL    HW225059   4.232   3.456   1.913
 8054SOL     OW25060   4.820   5.867   4.283
 8054SOL    HW125061   4.727   5.897   4.303
 8054SOL    HW225062   4.854   5.812   4.359
 8055SOL     OW25063   0.893   6.962   4.957
 8055SOL    HW125064   0.947   6.887   4.919
 8055SOL    HW225065   0.925   6.982   5.049
 8056SOL     OW25066   4.481   1.117   2.171
 8056SOL    HW125067   4.455   1.062   2.091
 8056SOL    HW225068   4.566   1.081   2.210
 8057SOL     OW25069   3.195   0.169   3.492
 8057SOL    HW125070   3.184   0.264   3.464
 8057SOL    HW225071   3.248   0.164   3.576
 8058SOL     OW25072   2.431   0.260   3.626
 8058SOL    HW125073   2.425   0.357   3.604
 8058SOL    HW225074   2.526   0.230   3.617
 8059SOL     OW25075   2.487   1.168   3.663
 8059SOL    HW125076   2.583   1.196   3.674
 8059SOL    HW225077   2.471   1.083   3.715
 8060SOL     OW25078   1.057   2.738   5.191
 8060SOL    HW125079   1.126   2.690   5.245
 8060SOL    HW225080   0.966   2.701   5.211
 8061SOL     OW25081   6.683   5.809   2.108
 8061SOL    HW125082   6.738   5.867   2.169
 8061SOL    HW225083   6.614   5.865   2.063
 8062SOL     OW25084   2.121   3.669   2.262
 8062SOL    HW125085   2.109   3.591   2.322
 8062SOL    HW225086   2.177   3.643   2.184
 8063SOL     OW25087   2.650   3.168   6.595
 8063SOL    HW125088   2.682   3.075   6.612
 8063SOL    HW225089   2.563   3.164   6.545
 8064SOL     OW25090   6.697   2.576   0.047
 8064SOL    HW125091   6.677   2.641   6.990
 8064SOL    HW225092   6.620   2.512   0.056
 8065SOL     OW25093   4.771   6.921   6.350
 8065SOL    HW125094   4.745   6.841   6.295
 8065SOL    HW225095   4.766   6.897   6.447
 8066SOL     OW25096   2.652   6.908   1.713
 8066SOL    HW125097   2.656   6.931   1.616
 8066SOL    HW225098   2.744   6.913   1.753
 8067SOL     OW25099   4.786   2.228   2.334
 8067SOL    HW125100   4.732   2.194   2.258
 8067SOL    HW225101   4.776   2.327   2.341
 8068SOL     OW25102   6.461   4.585   4.601
 8068SOL    HW125103   6.378   4.585   4.546
 8068SOL    HW225104   6.440   4.554   4.694
 8069SOL     OW25105   1.370   6.645   2.586
 8069SOL    HW125106   1.416   6.604   2.666
 8069SOL    HW225107   1.401   6.739   2.575
 8070SOL     OW25108   4.059   0.292   2.646
 8070SOL    HW125109   4.082   0.384   2.615
 8070SOL    HW225110   4.066   0.229   2.569
 8071SOL     OW25111   3.478   6.898   0.314
 8071SOL    HW125112   3.398   6.867   0.364
 8071SOL    HW225113   3.560   6.881   0.368
 8072SOL     OW25114   5.182   0.595   2.564
 8072SOL    HW125115   5.163   0.575   2.660
 8072SOL    HW225116   5.097   0.598   2.512
 8073SOL     OW25117   4.629   0.037   6.139
 8073SOL    HW125118   4.665   6.977   6.194
 8073SOL    HW225119   4.670   0.122   6.170
 8074SOL     OW25120   3.454   4.115   6.742
 8074SOL    HW125121   3.428   4.056   6.819
 8074SOL    HW225122   3.420   4.207   6.758
 8075SOL     OW25123   5.512   2.395   2.894
 8075SOL    HW125124   5.577   2.335   2.939
 8075SOL    HW225125   5.424   2.391   2.941
 8076SOL     OW25126   4.737   2.861   6.170
 8076SOL    HW125127   4.722   2.788   6.236
 8076SOL    HW225128   4.683   2.844   6.088
 8077SOL     OW25129   0.939   0.410   0.327
 8077SOL    HW125130   0.949   0.487   0.390
 8077SOL    HW225131   1.025   0.396   0.278
 8078SOL     OW25132   6.098   2.854   0.839
 8078SOL    HW125133   6.013   2.882   0.794
 8078SOL    HW225134   6.123   2.762   0.809
 8079SOL     OW25135   0.999   1.906   1.834
 8079SOL    HW125136   1.033   1.886   1.926
 8079SOL    HW225137   0.904   1.935   1.838
 8080SOL     OW25138   3.516   4.967   0.219
 8080SOL    HW125139   3.504   4.900   0.146
 8080SOL    HW225140   3.486   4.927   0.306
 8081SOL     OW25141   5.884   1.777   5.348
 8081SOL    HW125142   5.980   1.798   5.329
 8081SOL    HW225143   5.827   1.814   5.275
 8082SOL     OW25144   6.794   3.515   4.507
 8082SOL    HW125145   6.725   3.566   4.557
 8082SOL    HW225146   6.836   3.575   4.438
 8083SOL     OW25147   6.209   2.170   4.725
 8083SOL    HW125148   6.162   2.246   4.680
 8083SOL    HW225149   6.308   2.187   4.724
 8084SOL     OW25150   6.818   0.491   0.968
 8084SOL    HW125151   6.722   0.486   0.993
 8084SOL    HW225152   6.826   0.515   0.871
 8085SOL     OW25153   6.054   2.032   0.712
 8085SOL    HW125154   6.073   2.102   0.781
 8085SOL    HW225155   6.135   2.019   0.655
 8086SOL     OW25156   2.396   6.013   5.800
 8086SOL    HW125157   2.355   6.060   5.878
 8086SOL    HW225158   2.419   6.079   5.729
 8087SOL     OW25159   2.707   4.241   0.485
 8087SOL    HW125160   2.782   4.306   0.491
 8087SOL    HW225161   2.663   4.232   0.575
 8088SOL     OW25162   4.461   0.531   2.711
 8088SOL    HW125163   4.446   0.452   2.650
 8088SOL    HW225164   4.466   0.614   2.657
 8089SOL     OW25165   6.465   2.916   0.650
 8089SOL    HW125166   6.432   2.916   0.744
 8089SOL    HW225167   6.444   3.003   0.606
 8090SOL     OW25168   4.105   2.286   5.307
 8090SOL    HW125169   4.103   2.355   5.234
 8090SOL    HW225170   4.177   2.219   5.288
 8091SOL     OW25171   2.349   4.778   5.506
 8091SOL    HW125172   2.427   4.839   5.493
 8091SOL    HW225173   2.266   4.832   5.516
 8092SOL     OW25174   6.559   1.831   4.186
 8092SOL    HW125175   6.564   1.837   4.086
 8092SOL    HW225176   6.499   1.755   4.211
 8093SOL     OW25177   5.857   5.261   0.732
 8093SOL    HW125178   5.780   5.213   0.690
 8093SOL    HW225179   5.922   5.289   0.662
 8094SOL     OW25180   0.612   3.682   4.501
 8094SOL    HW125181   0.538   3.732   4.457
 8094SOL    HW225182   0.688   3.743   4.519
 8095SOL     OW25183   6.012   3.331   5.233
 8095SOL    HW125184   6.008   3.398   5.158
 8095SOL    HW225185   5.946   3.258   5.216
 8096SOL     OW25186   3.698   1.094   0.578
 8096SOL    HW125187   3.613   1.124   0.620
 8096SOL    HW225188   3.725   1.158   0.506
 8097SOL     OW25189   4.820   1.464   4.194
 8097SOL    HW125190   4.852   1.408   4.271
 8097SOL    HW225191   4.736   1.511   4.220
 8098SOL     OW25192   2.499   1.404   4.246
 8098SOL    HW125193   2.561   1.483   4.250
 8098SOL    HW225194   2.535   1.337   4.180
 8099SOL     OW25195   4.453   6.235   5.073
 8099SOL    HW125196   4.471   6.329   5.045
 8099SOL    HW225197   4.354   6.218   5.070
 8100SOL     OW25198   6.825   6.151   0.817
 8100SOL    HW125199   6.812   6.210   0.737
 8100SOL    HW225200   6.894   6.192   0.877
 8101SOL     OW25201   0.603   5.078   2.359
 8101SOL    HW125202   0.620   4.980   2.364
 8101SOL    HW225203   0.689   5.126   2.346
 8102SOL     OW25204   6.381   0.295   6.200
 8102SOL    HW125205   6.458   0.235   6.178
 8102SOL    HW225206   6.337   0.326   6.116
 8103SOL     OW25207   2.312   2.055   2.021
 8103SOL    HW125208   2.274   2.016   2.105
 8103SOL    HW225209   2.243   2.112   1.977
 8104SOL     OW25210   3.151   6.308   5.792
 8104SOL    HW125211   3.201   6.223   5.777
 8104SOL    HW225212   3.090   6.325   5.715
 8105SOL     OW25213   2.203   2.910   2.737
 8105SOL    HW125214   2.290   2.951   2.766
 8105SOL    HW225215   2.217   2.812   2.720
 8106SOL     OW25216   7.005   4.276   5.452
 8106SOL    HW125217   7.000   4.370   5.487
 8106SOL    HW225218   0.034   4.276   5.363
 8107SOL     OW25219   1.057   5.620   6.575
 8107SOL    HW125220   0.992   5.598   6.502
 8107SOL    HW225221   1.111   5.700   6.549
 8108SOL     OW25222   2.171   3.638   5.129
 8108SOL    HW125223   2.186   3.694   5.047
 8108SOL    HW225224   2.157   3.543   5.102
 8109SOL     OW25225   1.084   5.583   4.987
 8109SOL    HW125226   1.110   5.494   4.950
 8109SOL    HW225227   1.000   5.614   4.943
 8110SOL     OW25228   1.231   4.426   0.959
 8110SOL    HW125229   1.288   4.508   0.962
 8110SOL    HW225230   1.283   4.351   0.921
 8111SOL     OW25231   3.286   5.789   4.439
 8111SOL    HW125232   3.240   5.848   4.504
 8111SOL    HW225233   3.220   5.750   4.375
 8112SOL     OW25234   4.509   1.075   4.478
 8112SOL    HW125235   4.553   1.048   4.392
 8112SOL    HW225236   4.411   1.088   4.463
 8113SOL     OW25237   3.500   2.904   5.895
 8113SOL    HW125238   3.588   2.886   5.851
 8113SOL    HW225239   3.454   2.979   5.848
 8114SOL     OW25240   3.180   3.419   1.785
 8114SOL    HW125241   3.085   3.389   1.795
 8114SOL    HW225242   3.191   3.511   1.824
 8115SOL     OW25243   3.691   2.342   1.460
 8115SOL    HW125244   3.728   2.429   1.428
 8115SOL    HW225245   3.608   2.358   1.513
 8116SOL     OW25246   4.882   1.439   5.143
 8116SOL    HW125247   4.853   1.433   5.238
 8116SOL    HW225248   4.875   1.534   5.112
 8117SOL     OW25249   2.633   1.495   5.886
 8117SOL    HW125250   2.565   1.436   5.930
 8117SOL    HW225251   2.655   1.571   5.947
 8118SOL     OW25252   1.346   2.539   4.358
 8118SOL    HW125253   1.287   2.493   4.292
 8118SOL    HW225254   1.324   2.637   4.359
 8119SOL     OW25255   0.981   6.290   1.582
 8119SOL    HW125256   0.919   6.368   1.575
 8119SOL    HW225257   1.073   6.318   1.552
 8120SOL     OW25258   4.808   4.083   2.207
 8120SOL    HW125259   4.778   4.131   2.289
 8120SOL    HW225260   4.740   4.093   2.135
 8121SOL     OW25261   6.489   6.293   3.079
 8121SOL    HW125262   6.455   6.200   3.073
 8121SOL    HW225263   6.556   6.309   3.007
 8122SOL     OW25264   0.626   5.654   1.250
 8122SOL    HW125265   0.606   5.748   1.224
 8122SOL    HW225266   0.725   5.642   1.257
 8123SOL     OW25267   0.993   5.060   0.396
 8123SOL    HW125268   1.024   5.108   0.314
 8123SOL    HW225269   1.062   4.994   0.423
 8124SOL     OW25270   1.139   6.276   3.188
 8124SOL    HW125271   1.169   6.181   3.199
 8124SOL    HW225272   1.052   6.289   3.236
 8125SOL     OW25273   5.883   5.252   3.211
 8125SOL    HW125274   5.927   5.287   3.293
 8125SOL    HW225275   5.808   5.191   3.236
 8126SOL     OW25276   6.749   4.237   2.643
 8126SOL    HW125277   6.786   4.155   2.687
 8126SOL    HW225278   6.814   4.313   2.654
 8127SOL     OW25279   3.960   5.294   1.348
 8127SOL    HW125280   4.056   5.268   1.343
 8127SOL    HW225281   3.903   5.213   1.334
 8128SOL     OW25282   3.545   2.191   5.713
 8128SOL    HW125283   3.465   2.143   5.677
 8128SOL    HW225284   3.623   2.129   5.714
 8129SOL     OW25285   5.097   6.081   6.343
 8129SOL    HW125286   5.171   6.016   6.322
 8129SOL    HW225287   5.017   6.030   6.373
 8130SOL     OW25288   0.700   0.007   6.797
 8130SOL    HW125289   0.798   0.015   6.776
 8130SOL    HW225290   0.685   0.034   6.892
 8131SOL     OW25291   1.990   1.183   0.621
 8131SOL    HW125292   1.941   1.125   0.686
 8131SOL    HW225293   2.008   1.131   0.537
 8132SOL     OW25294   6.075   4.579   3.016
 8132SOL    HW125295   6.049   4.580   3.112
 8132SOL    HW225296   6.093   4.484   2.988
 8133SOL     OW25297   0.614   5.936   2.032
 8133SOL    HW125298   0.692   5.936   1.970
 8133SOL    HW225299   0.534   5.973   1.984
 8134SOL     OW25300   1.714   2.613   2.207
 8134SOL    HW125301   1.797   2.586   2.157
 8134SOL    HW225302   1.672   2.692   2.161
 8135SOL     OW25303   4.045   6.189   2.386
 8135SOL    HW125304   4.061   6.102   2.432
 8135SOL    HW225305   3.952   6.190   2.348
 8136SOL     OW25306   2.070   6.193   1.312
 8136SOL    HW125307   2.145   6.129   1.328
 8136SOL    HW225308   2.041   6.233   1.398
 8137SOL     OW25309   3.359   3.583   4.938
 8137SOL    HW125310   3.299   3.504   4.921
 8137SOL    HW225311   3.304   3.665   4.947
 8138SOL     OW25312   4.798   0.916   3.034
 8138SOL    HW125313   4.742   0.977   2.978
 8138SOL    HW225314   4.850   0.970   3.101
 8139SOL     OW25315   1.308   3.262   5.119
 8139SOL    HW125316   1.235   3.202   5.088
 8139SOL    HW225317   1.388   3.208   5.143
 8140SOL     OW25318   4.392   0.740   1.038
 8140SOL    HW125319   4.409   0.804   0.962
 8140SOL    HW225320   4.298   0.750   1.070
 8141SOL     OW25321   5.844   0.440   5.752
 8141SOL    HW125322   5.847   0.447   5.852
 8141SOL    HW225323   5.908   0.506   5.713
 8142SOL     OW25324   2.363   5.694   0.777
 8142SOL    HW125325   2.377   5.793   0.780
 8142SOL    HW225326   2.452   5.648   0.780
 8143SOL     OW25327   5.729   4.687   0.669
 8143SOL    HW125328   5.683   4.605   0.636
 8143SOL    HW225329   5.703   4.703   0.764
 8144SOL     OW25330   0.948   6.023   6.879
 8144SOL    HW125331   0.952   5.934   6.833
 8144SOL    HW225332   1.040   6.057   6.894
 8145SOL     OW25333   5.370   5.620   6.887
 8145SOL    HW125334   5.341   5.669   6.805
 8145SOL    HW225335   5.303   5.634   6.960
 8146SOL     OW25336   6.813   6.158   4.683
 8146SOL    HW125337   6.715   6.145   4.699
 8146SOL    HW225338   6.832   6.255   4.670
 8147SOL     OW25339   2.236   0.672   5.439
 8147SOL    HW125340   2.323   0.688   5.392
 8147SOL    HW225341   2.183   0.757   5.442
 8148SOL     OW25342   4.756   3.892   0.540
 8148SOL    HW125343   4.743   3.980   0.586
 8148SOL    HW225344   4.761   3.819   0.609
 8149SOL     OW25345   1.712   0.036   5.373
 8149SOL    HW125346   1.685   7.009   5.287
 8149SOL    HW225347   1.784   6.998   5.416
 8150SOL     OW25348   0.393   3.842   0.540
 8150SOL    HW125349   0.421   3.898   0.618
 8150SOL    HW225350   0.472   3.791   0.506
 8151SOL     OW25351   6.476   5.128   3.106
 8151SOL    HW125352   6.540   5.175   3.167
 8151SOL    HW225353   6.382   5.145   3.136
 8152SOL     OW25354   5.426   1.651   2.680
 8152SOL    HW125355   5.474   1.723   2.729
 8152SOL    HW225356   5.463   1.642   2.588
 8153SOL     OW25357   0.258   1.849   1.814
 8153SOL    HW125358   0.277   1.779   1.746
 8153SOL    HW225359   0.322   1.925   1.802
 8154SOL     OW25360   1.332   0.693   2.912
 8154SOL    HW125361   1.292   0.779   2.880
 8154SOL    HW225362   1.262   0.639   2.958
 8155SOL     OW25363   1.620   5.049   4.219
 8155SOL    HW125364   1.532   5.051   4.266
 8155SOL    HW225365   1.677   4.976   4.257
 8156SOL     OW25366   1.055   4.071   0.619
 8156SOL    HW125367   1.077   3.994   0.680
 8156SOL    HW225368   1.075   4.046   0.525
 8157SOL     OW25369   6.563   4.721   5.014
 8157SOL    HW125370   6.499   4.712   5.090
 8157SOL    HW225371   6.603   4.632   4.993
 8158SOL     OW25372   5.926   5.216   6.289
 8158SOL    HW125373   5.833   5.244   6.269
 8158SOL    HW225374   5.945   5.128   6.245
 8159SOL     OW25375   2.594   0.666   4.634
 8159SOL    HW125376   2.663   0.688   4.704
 8159SOL    HW225377   2.552   0.578   4.656
 8160SOL     OW25378   5.776   1.563   2.716
 8160SOL    HW125379   5.840   1.560   2.639
 8160SOL    HW225380   5.772   1.656   2.753
 8161SOL     OW25381   6.318   2.496   2.146
 8161SOL    HW125382   6.369   2.486   2.232
 8161SOL    HW225383   6.359   2.437   2.076
 8162SOL     OW25384   0.835   5.688   4.898
 8162SOL    HW125385   0.842   5.633   4.815
 8162SOL    HW225386   0.814   5.629   4.976
 8163SOL     OW25387   3.748   4.705   5.591
 8163SOL    HW125388   3.710   4.614   5.575
 8163SOL    HW225389   3.781   4.742   5.504
 8164SOL     OW25390   5.247   1.777   0.656
 8164SOL    HW125391   5.245   1.866   0.702
 8164SOL    HW225392   5.209   1.707   0.717
 8165SOL     OW25393   0.730   1.603   5.876
 8165SOL    HW125394   0.683   1.677   5.827
 8165SOL    HW225395   0.823   1.592   5.838
 8166SOL     OW25396   2.279   1.781   5.047
 8166SOL    HW125397   2.356   1.763   5.108
 8166SOL    HW225398   2.193   1.764   5.095
 8167SOL     OW25399   1.928   2.988   3.462
 8167SOL    HW125400   2.021   3.007   3.492
 8167SOL    HW225401   1.872   2.957   3.539
 8168SOL     OW25402   1.853   6.823   2.613
 8168SOL    HW125403   1.835   6.795   2.708
 8168SOL    HW225404   1.951   6.819   2.595
 8169SOL     OW25405   4.632   3.425   1.203
 8169SOL    HW125406   4.592   3.499   1.258
 8169SOL    HW225407   4.636   3.341   1.257
 8170SOL     OW25408   6.820   4.525   2.673
 8170SOL    HW125409   6.810   4.537   2.772
 8170SOL    HW225410   6.810   4.614   2.627
 8171SOL     OW25411   2.506   1.887   1.286
 8171SOL    HW125412   2.459   1.939   1.215
 8171SOL    HW225413   2.503   1.937   1.372
 8172SOL     OW25414   1.099   3.176   1.445
 8172SOL    HW125415   1.173   3.127   1.400
 8172SOL    HW225416   1.134   3.219   1.529
 8173SOL     OW25417   6.034   0.328   1.629
 8173SOL    HW125418   5.968   0.351   1.558
 8173SOL    HW225419   6.096   0.405   1.644
 8174SOL     OW25420   2.319   6.552   3.813
 8174SOL    HW125421   2.301   6.628   3.876
 8174SOL    HW225422   2.327   6.467   3.865
 8175SOL     OW25423   0.721   2.424   5.623
 8175SOL    HW125424   0.724   2.367   5.541
 8175SOL    HW225425   0.638   2.405   5.675
 8176SOL     OW25426   2.414   4.573   0.512
 8176SOL    HW125427   2.398   4.604   0.419
 8176SOL    HW225428   2.510   4.549   0.524
 8177SOL     OW25429   2.598   0.866   3.328
 8177SOL    HW125430   2.641   0.949   3.365
 8177SOL    HW225431   2.525   0.836   3.390
 8178SOL     OW25432   2.354   6.492   1.205
 8178SOL    HW125433   2.295   6.428   1.156
 8178SOL    HW225434   2.409   6.441   1.272
 8179SOL     OW25435   5.871   0.277   3.460
 8179SOL    HW125436   5.820   0.363   3.468
 8179SOL    HW225437   5.844   0.215   3.534
 8180SOL     OW25438   4.807   5.740   0.436
 8180SOL    HW125439   4.793   5.641   0.429
 8180SOL    HW225440   4.904   5.759   0.449
 8181SOL     OW25441   6.614   0.286   6.413
 8181SOL    HW125442   6.520   0.286   6.445
 8181SOL    HW225443   6.616   0.300   6.314
 8182SOL     OW25444   3.301   3.737   3.302
 8182SOL    HW125445   3.281   3.834   3.312
 8182SOL    HW225446   3.394   3.718   3.334
 8183SOL     OW25447   6.347   0.309   5.631
 8183SOL    HW125448   6.396   0.237   5.582
 8183SOL    HW225449   6.272   0.269   5.684
 8184SOL     OW25450   6.923   5.533   5.791
 8184SOL    HW125451   6.838   5.585   5.783
 8184SOL    HW225452   6.903   5.439   5.817
 8185SOL     OW25453   0.175   5.663   5.418
 8185SOL    HW125454   0.254   5.714   5.451
 8185SOL    HW225455   0.102   5.667   5.487
 8186SOL     OW25456   1.757   5.565   0.557
 8186SOL    HW125457   1.730   5.625   0.633
 8186SOL    HW225458   1.794   5.479   0.594
 8187SOL     OW25459   1.766   0.183   4.845
 8187SOL    HW125460   1.687   0.216   4.897
 8187SOL    HW225461   1.850   0.219   4.886
 8188SOL     OW25462   2.007   3.300   2.749
 8188SOL    HW125463   1.911   3.326   2.759
 8188SOL    HW225464   2.065   3.381   2.764
 8189SOL     OW25465   6.028   5.021   3.764
 8189SOL    HW125466   6.062   5.115   3.769
 8189SOL    HW225467   5.953   5.016   3.699
 8190SOL     OW25468   6.449   3.994   2.916
 8190SOL    HW125469   6.455   3.978   2.817
 8190SOL    HW225470   6.538   3.973   2.958
 8191SOL     OW25471   4.187   4.603   0.852
 8191SOL    HW125472   4.197   4.587   0.754
 8191SOL    HW225473   4.216   4.521   0.902
 8192SOL     OW25474   0.531   5.747   3.466
 8192SOL    HW125475   0.574   5.664   3.430
 8192SOL    HW225476   0.600   5.804   3.510
 8193SOL     OW25477   0.804   4.624   3.797
 8193SOL    HW125478   0.768   4.580   3.714
 8193SOL    HW225479   0.841   4.714   3.774
 8194SOL     OW25480   4.817   0.577   1.510
 8194SOL    HW125481   4.741   0.523   1.547
 8194SOL    HW225482   4.794   0.608   1.418
 8195SOL     OW25483   6.334   7.003   3.890
 8195SOL    HW125484   6.252   0.038   3.917
 8195SOL    HW225485   6.334   6.991   3.790
 8196SOL     OW25486   5.200   0.969   2.095
 8196SOL    HW125487   5.272   0.904   2.069
 8196SOL    HW225488   5.220   1.006   2.186
 8197SOL     OW25489   3.925   1.782   3.461
 8197SOL    HW125490   3.866   1.862   3.469
 8197SOL    HW225491   3.989   1.795   3.385
 8198SOL     OW25492   1.696   5.836   1.614
 8198SOL    HW125493   1.722   5.816   1.520
 8198SOL    HW225494   1.680   5.935   1.623
 8199SOL     OW25495   6.117   2.392   0.304
 8199SOL    HW125496   6.096   2.312   0.360
 8199SOL    HW225497   6.032   2.429   0.267
 8200SOL     OW25498   4.898   3.577   0.863
 8200SOL    HW125499   4.887   3.504   0.930
 8200SOL    HW225500   4.993   3.578   0.831
 8201SOL     OW25501   5.759   6.748   5.543
 8201SOL    HW125502   5.752   6.830   5.487
 8201SOL    HW225503   5.854   6.718   5.546
 8202SOL     OW25504   1.251   6.265   1.761
 8202SOL    HW125505   1.175   6.326   1.738
 8202SOL    HW225506   1.256   6.191   1.694
 8203SOL     OW25507   2.034   3.596   1.347
 8203SOL    HW125508   2.088   3.627   1.425
 8203SOL    HW225509   1.937   3.597   1.371
 8204SOL     OW25510   2.429   3.400   0.672
 8204SOL    HW125511   2.427   3.300   0.671
 8204SOL    HW225512   2.493   3.433   0.602
 8205SOL     OW25513   0.780   4.336   6.927
 8205SOL    HW125514   0.859   4.388   6.960
 8205SOL    HW225515   0.807   4.278   6.851
 8206SOL     OW25516   3.117   1.494   1.374
 8206SOL    HW125517   3.068   1.432   1.313
 8206SOL    HW225518   3.192   1.444   1.419
 8207SOL     OW25519   3.803   3.774   4.108
 8207SOL    HW125520   3.717   3.756   4.061
 8207SOL    HW225521   3.807   3.871   4.134
 8208SOL     OW25522   2.083   0.091   0.278
 8208SOL    HW125523   2.175   0.079   0.243
 8208SOL    HW225524   2.084   0.155   0.356
 8209SOL     OW25525   6.141   1.459   4.889
 8209SOL    HW125526   6.056   1.511   4.899
 8209SOL    HW225527   6.138   1.405   4.805
 8210SOL     OW25528   2.290   2.734   6.449
 8210SOL    HW125529   2.315   2.668   6.378
 8210SOL    HW225530   2.191   2.739   6.457
 8211SOL     OW25531   4.230   4.646   1.376
 8211SOL    HW125532   4.134   4.630   1.358
 8211SOL    HW225533   4.264   4.717   1.314
 8212SOL     OW25534   1.929   2.763   2.952
 8212SOL    HW125535   1.927   2.841   2.890
 8212SOL    HW225536   1.941   2.795   3.046
 8213SOL     OW25537   6.477   4.567   1.316
 8213SOL    HW125538   6.539   4.545   1.391
 8213SOL    HW225539   6.531   4.601   1.238
 8214SOL     OW25540   5.326   3.521   3.102
 8214SOL    HW125541   5.273   3.566   3.031
 8214SOL    HW225542   5.284   3.434   3.126
 8215SOL     OW25543   3.435   5.225   2.921
 8215SOL    HW125544   3.369   5.300   2.917
 8215SOL    HW225545   3.518   5.256   2.967
 8216SOL     OW25546   5.758   3.377   3.826
 8216SOL    HW125547   5.672   3.424   3.845
 8216SOL    HW225548   5.814   3.374   3.909
 8217SOL     OW25549   1.922   6.341   0.941
 8217SOL    HW125550   1.842   6.400   0.959
 8217SOL    HW225551   1.891   6.251   0.913
 8218SOL     OW25552   6.164   2.322   6.903
 8218SOL    HW125553   6.242   2.346   6.962
 8218SOL    HW225554   6.166   2.380   6.821
 8219SOL     OW25555   5.629   1.633   6.950
 8219SOL    HW125556   5.529   1.636   6.941
 8219SOL    HW225557   5.653   1.587   0.019
 8220SOL     OW25558   4.175   3.823   1.611
 8220SOL    HW125559   4.141   3.754   1.675
 8220SOL    HW225560   4.176   3.912   1.656
 8221SOL     OW25561   5.066   4.588   3.396
 8221SOL    HW125562   5.054   4.510   3.458
 8221SOL    HW225563   5.159   4.623   3.404
 8222SOL     OW25564   6.538   1.650   2.647
 8222SOL    HW125565   6.514   1.559   2.681
 8222SOL    HW225566   6.474   1.677   2.575
 8223SOL     OW25567   6.768   5.067   5.806
 8223SOL    HW125568   6.706   5.093   5.881
 8223SOL    HW225569   6.830   5.143   5.786
 8224SOL     OW25570   0.997   3.578   2.994
 8224SOL    HW125571   0.906   3.560   2.956
 8224SOL    HW225572   1.034   3.494   3.035
 8225SOL     OW25573   4.625   1.056   0.622
 8225SOL    HW125574   4.671   0.975   0.658
 8225SOL    HW225575   4.627   1.054   0.522
 8226SOL     OW25576   4.077   0.723   0.812
 8226SOL    HW125577   4.040   0.790   0.876
 8226SOL    HW225578   4.012   0.648   0.800
 8227SOL     OW25579   5.873   3.786   2.738
 8227SOL    HW125580   5.845   3.867   2.687
 8227SOL    HW225581   5.798   3.720   2.739
 8228SOL     OW25582   0.248   1.977   4.795
 8228SOL    HW125583   0.149   1.985   4.778
 8228SOL    HW225584   0.295   2.052   4.750
 8229SOL     OW25585   3.758   5.631   0.802
 8229SOL    HW125586   3.760   5.677   0.713
 8229SOL    HW225587   3.850   5.634   0.843
 8230SOL     OW25588   5.089   0.343   3.926
 8230SOL    HW125589   5.173   0.344   3.872
 8230SOL    HW225590   5.020   0.400   3.881
 8231SOL     OW25591   4.133   5.973   1.396
 8231SOL    HW125592   4.142   5.898   1.330
 8231SOL    HW225593   4.217   5.980   1.449
 8232SOL     OW25594   2.389   1.508   6.557
 8232SOL    HW125595   2.294   1.480   6.551
 8232SOL    HW225596   2.433   1.498   6.468
 8233SOL     OW25597   0.303   5.145   6.069
 8233SOL    HW125598   0.225   5.111   6.121
 8233SOL    HW225599   0.387   5.102   6.101
 8234SOL     OW25600   3.266   3.462   0.329
 8234SOL    HW125601   3.184   3.418   0.367
 8234SOL    HW225602   3.279   3.434   0.234
 8235SOL     OW25603   4.649   2.530   0.075
 8235SOL    HW125604   4.747   2.538   0.090
 8235SOL    HW225605   4.612   2.457   0.133
 8236SOL     OW25606   5.827   2.225   0.808
 8236SOL    HW125607   5.757   2.157   0.786
 8236SOL    HW225608   5.790   2.292   0.871
 8237SOL     OW25609   3.888   6.299   5.657
 8237SOL    HW125610   3.883   6.244   5.740
 8237SOL    HW225611   3.876   6.395   5.679
 8238SOL     OW25612   1.789   0.867   6.978
 8238SOL    HW125613   1.793   0.937   6.907
 8238SOL    HW225614   1.811   0.777   6.938
 8239SOL     OW25615   6.732   1.235   6.746
 8239SOL    HW125616   6.763   1.213   6.838
 8239SOL    HW225617   6.706   1.332   6.742
 8240SOL     OW25618   4.145   3.532   3.309
 8240SOL    HW125619   4.226   3.483   3.341
 8240SOL    HW225620   4.067   3.470   3.305
 8241SOL     OW25621   4.518   6.638   1.586
 8241SOL    HW125622   4.592   6.571   1.599
 8241SOL    HW225623   4.518   6.668   1.490
 8242SOL     OW25624   0.829   3.946   5.289
 8242SOL    HW125625   0.754   3.921   5.228
 8242SOL    HW225626   0.840   4.046   5.289
 8243SOL     OW25627   0.983   3.434   5.073
 8243SOL    HW125628   0.934   3.500   5.130
 8243SOL    HW225629   1.016   3.480   4.991
 8244SOL     OW25630   1.481   5.334   4.606
 8244SOL    HW125631   1.470   5.324   4.705
 8244SOL    HW225632   1.539   5.413   4.587
 8245SOL     OW25633   3.531   3.789   0.684
 8245SOL    HW125634   3.475   3.811   0.764
 8245SOL    HW225635   3.487   3.718   0.630
 8246SOL     OW25636   5.064   3.948   5.639
 8246SOL    HW125637   4.965   3.932   5.642
 8246SOL    HW225638   5.112   3.861   5.644
 8247SOL     OW25639   1.117   6.828   1.614
 8247SOL    HW125640   1.072   6.839   1.525
 8247SOL    HW225641   1.190   6.760   1.607
 8248SOL     OW25642   0.339   4.296   3.323
 8248SOL    HW125643   0.351   4.209   3.274
 8248SOL    HW225644   0.424   4.348   3.321
 8249SOL     OW25645   1.466   5.721   3.033
 8249SOL    HW125646   1.539   5.693   2.970
 8249SOL    HW225647   1.504   5.744   3.122
 8250SOL     OW25648   4.052   3.701   2.037
 8250SOL    HW125649   4.073   3.627   1.973
 8250SOL    HW225650   4.030   3.784   1.986
 8251SOL     OW25651   6.280   1.582   5.208
 8251SOL    HW125652   6.352   1.514   5.222
 8251SOL    HW225653   6.294   1.629   5.121
 8252SOL     OW25654   1.044   3.423   4.150
 8252SOL    HW125655   1.107   3.411   4.073
 8252SOL    HW225656   1.092   3.404   4.236
 8253SOL     OW25657   2.666   2.800   5.338
 8253SOL    HW125658   2.752   2.831   5.379
 8253SOL    HW225659   2.638   2.864   5.267
 8254SOL     OW25660   4.464   5.819   3.587
 8254SOL    HW125661   4.456   5.720   3.588
 8254SOL    HW225662   4.373   5.860   3.595
 8255SOL     OW25663   4.144   5.121   3.907
 8255SOL    HW125664   4.211   5.166   3.966
 8255SOL    HW225665   4.123   5.180   3.829
 8256SOL     OW25666   6.457   2.455   4.280
 8256SOL    HW125667   6.407   2.404   4.351
 8256SOL    HW225668   6.393   2.482   4.208
 8257SOL     OW25669   6.556   4.128   4.793
 8257SOL    HW125670   6.638   4.124   4.736
 8257SOL    HW225671   6.475   4.131   4.734
 8258SOL     OW25672   4.913   1.408   0.038
 8258SOL    HW125673   4.946   1.496   0.073
 8258SOL    HW225674   4.939   1.398   6.958
 8259SOL     OW25675   4.019   1.244   1.593
 8259SOL    HW125676   3.970   1.316   1.642
 8259SOL    HW225677   4.113   1.240   1.626
 8260SOL     OW25678   2.723   5.979   0.553
 8260SOL    HW125679   2.692   5.984   0.458
 8260SOL    HW225680   2.818   5.950   0.555
 8261SOL     OW25681   5.288   1.091   1.679
 8261SOL    HW125682   5.234   1.028   1.736
 8261SOL    HW225683   5.229   1.130   1.609
 8262SOL     OW25684   0.974   1.895   0.591
 8262SOL    HW125685   1.073   1.893   0.578
 8262SOL    HW225686   0.929   1.905   0.502
 8263SOL     OW25687   5.838   1.198   0.323
 8263SOL    HW125688   5.835   1.294   0.349
 8263SOL    HW225689   5.873   1.190   0.229
 8264SOL     OW25690   1.720   4.453   2.584
 8264SOL    HW125691   1.667   4.394   2.644
 8264SOL    HW225692   1.776   4.396   2.523
 8265SOL     OW25693   1.874   1.281   2.232
 8265SOL    HW125694   1.951   1.218   2.227
 8265SOL    HW225695   1.810   1.262   2.158
 8266SOL     OW25696   2.979   0.348   3.116
 8266SOL    HW125697   3.006   0.442   3.094
 8266SOL    HW225698   2.943   0.303   3.034
 8267SOL     OW25699   0.460   3.441   0.483
 8267SOL    HW125700   0.487   3.346   0.497
 8267SOL    HW225701   0.521   3.501   0.535
 8268SOL     OW25702   3.520   5.796   6.546
 8268SOL    HW125703   3.595   5.862   6.550
 8268SOL    HW225704   3.435   5.841   6.572
 8269SOL     OW25705   6.262   1.948   0.988
 8269SOL    HW125706   6.226   2.040   0.969
 8269SOL    HW225707   6.239   1.922   1.082
 8270SOL     OW25708   3.495   6.424   4.178
 8270SOL    HW125709   3.582   6.398   4.136
 8270SOL    HW225710   3.446   6.486   4.117
 8271SOL     OW25711   6.666   2.224   1.936
 8271SOL    HW125712   6.657   2.147   2.000
 8271SOL    HW225713   6.753   2.270   1.952
 8272SOL     OW25714   3.504   1.337   4.279
 8272SOL    HW125715   3.426   1.329   4.218
 8272SOL    HW225716   3.565   1.410   4.247
 8273SOL     OW25717   1.983   6.582   1.286
 8273SOL    HW125718   2.019   6.657   1.341
 8273SOL    HW225719   1.889   6.563   1.312
 8274SOL     OW25720   5.292   4.231   3.580
 8274SOL    HW125721   5.206   4.249   3.532
 8274SOL    HW225722   5.287   4.271   3.672
 8275SOL     OW25723   4.680   2.160   6.514
 8275SOL    HW125724   4.666   2.065   6.542
 8275SOL    HW225725   4.638   2.175   6.424
 8276SOL     OW25726   0.213   1.919   2.910
 8276SOL    HW125727   0.270   1.884   2.984
 8276SOL    HW225728   0.266   1.982   2.853
 8277SOL     OW25729   6.417   0.333   6.932
 8277SOL    HW125730   6.433   0.415   6.987
 8277SOL    HW225731   6.496   0.272   6.939
 8278SOL     OW25732   1.757   2.543   6.693
 8278SOL    HW125733   1.721   2.636   6.689
 8278SOL    HW225734   1.854   2.545   6.719
 8279SOL     OW25735   7.011   6.166   3.931
 8279SOL    HW125736   7.012   6.159   3.831
 8279SOL    HW225737   6.921   6.198   3.961
 8280SOL     OW25738   3.019   2.014   6.040
 8280SOL    HW125739   2.938   2.048   6.087
 8280SOL    HW225740   3.042   1.923   6.074
 8281SOL     OW25741   5.907   5.700   2.160
 8281SOL    HW125742   5.987   5.660   2.205
 8281SOL    HW225743   5.919   5.799   2.153
 8282SOL     OW25744   5.755   2.857   6.344
 8282SOL    HW125745   5.694   2.815   6.412
 8282SOL    HW225746   5.776   2.950   6.372
 8283SOL     OW25747   1.924   2.967   6.039
 8283SOL    HW125748   1.833   2.956   6.078
 8283SOL    HW225749   1.924   3.043   5.974
 8284SOL     OW25750   6.241   3.952   1.612
 8284SOL    HW125751   6.213   3.920   1.521
 8284SOL    HW225752   6.209   3.888   1.681
 8285SOL     OW25753   3.602   3.615   4.320
 8285SOL    HW125754   3.644   3.698   4.357
 8285SOL    HW225755   3.511   3.637   4.285
 8286SOL     OW25756   6.653   1.493   6.216
 8286SOL    HW125757   6.698   1.572   6.174
 8286SOL    HW225758   6.694   1.409   6.180
 8287SOL     OW25759   1.457   5.787   4.281
 8287SOL    HW125760   1.402   5.704   4.288
 8287SOL    HW225761   1.412   5.852   4.219
 8288SOL     OW25762   2.711   2.379   3.006
 8288SOL    HW125763   2.776   2.316   2.963
 8288SOL    HW225764   2.629   2.386   2.950
 8289SOL     OW25765   0.041   6.180   6.588
 8289SOL    HW125766   0.081   6.141   6.671
 8289SOL    HW225767   6.981   6.122   6.558
 8290SOL     OW25768   6.913   2.628   0.689
 8290SOL    HW125769   6.857   2.652   0.610
 8290SOL    HW225770   6.857   2.582   0.757
 8291SOL     OW25771   3.906   0.034   1.181
 8291SOL    HW125772   3.948   7.000   1.106
 8291SOL    HW225773   3.843   0.102   1.145
 8292SOL     OW25774   2.805   6.825   6.453
 8292SOL    HW125775   2.804   6.924   6.438
 8292SOL    HW225776   2.730   6.800   6.514
 8293SOL     OW25777   5.447   6.020   5.015
 8293SOL    HW125778   5.510   5.943   5.017
 8293SOL    HW225779   5.362   5.994   5.062
 8294SOL     OW25780   5.320   2.423   0.088
 8294SOL    HW125781   5.308   2.383   7.014
 8294SOL    HW225782   5.390   2.494   0.084
 8295SOL     OW25783   4.614   3.893   0.280
 8295SOL    HW125784   4.602   3.848   0.368
 8295SOL    HW225785   4.711   3.892   0.254
 8296SOL     OW25786   1.099   5.312   6.680
 8296SOL    HW125787   1.026   5.364   6.724
 8296SOL    HW225788   1.165   5.376   6.640
 8297SOL     OW25789   0.848   2.236   3.701
 8297SOL    HW125790   0.836   2.227   3.602
 8297SOL    HW225791   0.946   2.232   3.723
 8298SOL     OW25792   4.931   1.337   1.812
 8298SOL    HW125793   4.885   1.404   1.871
 8298SOL    HW225794   4.980   1.384   1.739
 8299SOL     OW25795   6.438   2.119   1.442
 8299SOL    HW125796   6.423   2.209   1.399
 8299SOL    HW225797   6.513   2.126   1.508
 8300SOL     OW25798   1.068   4.540   3.526
 8300SOL    HW125799   1.110   4.505   3.610
 8300SOL    HW225800   0.993   4.480   3.500
 8301SOL     OW25801   3.521   2.972   6.753
 8301SOL    HW125802   3.445   2.970   6.818
 8301SOL    HW225803   3.487   3.000   6.663
 8302SOL     OW25804   5.172   5.636   5.907
 8302SOL    HW125805   5.186   5.662   5.811
 8302SOL    HW225806   5.163   5.537   5.914
 8303SOL     OW25807   0.120   0.684   6.113
 8303SOL    HW125808   0.135   0.770   6.065
 8303SOL    HW225809   0.076   0.618   6.052
 8304SOL     OW25810   0.315   3.246   6.851
 8304SOL    HW125811   0.235   3.188   6.842
 8304SOL    HW225812   0.364   3.250   6.764
 8305SOL     OW25813   3.283   5.987   3.898
 8305SOL    HW125814   3.382   5.976   3.886
 8305SOL    HW225815   3.262   6.084   3.911
 8306SOL     OW25816   0.680   3.638   4.238
 8306SOL    HW125817   0.615   3.714   4.236
 8306SOL    HW225818   0.686   3.602   4.331
 8307SOL     OW25819   2.797   5.717   1.047
 8307SOL    HW125820   2.785   5.761   0.957
 8307SOL    HW225821   2.856   5.637   1.037
 8308SOL     OW25822   3.553   0.342   3.058
 8308SOL    HW125823   3.471   0.389   3.023
 8308SOL    HW225824   3.634   0.386   3.020
 8309SOL     OW25825   5.928   5.995   1.734
 8309SOL    HW125826   5.899   5.990   1.639
 8309SOL    HW225827   5.859   6.044   1.787
 8310SOL     OW25828   6.819   4.313   0.173
 8310SOL    HW125829   6.765   4.286   0.253
 8310SOL    HW225830   6.896   4.370   0.203
 8311SOL     OW25831   6.044   0.155   0.124
 8311SOL    HW125832   6.050   0.214   0.204
 8311SOL    HW225833   5.948   0.134   0.104
 8312SOL     OW25834   5.286   6.607   1.275
 8312SOL    HW125835   5.267   6.691   1.226
 8312SOL    HW225836   5.202   6.553   1.283
 8313SOL     OW25837   3.259   1.489   2.821
 8313SOL    HW125838   3.205   1.517   2.741
 8313SOL    HW225839   3.201   1.438   2.884
 8314SOL     OW25840   6.598   0.059   3.626
 8314SOL    HW125841   6.541   0.003   3.567
 8314SOL    HW225842   6.557   0.063   3.718
 8315SOL     OW25843   5.138   4.832   6.506
 8315SOL    HW125844   5.162   4.833   6.604
 8315SOL    HW225845   5.083   4.752   6.486
 8316SOL     OW25846   2.501   5.726   6.839
 8316SOL    HW125847   2.473   5.669   6.916
 8316SOL    HW225848   2.464   5.818   6.851
 8317SOL     OW25849   2.104   4.584   2.280
 8317SOL    HW125850   2.034   4.578   2.351
 8317SOL    HW225851   2.116   4.680   2.254
 8318SOL     OW25852   3.889   0.962   5.463
 8318SOL    HW125853   3.869   0.937   5.558
 8318SOL    HW225854   3.915   1.058   5.458
 8319SOL     OW25855   3.637   0.521   4.625
 8319SOL    HW125856   3.646   0.565   4.536
 8319SOL    HW225857   3.723   0.476   4.649
 8320SOL     OW25858   3.964   4.685   1.768
 8320SOL    HW125859   4.034   4.615   1.756
 8320SOL    HW225860   3.880   4.657   1.722
 8321SOL     OW25861   0.412   0.652   1.305
 8321SOL    HW125862   0.512   0.655   1.304
 8321SOL    HW225863   0.381   0.618   1.394
 8322SOL     OW25864   5.709   6.775   0.347
 8322SOL    HW125865   5.758   6.753   0.431
 8322SOL    HW225866   5.729   6.706   0.277
 8323SOL     OW25867   1.612   2.226   1.849
 8323SOL    HW125868   1.679   2.220   1.775
 8323SOL    HW225869   1.659   2.219   1.937
 8324SOL     OW25870   6.975   1.501   1.898
 8324SOL    HW125871   6.911   1.438   1.940
 8324SOL    HW225872   0.016   1.544   1.968
 8325SOL     OW25873   2.924   3.263   3.775
 8325SOL    HW125874   2.964   3.342   3.728
 8325SOL    HW225875   2.824   3.269   3.772
 8326SOL     OW25876   3.292   3.495   5.906
 8326SOL    HW125877   3.301   3.495   5.807
 8326SOL    HW225878   3.330   3.580   5.943
 8327SOL     OW25879   4.638   1.724   5.898
 8327SOL    HW125880   4.688   1.793   5.846
 8327SOL    HW225881   4.554   1.765   5.935
 8328SOL     OW25882   2.696   2.378   5.193
 8328SOL    HW125883   2.656   2.461   5.155
 8328SOL    HW225884   2.742   2.327   5.120
 8329SOL     OW25885   0.006   2.740   5.433
 8329SOL    HW125886   0.067   2.669   5.468
 8329SOL    HW225887   6.929   2.704   5.427
 8330SOL     OW25888   3.081   6.982   0.323
 8330SOL    HW125889   3.148   6.907   0.325
 8330SOL    HW225890   3.028   6.977   0.239
 8331SOL     OW25891   2.600   6.942   1.186
 8331SOL    HW125892   2.554   6.862   1.149
 8331SOL    HW225893   2.645   6.992   1.112
 8332SOL     OW25894   5.086   5.800   2.632
 8332SOL    HW125895   5.124   5.880   2.587
 8332SOL    HW225896   4.987   5.802   2.626
 8333SOL     OW25897   0.947   6.160   6.006
 8333SOL    HW125898   0.930   6.065   5.983
 8333SOL    HW225899   0.874   6.195   6.065
 8334SOL     OW25900   5.755   0.906   3.875
 8334SOL    HW125901   5.772   0.971   3.801
 8334SOL    HW225902   5.832   0.842   3.882
 8335SOL     OW25903   5.468   6.669   5.590
 8335SOL    HW125904   5.562   6.660   5.557
 8335SOL    HW225905   5.464   6.738   5.663
 8336SOL     OW25906   0.290   2.232   2.237
 8336SOL    HW125907   0.219   2.165   2.216
 8336SOL    HW225908   0.339   2.256   2.153
 8337SOL     OW25909   0.599   6.236   2.233
 8337SOL    HW125910   0.690   6.265   2.205
 8337SOL    HW225911   0.603   6.142   2.266
 8338SOL     OW25912   1.580   4.803   0.545
 8338SOL    HW125913   1.588   4.762   0.454
 8338SOL    HW225914   1.628   4.891   0.545
 8339SOL     OW25915   5.453   1.229   2.803
 8339SOL    HW125916   5.429   1.300   2.870
 8339SOL    HW225917   5.464   1.142   2.851
 8340SOL     OW25918   4.651   3.413   0.929
 8340SOL    HW125919   4.675   3.316   0.917
 8340SOL    HW225920   4.648   3.434   1.027
 8341SOL     OW25921   2.105   0.007   1.146
 8341SOL    HW125922   2.180   7.016   1.211
 8341SOL    HW225923   2.125   6.967   1.065
 8342SOL     OW25924   4.347   0.812   1.671
 8342SOL    HW125925   4.314   0.895   1.625
 8342SOL    HW225926   4.443   0.798   1.650
 8343SOL     OW25927   1.637   5.178   5.959
 8343SOL    HW125928   1.582   5.094   5.956
 8343SOL    HW225929   1.645   5.209   6.054
 8344SOL     OW25930   3.762   0.178   5.481
 8344SOL    HW125931   3.858   0.175   5.509
 8344SOL    HW225932   3.739   0.270   5.449
 8345SOL     OW25933   6.536   1.287   2.447
 8345SOL    HW125934   6.545   1.294   2.546
 8345SOL    HW225935   6.618   1.322   2.403
 8346SOL     OW25936   3.082   5.306   2.013
 8346SOL    HW125937   3.071   5.249   2.094
 8346SOL    HW225938   3.063   5.252   1.931
 8347SOL     OW25939   3.329   5.162   3.774
 8347SOL    HW125940   3.289   5.199   3.857
 8347SOL    HW225941   3.429   5.165   3.781
 8348SOL     OW25942   1.166   0.600   0.369
 8348SOL    HW125943   1.152   0.615   0.271
 8348SOL    HW225944   1.081   0.621   0.418
 8349SOL     OW25945   5.923   5.227   1.840
 8349SOL    HW125946   5.988   5.151   1.834
 8349SOL    HW225947   5.884   5.244   1.749
 8350SOL     OW25948   6.621   0.687   5.120
 8350SOL    HW125949   6.659   0.633   5.195
 8350SOL    HW225950   6.522   0.690   5.128
 8351SOL     OW25951   2.990   6.148   2.176
 8351SOL    HW125952   2.986   6.167   2.078
 8351SOL    HW225953   2.966   6.052   2.191
 8352SOL     OW25954   6.773   6.287   1.259
 8352SOL    HW125955   6.853   6.255   1.309
 8352SOL    HW225956   6.732   6.364   1.307
 8353SOL     OW25957   0.308   3.809   2.292
 8353SOL    HW125958   0.216   3.841   2.316
 8353SOL    HW225959   0.344   3.754   2.367
 8354SOL     OW25960   2.285   0.711   0.542
 8354SOL    HW125961   2.279   0.782   0.472
 8354SOL    HW225962   2.202   0.712   0.598
 8355SOL     OW25963   2.888   1.186   0.593
 8355SOL    HW125964   2.909   1.114   0.527
 8355SOL    HW225965   2.931   1.271   0.565
 8356SOL     OW25966   2.062   5.366   0.155
 8356SOL    HW125967   2.107   5.315   0.081
 8356SOL    HW225968   2.053   5.462   0.129
 8357SOL     OW25969   5.020   5.481   4.263
 8357SOL    HW125970   5.098   5.544   4.271
 8357SOL    HW225971   5.054   5.388   4.247
 8358SOL     OW25972   2.766   1.893   5.746
 8358SOL    HW125973   2.711   1.932   5.672
 8358SOL    HW225974   2.816   1.965   5.793
 8359SOL     OW25975   4.642   5.077   3.834
 8359SOL    HW125976   4.617   5.141   3.906
 8359SOL    HW225977   4.658   4.987   3.874
 8360SOL     OW25978   4.994   0.247   3.581
 8360SOL    HW125979   4.913   0.282   3.628
 8360SOL    HW225980   5.002   0.292   3.492
 8361SOL     OW25981   1.736   0.850   2.871
 8361SOL    HW125982   1.691   0.939   2.872
 8361SOL    HW225983   1.778   0.834   2.961
 8362SOL     OW25984   2.436   3.134   0.672
 8362SOL    HW125985   2.472   3.076   0.745
 8362SOL    HW225986   2.378   3.079   0.611
 8363SOL     OW25987   0.205   3.206   0.580
 8363SOL    HW125988   0.212   3.117   0.625
 8363SOL    HW225989   0.224   3.195   0.482
 8364SOL     OW25990   6.630   4.713   4.019
 8364SOL    HW125991   6.650   4.749   3.928
 8364SOL    HW225992   6.650   4.615   4.020
 8365SOL     OW25993   1.915   3.553   6.107
 8365SOL    HW125994   1.848   3.530   6.177
 8365SOL    HW225995   1.992   3.489   6.113
 8366SOL     OW25996   3.273   6.967   3.324
 8366SOL    HW125997   3.370   6.947   3.332
 8366SOL    HW225998   3.244   0.010   3.400
 8367SOL     OW25999   5.692   5.558   3.964
 8367SOL    HW126000   5.725   5.650   3.984
 8367SOL    HW226001   5.724   5.531   3.873
 8368SOL     OW26002   3.138   5.208   6.834
 8368SOL    HW126003   3.193   5.287   6.806
 8368SOL    HW226004   3.118   5.152   6.753
 8369SOL     OW26005   2.264   1.195   1.057
 8369SOL    HW126006   2.320   1.272   1.088
 8369SOL    HW226007   2.186   1.230   1.005
 8370SOL     OW26008   1.438   1.582   6.891
 8370SOL    HW126009   1.455   1.572   6.989
 8370SOL    HW226010   1.387   1.667   6.875
 8371SOL     OW26011   2.005   3.419   0.699
 8371SOL    HW126012   2.074   3.353   0.732
 8371SOL    HW226013   1.945   3.443   0.775
 8372SOL     OW26014   0.201   0.628   1.807
 8372SOL    HW126015   0.128   0.564   1.781
 8372SOL    HW226016   0.234   0.675   1.725
 8373SOL     OW26017   1.685   6.925   5.130
 8373SOL    HW126018   1.712   6.940   5.035
 8373SOL    HW226019   1.735   6.847   5.168
 8374SOL     OW26020   6.245   0.118   6.610
 8374SOL    HW126021   6.300   0.200   6.597
 8374SOL    HW226022   6.223   0.107   6.707
 8375SOL     OW26023   4.029   1.047   6.332
 8375SOL    HW126024   3.976   0.964   6.315
 8375SOL    HW226025   4.104   1.053   6.265
 8376SOL     OW26026   3.901   0.447   4.667
 8376SOL    HW126027   3.971   0.485   4.606
 8376SOL    HW226028   3.907   0.347   4.666
 8377SOL     OW26029   5.624   4.408   0.631
 8377SOL    HW126030   5.605   4.363   0.543
 8377SOL    HW226031   5.595   4.348   0.706
 8378SOL     OW26032   4.818   3.146   3.707
 8378SOL    HW126033   4.808   3.233   3.658
 8378SOL    HW226034   4.814   3.071   3.642
 8379SOL     OW26035   5.534   2.052   2.155
 8379SOL    HW126036   5.485   2.025   2.072
 8379SOL    HW226037   5.631   2.060   2.135
 8380SOL     OW26038   5.265   1.822   3.264
 8380SOL    HW126039   5.285   1.879   3.344
 8380SOL    HW226040   5.346   1.818   3.206
 8381SOL     OW26041   2.487   5.210   4.570
 8381SOL    HW126042   2.515   5.252   4.484
 8381SOL    HW226043   2.481   5.111   4.558
 8382SOL     OW26044   1.096   3.266   2.137
 8382SOL    HW126045   1.157   3.335   2.177
 8382SOL    HW226046   1.148   3.207   2.076
 8383SOL     OW26047   3.362   1.988   6.493
 8383SOL    HW126048   3.291   1.953   6.555
 8383SOL    HW226049   3.329   1.982   6.399
 8384SOL     OW26050   0.653   6.409   1.664
 8384SOL    HW126051   0.661   6.421   1.565
 8384SOL    HW226052   0.708   6.479   1.710
 8385SOL     OW26053   4.728   2.370   1.009
 8385SOL    HW126054   4.730   2.469   1.022
 8385SOL    HW226055   4.648   2.332   1.057
 8386SOL     OW26056   1.294   4.309   2.638
 8386SOL    HW126057   1.299   4.357   2.551
 8386SOL    HW226058   1.204   4.267   2.648
 8387SOL     OW26059   0.626   1.817   0.945
 8387SOL    HW126060   0.564   1.852   0.875
 8387SOL    HW226061   0.634   1.883   1.019
 8388SOL     OW26062   1.003   6.836   2.708
 8388SOL    HW126063   1.007   6.825   2.609
 8388SOL    HW226064   1.086   6.798   2.750
 8389SOL     OW26065   5.155   2.322   2.520
 8389SOL    HW126066   5.086   2.379   2.566
 8389SOL    HW226067   5.229   2.303   2.584
 8390SOL     OW26068   5.622   1.689   6.054
 8390SOL    HW126069   5.611   1.766   6.117
 8390SOL    HW226070   5.641   1.606   6.107
 8391SOL     OW26071   6.347   6.895   1.212
 8391SOL    HW126072   6.393   6.977   1.180
 8391SOL    HW226073   6.361   6.885   1.311
 8392SOL     OW26074   5.105   2.870   6.015
 8392SOL    HW126075   5.040   2.807   5.974
 8392SOL    HW226076   5.056   2.948   6.053
 8393SOL     OW26077   5.319   6.856   1.607
 8393SOL    HW126078   5.338   6.920   1.681
 8393SOL    HW226079   5.225   6.823   1.615
 8394SOL     OW26080   5.727   2.698   2.463
 8394SOL    HW126081   5.629   2.695   2.485
 8394SOL    HW226082   5.773   2.759   2.527
 8395SOL     OW26083   2.432   1.279   4.987
 8395SOL    HW126084   2.375   1.320   5.058
 8395SOL    HW226085   2.380   1.275   4.901
 8396SOL     OW26086   4.634   5.617   4.580
 8396SOL    HW126087   4.545   5.639   4.539
 8396SOL    HW226088   4.706   5.631   4.511
 8397SOL     OW26089   6.187   0.708   3.148
 8397SOL    HW126090   6.170   0.805   3.130
 8397SOL    HW226091   6.102   0.656   3.136
 8398SOL     OW26092   5.016   2.219   6.101
 8398SOL    HW126093   5.099   2.169   6.127
 8398SOL    HW226094   5.006   2.299   6.160
 8399SOL     OW26095   0.217   4.434   1.290
 8399SOL    HW126096   0.142   4.421   1.354
 8399SOL    HW226097   0.208   4.369   1.215
 8400SOL     OW26098   1.606   1.286   4.773
 8400SOL    HW126099   1.603   1.384   4.789
 8400SOL    HW226100   1.681   1.266   4.709
 8401SOL     OW26101   2.431   6.885   5.727
 8401SOL    HW126102   2.349   6.895   5.783
 8401SOL    HW226103   2.482   6.971   5.727
 8402SOL     OW26104   3.306   0.722   6.223
 8402SOL    HW126105   3.349   0.703   6.312
 8402SOL    HW226106   3.315   0.820   6.203
 8403SOL     OW26107   5.942   4.534   4.611
 8403SOL    HW126108   5.943   4.441   4.646
 8403SOL    HW226109   5.973   4.534   4.515
 8404SOL     OW26110   0.708   1.838   6.361
 8404SOL    HW126111   0.732   1.787   6.278
 8404SOL    HW226112   0.788   1.846   6.420
 8405SOL     OW26113   4.352   0.344   5.803
 8405SOL    HW126114   4.436   0.342   5.748
 8405SOL    HW226115   4.289   0.274   5.770
 8406SOL     OW26116   5.378   0.255   6.332
 8406SOL    HW126117   5.307   0.300   6.280
 8406SOL    HW226118   5.424   0.321   6.391
 8407SOL     OW26119   3.910   6.977   4.329
 8407SOL    HW126120   3.837   6.996   4.395
 8407SOL    HW226121   3.930   0.043   4.277
 8408SOL     OW26122   4.043   1.466   1.406
 8408SOL    HW126123   4.033   1.515   1.493
 8408SOL    HW226124   4.046   1.367   1.424
 8409SOL     OW26125   4.599   2.502   2.108
 8409SOL    HW126126   4.525   2.443   2.140
 8409SOL    HW226127   4.561   2.583   2.064
 8410SOL     OW26128   6.701   1.850   1.721
 8410SOL    HW126129   6.797   1.860   1.745
 8410SOL    HW226130   6.650   1.818   1.801
 8411SOL     OW26131   1.097   6.289   0.797
 8411SOL    HW126132   1.047   6.333   0.871
 8411SOL    HW226133   1.160   6.355   0.755
 8412SOL     OW26134   2.692   1.810   6.612
 8412SOL    HW126135   2.698   1.906   6.589
 8412SOL    HW226136   2.604   1.773   6.583
 8413SOL     OW26137   4.138   5.539   4.552
 8413SOL    HW126138   4.044   5.570   4.540
 8413SOL    HW226139   4.198   5.618   4.562
 8414SOL     OW26140   1.356   0.539   1.043
 8414SOL    HW126141   1.397   0.628   1.026
 8414SOL    HW226142   1.325   0.534   1.137
 8415SOL     OW26143   2.787   1.393   5.684
 8415SOL    HW126144   2.870   1.361   5.729
 8415SOL    HW226145   2.721   1.422   5.752
 8416SOL     OW26146   6.640   2.080   5.642
 8416SOL    HW126147   6.720   2.059   5.697
 8416SOL    HW226148   6.638   2.019   5.562
 8417SOL     OW26149   1.687   3.244   5.909
 8417SOL    HW126150   1.774   3.202   5.882
 8417SOL    HW226151   1.691   3.342   5.893
 8418SOL     OW26152   0.748   5.910   2.293
 8418SOL    HW126153   0.700   5.944   2.212
 8418SOL    HW226154   0.760   5.811   2.285
 8419SOL     OW26155   4.426   2.016   4.132
 8419SOL    HW126156   4.380   1.987   4.049
 8419SOL    HW226157   4.499   1.950   4.154
 8420SOL     OW26158   3.190   0.776   2.271
 8420SOL    HW126159   3.123   0.730   2.213
 8420SOL    HW226160   3.145   0.848   2.324
 8421SOL     OW26161   4.728   6.826   6.597
 8421SOL    HW126162   4.722   6.887   6.676
 8421SOL    HW226163   4.783   6.746   6.621
 8422SOL     OW26164   5.373   2.480   3.589
 8422SOL    HW126165   5.314   2.496   3.669
 8422SOL    HW226166   5.372   2.561   3.530
 8423SOL     OW26167   6.861   5.126   6.948
 8423SOL    HW126168   6.838   5.190   0.005
 8423SOL    HW226169   6.901   5.043   6.988
 8424SOL     OW26170   3.497   0.366   4.788
 8424SOL    HW126171   3.547   0.432   4.731
 8424SOL    HW226172   3.550   0.345   4.870
 8425SOL     OW26173   3.318   4.005   1.882
 8425SOL    HW126174   3.261   3.923   1.887
 8425SOL    HW226175   3.356   4.024   1.973
 8426SOL     OW26176   3.980   2.872   1.728
 8426SOL    HW126177   3.924   2.867   1.811
 8426SOL    HW226178   4.064   2.924   1.747
 8427SOL     OW26179   3.616   3.824   3.712
 8427SOL    HW126180   3.649   3.757   3.645
 8427SOL    HW226181   3.637   3.916   3.680
 8428SOL     OW26182   6.321   0.163   1.825
 8428SOL    HW126183   6.279   0.097   1.762
 8428SOL    HW226184   6.416   0.138   1.841
 8429SOL     OW26185   2.824   5.593   5.531
 8429SOL    HW126186   2.747   5.623   5.474
 8429SOL    HW226187   2.825   5.493   5.534
 8430SOL     OW26188   4.849   7.012   4.793
 8430SOL    HW126189   4.901   0.081   4.796
 8430SOL    HW226190   4.764   0.007   4.845
 8431SOL     OW26191   1.955   3.928   5.892
 8431SOL    HW126192   1.890   3.925   5.816
 8431SOL    HW226193   2.048   3.942   5.856
 8432SOL     OW26194   6.063   5.258   5.804
 8432SOL    HW126195   6.062   5.177   5.864
 8432SOL    HW226196   5.995   5.246   5.732
 8433SOL     OW26197   5.316   2.130   0.993
 8433SOL    HW126198   5.356   2.178   0.915
 8433SOL    HW226199   5.313   2.191   1.072
 8434SOL     OW26200   2.744   5.395   4.877
 8434SOL    HW126201   2.751   5.450   4.960
 8434SOL    HW226202   2.832   5.352   4.858
 8435SOL     OW26203   5.502   1.806   3.103
 8435SOL    HW126204   5.597   1.824   3.128
 8435SOL    HW226205   5.465   1.885   3.054
 8436SOL     OW26206   2.346   5.771   2.243
 8436SOL    HW126207   2.297   5.727   2.168
 8436SOL    HW226208   2.432   5.809   2.209
 8437SOL     OW26209   0.853   5.503   1.850
 8437SOL    HW126210   0.761   5.487   1.884
 8437SOL    HW226211   0.852   5.510   1.751
 8438SOL     OW26212   0.725   3.904   2.497
 8438SOL    HW126213   0.675   3.929   2.414
 8438SOL    HW226214   0.784   3.825   2.477
 8439SOL     OW26215   6.171   4.516   2.530
 8439SOL    HW126216   6.261   4.560   2.534
 8439SOL    HW226217   6.180   4.420   2.554
 8440SOL     OW26218   1.636   2.086   2.662
 8440SOL    HW126219   1.661   2.032   2.581
 8440SOL    HW226220   1.698   2.164   2.670
 8441SOL     OW26221   6.744   1.670   6.038
 8441SOL    HW126222   6.769   1.759   6.076
 8441SOL    HW226223   6.717   1.681   5.942
 8442SOL     OW26224   3.923   2.168   6.273
 8442SOL    HW126225   3.895   2.095   6.336
 8442SOL    HW226226   4.019   2.155   6.248
 8443SOL     OW26227   1.592   4.014   2.694
 8443SOL    HW126228   1.661   3.943   2.704
 8443SOL    HW226229   1.501   3.973   2.694
 8444SOL     OW26230   5.367   5.212   5.232
 8444SOL    HW126231   5.458   5.252   5.224
 8444SOL    HW226232   5.375   5.112   5.236
 8445SOL     OW26233   4.231   6.166   6.632
 8445SOL    HW126234   4.321   6.196   6.600
 8445SOL    HW226235   4.224   6.066   6.622
 8446SOL     OW26236   6.548   5.189   4.890
 8446SOL    HW126237   6.632   5.223   4.847
 8446SOL    HW226238   6.541   5.225   4.983
 8447SOL     OW26239   4.470   1.624   3.458
 8447SOL    HW126240   4.540   1.674   3.408
 8447SOL    HW226241   4.450   1.538   3.411
 8448SOL     OW26242   3.227   6.179   3.410
 8448SOL    HW126243   3.266   6.086   3.413
 8448SOL    HW226244   3.290   6.243   3.455
 8449SOL     OW26245   2.141   2.451   3.463
 8449SOL    HW126246   2.076   2.380   3.434
 8449SOL    HW226247   2.188   2.421   3.546
 8450SOL     OW26248   0.049   1.354   6.761
 8450SOL    HW126249   0.118   1.372   6.691
 8450SOL    HW226250   0.067   1.265   6.803
 8451SOL     OW26251   3.921   2.421   0.741
 8451SOL    HW126252   3.878   2.504   0.778
 8451SOL    HW226253   3.879   2.340   0.782
 8452SOL     OW26254   5.066   1.564   5.975
 8452SOL    HW126255   5.073   1.586   5.878
 8452SOL    HW226256   4.971   1.546   5.999
 8453SOL     OW26257   6.849   6.275   0.366
 8453SOL    HW126258   6.781   6.221   0.316
 8453SOL    HW226259   6.899   6.333   0.302
 8454SOL     OW26260   6.349   4.213   6.553
 8454SOL    HW126261   6.365   4.286   6.486
 8454SOL    HW226262   6.270   4.238   6.609
 8455SOL     OW26263   6.887   1.332   2.450
 8455SOL    HW126264   6.830   1.363   2.373
 8455SOL    HW226265   6.926   1.243   2.429
 8456SOL     OW26266   6.913   0.094   3.138
 8456SOL    HW126267   6.999   0.065   3.180
 8456SOL    HW226268   6.920   0.189   3.109
 8457SOL     OW26269   6.930   6.883   5.233
 8457SOL    HW126270   0.002   6.856   5.271
 8457SOL    HW226271   6.864   6.809   5.246
 8458SOL     OW26272   0.629   7.015   6.299
 8458SOL    HW126273   0.539   7.008   6.343
 8458SOL    HW226274   0.640   0.091   6.262
 8459SOL     OW26275   1.336   6.302   3.604
 8459SOL    HW126276   1.326   6.316   3.702
 8459SOL    HW226277   1.365   6.388   3.561
 8460SOL     OW26278   3.807   3.702   3.533
 8460SOL    HW126279   3.836   3.786   3.579
 8460SOL    HW226280   3.864   3.685   3.453
 8461SOL     OW26281   6.664   3.788   3.574
 8461SOL    HW126282   6.571   3.806   3.606
 8461SOL    HW226283   6.681   3.690   3.574
 8462SOL     OW26284   2.291   2.846   1.765
 8462SOL    HW126285   2.343   2.930   1.750
 8462SOL    HW226286   2.193   2.866   1.765
 8463SOL     OW26287   5.392   0.415   1.780
 8463SOL    HW126288   5.399   0.512   1.759
 8463SOL    HW226289   5.338   0.402   1.863
 8464SOL     OW26290   6.896   2.193   4.963
 8464SOL    HW126291   6.927   2.272   5.015
 8464SOL    HW226292   6.911   2.110   5.015
 8465SOL     OW26293   1.535   2.108   0.097
 8465SOL    HW126294   1.458   2.090   0.036
 8465SOL    HW226295   1.541   2.207   0.115
 8466SOL     OW26296   0.325   6.944   3.977
 8466SOL    HW126297   0.348   0.024   3.985
 8466SOL    HW226298   0.398   6.896   3.927
 8467SOL     OW26299   3.793   5.066   1.276
 8467SOL    HW126300   3.826   5.004   1.205
 8467SOL    HW226301   3.731   5.016   1.337
 8468SOL     OW26302   4.482   2.514   0.457
 8468SOL    HW126303   4.452   2.474   0.544
 8468SOL    HW226304   4.540   2.594   0.476
 8469SOL     OW26305   4.150   2.583   6.620
 8469SOL    HW126306   4.184   2.550   6.708
 8469SOL    HW226307   4.227   2.611   6.563
 8470SOL     OW26308   1.706   3.258   6.911
 8470SOL    HW126309   1.615   3.228   6.941
 8470SOL    HW226310   1.742   3.325   6.977
 8471SOL     OW26311   4.972   1.347   3.875
 8471SOL    HW126312   5.009   1.410   3.808
 8471SOL    HW226313   4.892   1.388   3.920
 8472SOL     OW26314   1.310   0.179   2.896
 8472SOL    HW126315   1.347   0.239   2.824
 8472SOL    HW226316   1.276   0.095   2.856
 8473SOL     OW26317   6.457   5.477   6.623
 8473SOL    HW126318   6.509   5.495   6.706
 8473SOL    HW226319   6.495   5.397   6.576
 8474SOL     OW26320   3.903   5.498   0.216
 8474SOL    HW126321   3.920   5.452   0.129
 8474SOL    HW226322   3.831   5.450   0.266
 8475SOL     OW26323   4.780   1.591   2.795
 8475SOL    HW126324   4.780   1.553   2.703
 8475SOL    HW226325   4.870   1.632   2.814
 8476SOL     OW26326   4.369   0.749   2.555
 8476SOL    HW126327   4.389   0.786   2.464
 8476SOL    HW226328   4.274   0.769   2.579
 8477SOL     OW26329   2.467   0.699   2.294
 8477SOL    HW126330   2.386   0.711   2.237
 8477SOL    HW226331   2.442   0.703   2.390
 8478SOL     OW26332   1.626   0.300   5.468
 8478SOL    HW126333   1.666   0.219   5.427
 8478SOL    HW226334   1.680   0.381   5.441
 8479SOL     OW26335   5.096   1.505   2.066
 8479SOL    HW126336   5.091   1.415   2.110
 8479SOL    HW226337   5.011   1.522   2.015
 8480SOL     OW26338   1.016   1.374   1.271
 8480SOL    HW126339   1.081   1.357   1.197
 8480SOL    HW226340   0.925   1.388   1.233
 8481SOL     OW26341   4.514   0.233   4.821
 8481SOL    HW126342   4.414   0.230   4.820
 8481SOL    HW226343   4.548   0.164   4.885
 8482SOL     OW26344   0.647   0.417   2.142
 8482SOL    HW126345   0.573   0.370   2.096
 8482SOL    HW226346   0.616   0.508   2.171
 8483SOL     OW26347   5.370   6.235   1.748
 8483SOL    HW126348   5.449   6.296   1.756
 8483SOL    HW226349   5.341   6.206   1.840
 8484SOL     OW26350   0.636   4.822   4.286
 8484SOL    HW126351   0.605   4.744   4.341
 8484SOL    HW226352   0.577   4.901   4.304
 8485SOL     OW26353   2.291   3.261   5.805
 8485SOL    HW126354   2.388   3.238   5.803
 8485SOL    HW226355   2.259   3.278   5.712
 8486SOL     OW26356   4.314   0.278   2.966
 8486SOL    HW126357   4.280   0.205   2.907
 8486SOL    HW226358   4.413   0.286   2.955
 8487SOL     OW26359   4.813   0.482   0.894
 8487SOL    HW126360   4.896   0.436   0.925
 8487SOL    HW226361   4.820   0.580   0.914
 8488SOL     OW26362   5.474   3.193   4.885
 8488SOL    HW126363   5.450   3.134   4.962
 8488SOL    HW226364   5.566   3.170   4.852
 8489SOL     OW26365   3.886   5.708   2.659
 8489SOL    HW126366   3.985   5.724   2.653
 8489SOL    HW226367   3.858   5.709   2.754
 8490SOL     OW26368   3.974   5.369   2.378
 8490SOL    HW126369   4.062   5.389   2.334
 8490SOL    HW226370   3.941   5.280   2.347
 8491SOL     OW26371   1.129   1.301   2.214
 8491SOL    HW126372   1.081   1.238   2.152
 8491SOL    HW226373   1.212   1.334   2.170
 8492SOL     OW26374   5.553   3.876   4.581
 8492SOL    HW126375   5.542   3.818   4.662
 8492SOL    HW226376   5.536   3.971   4.606
 8493SOL     OW26377   3.702   2.657   1.122
 8493SOL    HW126378   3.703   2.562   1.091
 8493SOL    HW226379   3.689   2.718   1.044
 8494SOL     OW26380   3.471   5.998   6.866
 8494SOL    HW126381   3.382   6.019   6.826
 8494SOL    HW226382   3.530   6.078   6.861
 8495SOL     OW26383   0.428   2.729   0.288
 8495SOL    HW126384   0.454   2.826   0.283
 8495SOL    HW226385   0.475   2.678   0.217
 8496SOL     OW26386   6.868   2.404   3.351
 8496SOL    HW126387   6.831   2.486   3.308
 8496SOL    HW226388   6.955   2.426   3.397
 8497SOL     OW26389   6.245   4.744   4.010
 8497SOL    HW126390   6.311   4.697   4.069
 8497SOL    HW226391   6.268   4.841   4.005
 8498SOL     OW26392   6.185   1.022   0.955
 8498SOL    HW126393   6.272   0.978   0.975
 8498SOL    HW226394   6.201   1.110   0.911
 8499SOL     OW26395   2.219   4.194   6.285
 8499SOL    HW126396   2.240   4.178   6.189
 8499SOL    HW226397   2.123   4.173   6.303
 8500SOL     OW26398   3.217   0.647   5.990
 8500SOL    HW126399   3.154   0.719   5.960
 8500SOL    HW226400   3.271   0.681   6.066
 8501SOL     OW26401   2.639   4.364   6.385
 8501SOL    HW126402   2.664   4.267   6.372
 8501SOL    HW226403   2.540   4.371   6.396
 8502SOL     OW26404   0.306   6.809   1.952
 8502SOL    HW126405   0.371   6.799   1.877
 8502SOL    HW226406   0.301   6.723   2.003
 8503SOL     OW26407   3.070   6.230   3.177
 8503SOL    HW126408   3.125   6.290   3.119
 8503SOL    HW226409   3.124   6.202   3.256
 8504SOL     OW26410   1.517   5.489   3.239
 8504SOL    HW126411   1.449   5.529   3.300
 8504SOL    HW226412   1.536   5.552   3.164
 8505SOL     OW26413   4.726   2.840   3.990
 8505SOL    HW126414   4.676   2.764   4.030
 8505SOL    HW226415   4.739   2.824   3.892
 8506SOL     OW26416   0.761   6.042   0.485
 8506SOL    HW126417   0.772   5.946   0.508
 8506SOL    HW226418   0.819   6.098   0.543
 8507SOL     OW26419   1.792   0.279   4.405
 8507SOL    HW126420   1.697   0.309   4.392
 8507SOL    HW226421   1.838   0.341   4.469
 8508SOL     OW26422   0.918   3.088   6.281
 8508SOL    HW126423   0.932   3.148   6.359
 8508SOL    HW226424   0.824   3.097   6.248
 8509SOL     OW26425   6.120   2.343   4.533
 8509SOL    HW126426   6.193   2.403   4.566
 8509SOL    HW226427   6.043   2.399   4.501
 8510SOL     OW26428   5.128   0.068   2.304
 8510SOL    HW126429   5.082   0.082   2.392
 8510SOL    HW226430   5.115   6.989   2.275
 8511SOL     OW26431   6.529   4.938   1.484
 8511SOL    HW126432   6.512   4.921   1.387
 8511SOL    HW226433   6.598   4.873   1.517
 8512SOL     OW26434   3.848   2.677   0.776
 8512SOL    HW126435   3.872   2.704   0.683
 8512SOL    HW226436   3.815   2.757   0.826
 8513SOL     OW26437   0.590   4.148   1.789
 8513SOL    HW126438   0.562   4.055   1.813
 8513SOL    HW226439   0.635   4.189   1.868
 8514SOL     OW26440   2.535   2.603   5.495
 8514SOL    HW126441   2.586   2.518   5.506
 8514SOL    HW226442   2.587   2.666   5.438
 8515SOL     OW26443   2.267   0.482   0.392
 8515SOL    HW126444   2.304   0.565   0.434
 8515SOL    HW226445   2.336   0.442   0.332
 8516SOL     OW26446   5.317   2.655   3.822
 8516SOL    HW126447   5.354   2.615   3.905
 8516SOL    HW226448   5.245   2.721   3.845
 8517SOL     OW26449   1.933   1.756   6.170
 8517SOL    HW126450   1.978   1.691   6.109
 8517SOL    HW226451   2.001   1.815   6.213
 8518SOL     OW26452   5.354   4.907   6.946
 8518SOL    HW126453   5.426   4.879   6.882
 8518SOL    HW226454   5.378   4.996   6.985
 8519SOL     OW26455   1.053   3.006   1.049
 8519SOL    HW126456   0.966   2.994   1.000
 8519SOL    HW226457   1.110   2.926   1.035
 8520SOL     OW26458   3.820   4.193   5.873
 8520SOL    HW126459   3.738   4.250   5.867
 8520SOL    HW226460   3.823   4.131   5.794
 8521SOL     OW26461   2.081   6.419   5.074
 8521SOL    HW126462   2.114   6.494   5.017
 8521SOL    HW226463   2.035   6.351   5.017
 8522SOL     OW26464   0.639   0.069   0.047
 8522SOL    HW126465   0.724   0.052   0.095
 8522SOL    HW226466   0.591   0.146   0.089
 8523SOL     OW26467   3.667   2.074   0.525
 8523SOL    HW126468   3.664   2.165   0.483
 8523SOL    HW226469   3.700   2.082   0.619
 8524SOL     OW26470   2.312   5.322   5.269
 8524SOL    HW126471   2.302   5.233   5.313
 8524SOL    HW226472   2.409   5.347   5.266
 8525SOL     OW26473   6.046   3.781   1.895
 8525SOL    HW126474   6.049   3.765   1.797
 8525SOL    HW226475   6.036   3.694   1.944
 8526SOL     OW26476   0.338   4.418   0.813
 8526SOL    HW126477   0.388   4.443   0.730
 8526SOL    HW226478   0.241   4.410   0.792
 8527SOL     OW26479   2.826   0.728   5.706
 8527SOL    HW126480   2.735   0.766   5.723
 8527SOL    HW226481   2.851   0.743   5.611
 8528SOL     OW26482   5.068   0.746   0.794
 8528SOL    HW126483   5.125   0.693   0.732
 8528SOL    HW226484   5.107   0.743   0.886
 8529SOL     OW26485   1.337   6.367   6.876
 8529SOL    HW126486   1.363   6.454   6.834
 8529SOL    HW226487   1.350   6.292   6.811
 8530SOL     OW26488   3.845   3.996   3.356
 8530SOL    HW126489   3.898   4.010   3.440
 8530SOL    HW226490   3.860   3.903   3.322
 8531SOL     OW26491   6.681   5.007   4.406
 8531SOL    HW126492   6.657   4.965   4.494
 8531SOL    HW226493   6.732   4.940   4.351
 8532SOL     OW26494   2.707   4.790   6.638
 8532SOL    HW126495   2.716   4.756   6.544
 8532SOL    HW226496   2.611   4.789   6.665
 8533SOL     OW26497   2.772   6.650   4.780
 8533SOL    HW126498   2.755   6.626   4.876
 8533SOL    HW226499   2.685   6.656   4.731
 8534SOL     OW26500   2.076   2.590   3.205
 8534SOL    HW126501   2.103   2.543   3.290
 8534SOL    HW226502   2.108   2.684   3.208
 8535SOL     OW26503   6.633   0.508   2.591
 8535SOL    HW126504   6.578   0.487   2.671
 8535SOL    HW226505   6.723   0.539   2.619
 8536SOL     OW26506   0.630   1.644   4.701
 8536SOL    HW126507   0.634   1.728   4.756
 8536SOL    HW226508   0.721   1.603   4.697
 8537SOL     OW26509   6.335   1.514   2.791
 8537SOL    HW126510   6.249   1.463   2.784
 8537SOL    HW226511   6.347   1.547   2.885
 8538SOL     OW26512   1.032   2.599   0.250
 8538SOL    HW126513   0.999   2.530   0.313
 8538SOL    HW226514   0.955   2.639   0.201
 8539SOL     OW26515   5.327   2.874   2.548
 8539SOL    HW126516   5.289   2.837   2.633
 8539SOL    HW226517   5.330   2.974   2.554
 8540SOL     OW26518   3.608   0.550   0.956
 8540SOL    HW126519   3.561   0.465   0.930
 8540SOL    HW226520   3.555   0.596   1.026
 8541SOL     OW26521   2.149   2.671   4.284
 8541SOL    HW126522   2.073   2.710   4.336
 8541SOL    HW226523   2.201   2.609   4.342
 8542SOL     OW26524   3.191   4.823   0.527
 8542SOL    HW126525   3.147   4.912   0.528
 8542SOL    HW226526   3.159   4.771   0.447
 8543SOL     OW26527   2.690   1.862   6.278
 8543SOL    HW126528   2.717   1.827   6.368
 8543SOL    HW226529   2.591   1.881   6.278
 8544SOL     OW26530   6.046   2.654   3.497
 8544SOL    HW126531   6.100   2.714   3.556
 8544SOL    HW226532   5.950   2.658   3.526
 8545SOL     OW26533   4.341   6.539   5.067
 8545SOL    HW126534   4.428   6.515   5.025
 8545SOL    HW226535   4.277   6.571   4.997
 8546SOL     OW26536   4.788   2.195   6.767
 8546SOL    HW126537   4.745   2.196   6.677
 8546SOL    HW226538   4.717   2.182   6.837
 8547SOL     OW26539   1.136   4.874   2.502
 8547SOL    HW126540   1.236   4.879   2.494
 8547SOL    HW226541   1.096   4.866   2.411
 8548SOL     OW26542   6.237   1.515   5.543
 8548SOL    HW126543   6.193   1.510   5.453
 8548SOL    HW226544   6.222   1.429   5.593
 8549SOL     OW26545   5.307   3.170   5.442
 8549SOL    HW126546   5.345   3.256   5.478
 8549SOL    HW226547   5.226   3.190   5.388
 8550SOL     OW26548   1.102   4.364   6.486
 8550SOL    HW126549   1.162   4.422   6.431
 8550SOL    HW226550   1.082   4.280   6.435
 8551SOL     OW26551   2.641   4.136   1.311
 8551SOL    HW126552   2.568   4.125   1.379
 8551SOL    HW226553   2.724   4.168   1.356
 8552SOL     OW26554   3.305   6.964   4.245
 8552SOL    HW126555   3.220   7.012   4.222
 8552SOL    HW226556   3.285   6.869   4.267
 8553SOL     OW26557   6.338   4.784   6.901
 8553SOL    HW126558   6.408   4.714   6.914
 8553SOL    HW226559   6.365   4.868   6.947
 8554SOL     OW26560   5.768   4.004   6.851
 8554SOL    HW126561   5.803   4.044   6.767
 8554SOL    HW226562   5.758   3.905   6.840
 8555SOL     OW26563   1.545   6.605   4.151
 8555SOL    HW126564   1.587   6.609   4.061
 8555SOL    HW226565   1.534   6.510   4.179
 8556SOL     OW26566   6.101   0.081   3.996
 8556SOL    HW126567   6.036   0.155   3.984
 8556SOL    HW226568   6.066   0.016   4.063
 8557SOL     OW26569   6.868   1.055   0.269
 8557SOL    HW126570   6.844   1.151   0.255
 8557SOL    HW226571   6.836   1.026   0.359
 8558SOL     OW26572   0.778   5.654   2.193
 8558SOL    HW126573   0.850   5.682   2.130
 8558SOL    HW226574   0.780   5.555   2.204
 8559SOL     OW26575   0.429   1.360   5.440
 8559SOL    HW126576   0.374   1.442   5.453
 8559SOL    HW226577   0.496   1.352   5.515
 8560SOL     OW26578   6.609   2.365   6.366
 8560SOL    HW126579   6.655   2.332   6.283
 8560SOL    HW226580   6.669   2.427   6.415
 8561SOL     OW26581   5.067   5.995   5.664
 8561SOL    HW126582   4.990   5.947   5.705
 8561SOL    HW226583   5.059   5.992   5.564
 8562SOL     OW26584   3.687   7.006   4.545
 8562SOL    HW126585   3.684   6.920   4.596
 8562SOL    HW226586   3.595   0.013   4.514
 8563SOL     OW26587   3.194   2.899   6.722
 8563SOL    HW126588   3.246   2.958   6.660
 8563SOL    HW226589   3.233   2.807   6.721
 8564SOL     OW26590   0.050   6.522   3.672
 8564SOL    HW126591   0.055   6.611   3.717
 8564SOL    HW226592   6.975   6.509   3.633
 8565SOL     OW26593   3.559   0.491   1.861
 8565SOL    HW126594   3.536   0.435   1.941
 8565SOL    HW226595   3.500   0.465   1.785
 8566SOL     OW26596   1.895   3.691   3.486
 8566SOL    HW126597   1.978   3.740   3.460
 8566SOL    HW226598   1.900   3.666   3.582
 8567SOL     OW26599   5.095   6.038   0.429
 8567SOL    HW126600   5.052   5.968   0.372
 8567SOL    HW226601   5.059   6.128   0.405
 8568SOL     OW26602   5.551   1.011   0.184
 8568SOL    HW126603   5.529   1.108   0.192
 8568SOL    HW226604   5.604   0.982   0.263
 8569SOL     OW26605   4.222   1.335   5.516
 8569SOL    HW126606   4.176   1.299   5.435
 8569SOL    HW226607   4.230   1.434   5.509
 8570SOL     OW26608   0.316   3.858   6.365
 8570SOL    HW126609   0.321   3.872   6.464
 8570SOL    HW226610   0.233   3.807   6.343
 8571SOL     OW26611   0.074   4.422   4.818
 8571SOL    HW126612   0.040   4.479   4.893
 8571SOL    HW226613   0.070   4.473   4.732
 8572SOL     OW26614   3.207   5.219   5.734
 8572SOL    HW126615   3.202   5.143   5.669
 8572SOL    HW226616   3.246   5.300   5.688
 8573SOL     OW26617   4.347   6.138   4.308
 8573SOL    HW126618   4.341   6.044   4.277
 8573SOL    HW226619   4.255   6.175   4.323
 8574SOL     OW26620   0.273   3.486   4.377
 8574SOL    HW126621   0.231   3.558   4.322
 8574SOL    HW226622   0.212   3.463   4.453
 8575SOL     OW26623   3.037   3.389   6.396
 8575SOL    HW126624   3.075   3.481   6.388
 8575SOL    HW226625   2.984   3.367   6.314
 8576SOL     OW26626   1.997   0.369   0.895
 8576SOL    HW126627   2.022   0.317   0.977
 8576SOL    HW226628   1.996   0.466   0.917
 8577SOL     OW26629   6.692   5.373   4.169
 8577SOL    HW126630   6.676   5.394   4.073
 8577SOL    HW226631   6.770   5.426   4.202
 8578SOL     OW26632   4.843   0.079   3.246
 8578SOL    HW126633   4.860   7.009   3.197
 8578SOL    HW226634   4.764   0.125   3.206
 8579SOL     OW26635   0.466   4.803   2.734
 8579SOL    HW126636   0.424   4.879   2.685
 8579SOL    HW226637   0.408   4.776   2.810
 8580SOL     OW26638   2.942   5.050   5.947
 8580SOL    HW126639   3.012   5.024   6.012
 8580SOL    HW226640   2.947   5.148   5.930
 8581SOL     OW26641   3.715   3.037   0.167
 8581SOL    HW126642   3.688   3.069   0.259
 8581SOL    HW226643   3.808   3.002   0.170
 8582SOL     OW26644   4.470   4.759   1.035
 8582SOL    HW126645   4.564   4.757   1.070
 8582SOL    HW226646   4.471   4.780   0.938
 8583SOL     OW26647   5.363   6.887   5.261
 8583SOL    HW126648   5.331   6.979   5.239
 8583SOL    HW226649   5.329   6.861   5.352
 8584SOL     OW26650   0.639   5.660   6.618
 8584SOL    HW126651   0.544   5.646   6.647
 8584SOL    HW226652   0.659   5.601   6.540
 8585SOL     OW26653   0.756   1.455   1.155
 8585SOL    HW126654   0.697   1.386   1.197
 8585SOL    HW226655   0.771   1.530   1.219
 8586SOL     OW26656   3.948   5.454   4.315
 8586SOL    HW126657   4.033   5.506   4.321
 8586SOL    HW226658   3.872   5.510   4.351
 8587SOL     OW26659   6.588   2.191   1.665
 8587SOL    HW126660   6.605   2.217   1.760
 8587SOL    HW226661   6.674   2.185   1.615
 8588SOL     OW26662   3.597   2.087   0.166
 8588SOL    HW126663   3.571   2.126   0.078
 8588SOL    HW226664   3.656   2.008   0.152
 8589SOL     OW26665   3.063   1.561   4.836
 8589SOL    HW126666   3.107   1.479   4.799
 8589SOL    HW226667   3.003   1.535   4.912
 8590SOL     OW26668   6.179   5.530   5.340
 8590SOL    HW126669   6.200   5.447   5.287
 8590SOL    HW226670   6.089   5.564   5.315
 8591SOL     OW26671   1.194   2.780   0.382
 8591SOL    HW126672   1.182   2.867   0.335
 8591SOL    HW226673   1.129   2.713   0.347
 8592SOL     OW26674   6.758   6.045   6.217
 8592SOL    HW126675   6.719   5.979   6.282
 8592SOL    HW226676   6.694   6.121   6.204
 8593SOL     OW26677   0.217   6.265   3.538
 8593SOL    HW126678   0.132   6.315   3.524
 8593SOL    HW226679   0.295   6.326   3.525
 8594SOL     OW26680   3.023   3.841   3.609
 8594SOL    HW126681   3.118   3.810   3.605
 8594SOL    HW226682   3.010   3.917   3.545
 8595SOL     OW26683   1.854   2.661   1.486
 8595SOL    HW126684   1.795   2.585   1.458
 8595SOL    HW226685   1.902   2.636   1.570
 8596SOL     OW26686   6.809   4.220   2.198
 8596SOL    HW126687   6.779   4.154   2.266
 8596SOL    HW226688   6.730   4.266   2.158
 8597SOL     OW26689   2.558   1.895   6.885
 8597SOL    HW126690   2.470   1.928   6.850
 8597SOL    HW226691   2.606   1.846   6.813
 8598SOL     OW26692   5.172   3.764   1.578
 8598SOL    HW126693   5.240   3.693   1.564
 8598SOL    HW226694   5.135   3.757   1.670
 8599SOL     OW26695   0.631   2.986   1.170
 8599SOL    HW126696   0.567   3.045   1.120
 8599SOL    HW226697   0.690   3.043   1.228
 8600SOL     OW26698   6.029   2.867   6.233
 8600SOL    HW126699   5.930   2.882   6.233
 8600SOL    HW226700   6.073   2.936   6.175
 8601SOL     OW26701   0.197   0.228   5.243
 8601SOL    HW126702   0.236   0.286   5.315
 8601SOL    HW226703   0.102   0.255   5.226
 8602SOL     OW26704   2.056   6.212   1.880
 8602SOL    HW126705   1.963   6.220   1.842
 8602SOL    HW226706   2.059   6.259   1.968
 8603SOL     OW26707   4.618   3.862   1.634
 8603SOL    HW126708   4.677   3.842   1.713
 8603SOL    HW226709   4.573   3.950   1.647
 8604SOL     OW26710   5.723   2.055   2.660
 8604SOL    HW126711   5.734   2.019   2.567
 8604SOL    HW226712   5.757   2.149   2.664
 8605SOL     OW26713   2.801   5.895   1.950
 8605SOL    HW126714   2.766   5.972   1.897
 8605SOL    HW226715   2.894   5.875   1.920
 8606SOL     OW26716   4.005   5.548   5.585
 8606SOL    HW126717   4.037   5.503   5.502
 8606SOL    HW226718   3.934   5.492   5.629
 8607SOL     OW26719   3.105   5.910   1.597
 8607SOL    HW126720   3.128   5.987   1.657
 8607SOL    HW226721   3.169   5.906   1.521
 8608SOL     OW26722   5.939   6.247   2.076
 8608SOL    HW126723   5.990   6.174   2.122
 8608SOL    HW226724   5.891   6.209   1.997
 8609SOL     OW26725   4.341   0.850   6.501
 8609SOL    HW126726   4.264   0.914   6.510
 8609SOL    HW226727   4.335   0.805   6.412
 8610SOL     OW26728   0.179   6.579   5.183
 8610SOL    HW126729   0.102   6.517   5.197
 8610SOL    HW226730   0.259   6.527   5.154
 8611SOL     OW26731   1.687   2.154   3.491
 8611SOL    HW126732   1.608   2.115   3.443
 8611SOL    HW226733   1.658   2.188   3.580
 8612SOL     OW26734   4.875   3.178   4.612
 8612SOL    HW126735   4.881   3.239   4.691
 8612SOL    HW226736   4.831   3.092   4.639
 8613SOL     OW26737   1.259   1.362   6.862
 8613SOL    HW126738   1.200   1.423   6.809
 8613SOL    HW226739   1.341   1.411   6.891
 8614SOL     OW26740   1.285   1.105   3.660
 8614SOL    HW126741   1.191   1.077   3.644
 8614SOL    HW226742   1.330   1.125   3.572
 8615SOL     OW26743   4.421   2.378   5.180
 8615SOL    HW126744   4.322   2.381   5.161
 8615SOL    HW226745   4.464   2.459   5.141
 8616SOL     OW26746   1.380   3.190   0.384
 8616SOL    HW126747   1.465   3.137   0.381
 8616SOL    HW226748   1.340   3.183   0.475
 8617SOL     OW26749   6.331   2.981   0.896
 8617SOL    HW126750   6.332   3.081   0.897
 8617SOL    HW226751   6.255   2.949   0.839
 8618SOL     OW26752   4.491   0.845   3.048
 8618SOL    HW126753   4.539   0.866   3.133
 8618SOL    HW226754   4.485   0.746   3.036
 8619SOL     OW26755   4.182   6.079   0.733
 8619SOL    HW126756   4.214   6.103   0.642
 8619SOL    HW226757   4.261   6.051   0.789
 8620SOL     OW26758   6.622   6.241   3.317
 8620SOL    HW126759   6.553   6.272   3.251
 8620SOL    HW226760   6.669   6.160   3.281
 8621SOL     OW26761   5.619   0.701   3.258
 8621SOL    HW126762   5.531   0.682   3.301
 8621SOL    HW226763   5.606   0.740   3.168
 8622SOL     OW26764   5.470   5.456   6.653
 8622SOL    HW126765   5.516   5.488   6.736
 8622SOL    HW226766   5.445   5.535   6.596
 8623SOL     OW26767   6.320   2.468   3.033
 8623SOL    HW126768   6.416   2.447   3.014
 8623SOL    HW226769   6.290   2.542   2.974
 8624SOL     OW26770   7.011   4.059   4.304
 8624SOL    HW126771   7.009   4.104   4.215
 8624SOL    HW226772   0.050   4.113   4.368
 8625SOL     OW26773   3.896   0.827   6.259
 8625SOL    HW126774   3.799   0.823   6.236
 8625SOL    HW226775   3.926   0.739   6.296
 8626SOL     OW26776   3.361   3.561   2.683
 8626SOL    HW126777   3.382   3.474   2.639
 8626SOL    HW226778   3.350   3.546   2.782
 8627SOL     OW26779   2.442   6.947   6.363
 8627SOL    HW126780   2.489   0.012   6.396
 8627SOL    HW226781   2.349   6.946   6.399
 8628SOL     OW26782   6.141   0.864   0.328
 8628SOL    HW126783   6.165   0.943   0.272
 8628SOL    HW226784   6.169   0.780   0.282
 8629SOL     OW26785   1.338   5.166   3.603
 8629SOL    HW126786   1.303   5.073   3.613
 8629SOL    HW226787   1.298   5.209   3.521
 8630SOL     OW26788   5.758   4.805   4.178
 8630SOL    HW126789   5.748   4.886   4.120
 8630SOL    HW226790   5.853   4.798   4.209
 8631SOL     OW26791   4.702   5.932   3.640
 8631SOL    HW126792   4.610   5.903   3.615
 8631SOL    HW226793   4.762   5.852   3.647
 8632SOL     OW26794   3.932   0.890   3.565
 8632SOL    HW126795   3.998   0.963   3.582
 8632SOL    HW226796   3.893   0.901   3.473
 8633SOL     OW26797   6.196   6.965   3.309
 8633SOL    HW126798   6.281   6.949   3.360
 8633SOL    HW226799   6.133   0.003   3.366
 8634SOL     OW26800   6.473   5.515   1.399
 8634SOL    HW126801   6.438   5.505   1.306
 8634SOL    HW226802   6.397   5.517   1.463
 8635SOL     OW26803   6.225   3.487   6.021
 8635SOL    HW126804   6.162   3.463   6.095
 8635SOL    HW226805   6.180   3.475   5.933
 8636SOL     OW26806   5.283   5.775   0.210
 8636SOL    HW126807   5.352   5.733   0.269
 8636SOL    HW226808   5.315   5.865   0.180
 8637SOL     OW26809   2.013   0.427   1.387
 8637SOL    HW126810   2.081   0.436   1.315
 8637SOL    HW226811   2.021   0.504   1.451
 8638SOL     OW26812   4.710   5.415   0.544
 8638SOL    HW126813   4.803   5.436   0.573
 8638SOL    HW226814   4.646   5.478   0.587
 8639SOL     OW26815   6.328   2.694   1.766
 8639SOL    HW126816   6.300   2.611   1.814
 8639SOL    HW226817   6.426   2.708   1.779
 8640SOL     OW26818   4.934   6.092   1.318
 8640SOL    HW126819   4.858   6.158   1.312
 8640SOL    HW226820   4.951   6.053   1.228
 8641SOL     OW26821   5.241   5.011   3.325
 8641SOL    HW126822   5.296   5.009   3.408
 8641SOL    HW226823   5.256   4.926   3.274
 8642SOL     OW26824   4.479   1.824   1.459
 8642SOL    HW126825   4.415   1.888   1.502
 8642SOL    HW226826   4.540   1.785   1.529
 8643SOL     OW26827   3.959   0.554   6.748
 8643SOL    HW126828   3.889   0.605   6.698
 8643SOL    HW226829   4.035   0.615   6.771
 8644SOL     OW26830   6.472   3.474   5.454
 8644SOL    HW126831   6.497   3.511   5.543
 8644SOL    HW226832   6.393   3.523   5.418
 8645SOL     OW26833   5.862   4.198   1.698
 8645SOL    HW126834   5.873   4.143   1.781
 8645SOL    HW226835   5.776   4.249   1.702
 8646SOL     OW26836   5.322   6.937   1.062
 8646SOL    HW126837   5.355   6.845   1.044
 8646SOL    HW226838   5.381   7.003   1.015
 8647SOL     OW26839   4.466   5.158   1.672
 8647SOL    HW126840   4.497   5.251   1.652
 8647SOL    HW226841   4.406   5.126   1.598
 8648SOL     OW26842   5.882   1.470   4.819
 8648SOL    HW126843   5.881   1.468   4.719
 8648SOL    HW226844   5.844   1.384   4.854
 8649SOL     OW26845   0.280   4.506   5.716
 8649SOL    HW126846   0.306   4.602   5.703
 8649SOL    HW226847   0.192   4.502   5.764
 8650SOL     OW26848   0.560   4.576   1.593
 8650SOL    HW126849   0.497   4.613   1.525
 8650SOL    HW226850   0.570   4.478   1.580
 8651SOL     OW26851   3.688   2.998   1.246
 8651SOL    HW126852   3.593   2.984   1.274
 8651SOL    HW226853   3.742   2.917   1.268
 8652SOL     OW26854   1.101   2.894   3.605
 8652SOL    HW126855   1.056   2.963   3.661
 8652SOL    HW226856   1.161   2.839   3.664
 8653SOL     OW26857   5.862   3.245   6.788
 8653SOL    HW126858   5.955   3.258   6.753
 8653SOL    HW226859   5.796   3.271   6.717
 8654SOL     OW26860   0.568   6.020   2.499
 8654SOL    HW126861   0.630   5.990   2.427
 8654SOL    HW226862   0.546   5.943   2.559
 8655SOL     OW26863   6.102   6.365   3.158
 8655SOL    HW126864   6.165   6.421   3.212
 8655SOL    HW226865   6.128   6.268   3.166
 8656SOL     OW26866   6.310   1.832   1.361
 8656SOL    HW126867   6.367   1.837   1.442
 8656SOL    HW226868   6.305   1.922   1.317
 8657SOL     OW26869   3.095   4.148   0.691
 8657SOL    HW126870   3.152   4.226   0.714
 8657SOL    HW226871   3.014   4.147   0.750
 8658SOL     OW26872   0.396   5.327   6.457
 8658SOL    HW126873   0.480   5.279   6.480
 8658SOL    HW226874   0.319   5.286   6.504
 8659SOL     OW26875   4.286   0.710   3.674
 8659SOL    HW126876   4.315   0.793   3.626
 8659SOL    HW226877   4.197   0.726   3.717
 8660SOL     OW26878   5.434   4.589   0.585
 8660SOL    HW126879   5.459   4.681   0.616
 8660SOL    HW226880   5.508   4.525   0.608
 8661SOL     OW26881   6.400   3.721   1.395
 8661SOL    HW126882   6.351   3.673   1.467
 8661SOL    HW226883   6.387   3.674   1.308
 8662SOL     OW26884   0.256   0.394   0.677
 8662SOL    HW126885   0.345   0.351   0.687
 8662SOL    HW226886   0.212   0.401   0.766
 8663SOL     OW26887   1.982   5.768   0.569
 8663SOL    HW126888   2.047   5.842   0.590
 8663SOL    HW226889   1.889   5.806   0.564
 8664SOL     OW26890   4.542   5.435   1.401
 8664SOL    HW126891   4.569   5.454   1.307
 8664SOL    HW226892   4.450   5.395   1.401
 8665SOL     OW26893   5.094   5.533   4.596
 8665SOL    HW126894   5.089   5.434   4.588
 8665SOL    HW226895   5.186   5.564   4.571
 8666SOL     OW26896   5.878   3.712   4.619
 8666SOL    HW126897   5.850   3.774   4.545
 8666SOL    HW226898   5.893   3.766   4.702
 8667SOL     OW26899   5.295   2.812   3.075
 8667SOL    HW126900   5.344   2.734   3.114
 8667SOL    HW226901   5.350   2.853   3.003
 8668SOL     OW26902   3.287   1.372   4.101
 8668SOL    HW126903   3.317   1.291   4.051
 8668SOL    HW226904   3.189   1.387   4.083
 8669SOL     OW26905   4.331   6.701   5.734
 8669SOL    HW126906   4.341   6.648   5.650
 8669SOL    HW226907   4.267   6.777   5.719
 8670SOL     OW26908   3.973   4.859   3.447
 8670SOL    HW126909   3.929   4.870   3.537
 8670SOL    HW226910   4.039   4.784   3.451
 8671SOL     OW26911   6.083   6.225   2.630
 8671SOL    HW126912   6.117   6.193   2.541
 8671SOL    HW226913   6.009   6.291   2.615
 8672SOL     OW26914   3.513   5.047   5.783
 8672SOL    HW126915   3.442   5.085   5.723
 8672SOL    HW226916   3.515   5.097   5.869
 8673SOL     OW26917   5.575   1.967   0.435
 8673SOL    HW126918   5.509   1.939   0.366
 8673SOL    HW226919   5.662   1.989   0.391
 8674SOL     OW26920   0.669   0.462   2.542
 8674SOL    HW126921   0.663   0.447   2.641
 8674SOL    HW226922   0.715   0.549   2.524
 8675SOL     OW26923   1.976   2.467   2.461
 8675SOL    HW126924   2.065   2.435   2.427
 8675SOL    HW226925   1.924   2.506   2.385
 8676SOL     OW26926   4.367   0.146   4.089
 8676SOL    HW126927   4.452   0.150   4.037
 8676SOL    HW226928   4.297   0.203   4.045
 8677SOL     OW26929   2.258   4.411   5.190
 8677SOL    HW126930   2.237   4.460   5.275
 8677SOL    HW226931   2.333   4.347   5.206
 8678SOL     OW26932   1.556   0.920   6.127
 8678SOL    HW126933   1.646   0.877   6.134
 8678SOL    HW226934   1.485   0.854   6.150
 8679SOL     OW26935   6.754   2.428   4.819
 8679SOL    HW126936   6.806   2.343   4.813
 8679SOL    HW226937   6.801   2.491   4.881
 8680SOL     OW26938   0.764   3.801   0.925
 8680SOL    HW126939   0.748   3.841   0.835
 8680SOL    HW226940   0.836   3.732   0.919
 8681SOL     OW26941   4.123   3.620   1.406
 8681SOL    HW126942   4.189   3.545   1.415
 8681SOL    HW226943   4.144   3.690   1.475
 8682SOL     OW26944   2.212   5.721   2.706
 8682SOL    HW126945   2.213   5.764   2.616
 8682SOL    HW226946   2.119   5.693   2.729
 8683SOL     OW26947   5.860   2.708   6.867
 8683SOL    HW126948   5.796   2.646   6.912
 8683SOL    HW226949   5.908   2.762   6.936
 8684SOL     OW26950   6.352   2.975   4.501
 8684SOL    HW126951   6.353   2.900   4.435
 8684SOL    HW226952   6.442   2.982   4.546
 8685SOL     OW26953   0.123   1.797   5.416
 8685SOL    HW126954   0.065   1.746   5.352
 8685SOL    HW226955   0.153   1.883   5.373
 8686SOL     OW26956   6.607   1.779   3.913
 8686SOL    HW126957   6.658   1.709   3.963
 8686SOL    HW226958   6.571   1.740   3.828
 8687SOL     OW26959   3.855   0.796   2.891
 8687SOL    HW126960   3.911   0.746   2.957
 8687SOL    HW226961   3.780   0.738   2.859
 8688SOL     OW26962   1.204   0.340   1.979
 8688SOL    HW126963   1.215   0.241   1.969
 8688SOL    HW226964   1.190   0.362   2.075
 8689SOL     OW26965   4.349   5.679   0.544
 8689SOL    HW126966   4.352   5.771   0.503
 8689SOL    HW226967   4.364   5.611   0.472
 8690SOL     OW26968   1.446   0.597   2.671
 8690SOL    HW126969   1.512   0.652   2.621
 8690SOL    HW226970   1.423   0.642   2.757
 8691SOL     OW26971   6.181   1.512   0.550
 8691SOL    HW126972   6.096   1.549   0.587
 8691SOL    HW226973   6.218   1.443   0.613
 8692SOL     OW26974   1.810   1.407   4.048
 8692SOL    HW126975   1.862   1.390   4.132
 8692SOL    HW226976   1.749   1.485   4.062
 8693SOL     OW26977   5.595   2.078   0.011
 8693SOL    HW126978   5.659   2.093   0.086
 8693SOL    HW226979   5.512   2.034   0.046
 8694SOL     OW26980   3.504   6.636   6.765
 8694SOL    HW126981   3.547   6.646   6.675
 8694SOL    HW226982   3.406   6.621   6.754
 8695SOL     OW26983   4.436   4.239   5.255
 8695SOL    HW126984   4.383   4.308   5.206
 8695SOL    HW226985   4.526   4.229   5.213
 8696SOL     OW26986   1.762   5.014   0.941
 8696SOL    HW126987   1.816   5.062   1.011
 8696SOL    HW226988   1.791   5.044   0.851
 8697SOL     OW26989   5.331   4.538   6.625
 8697SOL    HW126990   5.300   4.457   6.674
 8697SOL    HW226991   5.294   4.620   6.670
 8698SOL     OW26992   5.824   6.339   4.199
 8698SOL    HW126993   5.809   6.351   4.297
 8698SOL    HW226994   5.896   6.401   4.169
 8699SOL     OW26995   1.490   1.212   5.531
 8699SOL    HW126996   1.506   1.150   5.608
 8699SOL    HW226997   1.481   1.159   5.447
 8700SOL     OW26998   2.188   1.809   5.893
 8700SOL    HW126999   2.137   1.851   5.819
 8700SOL    HW227000   2.156   1.716   5.908
 8701SOL     OW27001   1.257   2.202   3.973
 8701SOL    HW127002   1.340   2.153   4.003
 8701SOL    HW227003   1.254   2.292   4.016
 8702SOL     OW27004   5.147   5.671   0.012
 8702SOL    HW127005   5.174   5.704   0.103
 8702SOL    HW227006   5.067   5.723   6.997
 8703SOL     OW27007   1.325   5.571   1.304
 8703SOL    HW127008   1.239   5.590   1.351
 8703SOL    HW227009   1.329   5.625   1.220
 8704SOL     OW27010   0.529   3.867   1.797
 8704SOL    HW127011   0.472   3.848   1.717
 8704SOL    HW227012   0.473   3.861   1.880
 8705SOL     OW27013   5.234   6.545   4.654
 8705SOL    HW127014   5.244   6.493   4.739
 8705SOL    HW227015   5.323   6.583   4.628
 8706SOL     OW27016   5.083   1.992   5.759
 8706SOL    HW127017   5.158   1.930   5.738
 8706SOL    HW227018   5.012   1.944   5.810
 8707SOL     OW27019   4.732   2.246   5.708
 8707SOL    HW127020   4.686   2.331   5.681
 8707SOL    HW227021   4.801   2.266   5.777
 8708SOL     OW27022   3.859   1.716   0.860
 8708SOL    HW127023   3.903   1.626   0.853
 8708SOL    HW227024   3.774   1.708   0.912
 8709SOL     OW27025   6.302   3.571   1.165
 8709SOL    HW127026   6.288   3.545   1.070
 8709SOL    HW227027   6.363   3.506   1.210
 8710SOL     OW27028   6.981   2.946   3.524
 8710SOL    HW127029   0.055   2.975   3.556
 8710SOL    HW227030   6.949   3.007   3.452
 8711SOL     OW27031   0.709   1.647   4.069
 8711SOL    HW127032   0.611   1.644   4.088
 8711SOL    HW227033   0.756   1.696   4.142
 8712SOL     OW27034   3.593   1.469   6.155
 8712SOL    HW127035   3.509   1.418   6.135
 8712SOL    HW227036   3.672   1.410   6.141
 8713SOL     OW27037   5.919   4.879   2.637
 8713SOL    HW127038   5.835   4.864   2.690
 8713SOL    HW227039   5.991   4.819   2.671
 8714SOL     OW27040   1.840   1.247   4.634
 8714SOL    HW127041   1.916   1.297   4.677
 8714SOL    HW227042   1.844   1.259   4.535
 8715SOL     OW27043   6.098   1.323   2.062
 8715SOL    HW127044   6.188   1.366   2.074
 8715SOL    HW227045   6.079   1.314   1.964
 8716SOL     OW27046   1.041   1.560   2.021
 8716SOL    HW127047   1.128   1.604   2.044
 8716SOL    HW227048   1.047   1.462   2.039
 8717SOL     OW27049   3.934   3.158   0.632
 8717SOL    HW127050   4.006   3.168   0.563
 8717SOL    HW227051   3.911   3.248   0.669
 8718SOL     OW27052   0.123   3.203   6.032
 8718SOL    HW127053   0.073   3.252   6.103
 8718SOL    HW227054   0.093   3.235   5.942
 8719SOL     OW27055   6.724   0.620   5.874
 8719SOL    HW127056   6.785   0.646   5.948
 8719SOL    HW227057   6.640   0.673   5.880
 8720SOL     OW27058   4.790   3.648   6.026
 8720SOL    HW127059   4.825   3.584   6.094
 8720SOL    HW227060   4.690   3.641   6.021
 8721SOL     OW27061   6.970   1.353   4.627
 8721SOL    HW127062   0.038   1.350   4.573
 8721SOL    HW227063   6.993   1.346   4.724
 8722SOL     OW27064   3.113   3.103   0.835
 8722SOL    HW127065   3.211   3.094   0.854
 8722SOL    HW227066   3.087   3.040   0.762
 8723SOL     OW27067   0.278   5.320   0.004
 8723SOL    HW127068   0.202   5.319   6.956
 8723SOL    HW227069   0.364   5.328   6.970
 8724SOL     OW27070   5.845   5.773   6.696
 8724SOL    HW127071   5.817   5.692   6.646
 8724SOL    HW227072   5.914   5.823   6.644
 8725SOL     OW27073   2.144   6.334   1.087
 8725SOL    HW127074   2.061   6.353   1.035
 8725SOL    HW227075   2.123   6.271   1.163
 8726SOL     OW27076   5.453   0.453   1.367
 8726SOL    HW127077   5.460   0.399   1.451
 8726SOL    HW227078   5.420   0.394   1.292
 8727SOL     OW27079   5.863   5.812   0.860
 8727SOL    HW127080   5.860   5.727   0.808
 8727SOL    HW227081   5.796   5.807   0.934
 8728SOL     OW27082   2.149   6.774   5.513
 8728SOL    HW127083   2.140   6.682   5.552
 8728SOL    HW227084   2.117   6.842   5.579
 8729SOL     OW27085   5.781   6.705   4.223
 8729SOL    HW127086   5.755   6.697   4.127
 8729SOL    HW227087   5.703   6.736   4.277
 8730SOL     OW27088   6.773   6.677   1.127
 8730SOL    HW127089   6.836   6.685   1.205
 8730SOL    HW227090   6.821   6.707   1.044
 8731SOL     OW27091   0.757   1.979   2.492
 8731SOL    HW127092   0.761   2.079   2.488
 8731SOL    HW227093   0.725   1.944   2.404
 8732SOL     OW27094   6.078   5.011   1.774
 8732SOL    HW127095   6.019   4.936   1.742
 8732SOL    HW227096   6.146   5.032   1.704
 8733SOL     OW27097   0.090   6.499   1.574
 8733SOL    HW127098   0.171   6.556   1.582
 8733SOL    HW227099   0.097   6.442   1.492
 8734SOL     OW27100   0.004   5.382   0.296
 8734SOL    HW127101   0.013   5.352   0.391
 8734SOL    HW227102   0.047   5.315   0.236
 8735SOL     OW27103   6.944   2.395   6.667
 8735SOL    HW127104   0.021   2.430   6.658
 8735SOL    HW227105   6.912   2.410   6.761
 8736SOL     OW27106   0.351   4.468   6.514
 8736SOL    HW127107   0.262   4.432   6.543
 8736SOL    HW227108   0.384   4.416   6.436
 8737SOL     OW27109   3.595   6.237   6.816
 8737SOL    HW127110   3.659   6.302   6.776
 8737SOL    HW227111   3.528   6.287   6.872
 8738SOL     OW27112   1.340   3.478   4.972
 8738SOL    HW127113   1.332   3.394   5.025
 8738SOL    HW227114   1.416   3.533   5.007
 8739SOL     OW27115   1.167   2.984   5.334
 8739SOL    HW127116   1.151   3.030   5.246
 8739SOL    HW227117   1.263   2.994   5.359
 8740SOL     OW27118   1.639   6.792   1.309
 8740SOL    HW127119   1.718   6.731   1.317
 8740SOL    HW227120   1.623   6.838   1.396
 8741SOL     OW27121   1.583   3.519   2.004
 8741SOL    HW127122   1.579   3.569   1.917
 8741SOL    HW227123   1.675   3.482   2.016
 8742SOL     OW27124   4.839   6.236   2.233
 8742SOL    HW127125   4.802   6.151   2.196
 8742SOL    HW227126   4.937   6.225   2.250
 8743SOL     OW27127   2.400   4.602   3.430
 8743SOL    HW127128   2.330   4.668   3.404
 8743SOL    HW227129   2.450   4.572   3.349
 8744SOL     OW27130   3.260   3.473   5.637
 8744SOL    HW127131   3.287   3.557   5.591
 8744SOL    HW227132   3.213   3.413   5.573
 8745SOL     OW27133   6.465   1.581   0.013
 8745SOL    HW127134   6.409   1.564   0.094
 8745SOL    HW227135   6.453   1.676   6.999
 8746SOL     OW27136   5.040   4.335   5.460
 8746SOL    HW127137   5.053   4.342   5.361
 8746SOL    HW227138   4.960   4.277   5.479
 8747SOL     OW27139   1.520   2.659   4.030
 8747SOL    HW127140   1.433   2.698   4.000
 8747SOL    HW227141   1.586   2.733   4.046
 8748SOL     OW27142   2.766   0.246   0.032
 8748SOL    HW127143   2.851   0.280   7.008
 8748SOL    HW227144   2.699   0.321   0.037
 8749SOL     OW27145   4.110   1.343   3.899
 8749SOL    HW127146   4.051   1.263   3.915
 8749SOL    HW227147   4.109   1.402   3.980
 8750SOL     OW27148   2.307   0.523   4.984
 8750SOL    HW127149   2.320   0.556   4.890
 8750SOL    HW227150   2.387   0.546   5.038
 8751SOL     OW27151   2.267   0.296   3.027
 8751SOL    HW127152   2.252   0.227   3.098
 8751SOL    HW227153   2.268   0.251   2.938
 8752SOL     OW27154   2.129   2.332   6.259
 8752SOL    HW127155   2.068   2.285   6.195
 8752SOL    HW227156   2.123   2.287   6.348
 8753SOL     OW27157   6.323   1.670   4.932
 8753SOL    HW127158   6.415   1.661   4.896
 8753SOL    HW227159   6.266   1.594   4.902
 8754SOL     OW27160   2.139   0.898   4.858
 8754SOL    HW127161   2.056   0.933   4.814
 8754SOL    HW227162   2.117   0.868   4.950
 8755SOL     OW27163   2.358   2.089   0.850
 8755SOL    HW127164   2.422   2.146   0.799
 8755SOL    HW227165   2.390   1.995   0.853
 8756SOL     OW27166   1.549   3.787   3.697
 8756SOL    HW127167   1.469   3.824   3.651
 8756SOL    HW227168   1.629   3.842   3.674
 8757SOL     OW27169   4.835   6.205   4.303
 8757SOL    HW127170   4.883   6.292   4.311
 8757SOL    HW227171   4.736   6.221   4.303
 8758SOL     OW27172   5.249   6.385   2.084
 8758SOL    HW127173   5.256   6.482   2.062
 8758SOL    HW227174   5.201   6.374   2.171
 8759SOL     OW27175   4.847   1.385   5.447
 8759SOL    HW127176   4.793   1.385   5.531
 8759SOL    HW227177   4.943   1.406   5.468
 8760SOL     OW27178   1.712   2.832   3.756
 8760SOL    HW127179   1.800   2.794   3.730
 8760SOL    HW227180   1.709   2.844   3.856
 8761SOL     OW27181   4.639   6.432   0.718
 8761SOL    HW127182   4.595   6.424   0.629
 8761SOL    HW227183   4.688   6.347   0.739
 8762SOL     OW27184   0.873   3.814   0.411
 8762SOL    HW127185   0.799   3.851   0.356
 8762SOL    HW227186   0.878   3.715   0.398
 8763SOL     OW27187   6.976   6.184   5.859
 8763SOL    HW127188   6.972   6.184   5.959
 8763SOL    HW227189   6.901   6.240   5.823
 8764SOL     OW27190   3.532   2.026   5.168
 8764SOL    HW127191   3.483   2.028   5.080
 8764SOL    HW227192   3.493   1.953   5.225
 8765SOL     OW27193   0.330   0.238   5.006
 8765SOL    HW127194   0.256   0.240   4.939
 8765SOL    HW227195   0.292   0.238   5.098
 8766SOL     OW27196   2.468   4.384   2.693
 8766SOL    HW127197   2.504   4.430   2.775
 8766SOL    HW227198   2.505   4.428   2.611
 8767SOL     OW27199   4.643   1.832   4.917
 8767SOL    HW127200   4.586   1.913   4.931
 8767SOL    HW227201   4.682   1.802   5.004
 8768SOL     OW27202   1.537   4.289   0.065
 8768SOL    HW127203   1.441   4.261   0.069
 8768SOL    HW227204   1.563   4.305   6.986
 8769SOL     OW27205   2.417   0.845   5.303
 8769SOL    HW127206   2.344   0.860   5.236
 8769SOL    HW227207   2.497   0.809   5.256
 8770SOL     OW27208   5.245   1.958   2.735
 8770SOL    HW127209   5.238   1.886   2.665
 8770SOL    HW227210   5.155   1.998   2.751
 8771SOL     OW27211   2.257   2.592   5.382
 8771SOL    HW127212   2.300   2.667   5.433
 8771SOL    HW227213   2.272   2.606   5.284
 8772SOL     OW27214   6.091   5.844   6.577
 8772SOL    HW127215   6.177   5.875   6.539
 8772SOL    HW227216   6.037   5.798   6.506
 8773SOL     OW27217   3.340   2.118   2.917
 8773SOL    HW127218   3.255   2.136   2.966
 8773SOL    HW227219   3.387   2.041   2.959
 8774SOL     OW27220   1.274   1.000   0.425
 8774SOL    HW127221   1.285   1.077   0.489
 8774SOL    HW227222   1.365   0.971   0.394
 8775SOL     OW27223   6.738   6.729   4.088
 8775SOL    HW127224   6.742   6.630   4.088
 8775SOL    HW227225   6.719   6.762   3.995
 8776SOL     OW27226   3.073   3.938   4.723
 8776SOL    HW127227   3.034   3.847   4.707
 8776SOL    HW227228   3.111   3.974   4.638
 8777SOL     OW27229   6.443   5.578   2.185
 8777SOL    HW127230   6.406   5.549   2.097
 8777SOL    HW227231   6.517   5.644   2.170
 8778SOL     OW27232   0.690   2.085   2.959
 8778SOL    HW127233   0.692   2.185   2.958
 8778SOL    HW227234   0.766   2.050   3.013
 8779SOL     OW27235   1.387   4.667   1.226
 8779SOL    HW127236   1.426   4.753   1.260
 8779SOL    HW227237   1.307   4.642   1.280
 8780SOL     OW27238   2.271   6.193   4.517
 8780SOL    HW127239   2.364   6.194   4.553
 8780SOL    HW227240   2.249   6.101   4.484
 8781SOL     OW27241   0.760   2.366   2.955
 8781SOL    HW127242   0.729   2.414   3.037
 8781SOL    HW227243   0.786   2.433   2.885
 8782SOL     OW27244   4.693   1.375   2.936
 8782SOL    HW127245   4.733   1.368   3.027
 8782SOL    HW227246   4.733   1.454   2.888
 8783SOL     OW27247   5.420   2.247   5.620
 8783SOL    HW127248   5.344   2.218   5.561
 8783SOL    HW227249   5.444   2.171   5.681
 8784SOL     OW27250   5.329   3.898   5.942
 8784SOL    HW127251   5.233   3.909   5.968
 8784SOL    HW227252   5.355   3.971   5.878
 8785SOL     OW27253   5.292   4.831   6.258
 8785SOL    HW127254   5.246   4.832   6.347
 8785SOL    HW227255   5.271   4.745   6.211
 8786SOL     OW27256   1.031   6.308   0.395
 8786SOL    HW127257   1.048   6.272   0.487
 8786SOL    HW227258   0.936   6.342   0.390
 8787SOL     OW27259   1.541   2.883   0.048
 8787SOL    HW127260   1.568   2.965   0.100
 8787SOL    HW227261   1.481   2.910   6.989
 8788SOL     OW27262   1.323   1.569   5.180
 8788SOL    HW127263   1.284   1.652   5.140
 8788SOL    HW227264   1.388   1.529   5.116
 8789SOL     OW27265   0.083   0.401   6.618
 8789SOL    HW127266   0.106   0.493   6.647
 8789SOL    HW227267   7.005   0.398   6.586
 8790SOL     OW27268   4.649   1.299   6.974
 8790SOL    HW127269   4.660   1.340   6.884
 8790SOL    HW227270   4.732   1.313   0.012
 8791SOL     OW27271   4.717   5.966   5.487
 8791SOL    HW127272   4.771   5.893   5.445
 8791SOL    HW227273   4.682   6.027   5.416
 8792SOL     OW27274   5.402   6.978   2.897
 8792SOL    HW127275   5.377   6.882   2.911
 8792SOL    HW227276   5.474   6.983   2.828
 8793SOL     OW27277   1.026   4.304   3.786
 8793SOL    HW127278   1.092   4.379   3.780
 8793SOL    HW227279   1.048   4.246   3.864
 8794SOL     OW27280   2.771   6.291   2.490
 8794SOL    HW127281   2.803   6.205   2.450
 8794SOL    HW227282   2.770   6.283   2.590
 8795SOL     OW27283   2.251   5.895   5.232
 8795SOL    HW127284   2.175   5.926   5.291
 8795SOL    HW227285   2.244   5.939   5.143
 8796SOL     OW27286   5.711   2.804   5.475
 8796SOL    HW127287   5.727   2.781   5.570
 8796SOL    HW227288   5.678   2.898   5.469
 8797SOL     OW27289   0.703   6.564   6.434
 8797SOL    HW127290   0.643   6.598   6.507
 8797SOL    HW227291   0.704   6.631   6.360
 8798SOL     OW27292   3.539   3.024   6.210
 8798SOL    HW127293   3.484   2.951   6.249
 8798SOL    HW227294   3.482   3.105   6.194
 8799SOL     OW27295   3.922   6.970   2.931
 8799SOL    HW127296   3.892   6.937   3.020
 8799SOL    HW227297   3.843   7.002   2.879
 8800SOL     OW27298   4.323   5.206   0.491
 8800SOL    HW127299   4.343   5.112   0.462
 8800SOL    HW227300   4.224   5.219   0.495
 8801SOL     OW27301   3.024   6.638   4.916
 8801SOL    HW127302   2.943   6.658   4.861
 8801SOL    HW227303   3.026   6.700   4.994
 8802SOL     OW27304   2.149   6.624   1.841
 8802SOL    HW127305   2.170   6.526   1.838
 8802SOL    HW227306   2.183   6.668   1.758
 8803SOL     OW27307   3.823   6.131   0.764
 8803SOL    HW127308   3.728   6.155   0.784
 8803SOL    HW227309   3.883   6.173   0.832
 8804SOL     OW27310   3.321   0.894   1.105
 8804SOL    HW127311   3.388   0.939   1.047
 8804SOL    HW227312   3.243   0.955   1.119
 8805SOL     OW27313   0.200   0.402   3.176
 8805SOL    HW127314   0.169   0.340   3.247
 8805SOL    HW227315   0.297   0.425   3.191
 8806SOL     OW27316   2.484   4.995   0.496
 8806SOL    HW127317   2.449   5.026   0.408
 8806SOL    HW227318   2.581   5.018   0.504
 8807SOL     OW27319   1.656   6.223   6.305
 8807SOL    HW127320   1.627   6.255   6.215
 8807SOL    HW227321   1.734   6.277   6.336
 8808SOL     OW27322   6.117   1.627   0.945
 8808SOL    HW127323   6.158   1.627   1.036
 8808SOL    HW227324   6.057   1.706   0.935
 8809SOL     OW27325   5.982   4.356   1.104
 8809SOL    HW127326   6.024   4.279   1.153
 8809SOL    HW227327   5.899   4.324   1.057
 8810SOL     OW27328   5.348   1.491   3.720
 8810SOL    HW127329   5.259   1.492   3.673
 8810SOL    HW227330   5.348   1.560   3.793
 8811SOL     OW27331   1.429   1.556   3.924
 8811SOL    HW127332   1.519   1.587   3.955
 8811SOL    HW227333   1.377   1.521   4.001
 8812SOL     OW27334   2.061   0.618   0.250
 8812SOL    HW127335   2.130   0.570   0.304
 8812SOL    HW227336   2.012   0.552   0.193
 8813SOL     OW27337   0.999   5.729   0.872
 8813SOL    HW127338   1.027   5.656   0.810
 8813SOL    HW227339   1.025   5.817   0.833
 8814SOL     OW27340   5.394   6.303   0.372
 8814SOL    HW127341   5.384   6.307   0.273
 8814SOL    HW227342   5.469   6.363   0.401
 8815SOL     OW27343   6.562   5.678   3.224
 8815SOL    HW127344   6.484   5.617   3.243
 8815SOL    HW227345   6.586   5.727   3.308
 8816SOL     OW27346   0.969   6.053   2.399
 8816SOL    HW127347   0.960   6.082   2.494
 8816SOL    HW227348   0.889   6.000   2.372
 8817SOL     OW27349   2.801   4.465   5.402
 8817SOL    HW127350   2.866   4.505   5.336
 8817SOL    HW227351   2.716   4.517   5.399
 8818SOL     OW27352   0.061   4.948   4.692
 8818SOL    HW127353   0.019   4.988   4.773
 8818SOL    HW227354   0.161   4.953   4.700
 8819SOL     OW27355   5.793   0.137   4.103
 8819SOL    HW127356   5.771   0.050   4.059
 8819SOL    HW227357   5.866   0.123   4.170
 8820SOL     OW27358   1.203   3.119   3.907
 8820SOL    HW127359   1.127   3.100   3.844
 8820SOL    HW227360   1.202   3.216   3.931
 8821SOL     OW27361   1.462   6.772   6.342
 8821SOL    HW127362   1.376   6.743   6.382
 8821SOL    HW227363   1.535   6.709   6.370
 8822SOL     OW27364   0.404   1.702   3.987
 8822SOL    HW127365   0.327   1.643   3.965
 8822SOL    HW227366   0.427   1.757   3.906
 8823SOL     OW27367   2.503   4.915   1.965
 8823SOL    HW127368   2.558   4.867   1.898
 8823SOL    HW227369   2.504   4.865   2.052
 8824SOL     OW27370   4.729   3.869   0.926
 8824SOL    HW127371   4.653   3.805   0.915
 8824SOL    HW227372   4.705   3.937   0.995
 8825SOL     OW27373   1.749   2.231   1.083
 8825SOL    HW127374   1.743   2.131   1.073
 8825SOL    HW227375   1.812   2.253   1.157
 8826SOL     OW27376   5.440   0.607   0.224
 8826SOL    HW127377   5.358   0.606   0.281
 8826SOL    HW227378   5.416   0.635   0.131
 8827SOL     OW27379   0.328   1.123   3.506
 8827SOL    HW127380   0.264   1.192   3.473
 8827SOL    HW227381   0.394   1.101   3.434
 8828SOL     OW27382   1.377   6.304   2.832
 8828SOL    HW127383   1.429   6.387   2.814
 8828SOL    HW227384   1.367   6.251   2.748
 8829SOL     OW27385   0.841   1.667   0.439
 8829SOL    HW127386   0.765   1.732   0.436
 8829SOL    HW227387   0.830   1.607   0.518
 8830SOL     OW27388   1.070   1.499   0.368
 8830SOL    HW127389   1.025   1.588   0.373
 8830SOL    HW227390   1.091   1.477   0.273
 8831SOL     OW27391   0.128   1.097   1.838
 8831SOL    HW127392   0.170   1.181   1.875
 8831SOL    HW227393   0.092   1.042   1.913
 8832SOL     OW27394   0.024   0.988   2.071
 8832SOL    HW127395   0.063   0.896   2.071
 8832SOL    HW227396   0.009   1.018   2.165
 8833SOL     OW27397   1.266   4.788   3.238
 8833SOL    HW127398   1.241   4.883   3.218
 8833SOL    HW227399   1.348   4.785   3.294
 8834SOL     OW27400   5.818   4.148   3.963
 8834SOL    HW127401   5.749   4.080   3.937
 8834SOL    HW227402   5.826   4.151   4.063
 8835SOL     OW27403   0.292   0.373   6.403
 8835SOL    HW127404   0.280   0.471   6.389
 8835SOL    HW227405   0.271   0.350   6.497
 8836SOL     OW27406   4.784   1.815   1.412
 8836SOL    HW127407   4.777   1.842   1.316
 8836SOL    HW227408   4.737   1.882   1.469
 8837SOL     OW27409   0.611   1.743   2.543
 8837SOL    HW127410   0.653   1.655   2.565
 8837SOL    HW227411   0.678   1.803   2.500
 8838SOL     OW27412   2.304   5.953   3.240
 8838SOL    HW127413   2.394   5.960   3.199
 8838SOL    HW227414   2.237   5.928   3.169
 8839SOL     OW27415   5.576   6.372   4.115
 8839SOL    HW127416   5.519   6.369   4.197
 8839SOL    HW227417   5.668   6.337   4.137
 8840SOL     OW27418   4.989   1.153   2.424
 8840SOL    HW127419   4.992   1.214   2.345
 8840SOL    HW227420   5.070   1.169   2.481
 8841SOL     OW27421   2.234   6.769   3.964
 8841SOL    HW127422   2.246   6.840   4.033
 8841SOL    HW227423   2.179   6.695   4.001
 8842SOL     OW27424   1.722   2.797   1.993
 8842SOL    HW127425   1.728   2.864   1.918
 8842SOL    HW227426   1.741   2.706   1.958
 8843SOL     OW27427   0.091   3.117   4.731
 8843SOL    HW127428   0.108   3.142   4.635
 8843SOL    HW227429   0.171   3.071   4.768
 8844SOL     OW27430   5.662   1.193   6.180
 8844SOL    HW127431   5.759   1.179   6.203
 8844SOL    HW227432   5.609   1.112   6.207
 8845SOL     OW27433   5.573   3.252   0.127
 8845SOL    HW127434   5.482   3.294   0.133
 8845SOL    HW227435   5.591   3.199   0.210
 8846SOL     OW27436   2.692   4.686   3.333
 8846SOL    HW127437   2.648   4.602   3.301
 8846SOL    HW227438   2.635   4.729   3.403
 8847SOL     OW27439   1.603   0.736   2.498
 8847SOL    HW127440   1.592   0.834   2.515
 8847SOL    HW227441   1.623   0.722   2.401
 8848SOL     OW27442   1.336   0.618   3.355
 8848SOL    HW127443   1.356   0.687   3.425
 8848SOL    HW227444   1.420   0.569   3.331
 8849SOL     OW27445   2.377   6.633   1.455
 8849SOL    HW127446   2.344   6.677   1.539
 8849SOL    HW227447   2.300   6.617   1.393
 8850SOL     OW27448   3.002   2.574   6.863
 8850SOL    HW127449   2.970   2.484   6.836
 8850SOL    HW227450   3.095   2.589   6.828
 8851SOL     OW27451   1.876   3.808   2.203
 8851SOL    HW127452   1.953   3.752   2.235
 8851SOL    HW227453   1.804   3.807   2.272
 8852SOL     OW27454   0.949   2.064   5.206
 8852SOL    HW127455   0.998   2.030   5.125
 8852SOL    HW227456   0.978   2.158   5.224
 8853SOL     OW27457   5.294   0.666   1.340
 8853SOL    HW127458   5.381   0.618   1.352
 8853SOL    HW227459   5.219   0.605   1.362
 8854SOL     OW27460   0.653   2.754   4.947
 8854SOL    HW127461   0.573   2.755   4.888
 8854SOL    HW227462   0.638   2.815   5.025
 8855SOL     OW27463   5.373   4.732   1.347
 8855SOL    HW127464   5.472   4.731   1.330
 8855SOL    HW227465   5.336   4.821   1.320
 8856SOL     OW27466   6.433   0.584   5.679
 8856SOL    HW127467   6.430   0.486   5.663
 8856SOL    HW227468   6.405   0.603   5.774
 8857SOL     OW27469   6.744   1.712   6.436
 8857SOL    HW127470   6.819   1.758   6.483
 8857SOL    HW227471   6.673   1.780   6.414
 8858SOL     OW27472   6.697   5.497   4.887
 8858SOL    HW127473   6.767   5.564   4.862
 8858SOL    HW227474   6.728   5.405   4.861
 8859SOL     OW27475   1.479   6.043   2.915
 8859SOL    HW127476   1.429   6.129   2.901
 8859SOL    HW227477   1.464   5.983   2.836
 8860SOL     OW27478   0.392   3.627   2.474
 8860SOL    HW127479   0.479   3.601   2.515
 8860SOL    HW227480   0.324   3.642   2.546
 8861SOL     OW27481   3.855   2.821   1.486
 8861SOL    HW127482   3.929   2.865   1.435
 8861SOL    HW227483   3.872   2.830   1.584
 8862SOL     OW27484   4.319   4.675   4.699
 8862SOL    HW127485   4.331   4.596   4.760
 8862SOL    HW227486   4.266   4.745   4.745
 8863SOL     OW27487   1.612   3.556   2.685
 8863SOL    HW127488   1.622   3.564   2.586
 8863SOL    HW227489   1.651   3.636   2.729
 8864SOL     OW27490   6.318   2.171   5.462
 8864SOL    HW127491   6.403   2.202   5.421
 8864SOL    HW227492   6.337   2.098   5.527
 8865SOL     OW27493   2.690   2.179   0.301
 8865SOL    HW127494   2.707   2.100   0.242
 8865SOL    HW227495   2.728   2.261   0.258
 8866SOL     OW27496   5.723   6.377   2.184
 8866SOL    HW127497   5.741   6.475   2.183
 8866SOL    HW227498   5.796   6.329   2.136
 8867SOL     OW27499   6.431   3.292   2.760
 8867SOL    HW127500   6.468   3.380   2.730
 8867SOL    HW227501   6.331   3.297   2.764
 8868SOL     OW27502   6.922   3.908   3.555
 8868SOL    HW127503   6.937   3.813   3.582
 8868SOL    HW227504   6.830   3.936   3.580
 8869SOL     OW27505   5.000   0.643   3.495
 8869SOL    HW127506   5.087   0.692   3.492
 8869SOL    HW227507   4.981   0.603   3.405
 8870SOL     OW27508   1.414   1.141   2.096
 8870SOL    HW127509   1.487   1.099   2.150
 8870SOL    HW227510   1.448   1.162   2.005
 8871SOL     OW27511   0.370   0.498   1.531
 8871SOL    HW127512   0.378   0.412   1.582
 8871SOL    HW227513   0.282   0.500   1.484
 8872SOL     OW27514   6.839   3.585   3.386
 8872SOL    HW127515   6.767   3.563   3.452
 8872SOL    HW227516   6.846   3.512   3.317
 8873SOL     OW27517   2.513   2.311   2.832
 8873SOL    HW127518   2.526   2.213   2.844
 8873SOL    HW227519   2.415   2.333   2.838
 8874SOL     OW27520   3.221   6.315   0.535
 8874SOL    HW127521   3.312   6.306   0.496
 8874SOL    HW227522   3.222   6.283   0.629
 8875SOL     OW27523   6.502   3.028   5.007
 8875SOL    HW127524   6.494   3.095   5.081
 8875SOL    HW227525   6.433   2.957   5.018
 8876SOL     OW27526   3.731   0.618   0.354
 8876SOL    HW127527   3.635   0.598   0.331
 8876SOL    HW227528   3.734   0.696   0.417
 8877SOL     OW27529   0.708   4.759   1.250
 8877SOL    HW127530   0.793   4.812   1.246
 8877SOL    HW227531   0.630   4.821   1.236
 8878SOL     OW27532   4.800   4.165   1.650
 8878SOL    HW127533   4.703   4.158   1.674
 8878SOL    HW227534   4.816   4.252   1.604
 8879SOL     OW27535   0.288   3.858   2.884
 8879SOL    HW127536   0.330   3.785   2.938
 8879SOL    HW227537   0.191   3.864   2.906
 8880SOL     OW27538   4.447   2.409   2.852
 8880SOL    HW127539   4.352   2.386   2.833
 8880SOL    HW227540   4.452   2.495   2.903
 8881SOL     OW27541   3.560   4.904   3.102
 8881SOL    HW127542   3.640   4.848   3.119
 8881SOL    HW227543   3.534   4.898   3.006
 8882SOL     OW27544   3.914   0.867   1.004
 8882SOL    HW127545   3.886   0.935   0.937
 8882SOL    HW227546   3.839   0.849   1.068
 8883SOL     OW27547   0.060   6.628   3.352
 8883SOL    HW127548   6.985   6.663   3.373
 8883SOL    HW227549   0.062   6.530   3.367
 8884SOL     OW27550   4.488   3.022   5.745
 8884SOL    HW127551   4.423   3.086   5.704
 8884SOL    HW227552   4.575   3.027   5.697
 8885SOL     OW27553   5.526   6.092   0.503
 8885SOL    HW127554   5.511   5.997   0.473
 8885SOL    HW227555   5.476   6.154   0.443
 8886SOL     OW27556   4.061   6.263   6.864
 8886SOL    HW127557   4.134   6.268   6.796
 8886SOL    HW227558   4.101   6.238   6.953
 8887SOL     OW27559   3.988   0.503   1.828
 8887SOL    HW127560   3.920   0.431   1.834
 8887SOL    HW227561   3.944   0.590   1.805
 8888SOL     OW27562   3.276   1.790   2.488
 8888SOL    HW127563   3.199   1.801   2.425
 8888SOL    HW227564   3.248   1.733   2.565
 8889SOL     OW27565   1.332   4.660   0.651
 8889SOL    HW127566   1.429   4.664   0.629
 8889SOL    HW227567   1.318   4.688   0.745
 8890SOL     OW27568   1.123   6.624   6.638
 8890SOL    HW127569   1.056   6.565   6.681
 8890SOL    HW227570   1.157   6.691   6.704
 8891SOL     OW27571   6.509   3.997   5.811
 8891SOL    HW127572   6.597   3.967   5.773
 8891SOL    HW227573   6.489   4.089   5.778
 8892SOL     OW27574   3.125   5.336   4.789
 8892SOL    HW127575   3.192   5.262   4.786
 8892SOL    HW227576   3.036   5.302   4.758
 8893SOL     OW27577   1.001   4.618   5.835
 8893SOL    HW127578   1.031   4.524   5.846
 8893SOL    HW227579   1.080   4.679   5.833
 8894SOL     OW27580   4.989   1.509   1.569
 8894SOL    HW127581   5.018   1.516   1.473
 8894SOL    HW227582   5.000   1.598   1.613
 8895SOL     OW27583   6.835   3.227   0.994
 8895SOL    HW127584   6.908   3.289   0.962
 8895SOL    HW227585   6.787   3.270   1.071
 8896SOL     OW27586   1.096   1.411   3.760
 8896SOL    HW127587   1.169   1.353   3.795
 8896SOL    HW227588   1.070   1.479   3.829
 8897SOL     OW27589   1.654   5.577   3.920
 8897SOL    HW127590   1.730   5.514   3.939
 8897SOL    HW227591   1.669   5.662   3.970
 8898SOL     OW27592   5.222   3.911   2.288
 8898SOL    HW127593   5.156   3.903   2.213
 8898SOL    HW227594   5.231   4.007   2.315
 8899SOL     OW27595   1.820   3.805   3.075
 8899SOL    HW127596   1.920   3.815   3.070
 8899SOL    HW227597   1.794   3.776   3.167
 8900SOL     OW27598   4.115   1.791   4.391
 8900SOL    HW127599   4.174   1.871   4.379
 8900SOL    HW227600   4.083   1.759   4.302
 8901SOL     OW27601   1.778   5.299   4.749
 8901SOL    HW127602   1.798   5.225   4.814
 8901SOL    HW227603   1.681   5.320   4.752
 8902SOL     OW27604   0.317   5.104   6.720
 8902SOL    HW127605   0.327   5.203   6.720
 8902SOL    HW227606   0.298   5.073   6.813
 8903SOL     OW27607   0.903   0.549   5.177
 8903SOL    HW127608   0.880   0.484   5.249
 8903SOL    HW227609   0.984   0.517   5.128
 8904SOL     OW27610   0.725   1.179   3.624
 8904SOL    HW127611   0.808   1.123   3.632
 8904SOL    HW227612   0.653   1.140   3.681
 8905SOL     OW27613   1.338   4.403   2.396
 8905SOL    HW127614   1.383   4.325   2.353
 8905SOL    HW227615   1.269   4.441   2.334
 8906SOL     OW27616   5.670   0.038   6.924
 8906SOL    HW127617   5.663   0.135   6.900
 8906SOL    HW227618   5.740   7.011   6.868
 8907SOL     OW27619   3.013   3.152   5.095
 8907SOL    HW127620   3.028   3.083   5.166
 8907SOL    HW227621   3.044   3.117   5.007
 8908SOL     OW27622   1.424   4.743   6.436
 8908SOL    HW127623   1.476   4.662   6.462
 8908SOL    HW227624   1.470   4.825   6.470
 8909SOL     OW27625   1.770   5.461   1.363
 8909SOL    HW127626   1.811   5.452   1.453
 8909SOL    HW227627   1.832   5.424   1.294
 8910SOL     OW27628   1.024   0.765   3.408
 8910SOL    HW127629   0.982   0.716   3.332
 8910SOL    HW227630   1.098   0.824   3.374
 8911SOL     OW27631   5.350   2.124   4.566
 8911SOL    HW127632   5.277   2.179   4.525
 8911SOL    HW227633   5.336   2.118   4.665
 8912SOL     OW27634   3.477   3.363   3.806
 8912SOL    HW127635   3.409   3.293   3.828
 8912SOL    HW227636   3.547   3.366   3.877
 8913SOL     OW27637   5.049   5.949   1.099
 8913SOL    HW127638   5.108   6.021   1.064
 8913SOL    HW227639   4.993   5.912   1.024
 8914SOL     OW27640   4.880   5.801   5.384
 8914SOL    HW127641   4.940   5.738   5.433
 8914SOL    HW227642   4.877   5.774   5.287
 8915SOL     OW27643   1.584   0.773   3.343
 8915SOL    HW127644   1.493   0.800   3.374
 8915SOL    HW227645   1.652   0.802   3.410
 8916SOL     OW27646   5.461   1.057   1.420
 8916SOL    HW127647   5.424   1.070   1.512
 8916SOL    HW227648   5.418   0.977   1.378
 8917SOL     OW27649   5.893   1.685   0.170
 8917SOL    HW127650   5.943   1.771   0.163
 8917SOL    HW227651   5.935   1.628   0.240
 8918SOL     OW27652   1.013   3.233   2.872
 8918SOL    HW127653   0.976   3.249   2.963
 8918SOL    HW227654   0.946   3.183   2.817
 8919SOL     OW27655   6.026   2.818   2.280
 8919SOL    HW127656   6.018   2.741   2.343
 8919SOL    HW227657   5.941   2.871   2.282
 8920SOL     OW27658   0.400   1.337   0.179
 8920SOL    HW127659   0.356   1.333   0.089
 8920SOL    HW227660   0.329   1.345   0.249
 8921SOL     OW27661   1.123   2.949   2.347
 8921SOL    HW127662   1.151   2.988   2.259
 8921SOL    HW227663   1.114   2.850   2.338
 8922SOL     OW27664   3.900   5.049   3.984
 8922SOL    HW127665   3.995   5.060   3.953
 8922SOL    HW227666   3.869   5.134   4.027
 8923SOL     OW27667   2.237   1.411   4.046
 8923SOL    HW127668   2.141   1.385   4.037
 8923SOL    HW227669   2.244   1.510   4.063
 8924SOL     OW27670   6.327   5.040   5.310
 8924SOL    HW127671   6.403   4.978   5.325
 8924SOL    HW227672   6.253   4.992   5.262
 8925SOL     OW27673   0.755   6.811   2.951
 8925SOL    HW127674   0.825   6.750   2.914
 8925SOL    HW227675   0.670   6.760   2.963
 8926SOL     OW27676   6.141   0.627   6.851
 8926SOL    HW127677   6.129   0.546   6.908
 8926SOL    HW227678   6.087   0.702   6.888
 8927SOL     OW27679   1.766   1.034   6.781
 8927SOL    HW127680   1.767   1.134   6.787
 8927SOL    HW227681   1.798   1.006   6.690
 8928SOL     OW27682   1.553   6.929   5.660
 8928SOL    HW127683   1.540   6.937   5.759
 8928SOL    HW227684   1.527   6.837   5.631
 8929SOL     OW27685   0.233   1.534   3.864
 8929SOL    HW127686   0.201   1.488   3.947
 8929SOL    HW227687   0.263   1.465   3.797
 8930SOL     OW27688   1.873   5.006   3.932
 8930SOL    HW127689   1.786   5.054   3.934
 8930SOL    HW227690   1.913   5.004   4.024
 8931SOL     OW27691   3.981   3.590   0.307
 8931SOL    HW127692   3.938   3.680   0.318
 8931SOL    HW227693   4.038   3.590   0.226
 8932SOL     OW27694   0.536   3.171   3.763
 8932SOL    HW127695   0.586   3.104   3.709
 8932SOL    HW227696   0.443   3.136   3.781
 8933SOL     OW27697   3.942   1.609   5.760
 8933SOL    HW127698   3.944   1.692   5.817
 8933SOL    HW227699   3.979   1.631   5.670
 8934SOL     OW27700   2.607   6.221   2.799
 8934SOL    HW127701   2.534   6.167   2.758
 8934SOL    HW227702   2.575   6.262   2.884
 8935SOL     OW27703   6.485   4.972   0.220
 8935SOL    HW127704   6.421   4.901   0.249
 8935SOL    HW227705   6.454   5.011   0.133
 8936SOL     OW27706   3.956   2.892   0.231
 8936SOL    HW127707   4.049   2.879   0.265
 8936SOL    HW227708   3.919   2.805   0.201
 8937SOL     OW27709   0.856   0.199   5.710
 8937SOL    HW127710   0.814   0.212   5.620
 8937SOL    HW227711   0.786   0.211   5.781
 8938SOL     OW27712   5.220   6.263   1.532
 8938SOL    HW127713   5.214   6.174   1.488
 8938SOL    HW227714   5.247   6.251   1.628
 8939SOL     OW27715   4.887   1.934   5.157
 8939SOL    HW127716   4.970   1.938   5.212
 8939SOL    HW227717   4.870   1.840   5.129
 8940SOL     OW27718   5.774   6.922   2.423
 8940SOL    HW127719   5.801   6.827   2.439
 8940SOL    HW227720   5.714   6.926   2.343
 8941SOL     OW27721   4.323   1.438   6.510
 8941SOL    HW127722   4.329   1.360   6.447
 8941SOL    HW227723   4.397   1.502   6.491
 8942SOL     OW27724   1.654   2.692   5.219
 8942SOL    HW127725   1.640   2.790   5.231
 8942SOL    HW227726   1.622   2.665   5.128
 8943SOL     OW27727   4.873   3.395   1.111
 8943SOL    HW127728   4.939   3.359   1.176
 8943SOL    HW227729   4.790   3.425   1.159
 8944SOL     OW27730   3.992   5.561   1.267
 8944SOL    HW127731   3.986   5.467   1.298
 8944SOL    HW227732   4.088   5.590   1.263
 8945SOL     OW27733   2.348   1.399   4.514
 8945SOL    HW127734   2.383   1.387   4.422
 8945SOL    HW227735   2.302   1.315   4.544
 8946SOL     OW27736   4.046   1.548   4.745
 8946SOL    HW127737   4.067   1.583   4.654
 8946SOL    HW227738   3.978   1.608   4.788
 8947SOL     OW27739   3.723   4.043   5.032
 8947SOL    HW127740   3.698   4.007   4.942
 8947SOL    HW227741   3.737   3.968   5.096
 8948SOL     OW27742   5.693   4.830   2.783
 8948SOL    HW127743   5.595   4.845   2.765
 8948SOL    HW227744   5.709   4.833   2.882
 8949SOL     OW27745   2.232   5.501   5.867
 8949SOL    HW127746   2.302   5.435   5.842
 8949SOL    HW227747   2.274   5.591   5.878
 8950SOL     OW27748   4.933   2.353   4.753
 8950SOL    HW127749   4.943   2.448   4.723
 8950SOL    HW227750   4.943   2.348   4.852
 8951SOL     OW27751   2.466   1.550   5.654
 8951SOL    HW127752   2.418   1.637   5.668
 8951SOL    HW227753   2.536   1.539   5.724
 8952SOL     OW27754   6.481   6.937   3.392
 8952SOL    HW127755   6.551   6.937   3.321
 8952SOL    HW227756   6.482   6.849   3.440
 8953SOL     OW27757   1.334   5.119   6.693
 8953SOL    HW127758   1.383   5.101   6.779
 8953SOL    HW227759   1.252   5.173   6.712
 8954SOL     OW27760   2.058   6.548   5.607
 8954SOL    HW127761   2.048   6.451   5.584
 8954SOL    HW227762   1.981   6.576   5.665
 8955SOL     OW27763   6.332   3.787   4.321
 8955SOL    HW127764   6.297   3.873   4.285
 8955SOL    HW227765   6.366   3.802   4.414
 8956SOL     OW27766   1.390   0.496   4.697
 8956SOL    HW127767   1.290   0.500   4.702
 8956SOL    HW227768   1.429   0.496   4.789
 8957SOL     OW27769   2.373   5.927   1.766
 8957SOL    HW127770   2.350   5.840   1.723
 8957SOL    HW227771   2.406   5.991   1.697
 8958SOL     OW27772   2.434   0.237   4.055
 8958SOL    HW127773   2.413   0.238   4.153
 8958SOL    HW227774   2.504   0.306   4.037
 8959SOL     OW27775   3.094   5.376   0.565
 8959SOL    HW127776   3.095   5.320   0.482
 8959SOL    HW227777   3.020   5.345   0.625
 8960SOL     OW27778   3.617   5.467   0.936
 8960SOL    HW127779   3.678   5.531   0.889
 8960SOL    HW227780   3.671   5.406   0.995
 8961SOL     OW27781   1.595   2.518   4.256
 8961SOL    HW127782   1.521   2.531   4.322
 8961SOL    HW227783   1.564   2.546   4.165
 8962SOL     OW27784   4.869   0.511   3.297
 8962SOL    HW127785   4.875   0.550   3.205
 8962SOL    HW227786   4.780   0.466   3.309
 8963SOL     OW27787   0.212   0.912   3.637
 8963SOL    HW127788   0.240   0.976   3.564
 8963SOL    HW227789   0.284   0.844   3.651
 8964SOL     OW27790   0.109   3.448   2.969
 8964SOL    HW127791   0.011   3.445   2.991
 8964SOL    HW227792   0.163   3.422   3.049
 8965SOL     OW27793   1.029   5.034   1.767
 8965SOL    HW127794   0.953   4.969   1.771
 8965SOL    HW227795   1.103   4.996   1.712
 8966SOL     OW27796   3.518   2.298   5.287
 8966SOL    HW127797   3.429   2.310   5.331
 8966SOL    HW227798   3.524   2.205   5.249
 8967SOL     OW27799   4.508   6.849   0.734
 8967SOL    HW127800   4.415   6.881   0.752
 8967SOL    HW227801   4.571   6.926   0.737
 8968SOL     OW27802   5.064   4.289   3.450
 8968SOL    HW127803   5.068   4.276   3.351
 8968SOL    HW227804   5.001   4.223   3.490
 8969SOL     OW27805   6.255   0.558   4.143
 8969SOL    HW127806   6.262   0.460   4.125
 8969SOL    HW227807   6.252   0.573   4.242
 8970SOL     OW27808   3.750   1.993   1.536
 8970SOL    HW127809   3.782   2.059   1.604
 8970SOL    HW227810   3.693   2.040   1.468
 8971SOL     OW27811   4.653   6.166   3.188
 8971SOL    HW127812   4.735   6.208   3.149
 8971SOL    HW227813   4.612   6.229   3.255
 8972SOL     OW27814   5.757   0.522   4.609
 8972SOL    HW127815   5.744   0.485   4.701
 8972SOL    HW227816   5.788   0.616   4.615
 8973SOL     OW27817   1.741   4.560   6.972
 8973SOL    HW127818   1.665   4.549   0.020
 8973SOL    HW227819   1.813   4.495   6.995
 8974SOL     OW27820   0.463   3.017   3.989
 8974SOL    HW127821   0.525   3.095   3.981
 8974SOL    HW227822   0.369   3.046   3.973
 8975SOL     OW27823   3.551   0.415   6.618
 8975SOL    HW127824   3.510   0.351   6.682
 8975SOL    HW227825   3.640   0.381   6.588
 8976SOL     OW27826   0.930   4.954   4.368
 8976SOL    HW127827   0.930   4.951   4.268
 8976SOL    HW227828   0.969   4.868   4.404
 8977SOL     OW27829   5.675   0.838   6.532
 8977SOL    HW127830   5.770   0.868   6.542
 8977SOL    HW227831   5.629   0.843   6.620
 8978SOL     OW27832   5.548   5.257   0.892
 8978SOL    HW127833   5.551   5.167   0.849
 8978SOL    HW227834   5.495   5.319   0.834
 8979SOL     OW27835   1.870   4.822   4.845
 8979SOL    HW127836   1.925   4.889   4.794
 8979SOL    HW227837   1.890   4.730   4.812
 8980SOL     OW27838   3.718   2.909   4.598
 8980SOL    HW127839   3.749   2.981   4.659
 8980SOL    HW227840   3.719   2.821   4.646
 8981SOL     OW27841   2.696   1.160   5.546
 8981SOL    HW127842   2.608   1.135   5.587
 8981SOL    HW227843   2.734   1.239   5.593
 8982SOL     OW27844   4.459   4.214   0.837
 8982SOL    HW127845   4.389   4.239   0.770
 8982SOL    HW227846   4.430   4.132   0.887
 8983SOL     OW27847   4.963   5.420   0.618
 8983SOL    HW127848   5.021   5.460   0.689
 8983SOL    HW227849   5.021   5.373   0.551
 8984SOL     OW27850   1.697   6.759   3.353
 8984SOL    HW127851   1.648   6.684   3.397
 8984SOL    HW227852   1.709   6.834   3.418
 8985SOL     OW27853   2.902   3.075   6.131
 8985SOL    HW127854   2.945   2.995   6.174
 8985SOL    HW227855   2.803   3.068   6.139
 8986SOL     OW27856   3.815   6.209   2.968
 8986SOL    HW127857   3.838   6.142   2.897
 8986SOL    HW227858   3.757   6.280   2.929
 8987SOL     OW27859   5.094   5.990   1.794
 8987SOL    HW127860   5.145   6.056   1.849
 8987SOL    HW227861   5.154   5.914   1.768
 8988SOL     OW27862   1.020   5.512   5.277
 8988SOL    HW127863   1.047   5.607   5.263
 8988SOL    HW227864   1.000   5.497   5.374
 8989SOL     OW27865   3.012   3.018   6.898
 8989SOL    HW127866   2.980   3.108   6.867
 8989SOL    HW227867   3.064   2.974   6.826
 8990SOL     OW27868   0.425   5.879   3.225
 8990SOL    HW127869   0.481   5.845   3.301
 8990SOL    HW227870   0.401   5.974   3.243
 8991SOL     OW27871   1.225   2.199   5.200
 8991SOL    HW127872   1.308   2.250   5.224
 8991SOL    HW227873   1.247   2.102   5.194
 8992SOL     OW27874   0.076   2.176   0.815
 8992SOL    HW127875   0.054   2.198   0.720
 8992SOL    HW227876   0.037   2.087   0.839
 8993SOL     OW27877   4.982   2.163   0.674
 8993SOL    HW127878   4.898   2.164   0.619
 8993SOL    HW227879   5.045   2.234   0.640
 8994SOL     OW27880   1.849   5.807   3.048
 8994SOL    HW127881   1.809   5.898   3.037
 8994SOL    HW227882   1.945   5.809   3.019
 8995SOL     OW27883   0.228   0.326   1.078
 8995SOL    HW127884   0.280   0.409   1.061
 8995SOL    HW227885   0.265   0.279   1.159
 8996SOL     OW27886   3.876   6.683   5.880
 8996SOL    HW127887   3.852   6.642   5.792
 8996SOL    HW227888   3.935   6.621   5.932
 8997SOL     OW27889   6.393   0.997   4.746
 8997SOL    HW127890   6.429   1.069   4.687
 8997SOL    HW227891   6.324   1.036   4.808
 8998SOL     OW27892   6.559   3.413   4.961
 8998SOL    HW127893   6.565   3.322   5.001
 8998SOL    HW227894   6.547   3.481   5.034
 8999SOL     OW27895   3.688   6.809   6.052
 8999SOL    HW127896   3.691   6.899   6.096
 8999SOL    HW227897   3.775   6.790   6.007
 9000SOL     OW27898   1.638   3.969   1.192
 9000SOL    HW127899   1.553   3.981   1.243
 9000SOL    HW227900   1.692   4.053   1.196
 9001SOL     OW27901   0.994   5.673   2.009
 9001SOL    HW127902   0.974   5.762   1.968
 9001SOL    HW227903   0.953   5.601   1.953
 9002SOL     OW27904   0.938   4.502   6.650
 9002SOL    HW127905   0.988   4.445   6.585
 9002SOL    HW227906   0.955   4.471   6.743
 9003SOL     OW27907   5.275   0.000   1.386
 9003SOL    HW127908   5.291   6.936   1.443
 9003SOL    HW227909   5.229   0.070   1.441
 9004SOL     OW27910   4.872   4.983   0.307
 9004SOL    HW127911   4.803   5.051   0.333
 9004SOL    HW227912   4.955   5.029   0.277
 9005SOL     OW27913   5.365   1.312   5.590
 9005SOL    HW127914   5.350   1.351   5.499
 9005SOL    HW227915   5.277   1.298   5.635
 9006SOL     OW27916   3.657   6.116   0.387
 9006SOL    HW127917   3.701   6.035   0.426
 9006SOL    HW227918   3.655   6.107   0.287
 9007SOL     OW27919   1.693   1.130   3.129
 9007SOL    HW127920   1.785   1.107   3.098
 9007SOL    HW227921   1.631   1.054   3.110
 9008SOL     OW27922   1.006   5.719   2.381
 9008SOL    HW127923   1.048   5.807   2.399
 9008SOL    HW227924   0.945   5.726   2.301
 9009SOL     OW27925   3.480   6.128   1.503
 9009SOL    HW127926   3.409   6.196   1.521
 9009SOL    HW227927   3.567   6.159   1.541
 9010SOL     OW27928   1.331   6.009   4.127
 9010SOL    HW127929   1.268   6.058   4.189
 9010SOL    HW227930   1.288   5.924   4.097
 9011SOL     OW27931   2.454   2.516   1.971
 9011SOL    HW127932   2.461   2.416   1.971
 9011SOL    HW227933   2.524   2.554   1.911
 9012SOL     OW27934   1.866   6.473   0.052
 9012SOL    HW127935   1.914   6.426   6.994
 9012SOL    HW227936   1.802   6.409   0.096
 9013SOL     OW27937   2.226   6.677   4.492
 9013SOL    HW127938   2.154   6.737   4.527
 9013SOL    HW227939   2.311   6.694   4.542
 9014SOL     OW27940   5.104   3.076   3.749
 9014SOL    HW127941   5.009   3.070   3.780
 9014SOL    HW227942   5.113   3.149   3.680
 9015SOL     OW27943   4.811   1.155   6.244
 9015SOL    HW127944   4.779   1.080   6.186
 9015SOL    HW227945   4.907   1.175   6.224
 9016SOL     OW27946   4.984   5.380   6.108
 9016SOL    HW127947   5.048   5.392   6.184
 9016SOL    HW227948   5.032   5.341   6.029
 9017SOL     OW27949   4.123   0.045   4.491
 9017SOL    HW127950   4.210   0.001   4.513
 9017SOL    HW227951   4.078   7.012   4.417
 9018SOL     OW27952   3.817   4.650   6.549
 9018SOL    HW127953   3.722   4.678   6.559
 9018SOL    HW227954   3.844   4.657   6.453
 9019SOL     OW27955   0.158   3.436   3.968
 9019SOL    HW127956   0.228   3.476   4.028
 9019SOL    HW227957   0.100   3.374   4.021
 9020SOL     OW27958   5.181   4.949   3.048
 9020SOL    HW127959   5.249   4.879   3.073
 9020SOL    HW227960   5.228   5.028   3.010
 9021SOL     OW27961   0.575   1.331   4.451
 9021SOL    HW127962   0.638   1.253   4.457
 9021SOL    HW227963   0.532   1.346   4.539
 9022SOL     OW27964   4.704   4.127   6.318
 9022SOL    HW127965   4.777   4.181   6.278
 9022SOL    HW227966   4.658   4.073   6.247
 9023SOL     OW27967   6.181   4.248   0.614
 9023SOL    HW127968   6.084   4.260   0.634
 9023SOL    HW227969   6.211   4.318   0.550
 9024SOL     OW27970   2.004   6.085   5.952
 9024SOL    HW127971   2.055   6.147   6.012
 9024SOL    HW227972   2.052   6.075   5.866
 9025SOL     OW27973   1.033   5.754   1.157
 9025SOL    HW127974   0.981   5.751   1.072
 9025SOL    HW227975   1.131   5.754   1.136
 9026SOL     OW27976   4.880   1.093   0.220
 9026SOL    HW127977   4.899   1.177   0.272
 9026SOL    HW227978   4.937   1.092   0.138
 9027SOL     OW27979   1.049   4.002   3.512
 9027SOL    HW127980   0.961   3.987   3.557
 9027SOL    HW227981   1.097   3.915   3.505
 9028SOL     OW27982   3.414   4.903   6.259
 9028SOL    HW127983   3.367   4.834   6.315
 9028SOL    HW227984   3.436   4.983   6.316
 9029SOL     OW27985   4.795   0.112   4.411
 9029SOL    HW127986   4.806   0.139   4.315
 9029SOL    HW227987   4.800   0.194   4.469
 9030SOL     OW27988   2.793   1.321   2.261
 9030SOL    HW127989   2.833   1.229   2.256
 9030SOL    HW227990   2.786   1.360   2.169
 9031SOL     OW27991   4.567   6.768   4.816
 9031SOL    HW127992   4.582   6.713   4.734
 9031SOL    HW227993   4.469   6.787   4.826
 9032SOL     OW27994   5.043   3.199   2.141
 9032SOL    HW127995   5.015   3.160   2.053
 9032SOL    HW227996   4.972   3.182   2.209
 9033SOL     OW27997   0.338   0.111   3.051
 9033SOL    HW127998   0.308   0.173   2.978
 9033SOL    HW227999   0.390   0.036   3.012
 9034SOL     OW28000   4.691   6.714   4.389
 9034SOL    HW128001   4.747   6.779   4.440
 9034SOL    HW228002   4.627   6.764   4.331
 9035SOL     OW28003   2.470   5.355   6.952
 9035SOL    HW128004   2.546   5.385   7.009
 9035SOL    HW228005   2.504   5.290   6.884
 9036SOL     OW28006   1.637   4.200   5.303
 9036SOL    HW128007   1.614   4.272   5.368
 9036SOL    HW228008   1.714   4.147   5.339
 9037SOL     OW28009   0.694   0.864   3.002
 9037SOL    HW128010   0.645   0.802   3.063
 9037SOL    HW228011   0.792   0.844   3.005
 9038SOL     OW28012   4.326   2.940   5.352
 9038SOL    HW128013   4.417   2.938   5.394
 9038SOL    HW228014   4.282   2.851   5.365
 9039SOL     OW28015   4.195   5.884   6.606
 9039SOL    HW128016   4.283   5.865   6.563
 9039SOL    HW228017   4.162   5.801   6.651
 9040SOL     OW28018   2.232   1.927   1.462
 9040SOL    HW128019   2.299   2.001   1.460
 9040SOL    HW228020   2.257   1.861   1.533
 9041SOL     OW28021   6.862   2.170   2.291
 9041SOL    HW128022   6.784   2.118   2.256
 9041SOL    HW228023   6.846   2.193   2.387
 9042SOL     OW28024   3.801   6.339   0.519
 9042SOL    HW128025   3.887   6.313   0.564
 9042SOL    HW228026   3.766   6.262   0.466
 9043SOL     OW28027   3.236   2.764   0.722
 9043SOL    HW128028   3.226   2.688   0.658
 9043SOL    HW228029   3.333   2.784   0.736
 9044SOL     OW28030   0.617   0.912   0.491
 9044SOL    HW128031   0.696   0.968   0.518
 9044SOL    HW228032   0.537   0.971   0.481
 9045SOL     OW28033   4.354   1.636   3.085
 9045SOL    HW128034   4.407   1.552   3.072
 9045SOL    HW228035   4.291   1.647   3.008
 9046SOL     OW28036   2.974   3.260   1.947
 9046SOL    HW128037   3.033   3.290   2.022
 9046SOL    HW228038   3.022   3.191   1.892
 9047SOL     OW28039   1.280   4.267   6.694
 9047SOL    HW128040   1.218   4.325   6.642
 9047SOL    HW228041   1.230   4.225   6.770
 9048SOL     OW28042   6.778   1.293   6.076
 9048SOL    HW128043   6.754   1.279   5.980
 9048SOL    HW228044   6.877   1.298   6.086
 9049SOL     OW28045   2.698   6.842   5.611
 9049SOL    HW128046   2.599   6.851   5.627
 9049SOL    HW228047   2.721   6.878   5.521
 9050SOL     OW28048   0.940   4.462   1.045
 9050SOL    HW128049   1.025   4.513   1.035
 9050SOL    HW228050   0.960   4.369   1.077
 9051SOL     OW28051   2.473   1.197   1.309
 9051SOL    HW128052   2.448   1.130   1.240
 9051SOL    HW228053   2.446   1.288   1.277
 9052SOL     OW28054   1.620   2.365   5.628
 9052SOL    HW128055   1.630   2.407   5.538
 9052SOL    HW228056   1.524   2.366   5.654
 9053SOL     OW28057   0.932   1.042   0.169
 9053SOL    HW128058   0.971   0.994   0.248
 9053SOL    HW228059   0.913   1.137   0.193
 9054SOL     OW28060   2.202   5.853   2.450
 9054SOL    HW128061   2.241   5.824   2.362
 9054SOL    HW228062   2.131   5.922   2.434
 9055SOL     OW28063   6.885   3.039   5.668
 9055SOL    HW128064   6.971   3.036   5.618
 9055SOL    HW228065   6.893   3.104   5.744
 9056SOL     OW28066   6.257   2.745   3.134
 9056SOL    HW128067   6.248   2.813   3.206
 9056SOL    HW228068   6.335   2.768   3.076
 9057SOL     OW28069   4.429   2.304   3.962
 9057SOL    HW128070   4.414   2.215   3.919
 9057SOL    HW228071   4.475   2.364   3.897
 9058SOL     OW28072   2.610   0.854   5.832
 9058SOL    HW128073   2.538   0.798   5.792
 9058SOL    HW228074   2.569   0.926   5.888
 9059SOL     OW28075   1.470   2.287   3.144
 9059SOL    HW128076   1.491   2.329   3.232
 9059SOL    HW228077   1.515   2.337   3.070
 9060SOL     OW28078   5.184   2.794   5.635
 9060SOL    HW128079   5.230   2.728   5.694
 9060SOL    HW228080   5.202   2.887   5.668
 9061SOL     OW28081   2.846   5.946   2.874
 9061SOL    HW128082   2.827   5.982   2.965
 9061SOL    HW228083   2.944   5.954   2.854
 9062SOL     OW28084   1.674   5.950   1.256
 9062SOL    HW128085   1.710   6.039   1.230
 9062SOL    HW228086   1.749   5.889   1.279
 9063SOL     OW28087   2.594   2.005   2.218
 9063SOL    HW128088   2.650   2.088   2.213
 9063SOL    HW228089   2.501   2.029   2.247
 9064SOL     OW28090   5.051   3.155   0.744
 9064SOL    HW128091   5.150   3.165   0.754
 9064SOL    HW228092   5.017   3.226   0.682
 9065SOL     OW28093   2.803   0.538   0.252
 9065SOL    HW128094   2.825   0.598   0.329
 9065SOL    HW228095   2.877   0.542   0.185
 9066SOL     OW28096   4.826   6.709   6.982
 9066SOL    HW128097   4.841   6.807   6.993
 9066SOL    HW228098   4.733   6.686   7.010
 9067SOL     OW28099   0.974   0.566   2.006
 9067SOL    HW128100   0.957   0.468   2.017
 9067SOL    HW228101   0.889   0.616   2.021
 9068SOL     OW28102   1.454   6.177   6.695
 9068SOL    HW128103   1.423   6.088   6.660
 9068SOL    HW228104   1.552   6.187   6.678
 9069SOL     OW28105   1.389   2.098   6.132
 9069SOL    HW128106   1.431   2.129   6.046
 9069SOL    HW228107   1.461   2.072   6.196
 9070SOL     OW28108   1.367   4.420   3.406
 9070SOL    HW128109   1.297   4.490   3.424
 9070SOL    HW228110   1.423   4.449   3.328
 9071SOL     OW28111   4.378   5.847   0.278
 9071SOL    HW128112   4.309   5.891   0.222
 9071SOL    HW228113   4.383   5.750   0.256
 9072SOL     OW28114   5.244   4.848   0.168
 9072SOL    HW128115   5.310   4.789   0.215
 9072SOL    HW228116   5.284   4.883   0.084
 9073SOL     OW28117   1.881   0.645   1.152
 9073SOL    HW128118   1.954   0.586   1.117
 9073SOL    HW228119   1.904   0.674   1.245
 9074SOL     OW28120   0.451   0.416   3.272
 9074SOL    HW128121   0.512   0.430   3.350
 9074SOL    HW228122   0.459   0.323   3.239
 9075SOL     OW28123   0.399   0.445   1.965
 9075SOL    HW128124   0.463   0.516   1.933
 9075SOL    HW228125   0.324   0.488   2.016
 9076SOL     OW28126   0.718   1.283   5.261
 9076SOL    HW128127   0.724   1.342   5.181
 9076SOL    HW228128   0.637   1.309   5.314
 9077SOL     OW28129   6.087   6.202   1.504
 9077SOL    HW128130   6.160   6.155   1.554
 9077SOL    HW228131   6.083   6.297   1.535
 9078SOL     OW28132   4.057   3.236   5.493
 9078SOL    HW128133   4.134   3.295   5.515
 9078SOL    HW228134   3.992   3.286   5.435
 9079SOL     OW28135   4.092   0.857   5.332
 9079SOL    HW128136   4.008   0.901   5.365
 9079SOL    HW228137   4.166   0.924   5.328
 9080SOL     OW28138   5.076   1.279   6.791
 9080SOL    HW128139   5.044   1.253   6.700
 9080SOL    HW228140   5.163   1.327   6.784
 9081SOL     OW28141   5.544   0.129   3.462
 9081SOL    HW128142   5.498   0.216   3.478
 9081SOL    HW228143   5.552   0.080   3.549
 9082SOL     OW28144   2.746   0.777   2.666
 9082SOL    HW128145   2.831   0.795   2.715
 9082SOL    HW228146   2.677   0.745   2.730
 9083SOL     OW28147   4.696   4.217   4.183
 9083SOL    HW128148   4.644   4.289   4.137
 9083SOL    HW228149   4.652   4.195   4.270
 9084SOL     OW28150   3.989   3.777   2.791
 9084SOL    HW128151   4.046   3.762   2.872
 9084SOL    HW228152   4.036   3.740   2.710
 9085SOL     OW28153   0.992   2.198   0.664
 9085SOL    HW128154   0.952   2.108   0.682
 9085SOL    HW228155   1.074   2.211   0.720
 9086SOL     OW28156   6.403   3.952   0.321
 9086SOL    HW128157   6.496   3.920   0.338
 9086SOL    HW228158   6.406   4.044   0.280
 9087SOL     OW28159   5.557   3.806   2.207
 9087SOL    HW128160   5.474   3.751   2.215
 9087SOL    HW228161   5.533   3.903   2.217
 9088SOL     OW28162   4.782   6.198   0.749
 9088SOL    HW128163   4.759   6.115   0.698
 9088SOL    HW228164   4.859   6.244   0.705
 9089SOL     OW28165   4.244   0.588   5.797
 9089SOL    HW128166   4.284   0.497   5.810
 9089SOL    HW228167   4.228   0.604   5.700
 9090SOL     OW28168   6.055   1.765   3.335
 9090SOL    HW128169   6.069   1.835   3.405
 9090SOL    HW228170   6.142   1.747   3.290
 9091SOL     OW28171   3.869   2.719   5.988
 9091SOL    HW128172   3.956   2.739   6.034
 9091SOL    HW228173   3.806   2.795   6.000
 9092SOL     OW28174   7.009   3.575   6.568
 9092SOL    HW128175   0.017   3.581   6.665
 9092SOL    HW228176   6.921   3.529   6.559
 9093SOL     OW28177   2.210   6.599   4.922
 9093SOL    HW128178   2.205   6.693   4.889
 9093SOL    HW228179   2.259   6.543   4.856
 9094SOL     OW28180   1.727   3.564   1.176
 9094SOL    HW128181   1.739   3.651   1.224
 9094SOL    HW228182   1.750   3.489   1.237
 9095SOL     OW28183   6.718   6.823   6.177
 9095SOL    HW128184   6.715   6.867   6.087
 9095SOL    HW228185   6.625   6.819   6.216
 9096SOL     OW28186   5.617   5.368   4.868
 9096SOL    HW128187   5.704   5.359   4.819
 9096SOL    HW228188   5.574   5.455   4.843
 9097SOL     OW28189   1.370   2.253   5.675
 9097SOL    HW128190   1.388   2.239   5.578
 9097SOL    HW228191   1.272   2.273   5.688
 9098SOL     OW28192   2.074   4.480   3.850
 9098SOL    HW128193   2.102   4.515   3.939
 9098SOL    HW228194   2.116   4.535   3.778
 9099SOL     OW28195   2.189   1.701   6.694
 9099SOL    HW128196   2.153   1.699   6.787
 9099SOL    HW228197   2.173   1.613   6.650
 9100SOL     OW28198   1.750   4.707   4.088
 9100SOL    HW128199   1.687   4.714   4.010
 9100SOL    HW228200   1.839   4.743   4.061
 9101SOL     OW28201   0.485   2.353   0.370
 9101SOL    HW128202   0.403   2.326   0.319
 9101SOL    HW228203   0.459   2.400   0.454
 9102SOL     OW28204   3.926   0.240   3.166
 9102SOL    HW128205   3.853   0.186   3.208
 9102SOL    HW228206   3.926   0.225   3.068
 9103SOL     OW28207   6.066   1.142   1.497
 9103SOL    HW128208   6.132   1.072   1.471
 9103SOL    HW228209   6.088   1.175   1.589
 9104SOL     OW28210   5.997   1.798   6.082
 9104SOL    HW128211   5.926   1.763   6.020
 9104SOL    HW228212   6.047   1.872   6.037
 9105SOL     OW28213   3.027   1.123   6.038
 9105SOL    HW128214   3.042   1.024   6.038
 9105SOL    HW228215   2.945   1.144   6.091
 9106SOL     OW28216   1.857   3.541   6.843
 9106SOL    HW128217   1.791   3.493   6.900
 9106SOL    HW228218   1.809   3.590   6.770
 9107SOL     OW28219   3.447   1.232   0.642
 9107SOL    HW128220   3.349   1.228   0.663
 9107SOL    HW228221   3.463   1.298   0.569
 9108SOL     OW28222   7.005   5.734   5.630
 9108SOL    HW128223   6.951   5.816   5.646
 9108SOL    HW228224   6.983   5.666   5.700
 9109SOL     OW28225   5.783   4.007   2.605
 9109SOL    HW128226   5.690   4.044   2.604
 9109SOL    HW228227   5.807   3.977   2.513
 9110SOL     OW28228   1.645   6.477   3.127
 9110SOL    HW128229   1.672   6.546   3.060
 9110SOL    HW228230   1.548   6.455   3.115
 9111SOL     OW28231   3.726   2.418   5.693
 9111SOL    HW128232   3.647   2.357   5.700
 9111SOL    HW228233   3.767   2.431   5.784
 9112SOL     OW28234   0.508   5.296   2.209
 9112SOL    HW128235   0.505   5.217   2.270
 9112SOL    HW228236   0.420   5.342   2.209
 9113SOL     OW28237   5.852   0.517   4.088
 9113SOL    HW128238   5.913   0.571   4.145
 9113SOL    HW228239   5.761   0.560   4.087
 9114SOL     OW28240   1.129   6.851   5.586
 9114SOL    HW128241   1.163   6.789   5.657
 9114SOL    HW228242   1.141   6.808   5.496
 9115SOL     OW28243   4.794   4.432   5.333
 9115SOL    HW128244   4.824   4.377   5.411
 9115SOL    HW228245   4.696   4.453   5.342
 9116SOL     OW28246   1.778   0.076   3.857
 9116SOL    HW128247   1.854   0.015   3.880
 9116SOL    HW228248   1.810   0.146   3.792
 9117SOL     OW28249   1.797   6.656   0.244
 9117SOL    HW128250   1.821   6.604   0.162
 9117SOL    HW228251   1.697   6.655   0.256
 9118SOL     OW28252   6.582   3.699   1.722
 9118SOL    HW128253   6.491   3.689   1.762
 9118SOL    HW228254   6.592   3.790   1.683
 9119SOL     OW28255   2.950   1.311   1.009
 9119SOL    HW128256   2.924   1.272   1.097
 9119SOL    HW228257   2.969   1.409   1.021
 9120SOL     OW28258   6.428   3.878   4.617
 9120SOL    HW128259   6.522   3.892   4.585
 9120SOL    HW228260   6.376   3.963   4.608
 9121SOL     OW28261   4.228   1.100   4.386
 9121SOL    HW128262   4.191   1.140   4.470
 9121SOL    HW228263   4.165   1.120   4.310
 9122SOL     OW28264   0.316   2.649   1.559
 9122SOL    HW128265   0.405   2.669   1.601
 9122SOL    HW228266   0.245   2.704   1.604
 9123SOL     OW28267   0.637   5.813   4.178
 9123SOL    HW128268   0.549   5.767   4.174
 9123SOL    HW228269   0.706   5.750   4.215
 9124SOL     OW28270   3.805   5.781   0.576
 9124SOL    HW128271   3.870   5.807   0.648
 9124SOL    HW228272   3.844   5.805   0.487
 9125SOL     OW28273   5.416   6.348   1.374
 9125SOL    HW128274   5.341   6.332   1.438
 9125SOL    HW228275   5.473   6.265   1.369
 9126SOL     OW28276   4.482   4.780   0.575
 9126SOL    HW128277   4.449   4.729   0.495
 9126SOL    HW228278   4.541   4.855   0.544
 9127SOL     OW28279   6.410   4.413   5.382
 9127SOL    HW128280   6.432   4.335   5.325
 9127SOL    HW228281   6.480   4.423   5.453
 9128SOL     OW28282   5.796   4.040   6.015
 9128SOL    HW128283   5.891   4.060   5.993
 9128SOL    HW228284   5.770   3.952   5.974
 9129SOL     OW28285   0.876   2.743   0.686
 9129SOL    HW128286   0.818   2.796   0.624
 9129SOL    HW228287   0.857   2.770   0.781
 9130SOL     OW28288   2.678   3.661   5.473
 9130SOL    HW128289   2.719   3.661   5.382
 9130SOL    HW228290   2.637   3.750   5.491
 9131SOL     OW28291   5.255   2.654   0.918
 9131SOL    HW128292   5.177   2.592   0.925
 9131SOL    HW228293   5.256   2.715   0.997
 9132SOL     OW28294   1.062   4.155   4.061
 9132SOL    HW128295   1.019   4.077   4.016
 9132SOL    HW228296   1.072   4.136   4.159
 9133SOL     OW28297   5.756   6.849   1.194
 9133SOL    HW128298   5.810   6.933   1.185
 9133SOL    HW228299   5.763   6.795   1.110
 9134SOL     OW28300   5.155   4.773   6.781
 9134SOL    HW128301   5.218   4.806   6.851
 9134SOL    HW228302   5.061   4.797   6.807
 9135SOL     OW28303   6.488   5.303   2.304
 9135SOL    HW128304   6.458   5.246   2.227
 9135SOL    HW228305   6.478   5.399   2.281
 9136SOL     OW28306   0.473   4.952   0.487
 9136SOL    HW128307   0.546   4.966   0.553
 9136SOL    HW228308   0.404   5.023   0.498
 9137SOL     OW28309   5.625   5.915   5.443
 9137SOL    HW128310   5.535   5.949   5.416
 9137SOL    HW228311   5.692   5.989   5.437
 9138SOL     OW28312   1.942   4.272   6.139
 9138SOL    HW128313   1.939   4.232   6.230
 9138SOL    HW228314   2.024   4.240   6.091
 9139SOL     OW28315   0.297   0.317   1.741
 9139SOL    HW128316   0.200   0.333   1.763
 9139SOL    HW228317   0.353   0.339   1.821
 9140SOL     OW28318   1.999   4.092   2.247
 9140SOL    HW128319   1.936   4.096   2.325
 9140SOL    HW228320   1.955   4.044   2.171
 9141SOL     OW28321   0.230   5.687   4.461
 9141SOL    HW128322   0.224   5.613   4.394
 9141SOL    HW228323   0.205   5.774   4.418
 9142SOL     OW28324   1.232   4.209   3.162
 9142SOL    HW128325   1.299   4.216   3.235
 9142SOL    HW228326   1.250   4.128   3.106
 9143SOL     OW28327   6.095   3.618   2.788
 9143SOL    HW128328   6.036   3.683   2.740
 9143SOL    HW228329   6.051   3.589   2.873
 9144SOL     OW28330   3.064   3.776   5.179
 9144SOL    HW128331   3.094   3.779   5.083
 9144SOL    HW228332   3.144   3.784   5.239
 9145SOL     OW28333   1.849   6.235   5.755
 9145SOL    HW128334   1.825   6.139   5.740
 9145SOL    HW228335   1.943   6.241   5.790
 9146SOL     OW28336   6.063   2.240   3.857
 9146SOL    HW128337   6.016   2.157   3.885
 9146SOL    HW228338   5.999   2.316   3.857
 9147SOL     OW28339   4.119   0.906   5.967
 9147SOL    HW128340   4.057   0.828   5.963
 9147SOL    HW228341   4.156   0.924   5.875
 9148SOL     OW28342   4.419   5.708   1.556
 9148SOL    HW128343   4.517   5.719   1.538
 9148SOL    HW228344   4.391   5.773   1.627
 9149SOL     OW28345   0.955   3.709   1.726
 9149SOL    HW128346   0.905   3.769   1.663
 9149SOL    HW228347   0.897   3.686   1.803
 9150SOL     OW28348   2.887   3.759   6.871
 9150SOL    HW128349   2.800   3.710   6.868
 9150SOL    HW228350   2.878   3.845   6.821
 9151SOL     OW28351   2.248   3.083   3.467
 9151SOL    HW128352   2.229   3.103   3.371
 9151SOL    HW228353   2.313   3.150   3.503
 9152SOL     OW28354   2.044   4.855   2.469
 9152SOL    HW128355   2.119   4.909   2.430
 9152SOL    HW228356   2.082   4.784   2.529
 9153SOL     OW28357   0.543   3.266   0.228
 9153SOL    HW128358   0.482   3.343   0.214
 9153SOL    HW228359   0.520   3.220   0.314
 9154SOL     OW28360   4.849   4.680   3.656
 9154SOL    HW128361   4.876   4.690   3.752
 9154SOL    HW228362   4.767   4.734   3.639
 9155SOL     OW28363   1.049   6.335   2.807
 9155SOL    HW128364   1.119   6.337   2.878
 9155SOL    HW228365   1.004   6.424   2.801
 9156SOL     OW28366   0.099   3.898   5.713
 9156SOL    HW128367   0.014   3.887   5.660
 9156SOL    HW228368   0.122   3.810   5.755
 9157SOL     OW28369   2.075   4.551   5.014
 9157SOL    HW128370   2.133   4.474   5.042
 9157SOL    HW228371   2.098   4.631   5.068
 9158SOL     OW28372   6.857   3.068   4.822
 9158SOL    HW128373   6.946   3.096   4.784
 9158SOL    HW228374   6.790   3.140   4.805
 9159SOL     OW28375   2.457   1.345   3.894
 9159SOL    HW128376   2.388   1.381   3.956
 9159SOL    HW228377   2.420   1.267   3.843
 9160SOL     OW28378   0.993   2.885   6.735
 9160SOL    HW128379   0.942   2.807   6.769
 9160SOL    HW228380   1.039   2.931   6.811
 9161SOL     OW28381   5.947   3.047   3.260
 9161SOL    HW128382   5.872   2.988   3.230
 9161SOL    HW228383   5.927   3.142   3.234
 9162SOL     OW28384   3.823   2.223   1.662
 9162SOL    HW128385   3.750   2.233   1.729
 9162SOL    HW228386   3.801   2.276   1.580
 9163SOL     OW28387   1.709   2.869   4.048
 9163SOL    HW128388   1.794   2.818   4.036
 9163SOL    HW228389   1.691   2.880   4.146
 9164SOL     OW28390   2.584   6.442   6.838
 9164SOL    HW128391   2.487   6.444   6.815
 9164SOL    HW228392   2.594   6.435   6.938
 9165SOL     OW28393   5.913   0.809   6.242
 9165SOL    HW128394   5.911   0.883   6.309
 9165SOL    HW228395   5.819   0.788   6.214
 9166SOL     OW28396   4.394   6.264   1.721
 9166SOL    HW128397   4.428   6.302   1.635
 9166SOL    HW228398   4.396   6.335   1.792
 9167SOL     OW28399   1.630   1.752   4.374
 9167SOL    HW128400   1.613   1.710   4.463
 9167SOL    HW228401   1.545   1.793   4.340
 9168SOL     OW28402   6.447   5.786   5.099
 9168SOL    HW128403   6.395   5.783   5.184
 9168SOL    HW228404   6.540   5.817   5.117
 9169SOL     OW28405   6.631   5.971   0.070
 9169SOL    HW128406   6.604   6.022   0.152
 9169SOL    HW228407   6.646   6.034   7.011
 9170SOL     OW28408   2.380   0.702   5.794
 9170SOL    HW128409   2.412   0.608   5.792
 9170SOL    HW228410   2.338   0.721   5.883
 9171SOL     OW28411   3.466   5.911   0.155
 9171SOL    HW128412   3.422   5.833   0.200
 9171SOL    HW228413   3.496   5.884   0.064
 9172SOL     OW28414   4.559   1.660   5.457
 9172SOL    HW128415   4.586   1.584   5.398
 9172SOL    HW228416   4.635   1.725   5.464
 9173SOL     OW28417   6.010   3.716   5.194
 9173SOL    HW128418   5.977   3.652   5.125
 9173SOL    HW228419   5.934   3.772   5.227
 9174SOL     OW28420   6.015   4.570   0.893
 9174SOL    HW128421   6.107   4.577   0.853
 9174SOL    HW228422   6.016   4.504   0.968
 9175SOL     OW28423   2.084   0.980   1.169
 9175SOL    HW128424   2.151   0.912   1.196
 9175SOL    HW228425   2.126   1.046   1.106
 9176SOL     OW28426   1.754   1.134   2.733
 9176SOL    HW128427   1.798   1.176   2.813
 9176SOL    HW228428   1.824   1.090   2.677
 9177SOL     OW28429   1.110   5.593   3.488
 9177SOL    HW128430   1.132   5.687   3.514
 9177SOL    HW228431   1.047   5.554   3.554
 9178SOL     OW28432   1.161   3.780   1.115
 9178SOL    HW128433   1.128   3.872   1.136
 9178SOL    HW228434   1.196   3.737   1.199
 9179SOL     OW28435   4.185   5.052   3.626
 9179SOL    HW128436   4.210   5.002   3.543
 9179SOL    HW228437   4.195   4.992   3.705
 9180SOL     OW28438   0.613   0.541   5.209
 9180SOL    HW128439   0.661   0.575   5.129
 9180SOL    HW228440   0.564   0.456   5.186
 9181SOL     OW28441   2.787   1.824   3.760
 9181SOL    HW128442   2.732   1.753   3.803
 9181SOL    HW228443   2.884   1.802   3.769
 9182SOL     OW28444   6.637   1.632   2.930
 9182SOL    HW128445   6.582   1.549   2.943
 9182SOL    HW228446   6.629   1.662   2.835
 9183SOL     OW28447   2.082   1.309   5.820
 9183SOL    HW128448   2.028   1.231   5.787
 9183SOL    HW228449   2.144   1.340   5.748
 9184SOL     OW28450   2.514   4.574   1.456
 9184SOL    HW128451   2.561   4.660   1.436
 9184SOL    HW228452   2.570   4.520   1.520
 9185SOL     OW28453   1.644   0.774   5.779
 9185SOL    HW128454   1.635   0.681   5.815
 9185SOL    HW228455   1.554   0.818   5.779
 9186SOL     OW28456   5.649   6.156   6.337
 9186SOL    HW128457   5.738   6.195   6.362
 9186SOL    HW228458   5.610   6.208   6.261
 9187SOL     OW28459   4.975   2.750   1.242
 9187SOL    HW128460   5.031   2.730   1.323
 9187SOL    HW228461   5.020   2.820   1.187
 9188SOL     OW28462   1.224   0.651   1.881
 9188SOL    HW128463   1.137   0.628   1.923
 9188SOL    HW228464   1.285   0.572   1.884
 9189SOL     OW28465   3.097   0.466   5.725
 9189SOL    HW128466   3.188   0.435   5.752
 9189SOL    HW228467   3.103   0.556   5.681
 9190SOL     OW28468   4.355   1.092   5.535
 9190SOL    HW128469   4.367   1.071   5.438
 9190SOL    HW228470   4.310   1.181   5.544
 9191SOL     OW28471   5.433   6.619   1.635
 9191SOL    HW128472   5.463   6.609   1.730
 9191SOL    HW228473   5.377   6.701   1.626
 9192SOL     OW28474   4.758   4.240   4.817
 9192SOL    HW128475   4.761   4.187   4.901
 9192SOL    HW228476   4.700   4.320   4.829
 9193SOL     OW28477   4.095   3.678   3.003
 9193SOL    HW128478   4.150   3.674   3.087
 9193SOL    HW228479   4.050   3.590   2.990
 9194SOL     OW28480   4.008   4.810   3.012
 9194SOL    HW128481   4.087   4.870   2.996
 9194SOL    HW228482   3.955   4.802   2.928
 9195SOL     OW28483   0.886   2.284   3.426
 9195SOL    HW128484   0.956   2.247   3.365
 9195SOL    HW228485   0.836   2.357   3.379
 9196SOL     OW28486   5.404   5.778   3.442
 9196SOL    HW128487   5.383   5.859   3.389
 9196SOL    HW228488   5.323   5.719   3.445
 9197SOL     OW28489   4.673   1.675   0.137
 9197SOL    HW128490   4.676   1.645   0.041
 9197SOL    HW228491   4.762   1.660   0.180
 9198SOL     OW28492   5.928   2.766   5.306
 9198SOL    HW128493   5.861   2.790   5.377
 9198SOL    HW228494   5.930   2.837   5.237
 9199SOL     OW28495   0.973   3.634   6.646
 9199SOL    HW128496   0.884   3.640   6.602
 9199SOL    HW228497   1.042   3.610   6.578
 9200SOL     OW28498   5.260   6.005   1.414
 9200SOL    HW128499   5.198   6.036   1.342
 9200SOL    HW228500   5.354   6.028   1.390
 9201SOL     OW28501   0.122   3.156   1.933
 9201SOL    HW128502   0.059   3.225   1.970
 9201SOL    HW228503   0.072   3.094   1.873
 9202SOL     OW28504   2.634   6.188   4.508
 9202SOL    HW128505   2.667   6.108   4.458
 9202SOL    HW228506   2.709   6.227   4.562
 9203SOL     OW28507   5.094   1.197   0.042
 9203SOL    HW128508   5.110   1.179   6.961
 9203SOL    HW228509   5.036   1.278   0.052
 9204SOL     OW28510   4.932   4.837   2.893
 9204SOL    HW128511   4.916   4.748   2.935
 9204SOL    HW228512   4.989   4.893   2.953
 9205SOL     OW28513   4.414   2.461   1.433
 9205SOL    HW128514   4.489   2.429   1.492
 9205SOL    HW228515   4.452   2.506   1.353
 9206SOL     OW28516   6.342   6.223   5.091
 9206SOL    HW128517   6.404   6.282   5.039
 9206SOL    HW228518   6.266   6.194   5.033
 9207SOL     OW28519   4.326   6.713   0.425
 9207SOL    HW128520   4.321   6.770   0.508
 9207SOL    HW228521   4.299   6.619   0.448
 9208SOL     OW28522   4.577   4.386   1.284
 9208SOL    HW128523   4.591   4.420   1.191
 9208SOL    HW228524   4.479   4.369   1.299
 9209SOL     OW28525   4.206   0.295   3.934
 9209SOL    HW128526   4.222   0.394   3.935
 9209SOL    HW228527   4.179   0.266   3.842
 9210SOL     OW28528   0.967   0.059   6.787
 9210SOL    HW128529   1.000   0.150   6.811
 9210SOL    HW228530   1.023   7.006   6.832
 9211SOL     OW28531   4.867   1.007   6.746
 9211SOL    HW128532   4.821   0.945   6.810
 9211SOL    HW228533   4.847   1.102   6.771
 9212SOL     OW28534   6.088   3.478   5.790
 9212SOL    HW128535   6.017   3.547   5.806
 9212SOL    HW228536   6.105   3.470   5.692
 9213SOL     OW28537   6.451   5.745   1.852
 9213SOL    HW128538   6.490   5.829   1.890
 9213SOL    HW228539   6.351   5.750   1.858
 9214SOL     OW28540   1.795   1.892   6.384
 9214SOL    HW128541   1.852   1.839   6.321
 9214SOL    HW228542   1.835   1.984   6.395
 9215SOL     OW28543   0.419   3.846   3.700
 9215SOL    HW128544   0.365   3.800   3.770
 9215SOL    HW228545   0.410   3.945   3.711
 9216SOL     OW28546   2.579   6.708   3.747
 9216SOL    HW128547   2.507   6.646   3.717
 9216SOL    HW228548   2.590   6.781   3.679
 9217SOL     OW28549   3.638   2.204   6.915
 9217SOL    HW128550   3.732   2.171   6.900
 9217SOL    HW228551   3.641   2.297   6.951
 9218SOL     OW28552   4.913   5.796   5.809
 9218SOL    HW128553   4.819   5.812   5.777
 9218SOL    HW228554   4.914   5.791   5.909
 9219SOL     OW28555   3.285   2.098   5.612
 9219SOL    HW128556   3.279   2.109   5.513
 9219SOL    HW228557   3.198   2.126   5.654
 9220SOL     OW28558   0.514   6.466   3.245
 9220SOL    HW128559   0.464   6.472   3.332
 9220SOL    HW228560   0.605   6.506   3.257
 9221SOL     OW28561   2.434   1.624   1.394
 9221SOL    HW128562   2.412   1.702   1.335
 9221SOL    HW228563   2.528   1.596   1.378
 9222SOL     OW28564   1.818   5.214   3.123
 9222SOL    HW128565   1.818   5.314   3.127
 9222SOL    HW228566   1.827   5.184   3.028
 9223SOL     OW28567   6.854   2.929   5.053
 9223SOL    HW128568   6.762   2.890   5.061
 9223SOL    HW228569   6.854   3.000   4.982
 9224SOL     OW28570   1.672   4.998   2.138
 9224SOL    HW128571   1.574   4.987   2.122
 9224SOL    HW228572   1.687   5.028   2.232
 9225SOL     OW28573   0.708   5.752   6.134
 9225SOL    HW128574   0.665   5.827   6.084
 9225SOL    HW228575   0.794   5.726   6.088
 9226SOL     OW28576   0.796   0.600   4.574
 9226SOL    HW128577   0.700   0.619   4.555
 9226SOL    HW228578   0.852   0.632   4.498
 9227SOL     OW28579   3.511   3.877   0.360
 9227SOL    HW128580   3.441   3.920   0.416
 9227SOL    HW228581   3.524   3.782   0.388
 9228SOL     OW28582   3.867   3.579   5.140
 9228SOL    HW128583   3.787   3.528   5.108
 9228SOL    HW228584   3.934   3.585   5.066
 9229SOL     OW28585   0.179   5.175   0.207
 9229SOL    HW128586   0.244   5.101   0.225
 9229SOL    HW228587   0.210   5.230   0.130
 9230SOL     OW28588   4.372   6.706   5.290
 9230SOL    HW128589   4.363   6.648   5.209
 9230SOL    HW228590   4.378   6.649   5.372
 9231SOL     OW28591   6.397   6.210   1.806
 9231SOL    HW128592   6.308   6.164   1.809
 9231SOL    HW228593   6.421   6.229   1.711
 9232SOL     OW28594   1.573   5.757   2.268
 9232SOL    HW128595   1.656   5.706   2.292
 9232SOL    HW228596   1.493   5.698   2.279
 9233SOL     OW28597   1.201   0.260   5.358
 9233SOL    HW128598   1.225   0.340   5.413
 9233SOL    HW228599   1.108   0.230   5.382
 9234SOL     OW28600   3.591   4.438   5.973
 9234SOL    HW128601   3.506   4.458   5.923
 9234SOL    HW228602   3.670   4.460   5.915
 9235SOL     OW28603   2.341   2.693   3.001
 9235SOL    HW128604   2.338   2.768   3.067
 9235SOL    HW228605   2.373   2.610   3.046
 9236SOL     OW28606   1.261   3.259   6.002
 9236SOL    HW128607   1.349   3.265   6.050
 9236SOL    HW228608   1.221   3.351   5.994
 9237SOL     OW28609   6.455   4.828   3.533
 9237SOL    HW128610   6.485   4.855   3.442
 9237SOL    HW228611   6.395   4.748   3.527
 9238SOL     OW28612   1.466   2.916   5.000
 9238SOL    HW128613   1.421   2.995   4.960
 9238SOL    HW228614   1.503   2.858   4.928
 9239SOL     OW28615   1.303   6.036   5.656
 9239SOL    HW128616   1.378   6.090   5.694
 9239SOL    HW228617   1.340   5.964   5.597
 9240SOL     OW28618   3.181   1.774   4.108
 9240SOL    HW128619   3.184   1.745   4.204
 9240SOL    HW228620   3.238   1.712   4.054
 9241SOL     OW28621   5.783   6.318   0.324
 9241SOL    HW128622   5.873   6.297   0.362
 9241SOL    HW228623   5.775   6.279   0.232
 9242SOL     OW28624   2.125   2.922   0.583
 9242SOL    HW128625   2.218   2.923   0.548
 9242SOL    HW228626   2.126   2.903   0.682
 9243SOL     OW28627   2.166   6.886   0.629
 9243SOL    HW128628   2.080   6.930   0.602
 9243SOL    HW228629   2.174   6.798   0.582
 9244SOL     OW28630   2.407   5.998   6.803
 9244SOL    HW128631   2.310   6.004   6.780
 9244SOL    HW228632   2.451   6.085   6.782
 9245SOL     OW28633   0.736   4.914   2.733
 9245SOL    HW128634   0.645   4.925   2.691
 9245SOL    HW228635   0.783   5.002   2.734
 9246SOL     OW28636   4.622   6.622   0.162
 9246SOL    HW128637   4.682   6.656   0.234
 9246SOL    HW228638   4.532   6.663   0.172
 9247SOL     OW28639   3.865   6.690   2.572
 9247SOL    HW128640   3.797   6.652   2.635
 9247SOL    HW228641   3.860   6.789   2.574
 9248SOL     OW28642   3.032   0.246   6.511
 9248SOL    HW128643   3.113   0.302   6.529
 9248SOL    HW228644   3.003   0.201   6.596
 9249SOL     OW28645   3.176   0.485   0.411
 9249SOL    HW128646   3.124   0.402   0.389
 9249SOL    HW228647   3.161   0.510   0.506
 9250SOL     OW28648   0.586   3.941   2.935
 9250SOL    HW128649   0.667   3.991   2.905
 9250SOL    HW228650   0.533   3.913   2.855
 9251SOL     OW28651   3.951   1.899   1.333
 9251SOL    HW128652   3.895   1.922   1.412
 9251SOL    HW228653   3.928   1.807   1.301
 9252SOL     OW28654   5.526   1.295   4.965
 9252SOL    HW128655   5.595   1.267   4.898
 9252SOL    HW228656   5.563   1.285   5.057
 9253SOL     OW28657   2.278   5.249   4.055
 9253SOL    HW128658   2.338   5.173   4.081
 9253SOL    HW228659   2.297   5.275   3.960
 9254SOL     OW28660   0.059   5.595   2.235
 9254SOL    HW128661   6.979   5.571   2.218
 9254SOL    HW228662   0.101   5.626   2.150
 9255SOL     OW28663   5.926   3.470   0.915
 9255SOL    HW128664   5.967   3.533   0.849
 9255SOL    HW228665   5.892   3.389   0.867
 9256SOL     OW28666   2.568   6.557   0.790
 9256SOL    HW128667   2.645   6.501   0.819
 9256SOL    HW228668   2.491   6.499   0.766
 9257SOL     OW28669   6.573   5.909   4.681
 9257SOL    HW128670   6.522   5.968   4.618
 9257SOL    HW228671   6.526   5.907   4.770
 9258SOL     OW28672   5.118   4.899   2.158
 9258SOL    HW128673   5.214   4.927   2.154
 9258SOL    HW228674   5.062   4.975   2.193
 9259SOL     OW28675   0.884   2.308   6.934
 9259SOL    HW128676   0.844   2.370   7.002
 9259SOL    HW228677   0.912   2.360   6.854
 9260SOL     OW28678   4.876   3.992   4.990
 9260SOL    HW128679   4.836   4.023   5.076
 9260SOL    HW228680   4.916   3.901   5.002
 9261SOL     OW28681   1.828   3.473   2.080
 9261SOL    HW128682   1.914   3.425   2.067
 9261SOL    HW228683   1.833   3.564   2.038
 9262SOL     OW28684   6.988   6.666   6.070
 9262SOL    HW128685   0.060   6.620   6.060
 9262SOL    HW228686   6.932   6.617   6.137
 9263SOL     OW28687   2.509   4.653   2.939
 9263SOL    HW128688   2.502   4.739   2.989
 9263SOL    HW228689   2.529   4.671   2.843
 9264SOL     OW28690   5.092   3.339   5.629
 9264SOL    HW128691   5.049   3.256   5.665
 9264SOL    HW228692   5.192   3.327   5.629
 9265SOL     OW28693   5.115   0.187   1.791
 9265SOL    HW128694   5.115   0.193   1.891
 9265SOL    HW228695   5.021   0.188   1.758
 9266SOL     OW28696   1.131   4.761   1.024
 9266SOL    HW128697   1.205   4.696   1.012
 9266SOL    HW228698   1.165   4.854   1.011
 9267SOL     OW28699   6.886   1.559   4.001
 9267SOL    HW128700   6.977   1.558   4.042
 9267SOL    HW228701   6.817   1.542   4.072
 9268SOL     OW28702   0.626   1.299   1.593
 9268SOL    HW128703   0.527   1.308   1.595
 9268SOL    HW228704   0.664   1.330   1.681
 9269SOL     OW28705   4.144   0.317   1.031
 9269SOL    HW128706   4.218   0.373   1.067
 9269SOL    HW228707   4.062   0.373   1.020
 9270SOL     OW28708   2.890   1.018   5.380
 9270SOL    HW128709   2.863   1.033   5.285
 9270SOL    HW228710   2.823   1.063   5.440
 9271SOL     OW28711   1.329   4.253   5.610
 9271SOL    HW128712   1.257   4.321   5.622
 9271SOL    HW228713   1.308   4.172   5.666
 9272SOL     OW28714   6.437   6.135   5.432
 9272SOL    HW128715   6.372   6.144   5.508
 9272SOL    HW228716   6.392   6.087   5.356
 9273SOL     OW28717   5.832   3.563   4.244
 9273SOL    HW128718   5.885   3.479   4.236
 9273SOL    HW228719   5.762   3.552   4.315
 9274SOL     OW28720   0.149   3.693   6.854
 9274SOL    HW128721   0.165   3.618   6.917
 9274SOL    HW228722   0.155   3.780   6.903
 9275SOL     OW28723   5.690   1.410   0.664
 9275SOL    HW128724   5.646   1.490   0.623
 9275SOL    HW228725   5.645   1.327   0.632
 9276SOL     OW28726   2.412   3.931   0.011
 9276SOL    HW128727   2.418   3.988   0.093
 9276SOL    HW228728   2.494   3.945   6.971
 9277SOL     OW28729   4.426   5.650   2.341
 9277SOL    HW128730   4.336   5.607   2.348
 9277SOL    HW228731   4.425   5.714   2.264
 9278SOL     OW28732   1.113   0.047   5.754
 9278SOL    HW128733   1.109   6.986   5.691
 9278SOL    HW228734   1.029   0.100   5.747
 9279SOL     OW28735   2.938   6.183   1.920
 9279SOL    HW128736   2.898   6.120   1.853
 9279SOL    HW228737   2.908   6.276   1.900
 9280SOL     OW28738   1.156   5.435   2.187
 9280SOL    HW128739   1.172   5.380   2.105
 9280SOL    HW228740   1.117   5.523   2.162
 9281SOL     OW28741   1.370   5.587   0.848
 9281SOL    HW128742   1.284   5.591   0.798
 9281SOL    HW228743   1.425   5.511   0.812
 9282SOL     OW28744   2.214   0.277   4.710
 9282SOL    HW128745   2.255   0.195   4.670
 9282SOL    HW228746   2.138   0.307   4.652
 9283SOL     OW28747   4.431   5.848   6.922
 9283SOL    HW128748   4.481   5.925   6.963
 9283SOL    HW228749   4.335   5.852   6.950
 9284SOL     OW28750   4.037   6.542   0.965
 9284SOL    HW128751   4.131   6.573   0.948
 9284SOL    HW228752   3.978   6.573   0.891
 9285SOL     OW28753   6.867   5.889   3.509
 9285SOL    HW128754   6.951   5.941   3.519
 9285SOL    HW228755   6.861   5.821   3.582
 9286SOL     OW28756   4.774   6.724   1.792
 9286SOL    HW128757   4.806   6.633   1.767
 9286SOL    HW228758   4.765   6.780   1.710
 9287SOL     OW28759   4.579   4.270   6.995
 9287SOL    HW128760   4.503   4.286   6.932
 9287SOL    HW228761   4.554   4.200   0.044
 9288SOL     OW28762   3.925   1.850   2.322
 9288SOL    HW128763   3.920   1.806   2.233
 9288SOL    HW228764   3.947   1.782   2.392
 9289SOL     OW28765   4.369   5.792   1.853
 9289SOL    HW128766   4.271   5.786   1.831
 9289SOL    HW228767   4.384   5.769   1.949
 9290SOL     OW28768   5.472   1.128   3.415
 9290SOL    HW128769   5.422   1.069   3.352
 9290SOL    HW228770   5.542   1.074   3.462
 9291SOL     OW28771   0.559   4.084   5.535
 9291SOL    HW128772   0.469   4.104   5.496
 9291SOL    HW228773   0.551   4.013   5.604
 9292SOL     OW28774   0.727   1.805   6.769
 9292SOL    HW128775   0.640   1.763   6.744
 9292SOL    HW228776   0.710   1.883   6.829
 9293SOL     OW28777   4.554   1.464   5.847
 9293SOL    HW128778   4.483   1.427   5.907
 9293SOL    HW228779   4.574   1.558   5.874
 9294SOL     OW28780   5.109   6.299   6.704
 9294SOL    HW128781   5.039   6.321   6.635
 9294SOL    HW228782   5.134   6.203   6.696
 9295SOL     OW28783   6.481   0.677   3.382
 9295SOL    HW128784   6.464   0.579   3.394
 9295SOL    HW228785   6.539   0.691   3.302
 9296SOL     OW28786   1.925   4.369   5.757
 9296SOL    HW128787   1.941   4.291   5.696
 9296SOL    HW228788   1.858   4.342   5.827
 9297SOL     OW28789   6.896   4.764   1.950
 9297SOL    HW128790   6.925   4.704   2.025
 9297SOL    HW228791   6.831   4.715   1.892
 9298SOL     OW28792   0.291   4.051   6.203
 9298SOL    HW128793   0.203   4.045   6.156
 9298SOL    HW228794   0.302   3.970   6.261
 9299SOL     OW28795   3.113   2.024   3.988
 9299SOL    HW128796   3.191   2.062   3.939
 9299SOL    HW228797   3.141   1.941   4.037
 9300SOL     OW28798   2.744   5.935   5.529
 9300SOL    HW128799   2.745   6.031   5.556
 9300SOL    HW228800   2.838   5.901   5.525
 9301SOL     OW28801   1.007   4.351   4.368
 9301SOL    HW128802   0.988   4.366   4.465
 9301SOL    HW228803   0.928   4.380   4.314
 9302SOL     OW28804   3.149   5.536   3.923
 9302SOL    HW128805   3.206   5.601   3.974
 9302SOL    HW228806   3.159   5.553   3.825
 9303SOL     OW28807   2.345   4.655   0.249
 9303SOL    HW128808   2.246   4.648   0.232
 9303SOL    HW228809   2.383   4.726   0.191
 9304SOL     OW28810   5.430   5.676   6.465
 9304SOL    HW128811   5.472   5.766   6.455
 9304SOL    HW228812   5.437   5.626   6.379
 9305SOL     OW28813   1.655   1.677   0.969
 9305SOL    HW128814   1.564   1.717   0.981
 9305SOL    HW228815   1.650   1.604   0.901
 9306SOL     OW28816   6.928   6.026   4.461
 9306SOL    HW128817   6.851   5.975   4.424
 9306SOL    HW228818   6.902   6.066   4.549
 9307SOL     OW28819   2.101   3.614   1.627
 9307SOL    HW128820   2.083   3.528   1.674
 9307SOL    HW228821   2.174   3.664   1.673
 9308SOL     OW28822   2.367   3.690   1.685
 9308SOL    HW128823   2.396   3.618   1.747
 9308SOL    HW228824   2.430   3.695   1.607
 9309SOL     OW28825   4.921   5.090   6.170
 9309SOL    HW128826   4.937   5.180   6.129
 9309SOL    HW228827   4.858   5.038   6.113
 9310SOL     OW28828   6.138   6.281   5.453
 9310SOL    HW128829   6.083   6.199   5.437
 9310SOL    HW228830   6.093   6.338   5.523
 9311SOL     OW28831   5.731   4.123   0.704
 9311SOL    HW128832   5.647   4.104   0.755
 9311SOL    HW228833   5.710   4.133   0.607
 9312SOL     OW28834   6.369   2.755   4.350
 9312SOL    HW128835   6.384   2.675   4.408
 9312SOL    HW228836   6.380   2.730   4.254
 9313SOL     OW28837   0.563   0.930   2.429
 9313SOL    HW128838   0.572   1.002   2.498
 9313SOL    HW228839   0.594   0.964   2.341
 9314SOL     OW28840   5.419   5.060   1.088
 9314SOL    HW128841   5.369   5.102   1.163
 9314SOL    HW228842   5.467   5.132   1.036
 9315SOL     OW28843   5.661   5.514   5.689
 9315SOL    HW128844   5.625   5.607   5.685
 9315SOL    HW228845   5.709   5.493   5.604
 9316SOL     OW28846   5.026   6.931   0.931
 9316SOL    HW128847   4.976   7.014   0.910
 9316SOL    HW228848   4.981   6.852   0.889
 9317SOL     OW28849   2.393   6.075   3.586
 9317SOL    HW128850   2.424   6.051   3.677
 9317SOL    HW228851   2.295   6.058   3.578
 9318SOL     OW28852   3.358   6.597   2.947
 9318SOL    HW128853   3.326   6.666   2.883
 9318SOL    HW228854   3.440   6.631   2.994
 9319SOL     OW28855   4.009   1.973   0.292
 9319SOL    HW128856   4.078   1.936   0.355
 9319SOL    HW228857   4.054   2.011   0.212
 9320SOL     OW28858   6.598   6.796   6.649
 9320SOL    HW128859   6.527   6.851   6.604
 9320SOL    HW228860   6.681   6.850   6.658
 9321SOL     OW28861   0.715   3.011   3.645
 9321SOL    HW128862   0.724   2.949   3.567
 9321SOL    HW228863   0.757   2.970   3.726
 9322SOL     OW28864   4.965   2.352   0.433
 9322SOL    HW128865   4.865   2.349   0.445
 9322SOL    HW228866   4.999   2.442   0.460
 9323SOL     OW28867   0.381   2.432   5.576
 9323SOL    HW128868   0.376   2.381   5.662
 9323SOL    HW228869   0.407   2.370   5.502
 9324SOL     OW28870   0.522   4.968   1.186
 9324SOL    HW128871   0.449   4.956   1.118
 9324SOL    HW228872   0.505   5.051   1.238
 9325SOL     OW28873   1.055   5.039   3.408
 9325SOL    HW128874   0.997   4.958   3.402
 9325SOL    HW228875   1.092   5.060   3.317
 9326SOL     OW28876   4.802   4.472   0.793
 9326SOL    HW128877   4.847   4.482   0.705
 9326SOL    HW228878   4.713   4.517   0.790
 9327SOL     OW28879   2.529   1.829   3.128
 9327SOL    HW128880   2.469   1.906   3.147
 9327SOL    HW228881   2.601   1.824   3.197
 9328SOL     OW28882   1.802   0.390   3.269
 9328SOL    HW128883   1.705   0.415   3.274
 9328SOL    HW228884   1.836   0.409   3.177
 9329SOL     OW28885   1.093   5.664   6.151
 9329SOL    HW128886   1.069   5.690   6.244
 9329SOL    HW228887   1.089   5.565   6.142
 9330SOL     OW28888   0.885   6.704   0.965
 9330SOL    HW128889   0.942   6.770   1.015
 9330SOL    HW228890   0.817   6.753   0.912
 9331SOL     OW28891   1.963   4.470   4.368
 9331SOL    HW128892   2.047   4.506   4.411
 9331SOL    HW228893   1.972   4.475   4.269
 9332SOL     OW28894   6.812   5.310   0.119
 9332SOL    HW128895   6.718   5.344   0.131
 9332SOL    HW228896   6.871   5.352   0.188
 9333SOL     OW28897   2.280   5.040   1.329
 9333SOL    HW128898   2.375   5.012   1.314
 9333SOL    HW228899   2.259   5.117   1.269
 9334SOL     OW28900   6.888   5.540   6.753
 9334SOL    HW128901   6.829   5.558   6.831
 9334SOL    HW228902   6.910   5.627   6.707
 9335SOL     OW28903   0.204   3.501   1.028
 9335SOL    HW128904   0.149   3.437   1.082
 9335SOL    HW228905   0.290   3.520   1.075
 9336SOL     OW28906   4.616   5.810   5.164
 9336SOL    HW128907   4.709   5.847   5.164
 9336SOL    HW228908   4.574   5.824   5.254
 9337SOL     OW28909   2.696   1.698   5.490
 9337SOL    HW128910   2.678   1.630   5.561
 9337SOL    HW228911   2.628   1.771   5.497
 9338SOL     OW28912   4.975   6.664   0.802
 9338SOL    HW128913   5.058   6.626   0.842
 9338SOL    HW228914   4.895   6.630   0.851
 9339SOL     OW28915   6.790   3.500   5.359
 9339SOL    HW128916   6.696   3.513   5.391
 9339SOL    HW228917   6.816   3.404   5.371
 9340SOL     OW28918   2.817   4.801   2.738
 9340SOL    HW128919   2.826   4.889   2.785
 9340SOL    HW228920   2.872   4.802   2.655
 9341SOL     OW28921   5.540   5.223   0.323
 9341SOL    HW128922   5.604   5.289   0.285
 9341SOL    HW228923   5.449   5.264   0.330
 9342SOL     OW28924   3.086   0.446   5.098
 9342SOL    HW128925   3.034   0.360   5.087
 9342SOL    HW228926   3.141   0.462   5.017
 9343SOL     OW28927   4.893   3.929   1.534
 9343SOL    HW128928   4.864   4.013   1.579
 9343SOL    HW228929   4.826   3.857   1.551
 9344SOL     OW28930   5.688   0.124   4.758
 9344SOL    HW128931   5.734   0.184   4.693
 9344SOL    HW228932   5.612   0.173   4.800
 9345SOL     OW28933   0.119   4.926   6.647
 9345SOL    HW128934   0.201   4.977   6.620
 9345SOL    HW228935   0.143   4.863   6.722
 9346SOL     OW28936   5.386   0.448   2.134
 9346SOL    HW128937   5.379   0.463   2.232
 9346SOL    HW228938   5.339   0.362   2.110
 9347SOL     OW28939   4.836   6.078   1.859
 9347SOL    HW128940   4.916   6.030   1.824
 9347SOL    HW228941   4.756   6.053   1.804
 9348SOL     OW28942   2.636   4.916   2.269
 9348SOL    HW128943   2.617   4.993   2.208
 9348SOL    HW228944   2.551   4.865   2.286
 9349SOL     OW28945   6.397   5.801   1.020
 9349SOL    HW128946   6.329   5.800   0.947
 9349SOL    HW228947   6.352   5.825   1.107
 9350SOL     OW28948   6.375   6.902   0.455
 9350SOL    HW128949   6.305   6.903   0.384
 9350SOL    HW228950   6.455   6.850   0.423
 9351SOL     OW28951   4.538   3.394   6.542
 9351SOL    HW128952   4.467   3.324   6.534
 9351SOL    HW228953   4.624   3.351   6.570
 9352SOL     OW28954   2.378   2.249   6.508
 9352SOL    HW128955   2.288   2.225   6.544
 9352SOL    HW228956   2.448   2.230   6.577
 9353SOL     OW28957   1.100   2.789   1.540
 9353SOL    HW128958   1.171   2.853   1.513
 9353SOL    HW228959   1.130   2.695   1.520
 9354SOL     OW28960   5.199   1.916   2.439
 9354SOL    HW128961   5.151   2.002   2.424
 9354SOL    HW228962   5.191   1.858   2.358
 9355SOL     OW28963   0.146   1.774   2.329
 9355SOL    HW128964   0.195   1.702   2.377
 9355SOL    HW228965   0.211   1.833   2.281
 9356SOL     OW28966   5.668   3.145   2.633
 9356SOL    HW128967   5.650   3.059   2.585
 9356SOL    HW228968   5.601   3.213   2.603
 9357SOL     OW28969   2.309   4.803   0.646
 9357SOL    HW128970   2.379   4.859   0.602
 9357SOL    HW228971   2.301   4.716   0.598
 9358SOL     OW28972   5.028   3.624   2.394
 9358SOL    HW128973   4.967   3.703   2.400
 9358SOL    HW228974   4.989   3.557   2.331
 9359SOL     OW28975   4.716   5.496   6.164
 9359SOL    HW128976   4.806   5.461   6.189
 9359SOL    HW228977   4.666   5.523   6.246
 9360SOL     OW28978   1.362   0.998   4.898
 9360SOL    HW128979   1.316   0.951   4.973
 9360SOL    HW228980   1.461   0.994   4.912
 9361SOL     OW28981   2.170   1.386   2.467
 9361SOL    HW128982   2.115   1.469   2.478
 9361SOL    HW228983   2.199   1.378   2.372
 9362SOL     OW28984   2.216   1.805   3.293
 9362SOL    HW128985   2.159   1.752   3.232
 9362SOL    HW228986   2.223   1.899   3.260
 9363SOL     OW28987   1.436   6.601   2.278
 9363SOL    HW128988   1.451   6.612   2.376
 9363SOL    HW228989   1.399   6.510   2.260
 9364SOL     OW28990   5.147   4.537   1.129
 9364SOL    HW128991   5.158   4.466   1.060
 9364SOL    HW228992   5.234   4.549   1.177
 9365SOL     OW28993   2.305   1.094   3.924
 9365SOL    HW128994   2.281   1.168   3.987
 9365SOL    HW228995   2.222   1.046   3.897
 9366SOL     OW28996   3.137   1.313   1.982
 9366SOL    HW128997   3.176   1.402   2.006
 9366SOL    HW228998   3.150   1.250   2.058
 9367SOL     OW28999   6.529   6.512   4.065
 9367SOL    HW129000   6.485   6.598   4.040
 9367SOL    HW229001   6.577   6.523   4.152
 9368SOL     OW29002   4.453   3.024   0.475
 9368SOL    HW129003   4.402   3.037   0.390
 9368SOL    HW229004   4.541   3.071   0.468
 9369SOL     OW29005   0.341   2.120   5.470
 9369SOL    HW129006   0.399   2.073   5.537
 9369SOL    HW229007   0.396   2.188   5.421
 9370SOL     OW29008   5.709   5.678   2.866
 9370SOL    HW129009   5.749   5.693   2.775
 9370SOL    HW229010   5.749   5.596   2.906
 9371SOL     OW29011   1.059   6.762   0.558
 9371SOL    HW129012   1.117   6.702   0.503
 9371SOL    HW229013   1.113   6.802   0.632
 9372SOL     OW29014   5.611   6.473   0.441
 9372SOL    HW129015   5.670   6.531   0.496
 9372SOL    HW229016   5.666   6.402   0.396
 9373SOL     OW29017   5.635   2.141   4.632
 9373SOL    HW129018   5.660   2.222   4.579
 9373SOL    HW229019   5.546   2.107   4.600
 9374SOL     OW29020   4.568   4.200   0.414
 9374SOL    HW129021   4.625   4.186   0.333
 9374SOL    HW229022   4.618   4.172   0.495
 9375SOL     OW29023   6.703   1.219   4.191
 9375SOL    HW129024   6.706   1.264   4.102
 9375SOL    HW229025   6.778   1.252   4.248
 9376SOL     OW29026   2.133   2.739   1.376
 9376SOL    HW129027   2.051   2.783   1.411
 9376SOL    HW229028   2.211   2.801   1.385
 9377SOL     OW29029   6.305   5.044   2.504
 9377SOL    HW129030   6.317   4.975   2.576
 9377SOL    HW229031   6.343   5.009   2.419
 9378SOL     OW29032   3.450   6.166   1.222
 9378SOL    HW129033   3.544   6.165   1.187
 9378SOL    HW229034   3.452   6.173   1.322
 9379SOL     OW29035   5.657   5.027   5.110
 9379SOL    HW129036   5.670   5.051   5.014
 9379SOL    HW229037   5.745   4.998   5.149
 9380SOL     OW29038   6.272   5.442   6.082
 9380SOL    HW129039   6.344   5.503   6.116
 9380SOL    HW229040   6.314   5.363   6.037
 9381SOL     OW29041   1.252   1.086   0.173
 9381SOL    HW129042   1.254   1.060   0.269
 9381SOL    HW229043   1.180   1.154   0.158
 9382SOL     OW29044   5.022   2.124   2.402
 9382SOL    HW129045   5.076   2.184   2.462
 9382SOL    HW229046   4.933   2.165   2.385
 9383SOL     OW29047   6.345   5.255   5.871
 9383SOL    HW129048   6.389   5.335   5.830
 9383SOL    HW229049   6.249   5.251   5.842
 9384SOL     OW29050   3.956   6.315   3.187
 9384SOL    HW129051   3.926   6.266   3.105
 9384SOL    HW229052   4.004   6.398   3.160
 9385SOL     OW29053   4.048   1.095   4.200
 9385SOL    HW129054   4.030   1.103   4.102
 9385SOL    HW229055   3.972   1.048   4.244
 9386SOL     OW29056   4.003   0.436   5.512
 9386SOL    HW129057   4.086   0.433   5.456
 9386SOL    HW229058   3.924   0.415   5.455
 9387SOL     OW29059   3.906   5.973   1.011
 9387SOL    HW129060   3.996   5.966   1.055
 9387SOL    HW229061   3.840   5.916   1.060
 9388SOL     OW29062   6.377   6.752   2.301
 9388SOL    HW129063   6.351   6.842   2.265
 9388SOL    HW229064   6.318   6.682   2.260
 9389SOL     OW29065   3.550   1.774   0.095
 9389SOL    HW129066   3.648   1.793   0.104
 9389SOL    HW229067   3.513   1.829   0.020
 9390SOL     OW29068   3.068   5.630   1.505
 9390SOL    HW129069   3.070   5.721   1.546
 9390SOL    HW229070   2.994   5.625   1.438
 9391SOL     OW29071   6.709   1.240   5.323
 9391SOL    HW129072   6.688   1.144   5.342
 9391SOL    HW229073   6.781   1.246   5.254
 9392SOL     OW29074   1.255   6.810   4.555
 9392SOL    HW129075   1.249   6.848   4.647
 9392SOL    HW229076   1.312   6.728   4.556
 9393SOL     OW29077   3.883   1.830   5.474
 9393SOL    HW129078   3.873   1.928   5.487
 9393SOL    HW229079   3.793   1.788   5.462
 9394SOL     OW29080   5.642   2.538   1.585
 9394SOL    HW129081   5.725   2.530   1.641
 9394SOL    HW229082   5.563   2.507   1.638
 9395SOL     OW29083   1.920   2.732   6.482
 9395SOL    HW129084   1.963   2.675   6.552
 9395SOL    HW229085   1.879   2.673   6.412
 9396SOL     OW29086   6.858   0.855   6.471
 9396SOL    HW129087   6.780   0.843   6.409
 9396SOL    HW229088   6.926   0.913   6.426
 9397SOL     OW29089   2.749   1.874   1.157
 9397SOL    HW129090   2.670   1.892   1.215
 9397SOL    HW229091   2.832   1.873   1.214
 9398SOL     OW29092   2.416   1.423   0.735
 9398SOL    HW129093   2.327   1.455   0.701
 9398SOL    HW229094   2.426   1.326   0.717
 9399SOL     OW29095   6.715   0.360   5.479
 9399SOL    HW129096   6.694   0.414   5.561
 9399SOL    HW229097   6.725   0.264   5.504
 9400SOL     OW29098   4.021   1.695   3.701
 9400SOL    HW129099   3.988   1.719   3.610
 9400SOL    HW229100   4.085   1.618   3.694
 9401SOL     OW29101   4.292   7.010   3.644
 9401SOL    HW129102   4.278   6.983   3.549
 9401SOL    HW229103   4.287   6.930   3.703
 9402SOL     OW29104   2.216   5.047   0.217
 9402SOL    HW129105   2.215   4.993   0.301
 9402SOL    HW229106   2.267   5.132   0.232
 9403SOL     OW29107   5.814   0.690   4.952
 9403SOL    HW129108   5.800   0.688   5.051
 9403SOL    HW229109   5.750   0.628   4.908
 9404SOL     OW29110   1.325   3.803   5.650
 9404SOL    HW129111   1.288   3.868   5.716
 9404SOL    HW229112   1.264   3.796   5.571
 9405SOL     OW29113   0.132   0.000   0.948
 9405SOL    HW129114   0.116   6.991   0.853
 9405SOL    HW229115   0.080   0.083   0.969
 9406SOL     OW29116   6.606   0.969   5.373
 9406SOL    HW129117   6.614   0.912   5.455
 9406SOL    HW229118   6.664   0.932   5.301
 9407SOL     OW29119   3.867   5.875   3.327
 9407SOL    HW129120   3.822   5.961   3.351
 9407SOL    HW229121   3.959   5.894   3.291
 9408SOL     OW29122   4.241   1.772   0.288
 9408SOL    HW129123   4.209   1.743   0.198
 9408SOL    HW229124   4.210   1.707   0.357
 9409SOL     OW29125   5.835   3.553   3.628
 9409SOL    HW129126   5.825   3.473   3.688
 9409SOL    HW229127   5.758   3.557   3.564
 9410SOL     OW29128   4.423   6.490   1.931
 9410SOL    HW129129   4.487   6.560   1.901
 9410SOL    HW229130   4.456   6.448   2.016
 9411SOL     OW29131   4.704   5.759   1.508
 9411SOL    HW129132   4.736   5.665   1.501
 9411SOL    HW229133   4.777   5.817   1.545
 9412SOL     OW29134   5.799   2.979   2.361
 9412SOL    HW129135   5.847   2.936   2.438
 9412SOL    HW229136   5.701   2.975   2.377
 9413SOL     OW29137   3.662   4.934   4.097
 9413SOL    HW129138   3.721   4.866   4.141
 9413SOL    HW229139   3.701   4.960   4.008
 9414SOL     OW29140   2.062   1.142   2.475
 9414SOL    HW129141   2.104   1.232   2.489
 9414SOL    HW229142   2.056   1.123   2.377
 9415SOL     OW29143   2.388   1.150   2.154
 9415SOL    HW129144   2.461   1.086   2.180
 9415SOL    HW229145   2.312   1.100   2.113
 9416SOL     OW29146   1.746   1.955   0.993
 9416SOL    HW129147   1.845   1.965   0.996
 9416SOL    HW229148   1.722   1.884   0.926
 9417SOL     OW29149   1.933   0.443   4.612
 9417SOL    HW129150   1.892   0.482   4.695
 9417SOL    HW229151   1.932   0.512   4.540
 9418SOL     OW29152   4.299   4.362   1.328
 9418SOL    HW129153   4.242   4.316   1.260
 9418SOL    HW229154   4.264   4.455   1.344
 9419SOL     OW29155   3.599   5.384   4.468
 9419SOL    HW129156   3.576   5.287   4.456
 9419SOL    HW229157   3.644   5.396   4.557
 9420SOL     OW29158   1.332   1.538   4.539
 9420SOL    HW129159   1.316   1.441   4.525
 9420SOL    HW229160   1.334   1.585   4.451
 9421SOL     OW29161   1.877   5.456   4.315
 9421SOL    HW129162   1.968   5.426   4.285
 9421SOL    HW229163   1.857   5.546   4.277
 9422SOL     OW29164   4.495   1.183   2.636
 9422SOL    HW129165   4.554   1.152   2.561
 9422SOL    HW229166   4.463   1.103   2.687
 9423SOL     OW29167   4.853   6.884   4.555
 9423SOL    HW129168   4.827   6.960   4.495
 9423SOL    HW229169   4.856   6.917   4.650
 9424SOL     OW29170   3.079   6.203   4.368
 9424SOL    HW129171   3.009   6.192   4.298
 9424SOL    HW229172   3.117   6.296   4.364
 9425SOL     OW29173   1.208   5.050   3.136
 9425SOL    HW129174   1.173   5.062   3.044
 9425SOL    HW229175   1.264   5.129   3.161
 9426SOL     OW29176   3.309   5.705   0.926
 9426SOL    HW129177   3.318   5.805   0.934
 9426SOL    HW229178   3.288   5.682   0.831
 9427SOL     OW29179   2.960   4.788   4.315
 9427SOL    HW129180   2.927   4.785   4.409
 9427SOL    HW229181   2.961   4.696   4.276
 9428SOL     OW29182   5.076   6.066   2.142
 9428SOL    HW129183   5.086   6.127   2.220
 9428SOL    HW229184   5.004   5.999   2.161
 9429SOL     OW29185   6.980   3.134   2.691
 9429SOL    HW129186   6.922   3.207   2.727
 9429SOL    HW229187   0.031   3.107   2.760
 9430SOL     OW29188   5.615   6.912   2.197
 9430SOL    HW129189   5.526   6.930   2.238
 9430SOL    HW229190   5.631   6.975   2.121
 9431SOL     OW29191   6.214   3.768   0.828
 9431SOL    HW129192   6.219   3.817   0.915
 9431SOL    HW229193   6.238   3.672   0.841
 9432SOL     OW29194   6.746   6.737   4.489
 9432SOL    HW129195   6.742   6.833   4.514
 9432SOL    HW229196   6.747   6.680   4.571
 9433SOL     OW29197   3.162   4.909   4.769
 9433SOL    HW129198   3.122   4.873   4.853
 9433SOL    HW229199   3.113   4.872   4.690
 9434SOL     OW29200   5.816   4.617   3.260
 9434SOL    HW129201   5.753   4.545   3.231
 9434SOL    HW229202   5.872   4.584   3.336
 9435SOL     OW29203   1.933   1.955   4.780
 9435SOL    HW129204   1.967   1.928   4.690
 9435SOL    HW229205   1.860   2.022   4.769
 9436SOL     OW29206   2.317   2.129   5.834
 9436SOL    HW129207   2.328   2.030   5.841
 9436SOL    HW229208   2.394   2.174   5.880
 9437SOL     OW29209   0.899   5.203   3.907
 9437SOL    HW129210   0.853   5.292   3.909
 9437SOL    HW229211   0.855   5.145   3.838
 9438SOL     OW29212   0.769   6.774   2.305
 9438SOL    HW129213   0.701   6.847   2.300
 9438SOL    HW229214   0.742   6.699   2.245
 9439SOL     OW29215   1.741   2.917   1.489
 9439SOL    HW129216   1.766   2.820   1.494
 9439SOL    HW229217   1.733   2.955   1.581
 9440SOL     OW29218   4.262   5.842   4.844
 9440SOL    HW129219   4.346   5.873   4.888
 9440SOL    HW229220   4.238   5.906   4.771
 9441SOL     OW29221   1.517   5.783   5.204
 9441SOL    HW129222   1.503   5.836   5.288
 9441SOL    HW229223   1.429   5.772   5.157
 9442SOL     OW29224   0.533   3.605   1.374
 9442SOL    HW129225   0.580   3.662   1.442
 9442SOL    HW229226   0.547   3.508   1.396
 9443SOL     OW29227   2.011   3.036   1.559
 9443SOL    HW129228   2.058   3.113   1.515
 9443SOL    HW229229   1.934   3.007   1.502
 9444SOL     OW29230   1.258   4.037   5.792
 9444SOL    HW129231   1.166   4.035   5.754
 9444SOL    HW229232   1.253   4.043   5.892
 9445SOL     OW29233   6.018   3.358   1.732
 9445SOL    HW129234   6.082   3.335   1.658
 9445SOL    HW229235   6.068   3.369   1.817
 9446SOL     OW29236   5.923   4.325   0.638
 9446SOL    HW129237   5.860   4.256   0.673
 9446SOL    HW229238   5.915   4.409   0.691
 9447SOL     OW29239   5.922   2.223   1.368
 9447SOL    HW129240   5.983   2.254   1.441
 9447SOL    HW229241   5.862   2.151   1.404
 9448SOL     OW29242   6.238   6.078   0.454
 9448SOL    HW129243   6.312   6.129   0.411
 9448SOL    HW229244   6.151   6.124   0.436
 9449SOL     OW29245   6.651   5.126   5.296
 9449SOL    HW129246   6.567   5.103   5.345
 9449SOL    HW229247   6.719   5.160   5.361
 9450SOL     OW29248   2.755   5.976   4.371
 9450SOL    HW129249   2.699   5.893   4.365
 9450SOL    HW229250   2.829   5.961   4.437
 9451SOL     OW29251   4.370   4.231   5.806
 9451SOL    HW129252   4.326   4.152   5.763
 9451SOL    HW229253   4.367   4.219   5.906
 9452SOL     OW29254   3.369   4.628   1.170
 9452SOL    HW129255   3.357   4.727   1.180
 9452SOL    HW229256   3.455   4.609   1.123
 9453SOL     OW29257   2.828   5.365   1.441
 9453SOL    HW129258   2.873   5.451   1.418
 9453SOL    HW229259   2.773   5.335   1.363
 9454SOL     OW29260   2.008   1.820   5.515
 9454SOL    HW129261   1.946   1.872   5.573
 9454SOL    HW229262   1.999   1.850   5.420
 9455SOL     OW29263   2.384   2.095   2.471
 9455SOL    HW129264   2.390   2.194   2.484
 9455SOL    HW229265   2.444   2.050   2.538
 9456SOL     OW29266   1.070   3.696   0.872
 9456SOL    HW129267   1.092   3.735   0.962
 9456SOL    HW229268   1.107   3.603   0.867
 9457SOL     OW29269   6.861   3.214   0.384
 9457SOL    HW129270   6.765   3.235   0.400
 9457SOL    HW229271   6.883   3.125   0.424
 9458SOL     OW29272   0.796   5.686   4.332
 9458SOL    HW129273   0.894   5.673   4.317
 9458SOL    HW229274   0.759   5.608   4.382
 9459SOL     OW29275   4.363   6.435   1.464
 9459SOL    HW129276   4.271   6.424   1.427
 9459SOL    HW229277   4.365   6.511   1.529
 9460SOL     OW29278   0.933   2.299   5.797
 9460SOL    HW129279   0.893   2.207   5.791
 9460SOL    HW229280   0.859   2.367   5.799
 9461SOL     OW29281   1.611   0.700   2.211
 9461SOL    HW129282   1.524   0.651   2.216
 9461SOL    HW229283   1.668   0.659   2.139
 9462SOL     OW29284   0.020   2.858   3.209
 9462SOL    HW129285   0.065   2.869   3.120
 9462SOL    HW229286   0.089   2.862   3.281
 9463SOL     OW29287   5.308   1.859   6.552
 9463SOL    HW129288   5.218   1.824   6.528
 9463SOL    HW229289   5.376   1.818   6.490
 9464SOL     OW29290   4.272   6.925   5.911
 9464SOL    HW129291   4.280   6.825   5.905
 9464SOL    HW229292   4.289   6.954   6.006
 9465SOL     OW29293   5.432   0.015   4.399
 9465SOL    HW129294   5.485   0.090   4.359
 9465SOL    HW229295   5.361   7.003   4.335
 9466SOL     OW29296   2.292   1.965   6.812
 9466SOL    HW129297   2.298   1.911   6.728
 9466SOL    HW229298   2.202   2.008   6.818
 9467SOL     OW29299   2.071   3.317   2.087
 9467SOL    HW129300   2.132   3.391   2.058
 9467SOL    HW229301   2.090   3.293   2.182
 9468SOL     OW29302   0.670   2.558   6.478
 9468SOL    HW129303   0.666   2.541   6.576
 9468SOL    HW229304   0.723   2.642   6.460
 9469SOL     OW29305   6.729   4.006   2.820
 9469SOL    HW129306   6.662   4.049   2.759
 9469SOL    HW229307   6.723   3.907   2.811
 9470SOL     OW29308   5.946   3.524   1.487
 9470SOL    HW129309   5.860   3.558   1.450
 9470SOL    HW229310   5.927   3.469   1.569
 9471SOL     OW29311   0.425   2.727   6.204
 9471SOL    HW129312   0.411   2.780   6.121
 9471SOL    HW229313   0.428   2.629   6.181
 9472SOL     OW29314   6.644   2.264   4.473
 9472SOL    HW129315   6.641   2.361   4.499
 9472SOL    HW229316   6.574   2.246   4.404
 9473SOL     OW29317   3.697   5.509   4.682
 9473SOL    HW129318   3.675   5.484   4.776
 9473SOL    HW229319   3.728   5.604   4.679
 9474SOL     OW29320   3.602   5.182   3.721
 9474SOL    HW129321   3.611   5.083   3.727
 9474SOL    HW229322   3.661   5.217   3.648
 9475SOL     OW29323   1.974   3.315   1.429
 9475SOL    HW129324   1.973   3.415   1.429
 9475SOL    HW229325   1.922   3.281   1.351
 9476SOL     OW29326   3.604   3.398   5.470
 9476SOL    HW129327   3.680   3.355   5.423
 9476SOL    HW229328   3.546   3.446   5.403
 9477SOL     OW29329   0.226   1.905   1.083
 9477SOL    HW129330   0.272   1.932   0.999
 9477SOL    HW229331   0.213   1.806   1.083
 9478SOL     OW29332   5.213   3.712   5.602
 9478SOL    HW129333   5.275   3.785   5.575
 9478SOL    HW229334   5.241   3.627   5.557
 9479SOL     OW29335   6.419   5.583   4.901
 9479SOL    HW129336   6.422   5.663   4.961
 9479SOL    HW229337   6.512   5.554   4.879
 9480SOL     OW29338   5.650   4.032   6.248
 9480SOL    HW129339   5.711   4.017   6.171
 9480SOL    HW229340   5.567   3.977   6.236
 9481SOL     OW29341   6.685   3.799   2.473
 9481SOL    HW129342   6.779   3.767   2.471
 9481SOL    HW229343   6.669   3.863   2.399
 9482SOL     OW29344   4.631   0.189   3.121
 9482SOL    HW129345   4.610   0.213   3.026
 9482SOL    HW229346   4.555   0.136   3.159
 9483SOL     OW29347   1.890   1.921   0.523
 9483SOL    HW129348   1.903   1.992   0.454
 9483SOL    HW229349   1.932   1.836   0.493
 9484SOL     OW29350   5.836   1.045   2.747
 9484SOL    HW129351   5.736   1.056   2.753
 9484SOL    HW229352   5.866   0.980   2.816
 9485SOL     OW29353   1.128   0.309   2.594
 9485SOL    HW129354   1.151   0.212   2.603
 9485SOL    HW229355   1.033   0.324   2.622
 9486SOL     OW29356   2.680   5.796   2.278
 9486SOL    HW129357   2.755   5.732   2.264
 9486SOL    HW229358   2.651   5.793   2.374
 9487SOL     OW29359   3.051   3.214   3.142
 9487SOL    HW129360   3.080   3.193   3.236
 9487SOL    HW229361   2.969   3.270   3.144
 9488SOL     OW29362   1.469   1.432   1.380
 9488SOL    HW129363   1.436   1.504   1.318
 9488SOL    HW229364   1.559   1.457   1.415
 9489SOL     OW29365   3.234   4.494   0.503
 9489SOL    HW129366   3.195   4.574   0.458
 9489SOL    HW229367   3.276   4.435   0.435
 9490SOL     OW29368   5.649   1.549   0.220
 9490SOL    HW129369   5.609   1.583   0.305
 9490SOL    HW229370   5.743   1.583   0.212
 9491SOL     OW29371   0.362   4.852   5.134
 9491SOL    HW129372   0.373   4.878   5.230
 9491SOL    HW229373   0.439   4.889   5.081
 9492SOL     OW29374   2.883   4.241   1.399
 9492SOL    HW129375   2.904   4.336   1.377
 9492SOL    HW229376   2.909   4.222   1.494
 9493SOL     OW29377   5.475   6.278   2.207
 9493SOL    HW129378   5.418   6.291   2.126
 9493SOL    HW229379   5.569   6.305   2.186
 9494SOL     OW29380   3.339   3.239   6.062
 9494SOL    HW129381   3.287   3.323   6.053
 9494SOL    HW229382   3.384   3.217   5.976
 9495SOL     OW29383   5.770   2.044   4.846
 9495SOL    HW129384   5.723   2.053   4.758
 9495SOL    HW229385   5.703   2.043   4.920
 9496SOL     OW29386   5.530   3.810   0.183
 9496SOL    HW129387   5.499   3.888   0.237
 9496SOL    HW229388   5.620   3.830   0.144
 9497SOL     OW29389   0.316   6.701   6.252
 9497SOL    HW129390   0.279   6.691   6.344
 9497SOL    HW229391   0.274   6.634   6.191
 9498SOL     OW29392   4.154   0.394   6.306
 9498SOL    HW129393   4.146   0.412   6.208
 9498SOL    HW229394   4.080   0.440   6.354
 9499SOL     OW29395   4.574   4.572   6.317
 9499SOL    HW129396   4.606   4.642   6.380
 9499SOL    HW229397   4.552   4.489   6.368
 9500SOL     OW29398   5.266   5.431   1.946
 9500SOL    HW129399   5.309   5.374   2.016
 9500SOL    HW229400   5.199   5.492   1.989
 9501SOL     OW29401   3.217   1.806   4.752
 9501SOL    HW129402   3.253   1.860   4.828
 9501SOL    HW229403   3.168   1.726   4.788
 9502SOL     OW29404   4.547   3.357   5.925
 9502SOL    HW129405   4.546   3.431   5.992
 9502SOL    HW229406   4.462   3.305   5.932
 9503SOL     OW29407   1.317   0.077   1.114
 9503SOL    HW129408   1.301   0.139   1.191
 9503SOL    HW229409   1.358   0.127   1.038
 9504SOL     OW29410   1.113   3.313   7.006
 9504SOL    HW129411   1.020   3.276   6.996
 9504SOL    HW229412   1.151   3.331   6.915
 9505SOL     OW29413   4.851   3.651   2.729
 9505SOL    HW129414   4.867   3.587   2.804
 9505SOL    HW229415   4.864   3.604   2.642
 9506SOL     OW29416   6.850   2.494   0.934
 9506SOL    HW129417   6.754   2.495   0.961
 9506SOL    HW229418   6.907   2.477   1.014
 9507SOL     OW29419   1.251   2.010   4.262
 9507SOL    HW129420   1.237   2.071   4.340
 9507SOL    HW229421   1.297   2.059   4.189
 9508SOL     OW29422   4.971   1.755   6.163
 9508SOL    HW129423   5.000   1.685   6.098
 9508SOL    HW229424   4.924   1.828   6.114
 9509SOL     OW29425   2.942   6.611   5.435
 9509SOL    HW129426   2.908   6.614   5.529
 9509SOL    HW229427   3.042   6.607   5.437
 9510SOL     OW29428   6.617   4.284   3.117
 9510SOL    HW129429   6.632   4.203   3.174
 9510SOL    HW229430   6.526   4.279   3.075
 9511SOL     OW29431   1.890   1.309   1.079
 9511SOL    HW129432   1.923   1.403   1.074
 9511SOL    HW229433   1.924   1.258   1.000
 9512SOL     OW29434   1.431   3.005   4.616
 9512SOL    HW129435   1.403   2.985   4.522
 9512SOL    HW229436   1.529   3.024   4.619
 9513SOL     OW29437   2.432   4.312   3.981
 9513SOL    HW129438   2.421   4.219   4.015
 9513SOL    HW229439   2.473   4.369   4.052
 9514SOL     OW29440   2.596   2.769   6.031
 9514SOL    HW129441   2.547   2.790   6.115
 9514SOL    HW229442   2.594   2.848   5.970
 9515SOL     OW29443   2.435   5.133   5.596
 9515SOL    HW129444   2.493   5.062   5.555
 9515SOL    HW229445   2.349   5.138   5.545
 9516SOL     OW29446   5.446   4.052   5.340
 9516SOL    HW129447   5.384   3.998   5.283
 9516SOL    HW229448   5.398   4.132   5.375
 9517SOL     OW29449   0.964   5.870   1.845
 9517SOL    HW129450   1.040   5.863   1.780
 9517SOL    HW229451   0.878   5.880   1.794
 9518SOL     OW29452   0.637   2.913   5.137
 9518SOL    HW129453   0.557   2.970   5.157
 9518SOL    HW229454   0.720   2.964   5.160
 9519SOL     OW29455   3.686   2.912   3.547
 9519SOL    HW129456   3.632   2.924   3.464
 9519SOL    HW229457   3.625   2.888   3.623
 9520SOL     OW29458   5.009   6.973   6.217
 9520SOL    HW129459   4.932   6.950   6.277
 9520SOL    HW229460   5.073   0.016   6.266
 9521SOL     OW29461   3.446   1.369   1.291
 9521SOL    HW129462   3.430   1.317   1.207
 9521SOL    HW229463   3.366   1.360   1.351
 9522SOL     OW29464   3.253   6.074   1.757
 9522SOL    HW129465   3.328   6.009   1.753
 9522SOL    HW229466   3.268   6.137   1.833
 9523SOL     OW29467   2.660   4.678   4.048
 9523SOL    HW129468   2.744   4.693   3.996
 9523SOL    HW229469   2.640   4.757   4.105
 9524SOL     OW29470   2.138   3.687   0.888
 9524SOL    HW129471   2.085   3.736   0.819
 9524SOL    HW229472   2.117   3.724   0.979
 9525SOL     OW29473   2.468   3.222   5.397
 9525SOL    HW129474   2.481   3.148   5.331
 9525SOL    HW229475   2.556   3.250   5.434
 9526SOL     OW29476   5.443   5.422   0.061
 9526SOL    HW129477   5.430   5.479   6.997
 9526SOL    HW229478   5.527   5.450   0.109
 9527SOL     OW29479   4.212   6.576   4.401
 9527SOL    HW129480   4.114   6.591   4.408
 9527SOL    HW229481   4.243   6.520   4.478
 9528SOL     OW29482   5.612   2.077   0.701
 9528SOL    HW129483   5.593   1.993   0.651
 9528SOL    HW229484   5.529   2.106   0.750
 9529SOL     OW29485   5.621   0.903   1.908
 9529SOL    HW129486   5.661   0.822   1.865
 9529SOL    HW229487   5.691   0.951   1.960
 9530SOL     OW29488   1.391   5.614   3.459
 9530SOL    HW129489   1.449   5.597   3.538
 9530SOL    HW229490   1.324   5.685   3.482
 9531SOL     OW29491   3.520   5.472   2.674
 9531SOL    HW129492   3.611   5.497   2.640
 9531SOL    HW229493   3.516   5.488   2.772
 9532SOL     OW29494   6.458   5.029   3.710
 9532SOL    HW129495   6.475   4.939   3.671
 9532SOL    HW229496   6.387   5.023   3.780
 9533SOL     OW29497   1.731   3.870   3.339
 9533SOL    HW129498   1.750   3.804   3.412
 9533SOL    HW229499   1.763   3.960   3.368
 9534SOL     OW29500   5.465   5.122   4.514
 9534SOL    HW129501   5.420   5.144   4.600
 9534SOL    HW229502   5.565   5.128   4.525
 9535SOL     OW29503   0.286   1.726   4.748
 9535SOL    HW129504   0.248   1.818   4.744
 9535SOL    HW229505   0.314   1.697   4.656
 9536SOL     OW29506   3.477   3.841   4.867
 9536SOL    HW129507   3.477   3.766   4.801
 9536SOL    HW229508   3.449   3.807   4.957
 9537SOL     OW29509   6.793   1.556   4.276
 9537SOL    HW129510   6.723   1.561   4.348
 9537SOL    HW229511   6.876   1.602   4.307
 9538SOL     OW29512   5.063   6.842   4.771
 9538SOL    HW129513   5.120   6.849   4.689
 9538SOL    HW229514   4.986   6.906   4.763
 9539SOL     OW29515   3.036   3.776   2.381
 9539SOL    HW129516   3.055   3.682   2.409
 9539SOL    HW229517   3.088   3.796   2.298
 9540SOL     OW29518   4.444   4.836   3.230
 9540SOL    HW129519   4.520   4.840   3.165
 9540SOL    HW229520   4.424   4.740   3.252
 9541SOL     OW29521   2.234   5.091   5.380
 9541SOL    HW129522   2.192   5.046   5.302
 9541SOL    HW229523   2.167   5.098   5.454
 9542SOL     OW29524   6.273   4.415   4.024
 9542SOL    HW129525   6.335   4.439   3.949
 9542SOL    HW229526   6.182   4.397   3.986
 9543SOL     OW29527   2.588   0.093   5.999
 9543SOL    HW129528   2.642   0.016   6.035
 9543SOL    HW229529   2.587   0.087   5.899
 9544SOL     OW29530   5.700   3.127   4.762
 9544SOL    HW129531   5.699   3.027   4.759
 9544SOL    HW229532   5.791   3.161   4.740
 9545SOL     OW29533   6.778   4.416   1.763
 9545SOL    HW129534   6.691   4.371   1.742
 9545SOL    HW229535   6.823   4.443   1.678
 9546SOL     OW29536   2.976   2.721   0.921
 9546SOL    HW129537   2.919   2.656   0.871
 9546SOL    HW229538   3.069   2.720   0.884
 9547SOL     OW29539   4.359   0.247   3.518
 9547SOL    HW129540   4.339   0.170   3.578
 9547SOL    HW229541   4.276   0.276   3.471
 9548SOL     OW29542   1.349   5.208   6.318
 9548SOL    HW129543   1.269   5.180   6.370
 9548SOL    HW229544   1.329   5.202   6.220
 9549SOL     OW29545   4.756   1.659   0.991
 9549SOL    HW129546   4.798   1.590   0.931
 9549SOL    HW229547   4.691   1.615   1.053
 9550SOL     OW29548   5.813   3.091   1.772
 9550SOL    HW129549   5.893   3.085   1.712
 9550SOL    HW229550   5.819   3.020   1.843
 9551SOL     OW29551   6.018   3.471   6.493
 9551SOL    HW129552   6.004   3.549   6.553
 9551SOL    HW229553   6.029   3.388   6.548
 9552SOL     OW29554   3.139   1.563   0.211
 9552SOL    HW129555   3.127   1.579   0.113
 9552SOL    HW229556   3.226   1.603   0.241
 9553SOL     OW29557   5.398   1.283   6.601
 9553SOL    HW129558   5.475   1.282   6.538
 9553SOL    HW229559   5.380   1.190   6.633
 9554SOL     OW29560   2.873   1.094   3.919
 9554SOL    HW129561   2.942   1.098   3.847
 9554SOL    HW229562   2.803   1.026   3.894
 9555SOL     OW29563   6.746   0.050   4.054
 9555SOL    HW129564   6.738   0.005   4.143
 9555SOL    HW229565   6.782   7.001   3.987
 9556SOL     OW29566   2.047   4.860   6.601
 9556SOL    HW129567   1.962   4.819   6.635
 9556SOL    HW229568   2.086   4.918   6.672
 9557SOL     OW29569   5.744   0.438   1.593
 9557SOL    HW129570   5.761   0.473   1.501
 9557SOL    HW229571   5.749   0.513   1.659
 9558SOL     OW29572   5.005   6.576   6.377
 9558SOL    HW129573   5.067   6.520   6.321
 9558SOL    HW229574   4.913   6.537   6.374
 9559SOL     OW29575   1.950   4.411   0.081
 9559SOL    HW129576   1.950   4.369   0.171
 9559SOL    HW229577   1.975   4.342   0.012
 9560SOL     OW29578   3.402   0.020   2.688
 9560SOL    HW129579   3.345   0.062   2.617
 9560SOL    HW229580   3.414   0.084   2.763
 9561SOL     OW29581   0.272   0.989   0.365
 9561SOL    HW129582   0.304   1.061   0.426
 9561SOL    HW229583   0.338   0.977   0.291
 9562SOL     OW29584   2.365   6.473   2.722
 9562SOL    HW129585   2.361   6.406   2.647
 9562SOL    HW229586   2.320   6.435   2.803
 9563SOL     OW29587   0.622   5.931   6.351
 9563SOL    HW129588   0.684   5.855   6.329
 9563SOL    HW229589   0.617   5.993   6.273
 9564SOL     OW29590   1.945   0.602   6.973
 9564SOL    HW129591   1.890   0.550   0.022
 9564SOL    HW229592   2.024   0.548   6.945
 9565SOL     OW29593   3.113   1.653   4.353
 9565SOL    HW129594   3.059   1.717   4.408
 9565SOL    HW229595   3.060   1.570   4.336
 9566SOL     OW29596   3.607   0.642   6.811
 9566SOL    HW129597   3.681   0.623   6.875
 9566SOL    HW229598   3.547   0.562   6.805
 9567SOL     OW29599   0.177   3.784   1.151
 9567SOL    HW129600   0.196   3.835   1.235
 9567SOL    HW229601   0.235   3.703   1.148
 9568SOL     OW29602   4.678   1.451   6.743
 9568SOL    HW129603   4.772   1.473   6.716
 9568SOL    HW229604   4.620   1.449   6.663
 9569SOL     OW29605   5.897   0.397   2.064
 9569SOL    HW129606   5.915   0.495   2.072
 9569SOL    HW229607   5.801   0.378   2.082
 9570SOL     OW29608   0.537   3.134   1.700
 9570SOL    HW129609   0.629   3.169   1.718
 9570SOL    HW229610   0.541   3.070   1.623
 9571SOL     OW29611   1.557   2.136   6.731
 9571SOL    HW129612   1.625   2.193   6.684
 9571SOL    HW229613   1.603   2.058   6.774
 9572SOL     OW29614   2.275   4.102   4.146
 9572SOL    HW129615   2.209   4.177   4.140
 9572SOL    HW229616   2.228   4.015   4.131
 9573SOL     OW29617   6.261   0.498   4.429
 9573SOL    HW129618   6.248   0.546   4.516
 9573SOL    HW229619   6.280   0.402   4.447
 9574SOL     OW29620   3.853   3.159   1.114
 9574SOL    HW129621   3.863   3.117   1.024
 9574SOL    HW229622   3.789   3.105   1.169
 9575SOL     OW29623   5.507   6.094   1.297
 9575SOL    HW129624   5.580   6.032   1.324
 9575SOL    HW229625   5.470   6.066   1.208
 9576SOL     OW29626   1.335   0.677   6.531
 9576SOL    HW129627   1.337   0.749   6.462
 9576SOL    HW229628   1.315   0.589   6.488
 9577SOL     OW29629   6.342   5.305   2.627
 9577SOL    HW129630   6.359   5.243   2.551
 9577SOL    HW229631   6.262   5.274   2.679
 9578SOL     OW29632   2.134   3.555   2.857
 9578SOL    HW129633   2.122   3.576   2.954
 9578SOL    HW229634   2.114   3.637   2.802
 9579SOL     OW29635   6.301   5.862   2.254
 9579SOL    HW129636   6.269   5.867   2.349
 9579SOL    HW229637   6.310   5.766   2.227
 9580SOL     OW29638   5.347   3.984   3.529
 9580SOL    HW129639   5.445   3.986   3.507
 9580SOL    HW229640   5.312   4.077   3.531
 9581SOL     OW29641   6.049   0.857   6.968
 9581SOL    HW129642   6.020   0.888   6.877
 9581SOL    HW229643   6.041   0.932   0.017
 9582SOL     OW29644   5.559   6.327   4.611
 9582SOL    HW129645   5.504   6.266   4.668
 9582SOL    HW229646   5.525   6.421   4.620
 9583SOL     OW29647   3.694   4.863   1.714
 9583SOL    HW129648   3.775   4.875   1.771
 9583SOL    HW229649   3.623   4.816   1.766
 9584SOL     OW29650   2.288   5.704   3.887
 9584SOL    HW129651   2.209   5.649   3.916
 9584SOL    HW229652   2.345   5.723   3.966
 9585SOL     OW29653   4.360   6.016   0.961
 9585SOL    HW129654   4.354   6.102   1.011
 9585SOL    HW229655   4.455   5.984   0.961
 9586SOL     OW29656   4.234   4.962   2.960
 9586SOL    HW129657   4.294   4.884   2.941
 9586SOL    HW229658   4.281   5.028   3.018
 9587SOL     OW29659   3.111   6.060   1.266
 9587SOL    HW129660   3.161   6.129   1.215
 9587SOL    HW229661   3.166   6.028   1.343
 9588SOL     OW29662   6.834   5.876   0.227
 9588SOL    HW129663   6.894   5.805   0.190
 9588SOL    HW229664   6.775   5.911   0.155
 9589SOL     OW29665   1.820   3.343   6.619
 9589SOL    HW129666   1.747   3.315   6.681
 9589SOL    HW229667   1.823   3.443   6.613
 9590SOL     OW29668   6.125   0.650   1.227
 9590SOL    HW129669   6.207   0.614   1.271
 9590SOL    HW229670   6.115   0.747   1.249
 9591SOL     OW29671   3.815   0.705   0.020
 9591SOL    HW129672   3.899   0.693   0.073
 9591SOL    HW229673   3.837   0.745   6.948
 9592SOL     OW29674   2.334   6.394   5.683
 9592SOL    HW129675   2.314   6.491   5.672
 9592SOL    HW229676   2.388   6.380   5.767
 9593SOL     OW29677   2.028   2.119   3.898
 9593SOL    HW129678   2.040   2.097   3.995
 9593SOL    HW229679   1.990   2.211   3.889
 9594SOL     OW29680   0.131   6.417   4.296
 9594SOL    HW129681   0.199   6.355   4.334
 9594SOL    HW229682   0.177   6.488   4.242
 9595SOL     OW29683   0.436   3.357   3.463
 9595SOL    HW129684   0.469   3.263   3.453
 9595SOL    HW229685   0.505   3.421   3.428
 9596SOL     OW29686   0.648   6.405   0.786
 9596SOL    HW129687   0.553   6.376   0.776
 9596SOL    HW229688   0.657   6.501   0.757
 9597SOL     OW29689   1.445   3.336   2.342
 9597SOL    HW129690   1.459   3.245   2.303
 9597SOL    HW229691   1.389   3.329   2.424
 9598SOL     OW29692   1.820   4.167   3.805
 9598SOL    HW129693   1.823   4.226   3.886
 9598SOL    HW229694   1.792   4.221   3.726
 9599SOL     OW29695   4.446   6.431   3.876
 9599SOL    HW129696   4.461   6.356   3.941
 9599SOL    HW229697   4.410   6.511   3.925
 9600SOL     OW29698   3.132   1.064   1.518
 9600SOL    HW129699   3.069   0.988   1.532
 9600SOL    HW229700   3.084   1.151   1.532
 9601SOL     OW29701   0.891   3.511   1.068
 9601SOL    HW129702   0.934   3.427   1.102
 9601SOL    HW229703   0.829   3.488   0.993
 9602SOL     OW29704   4.548   5.118   5.426
 9602SOL    HW129705   4.463   5.116   5.374
 9602SOL    HW229706   4.608   5.044   5.395
 9603SOL     OW29707   5.071   6.137   5.368
 9603SOL    HW129708   5.056   6.213   5.431
 9603SOL    HW229709   5.006   6.144   5.292
 9604SOL     OW29710   5.120   6.730   0.371
 9604SOL    HW129711   5.030   6.747   0.410
 9604SOL    HW229712   5.162   6.817   0.346
 9605SOL     OW29713   6.079   5.563   2.298
 9605SOL    HW129714   6.156   5.577   2.360
 9605SOL    HW229715   6.016   5.496   2.339
 9606SOL     OW29716   1.755   1.275   0.209
 9606SOL    HW129717   1.824   1.312   0.147
 9606SOL    HW229718   1.666   1.273   0.162
 9607SOL     OW29719   2.606   2.473   6.129
 9607SOL    HW129720   2.608   2.512   6.036
 9607SOL    HW229721   2.538   2.521   6.184
 9608SOL     OW29722   6.753   3.221   4.561
 9608SOL    HW129723   6.851   3.223   4.538
 9608SOL    HW229724   6.714   3.311   4.543
 9609SOL     OW29725   4.324   3.188   6.549
 9609SOL    HW129726   4.277   3.228   6.628
 9609SOL    HW229727   4.257   3.151   6.485
 9610SOL     OW29728   0.811   4.753   3.093
 9610SOL    HW129729   0.787   4.850   3.096
 9610SOL    HW229730   0.877   4.733   3.165
 9611SOL     OW29731   2.096   0.270   0.499
 9611SOL    HW129732   2.158   0.347   0.486
 9611SOL    HW229733   2.012   0.301   0.544
 9612SOL     OW29734   6.500   3.003   3.970
 9612SOL    HW129735   6.563   3.078   3.989
 9612SOL    HW229736   6.549   2.916   3.976
 9613SOL     OW29737   6.062   5.519   3.156
 9613SOL    HW129738   6.002   5.439   3.158
 9613SOL    HW229739   6.014   5.597   3.195
 9614SOL     OW29740   4.496   2.488   3.713
 9614SOL    HW129741   4.458   2.567   3.760
 9614SOL    HW229742   4.586   2.509   3.677
 9615SOL     OW29743   2.989   4.037   1.213
 9615SOL    HW129744   2.952   4.099   1.282
 9615SOL    HW229745   2.914   3.992   1.164
 9616SOL     OW29746   4.039   3.677   6.994
 9616SOL    HW129747   4.123   3.633   0.009
 9616SOL    HW229748   4.045   3.696   6.896
 9617SOL     OW29749   1.764   2.599   3.270
 9617SOL    HW129750   1.861   2.620   3.258
 9617SOL    HW229751   1.710   2.680   3.249
 9618SOL     OW29752   2.121   1.536   0.798
 9618SOL    HW129753   2.131   1.590   0.715
 9618SOL    HW229754   2.047   1.574   0.854
 9619SOL     OW29755   3.233   1.186   5.328
 9619SOL    HW129756   3.213   1.087   5.329
 9619SOL    HW229757   3.160   1.233   5.278
 9620SOL     OW29758   5.932   0.876   5.554
 9620SOL    HW129759   5.904   0.859   5.460
 9620SOL    HW229760   5.972   0.793   5.593
 9621SOL     OW29761   1.969   2.730   3.721
 9621SOL    HW129762   2.034   2.776   3.660
 9621SOL    HW229763   1.968   2.632   3.701
 9622SOL     OW29764   5.502   6.806   1.365
 9622SOL    HW129765   5.479   6.863   1.444
 9622SOL    HW229766   5.513   6.864   1.284
 9623SOL     OW29767   2.271   3.562   6.824
 9623SOL    HW129768   2.208   3.503   6.875
 9623SOL    HW229769   2.323   3.506   6.760
 9624SOL     OW29770   6.552   3.208   3.707
 9624SOL    HW129771   6.537   3.158   3.621
 9624SOL    HW229772   6.642   3.186   3.743
 9625SOL     OW29773   5.612   5.695   0.566
 9625SOL    HW129774   5.657   5.783   0.585
 9625SOL    HW229775   5.662   5.622   0.613
 9626SOL     OW29776   3.024   6.445   0.044
 9626SOL    HW129777   2.944   6.476   0.096
 9626SOL    HW229778   3.030   6.345   0.048
 9627SOL     OW29779   1.199   6.724   6.392
 9627SOL    HW129780   1.182   6.702   6.488
 9627SOL    HW229781   1.131   6.790   6.360
 9628SOL     OW29782   3.754   6.406   2.313
 9628SOL    HW129783   3.783   6.314   2.341
 9628SOL    HW229784   3.781   6.421   2.218
 9629SOL     OW29785   2.151   6.653   1.091
 9629SOL    HW129786   2.078   6.619   1.151
 9629SOL    HW229787   2.235   6.603   1.108
 9630SOL     OW29788   6.852   0.953   6.010
 9630SOL    HW129789   6.807   0.876   6.055
 9630SOL    HW229790   6.797   0.982   5.932
 9631SOL     OW29791   6.149   6.312   0.276
 9631SOL    HW129792   6.122   6.394   0.327
 9631SOL    HW229793   6.127   6.325   0.179
 9632SOL     OW29794   1.521   6.141   1.593
 9632SOL    HW129795   1.429   6.103   1.596
 9632SOL    HW229796   1.543   6.183   1.681
 9633SOL     OW29797   0.009   4.932   5.974
 9633SOL    HW129798   6.981   4.889   6.053
 9633SOL    HW229799   6.968   5.007   5.941
 9634SOL     OW29800   1.493   6.046   5.071
 9634SOL    HW129801   1.500   5.947   5.085
 9634SOL    HW229802   1.400   6.068   5.041
 9635SOL     OW29803   1.236   5.865   5.359
 9635SOL    HW129804   1.324   5.912   5.369
 9635SOL    HW229805   1.242   5.773   5.397
 9636SOL     OW29806   3.917   1.773   6.852
 9636SOL    HW129807   3.985   1.795   6.781
 9636SOL    HW229808   3.829   1.756   6.809
 9637SOL     OW29809   2.345   1.223   6.919
 9637SOL    HW129810   2.410   1.198   6.990
 9637SOL    HW229811   2.364   1.317   6.888
 9638SOL     OW29812   6.606   2.278   6.060
 9638SOL    HW129813   6.577   2.196   6.010
 9638SOL    HW229814   6.679   2.324   6.009
 9639SOL     OW29815   3.929   1.103   2.594
 9639SOL    HW129816   3.833   1.085   2.615
 9639SOL    HW229817   3.938   1.130   2.498
 9640SOL     OW29818   2.191   2.322   2.164
 9640SOL    HW129819   2.256   2.383   2.210
 9640SOL    HW229820   2.189   2.234   2.211
 9641SOL     OW29821   6.062   5.582   0.049
 9641SOL    HW129822   6.076   5.489   0.082
 9641SOL    HW229823   6.112   5.595   6.980
 9642SOL     OW29824   3.683   0.028   3.713
 9642SOL    HW129825   3.643   6.952   3.719
 9642SOL    HW229826   3.757   0.027   3.646
 9643SOL     OW29827   3.828   4.829   3.212
 9643SOL    HW129828   3.894   4.827   3.136
 9643SOL    HW229829   3.877   4.845   3.297
 9644SOL     OW29830   2.741   2.076   6.567
 9644SOL    HW129831   2.829   2.077   6.520
 9644SOL    HW229832   2.713   2.169   6.588
 9645SOL     OW29833   3.403   5.150   5.166
 9645SOL    HW129834   3.419   5.245   5.192
 9645SOL    HW229835   3.444   5.089   5.235
 9646SOL     OW29836   4.003   5.340   3.798
 9646SOL    HW129837   3.944   5.340   3.878
 9646SOL    HW229838   4.060   5.422   3.799
 9647SOL     OW29839   6.570   3.069   0.207
 9647SOL    HW129840   6.498   3.139   0.206
 9647SOL    HW229841   6.652   3.105   0.162
 9648SOL     OW29842   4.049   3.632   1.143
 9648SOL    HW129843   4.053   3.535   1.121
 9648SOL    HW229844   4.098   3.649   1.228
 9649SOL     OW29845   1.874   6.075   0.945
 9649SOL    HW129846   1.803   6.121   0.891
 9649SOL    HW229847   1.927   6.015   0.885
 9650SOL     OW29848   0.127   6.952   1.793
 9650SOL    HW129849   0.185   0.011   1.763
 9650SOL    HW229850   0.181   6.887   1.847
 9651SOL     OW29851   0.565   1.792   5.745
 9651SOL    HW129852   0.519   1.751   5.667
 9651SOL    HW229853   0.525   1.882   5.763
 9652SOL     OW29854   0.259   5.481   2.545
 9652SOL    HW129855   0.164   5.511   2.532
 9652SOL    HW229856   0.310   5.492   2.460
 9653SOL     OW29857   6.332   6.046   4.269
 9653SOL    HW129858   6.339   6.003   4.179
 9653SOL    HW229859   6.276   6.129   4.262
 9654SOL     OW29860   2.125   3.147   2.545
 9654SOL    HW129861   2.136   3.048   2.557
 9654SOL    HW229862   2.103   3.190   2.633
 9655SOL     OW29863   5.680   1.900   6.852
 9655SOL    HW129864   5.684   1.801   6.863
 9655SOL    HW229865   5.653   1.942   6.939
 9656SOL     OW29866   3.413   1.083   2.956
 9656SOL    HW129867   3.508   1.104   2.978
 9656SOL    HW229868   3.403   0.984   2.946
 9657SOL     OW29869   0.701   0.004   5.142
 9657SOL    HW129870   0.696   6.926   5.176
 9657SOL    HW229871   0.753   0.006   5.057
 9658SOL     OW29872   5.532   2.086   3.148
 9658SOL    HW129873   5.579   2.003   3.178
 9658SOL    HW229874   5.594   2.143   3.094
 9659SOL     OW29875   0.826   4.936   6.816
 9659SOL    HW129876   0.912   4.886   6.817
 9659SOL    HW229877   0.759   4.886   6.761
 9660SOL     OW29878   0.304   5.193   0.463
 9660SOL    HW129879   0.207   5.212   0.447
 9660SOL    HW229880   0.358   5.237   0.391
 9661SOL     OW29881   4.710   6.644   0.871
 9661SOL    HW129882   4.690   6.570   0.807
 9661SOL    HW229883   4.670   6.729   0.837
 9662SOL     OW29884   4.922   1.169   4.803
 9662SOL    HW129885   4.922   1.096   4.735
 9662SOL    HW229886   4.831   1.212   4.806
 9663SOL     OW29887   2.244   6.396   3.007
 9663SOL    HW129888   2.204   6.305   2.996
 9663SOL    HW229889   2.188   6.449   3.072
 9664SOL     OW29890   2.286   6.058   1.461
 9664SOL    HW129891   2.330   5.973   1.432
 9664SOL    HW229892   2.208   6.036   1.520
 9665SOL     OW29893   5.255   4.150   3.935
 9665SOL    HW129894   5.274   4.246   3.914
 9665SOL    HW229895   5.236   4.100   3.850
 9666SOL     OW29896   5.464   4.418   4.631
 9666SOL    HW129897   5.532   4.481   4.594
 9666SOL    HW229898   5.380   4.469   4.652
 9667SOL     OW29899   3.562   3.209   3.228
 9667SOL    HW129900   3.519   3.119   3.225
 9667SOL    HW229901   3.515   3.271   3.165
 9668SOL     OW29902   0.676   1.293   4.864
 9668SOL    HW129903   0.741   1.340   4.804
 9668SOL    HW229904   0.722   1.218   4.912
 9669SOL     OW29905   1.697   6.320   0.228
 9669SOL    HW129906   1.642   6.240   0.251
 9669SOL    HW229907   1.641   6.388   0.181
 9670SOL     OW29908   6.211   4.470   6.595
 9670SOL    HW129909   6.207   4.519   6.508
 9670SOL    HW229910   6.306   4.464   6.625
 9671SOL     OW29911   0.405   0.507   6.995
 9671SOL    HW129912   0.451   0.584   6.952
 9671SOL    HW229913   0.329   0.540   0.035
 9672SOL     OW29914   1.415   6.576   4.700
 9672SOL    HW129915   1.510   6.574   4.669
 9672SOL    HW229916   1.396   6.663   4.746
 9673SOL     OW29917   2.577   2.441   5.828
 9673SOL    HW129918   2.531   2.368   5.778
 9673SOL    HW229919   2.515   2.519   5.839
 9674SOL     OW29920   2.666   6.905   2.447
 9674SOL    HW129921   2.684   6.943   2.357
 9674SOL    HW229922   2.572   6.927   2.474
 9675SOL     OW29923   0.378   2.282   1.958
 9675SOL    HW129924   0.440   2.287   1.880
 9675SOL    HW229925   0.289   2.249   1.929
 9676SOL     OW29926   0.248   3.328   5.196
 9676SOL    HW129927   0.298   3.413   5.183
 9676SOL    HW229928   0.190   3.310   5.117
 9677SOL     OW29929   1.687   3.424   5.231
 9677SOL    HW129930   1.753   3.483   5.277
 9677SOL    HW229931   1.671   3.458   5.138
 9678SOL     OW29932   3.775   3.344   2.831
 9678SOL    HW129933   3.757   3.284   2.753
 9678SOL    HW229934   3.783   3.289   2.915
 9679SOL     OW29935   0.498   3.546   0.813
 9679SOL    HW129936   0.421   3.487   0.789
 9679SOL    HW229937   0.468   3.618   0.876
 9680SOL     OW29938   4.966   4.925   3.560
 9680SOL    HW129939   5.065   4.921   3.549
 9680SOL    HW229940   4.928   4.833   3.559
 9681SOL     OW29941   0.869   1.217   4.076
 9681SOL    HW129942   0.811   1.270   4.015
 9681SOL    HW229943   0.951   1.187   4.027
 9682SOL     OW29944   6.942   5.271   2.849
 9682SOL    HW129945   6.930   5.342   2.780
 9682SOL    HW229946   6.953   5.182   2.805
 9683SOL     OW29947   4.605   6.588   6.504
 9683SOL    HW129948   4.563   6.679   6.506
 9683SOL    HW229949   4.610   6.552   6.597
 9684SOL     OW29950   0.831   4.257   3.604
 9684SOL    HW129951   0.843   4.256   3.505
 9684SOL    HW229952   0.920   4.257   3.649
 9685SOL     OW29953   1.614   2.459   0.125
 9685SOL    HW129954   1.591   2.434   0.030
 9685SOL    HW229955   1.533   2.448   0.182
 9686SOL     OW29956   5.619   0.785   1.427
 9686SOL    HW129957   5.648   0.877   1.451
 9686SOL    HW229958   5.597   0.734   1.510
 9687SOL     OW29959   3.966   1.110   3.899
 9687SOL    HW129960   3.875   1.079   3.926
 9687SOL    HW229961   3.993   1.065   3.813
 9688SOL     OW29962   6.424   2.031   3.930
 9688SOL    HW129963   6.456   1.938   3.912
 9688SOL    HW229964   6.468   2.094   3.866
 9689SOL     OW29965   1.376   5.877   5.947
 9689SOL    HW129966   1.281   5.887   5.918
 9689SOL    HW229967   1.386   5.912   6.040
 9690SOL     OW29968   5.965   4.093   0.883
 9690SOL    HW129969   6.037   4.160   0.904
 9690SOL    HW229970   5.912   4.124   0.804
 9691SOL     OW29971   1.383   4.171   1.499
 9691SOL    HW129972   1.292   4.144   1.467
 9691SOL    HW229973   1.387   4.270   1.508
 9692SOL     OW29974   2.109   5.630   0.783
 9692SOL    HW129975   2.081   5.649   0.689
 9692SOL    HW229976   2.204   5.656   0.795
 9693SOL     OW29977   6.314   5.299   1.712
 9693SOL    HW129978   6.238   5.363   1.719
 9693SOL    HW229979   6.383   5.322   1.781
 9694SOL     OW29980   1.486   1.690   0.355
 9694SOL    HW129981   1.454   1.682   0.450
 9694SOL    HW229982   1.570   1.742   0.352
 9695SOL     OW29983   6.321   3.957   0.668
 9695SOL    HW129984   6.262   3.895   0.720
 9695SOL    HW229985   6.416   3.940   0.692
 9696SOL     OW29986   3.533   4.272   0.754
 9696SOL    HW129987   3.463   4.336   0.723
 9696SOL    HW229988   3.491   4.201   0.811
 9697SOL     OW29989   0.482   6.101   6.571
 9697SOL    HW129990   0.510   6.027   6.510
 9697SOL    HW229991   0.555   6.119   6.637
 9698SOL     OW29992   5.087   1.397   5.548
 9698SOL    HW129993   5.049   1.455   5.619
 9698SOL    HW229994   5.150   1.451   5.492
 9699SOL     OW29995   2.038   2.988   0.327
 9699SOL    HW129996   2.064   2.954   0.417
 9699SOL    HW229997   1.938   2.981   0.316
 9700SOL     OW29998   3.231   4.091   3.819
 9700SOL    HW129999   3.293   4.076   3.896
 9700SOL    HW230000   3.158   4.023   3.822
 9701SOL     OW30001   4.704   4.186   5.148
 9701SOL    HW130002   4.765   4.262   5.171
 9701SOL    HW230003   4.708   4.117   5.220
 9702SOL     OW30004   4.427   0.114   0.852
 9702SOL    HW130005   4.390   0.117   0.759
 9702SOL    HW230006   4.503   0.179   0.860
 9703SOL     OW30007   3.411   6.162   4.241
 9703SOL    HW130008   3.422   6.255   4.207
 9703SOL    HW230009   3.324   6.154   4.289
 9704SOL     OW30010   2.632   0.542   3.568
 9704SOL    HW130011   2.698   0.557   3.494
 9704SOL    HW230012   2.558   0.609   3.561
 9705SOL     OW30013   4.019   4.010   0.863
 9705SOL    HW130014   4.021   4.110   0.864
 9705SOL    HW230015   3.924   3.979   0.856
 9706SOL     OW30016   6.216   2.633   2.825
 9706SOL    HW130017   6.175   2.720   2.852
 9706SOL    HW230018   6.218   2.627   2.725
 9707SOL     OW30019   2.553   5.549   2.782
 9707SOL    HW130020   2.583   5.457   2.757
 9707SOL    HW230021   2.457   5.545   2.809
 9708SOL     OW30022   2.167   2.046   2.675
 9708SOL    HW130023   2.237   2.048   2.603
 9708SOL    HW230024   2.136   1.952   2.689
 9709SOL     OW30025   2.124   4.921   2.779
 9709SOL    HW130026   2.208   4.934   2.727
 9709SOL    HW230027   2.049   4.970   2.734
 9710SOL     OW30028   0.490   0.585   3.883
 9710SOL    HW130029   0.432   0.640   3.943
 9710SOL    HW230030   0.569   0.552   3.935
 9711SOL     OW30031   1.669   3.028   6.108
 9711SOL    HW130032   1.661   3.078   6.022
 9711SOL    HW230033   1.624   3.078   6.181
 9712SOL     OW30034   4.983   2.842   4.599
 9712SOL    HW130035   5.069   2.805   4.635
 9712SOL    HW230036   4.932   2.886   4.672
 9713SOL     OW30037   6.618   5.082   2.446
 9713SOL    HW130038   6.574   5.003   2.402
 9713SOL    HW230039   6.583   5.166   2.406
 9714SOL     OW30040   1.205   2.499   2.271
 9714SOL    HW130041   1.194   2.414   2.220
 9714SOL    HW230042   1.273   2.487   2.343
 9715SOL     OW30043   5.679   5.730   5.265
 9715SOL    HW130044   5.755   5.666   5.274
 9715SOL    HW230045   5.664   5.776   5.352
 9716SOL     OW30046   3.763   2.441   5.970
 9716SOL    HW130047   3.725   2.380   6.039
 9716SOL    HW230048   3.755   2.536   6.001
 9717SOL     OW30049   6.150   4.617   3.278
 9717SOL    HW130050   6.215   4.642   3.207
 9717SOL    HW230051   6.150   4.687   3.350
 9718SOL     OW30052   4.540   3.436   1.730
 9718SOL    HW130053   4.505   3.527   1.707
 9718SOL    HW230054   4.463   3.373   1.742
 9719SOL     OW30055   0.355   1.627   0.790
 9719SOL    HW130056   0.373   1.711   0.842
 9719SOL    HW230057   0.372   1.645   0.693
 9720SOL     OW30058   0.939   0.645   0.834
 9720SOL    HW130059   0.879   0.695   0.772
 9720SOL    HW230060   0.909   0.657   0.928
 9721SOL     OW30061   6.687   2.944   3.005
 9721SOL    HW130062   6.623   2.867   2.998
 9721SOL    HW230063   6.780   2.913   2.989
 9722SOL     OW30064   6.645   0.387   4.757
 9722SOL    HW130065   6.555   0.429   4.756
 9722SOL    HW230066   6.693   0.414   4.841
 9723SOL     OW30067   6.461   1.159   3.785
 9723SOL    HW130068   6.393   1.093   3.754
 9723SOL    HW230069   6.505   1.201   3.706
 9724SOL     OW30070   3.861   3.028   0.869
 9724SOL    HW130071   3.868   3.068   0.778
 9724SOL    HW230072   3.791   2.956   0.869
 9725SOL     OW30073   4.441   3.650   5.597
 9725SOL    HW130074   4.503   3.575   5.617
 9725SOL    HW230075   4.460   3.685   5.505
 9726SOL     OW30076   5.961   5.565   4.851
 9726SOL    HW130077   6.055   5.585   4.822
 9726SOL    HW230078   5.919   5.502   4.786
 9727SOL     OW30079   1.273   1.277   6.532
 9727SOL    HW130080   1.353   1.321   6.493
 9727SOL    HW230081   1.301   1.199   6.587
 9728SOL     OW30082   2.989   5.680   0.079
 9728SOL    HW130083   3.011   5.777   0.071
 9728SOL    HW230084   2.983   5.655   0.175
 9729SOL     OW30085   2.675   5.245   2.483
 9729SOL    HW130086   2.736   5.167   2.469
 9729SOL    HW230087   2.670   5.299   2.399
 9730SOL     OW30088   5.728   3.629   3.146
 9730SOL    HW130089   5.798   3.660   3.082
 9730SOL    HW230090   5.704   3.534   3.125
 9731SOL     OW30091   5.094   5.671   1.255
 9731SOL    HW130092   5.101   5.770   1.240
 9731SOL    HW230093   5.105   5.651   1.352
 9732SOL     OW30094   6.364   5.246   4.014
 9732SOL    HW130095   6.419   5.233   4.097
 9732SOL    HW230096   6.424   5.260   3.936
 9733SOL     OW30097   6.062   4.714   6.192
 9733SOL    HW130098   5.981   4.719   6.133
 9733SOL    HW230099   6.138   4.675   6.140
 9734SOL     OW30100   5.612   2.349   4.813
 9734SOL    HW130101   5.576   2.292   4.739
 9734SOL    HW230102   5.614   2.297   4.898
 9735SOL     OW30103   2.622   4.250   0.149
 9735SOL    HW130104   2.659   4.173   0.097
 9735SOL    HW230105   2.628   4.231   0.247
 9736SOL     OW30106   3.370   1.644   1.640
 9736SOL    HW130107   3.457   1.596   1.636
 9736SOL    HW230108   3.337   1.646   1.735
 9737SOL     OW30109   4.267   2.244   4.876
 9737SOL    HW130110   4.236   2.329   4.919
 9737SOL    HW230111   4.192   2.177   4.877
 9738SOL     OW30112   1.944   0.837   2.269
 9738SOL    HW130113   2.000   0.819   2.188
 9738SOL    HW230114   1.847   0.827   2.246
 9739SOL     OW30115   5.387   4.775   1.690
 9739SOL    HW130116   5.344   4.741   1.606
 9739SOL    HW230117   5.475   4.818   1.666
 9740SOL     OW30118   6.350   3.728   3.045
 9740SOL    HW130119   6.375   3.786   2.968
 9740SOL    HW230120   6.366   3.776   3.131
 9741SOL     OW30121   3.981   1.586   1.684
 9741SOL    HW130122   4.019   1.620   1.769
 9741SOL    HW230123   3.909   1.519   1.704
 9742SOL     OW30124   4.728   1.516   3.668
 9742SOL    HW130125   4.732   1.538   3.766
 9742SOL    HW230126   4.633   1.500   3.641
 9743SOL     OW30127   1.711   1.792   5.408
 9743SOL    HW130128   1.760   1.739   5.338
 9743SOL    HW230129   1.728   1.889   5.393
 9744SOL     OW30130   2.427   0.366   2.002
 9744SOL    HW130131   2.331   0.362   2.028
 9744SOL    HW230132   2.485   0.347   2.082
 9745SOL     OW30133   0.226   1.104   4.874
 9745SOL    HW130134   0.266   1.018   4.844
 9745SOL    HW230135   0.293   1.155   4.928
 9746SOL     OW30136   6.278   0.750   3.974
 9746SOL    HW130137   6.199   0.809   3.990
 9746SOL    HW230138   6.275   0.671   4.036
 9747SOL     OW30139   0.045   6.995   6.283
 9747SOL    HW130140   7.004   0.050   6.322
 9747SOL    HW230141   0.116   6.969   6.348
 9748SOL     OW30142   0.680   5.123   4.403
 9748SOL    HW130143   0.754   5.058   4.420
 9748SOL    HW230144   0.691   5.202   4.463
 9749SOL     OW30145   0.364   4.276   4.365
 9749SOL    HW130146   0.463   4.284   4.377
 9749SOL    HW230147   0.343   4.273   4.267
 9750SOL     OW30148   3.482   5.495   3.185
 9750SOL    HW130149   3.465   5.426   3.257
 9750SOL    HW230150   3.543   5.565   3.220
 9751SOL     OW30151   1.847   2.530   0.561
 9751SOL    HW130152   1.864   2.618   0.606
 9751SOL    HW230153   1.934   2.490   0.532
 9752SOL     OW30154   3.653   2.020   6.022
 9752SOL    HW130155   3.646   2.106   6.073
 9752SOL    HW230156   3.620   1.945   6.078
 9753SOL     OW30157   6.685   6.301   5.490
 9753SOL    HW130158   6.607   6.239   5.479
 9753SOL    HW230159   6.704   6.347   5.403
 9754SOL     OW30160   0.087   2.537   6.351
 9754SOL    HW130161   0.023   2.461   6.338
 9754SOL    HW230162   0.076   2.602   6.276
 9755SOL     OW30163   3.698   5.173   5.562
 9755SOL    HW130164   3.782   5.122   5.541
 9755SOL    HW230165   3.699   5.201   5.658
 9756SOL     OW30166   4.866   2.423   5.343
 9756SOL    HW130167   4.809   2.504   5.330
 9756SOL    HW230168   4.817   2.342   5.311
 9757SOL     OW30169   6.161   1.333   3.726
 9757SOL    HW130170   6.214   1.321   3.642
 9757SOL    HW230171   6.204   1.402   3.783
 9758SOL     OW30172   3.099   0.652   0.185
 9758SOL    HW130173   3.142   0.656   0.096
 9758SOL    HW230174   3.152   0.592   0.245
 9759SOL     OW30175   3.321   5.933   1.424
 9759SOL    HW130176   3.373   5.862   1.377
 9759SOL    HW230177   3.383   6.007   1.450
 9760SOL     OW30178   5.983   4.431   6.062
 9760SOL    HW130179   5.987   4.508   6.126
 9760SOL    HW230180   6.017   4.349   6.107
 9761SOL     OW30181   5.387   5.369   2.913
 9761SOL    HW130182   5.412   5.410   2.826
 9761SOL    HW230183   5.470   5.357   2.969
 9762SOL     OW30184   2.847   1.179   3.098
 9762SOL    HW130185   2.770   1.242   3.094
 9762SOL    HW230186   2.896   1.192   3.184
 9763SOL     OW30187   2.121   1.677   1.902
 9763SOL    HW130188   2.133   1.585   1.939
 9763SOL    HW230189   2.037   1.717   1.940
 9764SOL     OW30190   1.089   2.710   2.152
 9764SOL    HW130191   1.142   2.642   2.202
 9764SOL    HW230192   0.994   2.708   2.182
 9765SOL     OW30193   0.247   1.247   5.247
 9765SOL    HW130194   0.304   1.307   5.303
 9765SOL    HW230195   0.299   1.218   5.166
 9766SOL     OW30196   1.999   0.326   2.424
 9766SOL    HW130197   2.031   0.258   2.490
 9766SOL    HW230198   2.078   0.377   2.389
 9767SOL     OW30199   4.881   0.003   5.475
 9767SOL    HW130200   4.794   0.045   5.449
 9767SOL    HW230201   4.863   6.939   5.532
 9768SOL     OW30202   4.949   2.622   3.825
 9768SOL    HW130203   5.013   2.546   3.814
 9768SOL    HW230204   4.997   2.702   3.861
 9769SOL     OW30205   0.493   1.861   1.637
 9769SOL    HW130206   0.438   1.847   1.555
 9769SOL    HW230207   0.579   1.906   1.612
 9770SOL     OW30208   6.754   3.556   5.973
 9770SOL    HW130209   6.709   3.468   5.954
 9770SOL    HW230210   6.780   3.599   5.887
 9771SOL     OW30211   2.720   5.665   4.054
 9771SOL    HW130212   2.708   5.603   4.131
 9771SOL    HW230213   2.812   5.704   4.056
 9772SOL     OW30214   6.580   0.101   1.294
 9772SOL    HW130215   6.537   0.052   1.369
 9772SOL    HW230216   6.650   0.163   1.331
 9773SOL     OW30217   4.866   5.143   3.693
 9773SOL    HW130218   4.783   5.109   3.737
 9773SOL    HW230219   4.919   5.067   3.658
 9774SOL     OW30220   0.357   4.844   3.617
 9774SOL    HW130221   0.307   4.784   3.554
 9774SOL    HW230222   0.431   4.890   3.567
 9775SOL     OW30223   2.835   2.260   5.007
 9775SOL    HW130224   2.810   2.183   4.948
 9775SOL    HW230225   2.932   2.254   5.029
 9776SOL     OW30226   0.335   4.920   4.192
 9776SOL    HW130227   0.346   5.010   4.233
 9776SOL    HW230228   0.357   4.925   4.094
 9777SOL     OW30229   6.003   4.956   6.275
 9777SOL    HW130230   5.999   4.864   6.236
 9777SOL    HW230231   6.021   4.950   6.373
 9778SOL     OW30232   3.875   0.745   4.058
 9778SOL    HW130233   3.807   0.818   4.059
 9778SOL    HW230234   3.962   0.780   4.093
 9779SOL     OW30235   2.991   2.004   6.473
 9779SOL    HW130236   3.002   1.906   6.457
 9779SOL    HW230237   3.048   2.055   6.409
 9780SOL     OW30238   3.348   4.291   0.366
 9780SOL    HW130239   3.307   4.212   0.412
 9780SOL    HW230240   3.439   4.308   0.404
 9781SOL     OW30241   1.585   6.161   4.105
 9781SOL    HW130242   1.601   6.210   4.019
 9781SOL    HW230243   1.496   6.116   4.101
 9782SOL     OW30244   6.181   0.587   0.933
 9782SOL    HW130245   6.130   0.614   1.015
 9782SOL    HW230246   6.183   0.663   0.869
 9783SOL     OW30247   6.149   1.035   3.082
 9783SOL    HW130248   6.066   1.007   3.129
 9783SOL    HW230249   6.126   1.065   2.989
 9784SOL     OW30250   5.801   0.837   4.349
 9784SOL    HW130251   5.786   0.811   4.444
 9784SOL    HW230252   5.715   0.837   4.299
 9785SOL     OW30253   0.453   2.676   0.860
 9785SOL    HW130254   0.469   2.587   0.904
 9785SOL    HW230255   0.389   2.729   0.916
 9786SOL     OW30256   2.596   0.392   4.885
 9786SOL    HW130257   2.693   0.377   4.868
 9786SOL    HW230258   2.547   0.401   4.798
 9787SOL     OW30259   6.417   4.192   1.345
 9787SOL    HW130260   6.427   4.263   1.275
 9787SOL    HW230261   6.500   4.136   1.347
 9788SOL     OW30262   6.895   1.018   5.493
 9788SOL    HW130263   6.958   0.947   5.523
 9788SOL    HW230264   6.922   1.050   5.402
 9789SOL     OW30265   1.789   5.256   4.483
 9789SOL    HW130266   1.796   5.283   4.578
 9789SOL    HW230267   1.835   5.324   4.425
 9790SOL     OW30268   6.772   0.955   3.974
 9790SOL    HW130269   6.733   1.044   3.998
 9790SOL    HW230270   6.725   0.919   3.893
 9791SOL     OW30271   1.198   2.563   1.438
 9791SOL    HW130272   1.228   2.482   1.488
 9791SOL    HW230273   1.198   2.543   1.340
 9792SOL     OW30274   3.682   5.587   2.310
 9792SOL    HW130275   3.700   5.579   2.408
 9792SOL    HW230276   3.583   5.585   2.294
 9793SOL     OW30277   5.294   6.088   1.978
 9793SOL    HW130278   5.215   6.104   2.037
 9793SOL    HW230279   5.318   5.991   1.980
 9794SOL     OW30280   2.811   3.382   6.584
 9794SOL    HW130281   2.885   3.380   6.516
 9794SOL    HW230282   2.753   3.301   6.573
 9795SOL     OW30283   2.369   4.932   4.115
 9795SOL    HW130284   2.455   4.929   4.167
 9795SOL    HW230285   2.373   4.864   4.042
 9796SOL     OW30286   3.668   4.588   0.618
 9796SOL    HW130287   3.581   4.543   0.635
 9796SOL    HW230288   3.669   4.628   0.526
 9797SOL     OW30289   5.329   2.709   4.993
 9797SOL    HW130290   5.369   2.668   5.075
 9797SOL    HW230291   5.387   2.689   4.914
 9798SOL     OW30292   2.567   1.602   1.657
 9798SOL    HW130293   2.546   1.639   1.567
 9798SOL    HW230294   2.613   1.671   1.712
 9799SOL     OW30295   3.284   4.063   2.182
 9799SOL    HW130296   3.227   4.143   2.164
 9799SOL    HW230297   3.326   4.070   2.272
 9800SOL     OW30298   3.977   5.193   0.175
 9800SOL    HW130299   3.882   5.214   0.198
 9800SOL    HW230300   3.985   5.176   0.077
 9801SOL     OW30301   4.902   5.692   0.730
 9801SOL    HW130302   4.954   5.645   0.801
 9801SOL    HW230303   4.944   5.781   0.712
 9802SOL     OW30304   0.400   5.380   1.688
 9802SOL    HW130305   0.353   5.293   1.703
 9802SOL    HW230306   0.350   5.434   1.621
 9803SOL     OW30307   4.929   0.148   6.420
 9803SOL    HW130308   4.871   0.067   6.415
 9803SOL    HW230309   5.020   0.122   6.453
 9804SOL     OW30310   5.496   5.593   4.346
 9804SOL    HW130311   5.581   5.642   4.327
 9804SOL    HW230312   5.511   5.495   4.333
 9805SOL     OW30313   3.622   4.129   1.043
 9805SOL    HW130314   3.616   4.122   1.142
 9805SOL    HW230315   3.545   4.181   1.008
 9806SOL     OW30316   6.972   1.721   2.647
 9806SOL    HW130317   0.031   1.784   2.629
 9806SOL    HW230318   6.966   1.655   2.572
 9807SOL     OW30319   2.695   3.209   0.968
 9807SOL    HW130320   2.638   3.144   0.918
 9807SOL    HW230321   2.654   3.229   1.057
 9808SOL     OW30322   1.502   1.758   4.860
 9808SOL    HW130323   1.533   1.851   4.881
 9808SOL    HW230324   1.564   1.693   4.903
 9809SOL     OW30325   0.699   0.699   4.227
 9809SOL    HW130326   0.616   0.691   4.283
 9809SOL    HW230327   0.752   0.779   4.258
 9810SOL     OW30328   4.831   1.933   2.658
 9810SOL    HW130329   4.848   1.840   2.626
 9810SOL    HW230330   4.763   1.977   2.601
 9811SOL     OW30331   1.236   0.047   2.635
 9811SOL    HW130332   1.250   6.978   2.685
 9811SOL    HW230333   1.322   0.076   2.595
 9812SOL     OW30334   5.571   2.747   5.218
 9812SOL    HW130335   5.642   2.779   5.154
 9812SOL    HW230336   5.597   2.772   5.311
 9813SOL     OW30337   6.153   4.001   0.397
 9813SOL    HW130338   6.185   4.031   0.487
 9813SOL    HW230339   6.223   3.946   0.353
 9814SOL     OW30340   6.891   0.602   5.653
 9814SOL    HW130341   6.832   0.578   5.729
 9814SOL    HW230342   6.941   0.521   5.622
 9815SOL     OW30343   0.464   3.864   2.647
 9815SOL    HW130344   0.547   3.860   2.593
 9815SOL    HW230345   0.431   3.772   2.665
 9816SOL     OW30346   5.793   0.916   5.779
 9816SOL    HW130347   5.835   0.874   5.699
 9816SOL    HW230348   5.754   1.005   5.754
 9817SOL     OW30349   2.414   0.853   0.828
 9817SOL    HW130350   2.431   0.803   0.743
 9817SOL    HW230351   2.467   0.937   0.830
 9818SOL     OW30352   0.396   6.873   2.384
 9818SOL    HW130353   0.340   6.902   2.461
 9818SOL    HW230354   0.382   6.935   2.307
 9819SOL     OW30355   6.573   2.111   4.232
 9819SOL    HW130356   6.539   2.018   4.221
 9819SOL    HW230357   6.507   2.176   4.195
 9820SOL     OW30358   3.574   1.807   6.184
 9820SOL    HW130359   3.486   1.770   6.155
 9820SOL    HW230360   3.615   1.748   6.253
 9821SOL     OW30361   4.060   3.212   0.383
 9821SOL    HW130362   3.982   3.241   0.329
 9821SOL    HW230363   4.122   3.158   0.326
 9822SOL     OW30364   3.232   5.273   4.017
 9822SOL    HW130365   3.228   5.276   4.117
 9822SOL    HW230366   3.189   5.356   3.980
 9823SOL     OW30367   3.784   6.285   3.637
 9823SOL    HW130368   3.781   6.363   3.699
 9823SOL    HW230369   3.788   6.200   3.690
 9824SOL     OW30370   1.640   5.788   5.601
 9824SOL    HW130371   1.655   5.703   5.551
 9824SOL    HW230372   1.601   5.766   5.691
 9825SOL     OW30373   0.259   6.169   5.217
 9825SOL    HW130374   0.247   6.084   5.165
 9825SOL    HW230375   0.255   6.149   5.315
 9826SOL     OW30376   1.746   5.661   6.076
 9826SOL    HW130377   1.793   5.748   6.079
 9826SOL    HW230378   1.701   5.651   5.986
 9827SOL     OW30379   2.315   4.755   1.756
 9827SOL    HW130380   2.410   4.758   1.789
 9827SOL    HW230381   2.310   4.699   1.673
 9828SOL     OW30382   4.520   2.087   4.958
 9828SOL    HW130383   4.606   2.126   4.990
 9828SOL    HW230384   4.469   2.156   4.907
 9829SOL     OW30385   5.449   4.595   5.515
 9829SOL    HW130386   5.489   4.536   5.445
 9829SOL    HW230387   5.350   4.600   5.503
 9830SOL     OW30388   5.696   1.629   3.660
 9830SOL    HW130389   5.666   1.613   3.566
 9830SOL    HW230390   5.790   1.664   3.660
 9831SOL     OW30391   0.396   4.446   2.001
 9831SOL    HW130392   0.373   4.486   1.913
 9831SOL    HW230393   0.348   4.494   2.074
 9832SOL     OW30394   4.887   5.640   4.447
 9832SOL    HW130395   4.952   5.598   4.511
 9832SOL    HW230396   4.914   5.618   4.354
 9833SOL     OW30397   4.034   3.177   4.573
 9833SOL    HW130398   4.017   3.123   4.491
 9833SOL    HW230399   4.055   3.271   4.547
 9834SOL     OW30400   3.336   5.901   5.498
 9834SOL    HW130401   3.401   5.977   5.501
 9834SOL    HW230402   3.272   5.916   5.422
 9835SOL     OW30403   4.108   3.448   3.827
 9835SOL    HW130404   4.026   3.403   3.790
 9835SOL    HW230405   4.151   3.501   3.755
 9836SOL     OW30406   6.510   3.251   5.615
 9836SOL    HW130407   6.483   3.316   5.545
 9836SOL    HW230408   6.552   3.171   5.572
 9837SOL     OW30409   6.383   1.165   3.145
 9837SOL    HW130410   6.364   1.246   3.202
 9837SOL    HW230411   6.297   1.121   3.121
 9838SOL     OW30412   0.332   5.999   0.499
 9838SOL    HW130413   0.344   5.920   0.439
 9838SOL    HW230414   0.246   5.991   0.549
 9839SOL     OW30415   4.527   6.379   3.305
 9839SOL    HW130416   4.443   6.401   3.255
 9839SOL    HW230417   4.505   6.359   3.400
 9840SOL     OW30418   6.393   1.586   6.626
 9840SOL    HW130419   6.464   1.539   6.574
 9840SOL    HW230420   6.303   1.552   6.598
 9841SOL     OW30421   0.132   5.814   2.633
 9841SOL    HW130422   0.201   5.802   2.704
 9841SOL    HW230423   0.114   5.726   2.588
 9842SOL     OW30424   3.517   0.239   0.367
 9842SOL    HW130425   3.495   0.194   0.280
 9842SOL    HW230426   3.612   0.218   0.392
 9843SOL     OW30427   6.993   0.422   1.171
 9843SOL    HW130428   6.941   0.468   1.100
 9843SOL    HW230429   0.063   0.388   1.132
 9844SOL     OW30430   5.010   0.426   5.371
 9844SOL    HW130431   5.031   0.339   5.416
 9844SOL    HW230432   5.041   0.424   5.276
 9845SOL     OW30433   1.058   3.846   2.087
 9845SOL    HW130434   1.126   3.776   2.112
 9845SOL    HW230435   0.967   3.816   2.115
 9846SOL     OW30436   5.662   1.693   1.816
 9846SOL    HW130437   5.632   1.784   1.787
 9846SOL    HW230438   5.582   1.634   1.831
 9847SOL     OW30439   4.052   4.529   6.756
 9847SOL    HW130440   3.954   4.513   6.771
 9847SOL    HW230441   4.103   4.447   6.782
 9848SOL     OW30442   2.971   4.577   5.631
 9848SOL    HW130443   2.915   4.530   5.563
 9848SOL    HW230444   3.045   4.625   5.585
 9849SOL     OW30445   1.896   2.352   3.919
 9849SOL    HW130446   1.888   2.380   3.824
 9849SOL    HW230447   1.946   2.421   3.971
 9850SOL     OW30448   1.247   6.941   4.325
 9850SOL    HW130449   1.292   0.011   4.346
 9850SOL    HW230450   1.244   6.884   4.407
 9851SOL     OW30451   3.881   5.636   3.870
 9851SOL    HW130452   3.848   5.676   3.784
 9851SOL    HW230453   3.803   5.615   3.929
 9852SOL     OW30454   1.619   6.300   6.947
 9852SOL    HW130455   1.668   6.352   6.878
 9852SOL    HW230456   1.530   6.342   6.964
 9853SOL     OW30457   0.494   4.509   4.022
 9853SOL    HW130458   0.559   4.473   4.089
 9853SOL    HW230459   0.403   4.516   4.064
 9854SOL     OW30460   6.680   3.547   6.884
 9854SOL    HW130461   6.651   3.578   6.793
 9854SOL    HW230462   6.779   3.539   6.887
 9855SOL     OW30463   0.692   6.103   6.799
 9855SOL    HW130464   0.649   6.179   6.848
 9855SOL    HW230465   0.791   6.103   6.819
 9856SOL     OW30466   4.922   3.459   2.908
 9856SOL    HW130467   5.014   3.490   2.931
 9856SOL    HW230468   4.895   3.386   2.970
 9857SOL     OW30469   4.817   0.236   5.906
 9857SOL    HW130470   4.795   0.216   6.001
 9857SOL    HW230471   4.755   0.185   5.846
 9858SOL     OW30472   6.320   5.597   2.437
 9858SOL    HW130473   6.376   5.579   2.519
 9858SOL    HW230474   6.378   5.596   2.356
 9859SOL     OW30475   1.024   5.480   2.472
 9859SOL    HW130476   1.040   5.578   2.455
 9859SOL    HW230477   1.034   5.430   2.386
 9860SOL     OW30478   1.397   2.949   3.739
 9860SOL    HW130479   1.483   2.974   3.784
 9860SOL    HW230480   1.325   3.011   3.768
 9861SOL     OW30481   3.894   2.164   3.420
 9861SOL    HW130482   3.981   2.184   3.465
 9861SOL    HW230483   3.905   2.175   3.321
 9862SOL     OW30484   1.547   3.500   6.302
 9862SOL    HW130485   1.518   3.519   6.396
 9862SOL    HW230486   1.645   3.514   6.294
 9863SOL     OW30487   4.245   6.380   2.405
 9863SOL    HW130488   4.204   6.440   2.337
 9863SOL    HW230489   4.191   6.296   2.412
 9864SOL     OW30490   2.751   6.721   5.258
 9864SOL    HW130491   2.676   6.766   5.306
 9864SOL    HW230492   2.805   6.668   5.324
 9865SOL     OW30493   2.129   6.129   5.717
 9865SOL    HW130494   2.118   6.190   5.639
 9865SOL    HW230495   2.227   6.113   5.733
 9866SOL     OW30496   6.641   5.118   6.077
 9866SOL    HW130497   6.610   5.190   6.139
 9866SOL    HW230498   6.570   5.049   6.069
 9867SOL     OW30499   4.510   1.353   1.966
 9867SOL    HW130500   4.458   1.298   2.032
 9867SOL    HW230501   4.519   1.302   1.880
 9868SOL     OW30502   2.209   4.852   3.806
 9868SOL    HW130503   2.153   4.904   3.742
 9868SOL    HW230504   2.155   4.830   3.887
 9869SOL     OW30505   6.593   2.458   2.344
 9869SOL    HW130506   6.647   2.472   2.261
 9869SOL    HW230507   6.649   2.411   2.413
 9870SOL     OW30508   1.996   2.185   3.246
 9870SOL    HW130509   1.919   2.198   3.309
 9870SOL    HW230510   1.970   2.219   3.155
 9871SOL     OW30511   5.245   5.938   3.124
 9871SOL    HW130512   5.332   5.950   3.172
 9871SOL    HW230513   5.217   5.842   3.127
 9872SOL     OW30514   0.595   5.933   5.552
 9872SOL    HW130515   0.691   5.953   5.533
 9872SOL    HW230516   0.586   5.899   5.645
 9873SOL     OW30517   0.774   1.089   5.081
 9873SOL    HW130518   0.776   1.158   5.153
 9873SOL    HW230519   0.753   1.000   5.120
 9874SOL     OW30520   0.167   2.248   3.998
 9874SOL    HW130521   0.089   2.293   3.954
 9874SOL    HW230522   0.136   2.165   4.044
 9875SOL     OW30523   6.531   6.036   0.831
 9875SOL    HW130524   6.612   6.066   0.881
 9875SOL    HW230525   6.485   5.964   0.882
 9876SOL     OW30526   0.014   6.755   3.841
 9876SOL    HW130527   0.072   6.736   3.920
 9876SOL    HW230528   0.053   6.831   3.789
 9877SOL     OW30529   1.253   6.016   4.946
 9877SOL    HW130530   1.177   6.079   4.961
 9877SOL    HW230531   1.248   5.979   4.853
 9878SOL     OW30532   3.287   2.626   6.836
 9878SOL    HW130533   3.340   2.627   6.751
 9878SOL    HW230534   3.314   2.548   6.892
 9879SOL     OW30535   6.585   5.681   4.257
 9879SOL    HW130536   6.564   5.663   4.161
 9879SOL    HW230537   6.546   5.609   4.314
 9880SOL     OW30538   3.700   1.432   1.355
 9880SOL    HW130539   3.605   1.432   1.324
 9880SOL    HW230540   3.750   1.358   1.310
 9881SOL     OW30541   5.936   0.565   3.128
 9881SOL    HW130542   5.843   0.583   3.160
 9881SOL    HW230543   5.939   0.575   3.028
 9882SOL     OW30544   3.462   3.362   4.756
 9882SOL    HW130545   3.433   3.287   4.697
 9882SOL    HW230546   3.445   3.337   4.852
 9883SOL     OW30547   1.749   6.487   2.265
 9883SOL    HW130548   1.714   6.425   2.336
 9883SOL    HW230549   1.716   6.458   2.176
 9884SOL     OW30550   3.243   2.686   5.296
 9884SOL    HW130551   3.213   2.601   5.252
 9884SOL    HW230552   3.339   2.704   5.273
 9885SOL     OW30553   4.587   2.465   5.618
 9885SOL    HW130554   4.508   2.421   5.574
 9885SOL    HW230555   4.606   2.552   5.571
 9886SOL     OW30556   2.455   6.292   1.405
 9886SOL    HW130557   2.378   6.237   1.435
 9886SOL    HW230558   2.524   6.232   1.363
 9887SOL     OW30559   3.308   1.319   0.423
 9887SOL    HW130560   3.324   1.228   0.385
 9887SOL    HW230561   3.212   1.329   0.448
 9888SOL     OW30562   6.477   6.696   3.534
 9888SOL    HW130563   6.533   6.619   3.503
 9888SOL    HW230564   6.407   6.663   3.597
 9889SOL     OW30565   6.502   5.557   2.966
 9889SOL    HW130566   6.413   5.538   3.008
 9889SOL    HW230567   6.570   5.574   3.038
 9890SOL     OW30568   1.323   3.255   2.575
 9890SOL    HW130569   1.237   3.215   2.544
 9890SOL    HW230570   1.309   3.303   2.661
 9891SOL     OW30571   4.698   6.435   2.040
 9891SOL    HW130572   4.701   6.390   2.129
 9891SOL    HW230573   4.740   6.375   1.971
 9892SOL     OW30574   1.690   5.944   3.507
 9892SOL    HW130575   1.682   5.995   3.421
 9892SOL    HW230576   1.767   5.981   3.560
 9893SOL     OW30577   6.212   4.571   5.510
 9893SOL    HW130578   6.216   4.661   5.467
 9893SOL    HW230579   6.268   4.507   5.458
 9894SOL     OW30580   4.393   3.971   5.286
 9894SOL    HW130581   4.298   3.940   5.278
 9894SOL    HW230582   4.401   4.063   5.249
 9895SOL     OW30583   5.251   2.106   6.141
 9895SOL    HW130584   5.244   2.154   6.053
 9895SOL    HW230585   5.347   2.100   6.168
 9896SOL     OW30586   4.006   3.536   6.532
 9896SOL    HW130587   4.074   3.535   6.458
 9896SOL    HW230588   4.035   3.474   6.605
 9897SOL     OW30589   0.666   1.420   3.135
 9897SOL    HW130590   0.571   1.390   3.141
 9897SOL    HW230591   0.716   1.389   3.216
 9898SOL     OW30592   0.890   4.615   0.018
 9898SOL    HW130593   0.913   4.544   0.084
 9898SOL    HW230594   0.897   4.578   6.942
 9899SOL     OW30595   4.208   5.355   2.201
 9899SOL    HW130596   4.146   5.415   2.153
 9899SOL    HW230597   4.301   5.391   2.196
 9900SOL     OW30598   2.063   4.731   4.021
 9900SOL    HW130599   2.027   4.799   4.086
 9900SOL    HW230600   2.102   4.654   4.071
 9901SOL     OW30601   2.479   1.839   5.813
 9901SOL    HW130602   2.558   1.842   5.874
 9901SOL    HW230603   2.395   1.838   5.868
 9902SOL     OW30604   4.272   3.862   6.882
 9902SOL    HW130605   4.193   3.923   6.888
 9902SOL    HW230606   4.248   3.782   6.827
 9903SOL     OW30607   3.238   1.736   1.268
 9903SOL    HW130608   3.260   1.766   1.361
 9903SOL    HW230609   3.198   1.645   1.271
 9904SOL     OW30610   0.046   6.654   2.432
 9904SOL    HW130611   0.120   6.634   2.496
 9904SOL    HW230612   6.976   6.659   2.481
 9905SOL     OW30613   2.166   0.034   5.888
 9905SOL    HW130614   2.163   6.952   5.903
 9905SOL    HW230615   2.215   0.078   5.964
 9906SOL     OW30616   3.271   4.061   6.070
 9906SOL    HW130617   3.211   3.997   6.023
 9906SOL    HW230618   3.361   4.060   6.027
 9907SOL     OW30619   1.263   6.909   2.879
 9907SOL    HW130620   1.326   6.852   2.931
 9907SOL    HW230621   1.179   6.923   2.933
 9908SOL     OW30622   6.191   3.192   5.754
 9908SOL    HW130623   6.265   3.252   5.782
 9908SOL    HW230624   6.109   3.246   5.737
 9909SOL     OW30625   3.355   6.781   2.722
 9909SOL    HW130626   3.383   6.768   2.627
 9909SOL    HW230627   3.357   6.879   2.744
 9910SOL     OW30628   0.756   5.402   0.836
 9910SOL    HW130629   0.811   5.323   0.809
 9910SOL    HW230630   0.664   5.393   0.799
 9911SOL     OW30631   3.586   4.881   2.731
 9911SOL    HW130632   3.492   4.862   2.759
 9911SOL    HW230633   3.606   4.978   2.746
 9912SOL     OW30634   4.769   0.036   0.866
 9912SOL    HW130635   4.716   0.043   0.781
 9912SOL    HW230636   4.709   0.007   0.940
 9913SOL     OW30637   5.116   2.212   2.893
 9913SOL    HW130638   5.093   2.120   2.924
 9913SOL    HW230639   5.060   2.236   2.814
 9914SOL     OW30640   2.285   5.689   4.336
 9914SOL    HW130641   2.267   5.616   4.402
 9914SOL    HW230642   2.238   5.667   4.250
 9915SOL     OW30643   6.346   4.160   4.661
 9915SOL    HW130644   6.287   4.199   4.731
 9915SOL    HW230645   6.293   4.145   4.577
 9916SOL     OW30646   2.805   3.909   0.329
 9916SOL    HW130647   2.730   3.973   0.346
 9916SOL    HW230648   2.860   3.900   0.412
 9917SOL     OW30649   2.169   3.117   4.717
 9917SOL    HW130650   2.177   3.117   4.817
 9917SOL    HW230651   2.200   3.029   4.681
 9918SOL     OW30652   2.552   0.692   4.323
 9918SOL    HW130653   2.574   0.708   4.419
 9918SOL    HW230654   2.537   0.779   4.276
 9919SOL     OW30655   0.577   5.425   1.913
 9919SOL    HW130656   0.495   5.407   1.858
 9919SOL    HW230657   0.595   5.346   1.971
 9920SOL     OW30658   4.431   0.065   2.715
 9920SOL    HW130659   4.356   0.044   2.778
 9920SOL    HW230660   4.394   0.104   2.631
 9921SOL     OW30661   4.759   0.367   2.662
 9921SOL    HW130662   4.696   0.316   2.604
 9921SOL    HW230663   4.839   0.395   2.608
 9922SOL     OW30664   5.243   2.348   2.272
 9922SOL    HW130665   5.202   2.331   2.361
 9922SOL    HW230666   5.205   2.285   2.204
 9923SOL     OW30667   5.794   0.420   6.768
 9923SOL    HW130668   5.790   0.482   6.689
 9923SOL    HW230669   5.809   0.473   6.851
 9924SOL     OW30670   5.228   1.128   4.207
 9924SOL    HW130671   5.268   1.046   4.165
 9924SOL    HW230672   5.278   1.209   4.176
 9925SOL     OW30673   3.859   2.121   4.671
 9925SOL    HW130674   3.827   2.102   4.764
 9925SOL    HW230675   3.897   2.038   4.631
 9926SOL     OW30676   1.991   0.878   5.378
 9926SOL    HW130677   1.935   0.840   5.452
 9926SOL    HW230678   1.959   0.970   5.355
 9927SOL     OW30679   0.947   2.910   2.951
 9927SOL    HW130680   0.867   2.879   2.900
 9927SOL    HW230681   0.964   3.007   2.932
 9928SOL     OW30682   6.911   3.209   2.423
 9928SOL    HW130683   6.977   3.195   2.350
 9928SOL    HW230684   6.944   3.165   2.506
 9929SOL     OW30685   0.662   5.008   5.641
 9929SOL    HW130686   0.732   5.052   5.584
 9929SOL    HW230687   0.704   4.934   5.693
 9930SOL     OW30688   6.526   5.325   6.255
 9930SOL    HW130689   6.536   5.422   6.233
 9930SOL    HW230690   6.546   5.311   6.352
 9931SOL     OW30691   1.973   4.598   6.816
 9931SOL    HW130692   1.884   4.577   6.857
 9931SOL    HW230693   2.022   4.663   6.874
 9932SOL     OW30694   2.603   2.639   1.116
 9932SOL    HW130695   2.556   2.709   1.169
 9932SOL    HW230696   2.622   2.560   1.174
 9933SOL     OW30697   0.962   1.434   2.851
 9933SOL    HW130698   0.892   1.362   2.858
 9933SOL    HW230699   0.992   1.459   2.943
 9934SOL     OW30700   5.129   0.340   6.248
 9934SOL    HW130701   5.124   0.440   6.251
 9934SOL    HW230702   5.046   0.302   6.288
 9935SOL     OW30703   2.559   2.985   0.871
 9935SOL    HW130704   2.611   2.928   0.808
 9935SOL    HW230705   2.497   2.927   0.925
 9936SOL     OW30706   5.107   6.395   6.988
 9936SOL    HW130707   5.125   6.408   6.891
 9936SOL    HW230708   5.069   6.480   0.010
 9937SOL     OW30709   1.601   6.578   3.872
 9937SOL    HW130710   1.528   6.514   3.846
 9937SOL    HW230711   1.688   6.545   3.835
 9938SOL     OW30712   6.828   1.310   3.473
 9938SOL    HW130713   6.874   1.347   3.554
 9938SOL    HW230714   6.889   1.318   3.394
 9939SOL     OW30715   2.637   3.840   1.327
 9939SOL    HW130716   2.697   3.868   1.252
 9939SOL    HW230717   2.555   3.898   1.327
 9940SOL     OW30718   0.173   0.146   3.648
 9940SOL    HW130719   0.144   0.236   3.683
 9940SOL    HW230720   0.238   0.105   3.712
 9941SOL     OW30721   5.409   3.440   0.950
 9941SOL    HW130722   5.495   3.486   0.972
 9941SOL    HW230723   5.421   3.341   0.955
 9942SOL     OW30724   6.189   5.558   2.874
 9942SOL    HW130725   6.191   5.657   2.862
 9942SOL    HW230726   6.122   5.535   2.945
 9943SOL     OW30727   1.777   3.971   5.416
 9943SOL    HW130728   1.701   3.909   5.435
 9943SOL    HW230729   1.839   3.928   5.351
 9944SOL     OW30730   2.291   5.487   6.819
 9944SOL    HW130731   2.320   5.460   6.727
 9944SOL    HW230732   2.367   5.477   6.883
 9945SOL     OW30733   6.473   3.593   6.704
 9945SOL    HW130734   6.435   3.559   6.790
 9945SOL    HW230735   6.427   3.678   6.678
 9946SOL     OW30736   5.078   2.624   1.905
 9946SOL    HW130737   5.123   2.542   1.870
 9946SOL    HW230738   5.096   2.633   2.003
 9947SOL     OW30739   1.038   1.121   2.791
 9947SOL    HW130740   0.944   1.116   2.825
 9947SOL    HW230741   1.070   1.216   2.796
 9948SOL     OW30742   5.716   0.747   5.223
 9948SOL    HW130743   5.672   0.831   5.254
 9948SOL    HW230744   5.740   0.690   5.301
 9949SOL     OW30745   6.953   3.745   2.743
 9949SOL    HW130746   6.989   3.784   2.827
 9949SOL    HW230747   6.861   3.708   2.760
 9950SOL     OW30748   4.375   5.219   6.010
 9950SOL    HW130749   4.468   5.188   6.028
 9950SOL    HW230750   4.367   5.249   5.915
 9951SOL     OW30751   0.405   2.361   3.032
 9951SOL    HW130752   0.486   2.346   2.976
 9951SOL    HW230753   0.344   2.283   3.023
 9952SOL     OW30754   1.165   4.792   1.653
 9952SOL    HW130755   1.147   4.743   1.738
 9952SOL    HW230756   1.233   4.743   1.599
 9953SOL     OW30757   6.350   4.489   4.829
 9953SOL    HW130758   6.288   4.412   4.845
 9953SOL    HW230759   6.432   4.477   4.884
 9954SOL     OW30760   4.115   1.293   1.054
 9954SOL    HW130761   4.063   1.231   1.113
 9954SOL    HW230762   4.207   1.256   1.040
 9955SOL     OW30763   6.115   5.009   0.853
 9955SOL    HW130764   6.155   4.960   0.930
 9955SOL    HW230765   6.031   5.055   0.882
 9956SOL     OW30766   1.416   3.301   3.560
 9956SOL    HW130767   1.330   3.317   3.609
 9956SOL    HW230768   1.484   3.369   3.589
 9957SOL     OW30769   4.860   6.989   7.011
 9957SOL    HW130770   4.812   0.035   0.057
 9957SOL    HW230771   4.957   7.013   7.009
 9958SOL     OW30772   5.887   5.939   5.970
 9958SOL    HW130773   5.937   5.947   6.056
 9958SOL    HW230774   5.893   6.025   5.919
 9959SOL     OW30775   5.572   4.838   6.808
 9959SOL    HW130776   5.637   4.762   6.798
 9959SOL    HW230777   5.612   4.921   6.770
 9960SOL     OW30778   6.788   0.490   6.787
 9960SOL    HW130779   6.851   0.501   6.864
 9960SOL    HW230780   6.756   0.580   6.757
 9961SOL     OW30781   3.093   6.136   0.357
 9961SOL    HW130782   3.150   6.212   0.388
 9961SOL    HW230783   3.115   6.054   0.411
 9962SOL     OW30784   3.379   0.637   1.443
 9962SOL    HW130785   3.302   0.683   1.489
 9962SOL    HW230786   3.419   0.569   1.504
 9963SOL     OW30787   1.033   0.604   6.261
 9963SOL    HW130788   0.979   0.672   6.211
 9963SOL    HW230789   1.076   0.648   6.340
 9964SOL     OW30790   4.669   5.211   4.977
 9964SOL    HW130791   4.693   5.120   5.011
 9964SOL    HW230792   4.576   5.233   5.004
 9965SOL     OW30793   2.679   4.693   4.456
 9965SOL    HW130794   2.736   4.697   4.538
 9965SOL    HW230795   2.601   4.633   4.471
 9966SOL     OW30796   3.095   6.013   2.775
 9966SOL    HW130797   3.036   6.093   2.765
 9966SOL    HW230798   3.127   5.983   2.685
 9967SOL     OW30799   0.458   0.548   2.900
 9967SOL    HW130800   0.362   0.525   2.919
 9967SOL    HW230801   0.462   0.615   2.826
 9968SOL     OW30802   4.766   6.466   6.732
 9968SOL    HW130803   4.775   6.420   6.644
 9968SOL    HW230804   4.854   6.507   6.757
 9969SOL     OW30805   0.070   5.953   3.273
 9969SOL    HW130806   0.158   6.001   3.269
 9969SOL    HW230807   7.014   6.020   3.291
 9970SOL     OW30808   6.819   3.227   2.122
 9970SOL    HW130809   6.862   3.155   2.177
 9970SOL    HW230810   6.719   3.219   2.130
 9971SOL     OW30811   0.104   5.216   4.634
 9971SOL    HW130812   0.072   5.121   4.625
 9971SOL    HW230813   0.097   5.245   4.729
 9972SOL     OW30814   2.890   4.699   5.965
 9972SOL    HW130815   2.825   4.699   5.889
 9972SOL    HW230816   2.952   4.777   5.956
 9973SOL     OW30817   3.113   1.984   2.781
 9973SOL    HW130818   3.113   1.904   2.841
 9973SOL    HW230819   3.187   2.045   2.808
 9974SOL     OW30820   0.679   2.510   3.183
 9974SOL    HW130821   0.637   2.428   3.223
 9974SOL    HW230822   0.726   2.562   3.255
 9975SOL     OW30823   2.370   4.414   6.428
 9975SOL    HW130824   2.292   4.359   6.398
 9975SOL    HW230825   2.363   4.505   6.387
 9976SOL     OW30826   3.751   6.282   5.405
 9976SOL    HW130827   3.711   6.374   5.402
 9976SOL    HW230828   3.817   6.277   5.479
 9977SOL     OW30829   4.216   0.333   5.325
 9977SOL    HW130830   4.270   0.409   5.360
 9977SOL    HW230831   4.269   0.285   5.255
 9978SOL     OW30832   6.931   2.946   6.935
 9978SOL    HW130833   6.876   2.867   6.959
 9978SOL    HW230834   7.012   2.950   6.993
 9979SOL     OW30835   3.677   3.852   4.382
 9979SOL    HW130836   3.605   3.866   4.314
 9979SOL    HW230837   3.657   3.910   4.462
 9980SOL     OW30838   0.565   0.723   6.796
 9980SOL    HW130839   0.656   0.748   6.764
 9980SOL    HW230840   0.545   0.773   6.881
 9981SOL     OW30841   5.844   0.659   0.269
 9981SOL    HW130842   5.898   0.611   0.339
 9981SOL    HW230843   5.834   0.755   0.295
 9982SOL     OW30844   2.670   2.326   4.443
 9982SOL    HW130845   2.753   2.304   4.495
 9982SOL    HW230846   2.692   2.332   4.346
 9983SOL     OW30847   0.491   2.930   2.322
 9983SOL    HW130848   0.473   2.944   2.225
 9983SOL    HW230849   0.406   2.904   2.368
 9984SOL     OW30850   0.777   4.654   0.977
 9984SOL    HW130851   0.762   4.712   1.057
 9984SOL    HW230852   0.817   4.567   1.006
 9985SOL     OW30853   4.779   4.559   0.286
 9985SOL    HW130854   4.832   4.642   0.270
 9985SOL    HW230855   4.786   4.499   0.207
 9986SOL     OW30856   5.308   4.921   0.646
 9986SOL    HW130857   5.254   5.004   0.638
 9986SOL    HW230858   5.264   4.860   0.712
 9987SOL     OW30859   5.087   2.108   1.430
 9987SOL    HW130860   5.069   2.094   1.332
 9987SOL    HW230861   5.094   2.019   1.475
 9988SOL     OW30862   5.898   6.598   3.807
 9988SOL    HW130863   5.958   6.659   3.858
 9988SOL    HW230864   5.952   6.523   3.767
 9989SOL     OW30865   6.531   5.457   1.816
 9989SOL    HW130866   6.516   5.556   1.817
 9989SOL    HW230867   6.626   5.437   1.842
 9990SOL     OW30868   0.360   6.155   3.316
 9990SOL    HW130869   0.319   6.171   3.226
 9990SOL    HW230870   0.299   6.191   3.387
 9991SOL     OW30871   2.234   4.232   2.233
 9991SOL    HW130872   2.141   4.195   2.243
 9991SOL    HW230873   2.244   4.312   2.292
 9992SOL     OW30874   2.485   5.390   0.485
 9992SOL    HW130875   2.479   5.326   0.561
 9992SOL    HW230876   2.464   5.482   0.517
 9993SOL     OW30877   4.236   0.200   4.776
 9993SOL    HW130878   4.218   0.163   4.685
 9993SOL    HW230879   4.165   0.169   4.839
 9994SOL     OW30880   5.964   5.124   4.974
 9994SOL    HW130881   5.948   5.093   5.068
 9994SOL    HW230882   6.026   5.061   4.929
 9995SOL     OW30883   4.171   1.613   6.218
 9995SOL    HW130884   4.123   1.697   6.192
 9995SOL    HW230885   4.117   1.563   6.286
 9996SOL     OW30886   3.110   4.318   0.969
 9996SOL    HW130887   3.186   4.253   0.971
 9996SOL    HW230888   3.118   4.381   1.046
 9997SOL     OW30889   6.937   1.326   3.046
 9997SOL    HW130890   6.869   1.254   3.062
 9997SOL    HW230891   6.931   1.357   2.951
 9998SOL     OW30892   5.264   4.177   2.399
 9998SOL    HW130893   5.284   4.235   2.478
 9998SOL    HW230894   5.252   4.235   2.317
 9999SOL     OW30895   0.492   6.814   4.614
 9999SOL    HW130896   0.437   6.887   4.656
 9999SOL    HW230897   0.587   6.824   4.644
10000SOL     OW30898   4.746   2.233   1.413
10000SOL    HW130899   4.704   2.197   1.330
10000SOL    HW230900   4.830   2.282   1.391
10001SOL     OW30901   3.993   6.285   1.639
10001SOL    HW130902   4.003   6.316   1.544
10001SOL    HW230903   3.976   6.364   1.698
10002SOL     OW30904   2.432   6.839   1.878
10002SOL    HW130905   2.437   6.754   1.930
10002SOL    HW230906   2.514   6.847   1.820
10003SOL     OW30907   1.422   1.269   2.372
10003SOL    HW130908   1.323   1.284   2.363
10003SOL    HW230909   1.465   1.274   2.282
10004SOL     OW30910   0.332   4.114   3.700
10004SOL    HW130911   0.420   4.158   3.716
10004SOL    HW230912   0.266   4.144   3.769
10005SOL     OW30913   2.512   5.621   3.217
10005SOL    HW130914   2.581   5.551   3.199
10005SOL    HW230915   2.557   5.705   3.248
10006SOL     OW30916   5.145   1.580   5.325
10006SOL    HW130917   5.187   1.590   5.235
10006SOL    HW230918   5.092   1.662   5.347
10007SOL     OW30919   1.694   5.248   4.018
10007SOL    HW130920   1.692   5.173   4.084
10007SOL    HW230921   1.600   5.273   3.994
10008SOL     OW30922   4.373   1.099   5.948
10008SOL    HW130923   4.344   1.060   6.036
10008SOL    HW230924   4.454   1.049   5.915
10009SOL     OW30925   0.487   4.855   2.207
10009SOL    HW130926   0.515   4.920   2.136
10009SOL    HW230927   0.495   4.762   2.172
10010SOL     OW30928   1.863   4.425   1.441
10010SOL    HW130929   1.917   4.462   1.365
10010SOL    HW230930   1.907   4.342   1.476
10011SOL     OW30931   2.997   3.069   0.378
10011SOL    HW130932   2.991   3.159   0.422
10011SOL    HW230933   3.024   3.081   0.283
10012SOL     OW30934   5.299   1.989   3.496
10012SOL    HW130935   5.254   2.007   3.583
10012SOL    HW230936   5.365   2.062   3.477
10013SOL     OW30937   0.752   6.601   4.390
10013SOL    HW130938   0.688   6.607   4.313
10013SOL    HW230939   0.733   6.520   4.444
10014SOL     OW30940   1.252   0.838   3.179
10014SOL    HW130941   1.337   0.877   3.145
10014SOL    HW230942   1.267   0.743   3.208
10015SOL     OW30943   3.931   6.789   6.610
10015SOL    HW130944   3.960   6.750   6.523
10015SOL    HW230945   3.948   6.724   6.684
10016SOL     OW30946   2.652   1.334   4.485
10016SOL    HW130947   2.661   1.411   4.548
10016SOL    HW230948   2.576   1.351   4.423
10017SOL     OW30949   3.108   1.576   2.621
10017SOL    HW130950   3.040   1.568   2.547
10017SOL    HW230951   3.060   1.585   2.708
10018SOL     OW30952   0.095   3.947   5.369
10018SOL    HW130953   0.024   3.888   5.407
10018SOL    HW230954   0.102   4.031   5.423
10019SOL     OW30955   0.071   2.123   1.906
10019SOL    HW130956   0.114   2.134   1.816
10019SOL    HW230957   0.053   2.026   1.922
10020SOL     OW30958   6.827   1.279   2.021
10020SOL    HW130959   6.903   1.220   2.051
10020SOL    HW230960   6.743   1.226   2.020
10021SOL     OW30961   0.860   3.127   1.765
10021SOL    HW130962   0.851   3.059   1.692
10021SOL    HW230963   0.956   3.132   1.794
10022SOL     OW30964   1.500   6.328   5.739
10022SOL    HW130965   1.523   6.238   5.775
10022SOL    HW230966   1.541   6.399   5.796
10023SOL     OW30967   0.227   1.853   5.937
10023SOL    HW130968   0.222   1.790   5.860
10023SOL    HW230969   0.181   1.812   6.016
10024SOL     OW30970   1.927   4.383   2.976
10024SOL    HW130971   1.840   4.344   3.004
10024SOL    HW230972   1.959   4.340   2.892
10025SOL     OW30973   0.999   3.252   1.195
10025SOL    HW130974   1.030   3.247   1.290
10025SOL    HW230975   1.014   3.163   1.150
10026SOL     OW30976   5.443   0.951   5.205
10026SOL    HW130977   5.483   1.005   5.279
10026SOL    HW230978   5.348   0.980   5.190
10027SOL     OW30979   3.327   1.472   5.270
10027SOL    HW130980   3.326   1.388   5.215
10027SOL    HW230981   3.399   1.464   5.340
10028SOL     OW30982   4.321   6.938   2.025
10028SOL    HW130983   4.244   6.994   1.995
10028SOL    HW230984   4.311   6.919   2.123
10029SOL     OW30985   0.019   4.302   4.142
10029SOL    HW130986   6.976   4.362   4.195
10029SOL    HW230987   0.114   4.331   4.153
10030SOL     OW30988   2.531   0.219   4.432
10030SOL    HW130989   2.498   0.296   4.377
10030SOL    HW230990   2.455   0.156   4.449
10031SOL     OW30991   2.076   6.170   2.965
10031SOL    HW130992   2.084   6.073   2.990
10031SOL    HW230993   2.002   6.212   3.018
10032SOL     OW30994   3.186   5.902   4.712
10032SOL    HW130995   3.117   5.884   4.782
10032SOL    HW230996   3.269   5.850   4.732
10033SOL     OW30997   3.495   1.143   5.250
10033SOL    HW130998   3.524   1.055   5.288
10033SOL    HW230999   3.399   1.159   5.272
10034SOL     OW31000   2.523   1.264   2.545
10034SOL    HW131001   2.499   1.361   2.545
10034SOL    HW231002   2.594   1.248   2.476
10035SOL     OW31003   6.637   3.110   2.408
10035SOL    HW131004   6.613   3.063   2.493
10035SOL    HW231005   6.734   3.134   2.410
10036SOL     OW31006   1.213   1.101   6.802
10036SOL    HW131007   1.265   1.061   6.878
10036SOL    HW231008   1.200   1.198   6.818
10037SOL     OW31009   5.653   6.605   6.257
10037SOL    HW131010   5.571   6.642   6.300
10037SOL    HW231011   5.677   6.662   6.178
10038SOL     OW31012   4.843   6.300   6.526
10038SOL    HW131013   4.855   6.202   6.508
10038SOL    HW231014   4.820   6.348   6.441
10039SOL     OW31015   0.120   5.924   1.942
10039SOL    HW131016   0.206   5.916   1.892
10039SOL    HW231017   0.121   6.009   1.995
10040SOL     OW31018   2.477   6.936   0.493
10040SOL    HW131019   2.499   6.862   0.557
10040SOL    HW231020   2.378   6.951   0.492
10041SOL     OW31021   5.585   5.745   4.993
10041SOL    HW131022   5.620   5.744   5.087
10041SOL    HW231023   5.524   5.667   4.979
10042SOL     OW31024   6.786   0.604   5.336
10042SOL    HW131025   6.726   0.529   5.365
10042SOL    HW231026   6.822   0.651   5.417
10043SOL     OW31027   0.743   0.542   3.712
10043SOL    HW131028   0.808   0.618   3.716
10043SOL    HW231029   0.663   0.564   3.767
10044SOL     OW31030   2.964   1.935   0.095
10044SOL    HW131031   3.007   2.003   0.154
10044SOL    HW231032   2.874   1.967   0.067
10045SOL     OW31033   3.879   6.830   4.814
10045SOL    HW131034   3.795   6.800   4.769
10045SOL    HW231035   3.939   6.875   4.748
10046SOL     OW31036   6.059   2.332   1.606
10046SOL    HW131037   6.142   2.385   1.585
10046SOL    HW231038   5.984   2.394   1.626
10047SOL     OW31039   0.400   2.436   3.355
10047SOL    HW131040   0.396   2.387   3.441
10047SOL    HW231041   0.456   2.386   3.289
10048SOL     OW31042   3.693   2.540   1.761
10048SOL    HW131043   3.787   2.572   1.747
10048SOL    HW231044   3.696   2.446   1.798
10049SOL     OW31045   1.826   6.441   4.368
10049SOL    HW131046   1.924   6.460   4.365
10049SOL    HW231047   1.775   6.525   4.350
10050SOL     OW31048   5.543   1.389   4.281
10050SOL    HW131049   5.601   1.315   4.317
10050SOL    HW231050   5.473   1.350   4.222
10051SOL     OW31051   6.341   1.867   6.999
10051SOL    HW131052   6.383   1.918   0.058
10051SOL    HW231053   6.258   1.913   6.970
10052SOL     OW31054   1.292   4.490   2.007
10052SOL    HW131055   1.227   4.535   1.946
10052SOL    HW231056   1.366   4.449   1.954
10053SOL     OW31057   3.056   6.831   3.208
10053SOL    HW131058   2.977   6.892   3.215
10053SOL    HW231059   3.130   6.866   3.266
10054SOL     OW31060   4.687   5.788   4.044
10054SOL    HW131061   4.723   5.791   4.137
10054SOL    HW231062   4.758   5.752   3.983
10055SOL     OW31063   6.402   3.227   6.603
10055SOL    HW131064   6.431   3.313   6.563
10055SOL    HW231065   6.417   3.229   6.702
10056SOL     OW31066   6.641   4.695   1.858
10056SOL    HW131067   6.582   4.775   1.869
10056SOL    HW231068   6.620   4.628   1.929
10057SOL     OW31069   2.629   2.182   4.019
10057SOL    HW131070   2.703   2.116   4.009
10057SOL    HW231071   2.543   2.134   4.040
10058SOL     OW31072   0.766   4.406   3.923
10058SOL    HW131073   0.842   4.353   3.886
10058SOL    HW231074   0.764   4.496   3.880
10059SOL     OW31075   5.814   6.827   1.484
10059SOL    HW131076   5.820   6.797   1.388
10059SOL    HW231077   5.789   6.923   1.487
10060SOL     OW31078   2.119   2.736   2.381
10060SOL    HW131079   2.147   2.707   2.472
10060SOL    HW231080   2.023   2.764   2.383
10061SOL     OW31081   6.141   2.096   4.981
10061SOL    HW131082   6.144   2.159   4.904
10061SOL    HW231083   6.103   2.008   4.950
10062SOL     OW31084   5.957   5.372   3.443
10062SOL    HW131085   5.879   5.435   3.438
10062SOL    HW231086   5.951   5.318   3.527
10063SOL     OW31087   0.938   2.633   3.032
10063SOL    HW131088   0.947   2.727   2.999
10063SOL    HW231089   1.025   2.604   3.073
10064SOL     OW31090   5.619   6.240   5.133
10064SOL    HW131091   5.551   6.191   5.079
10064SOL    HW231092   5.648   6.183   5.210
10065SOL     OW31093   0.503   6.662   2.999
10065SOL    HW131094   0.491   6.636   3.095
10065SOL    HW231095   0.443   6.607   2.941
10066SOL     OW31096   0.644   0.458   3.447
10066SOL    HW131097   0.706   0.445   3.369
10066SOL    HW231098   0.698   0.483   3.528
10067SOL     OW31099   4.916   6.757   3.478
10067SOL    HW131100   4.885   6.735   3.386
10067SOL    HW231101   4.857   6.711   3.545
10068SOL     OW31102   5.021   3.534   5.809
10068SOL    HW131103   4.965   3.609   5.774
10068SOL    HW231104   5.043   3.471   5.735
10069SOL     OW31105   4.796   1.127   3.744
10069SOL    HW131106   4.861   1.078   3.686
10069SOL    HW231107   4.836   1.215   3.771
10070SOL     OW31108   0.941   6.737   4.498
10070SOL    HW131109   0.864   6.696   4.449
10070SOL    HW231110   0.918   6.746   4.595
10071SOL     OW31111   5.220   5.295   4.997
10071SOL    HW131112   5.123   5.301   5.020
10071SOL    HW231113   5.270   5.253   5.073
10072SOL     OW31114   0.884   6.778   3.679
10072SOL    HW131115   0.983   6.759   3.680
10072SOL    HW231116   0.869   6.870   3.644
10073SOL     OW31117   0.498   5.040   6.521
10073SOL    HW131118   0.434   5.067   6.594
10073SOL    HW231119   0.499   4.940   6.514
10074SOL     OW31120   2.437   6.649   5.608
10074SOL    HW131121   2.536   6.640   5.605
10074SOL    HW231122   2.412   6.742   5.636
10075SOL     OW31123   1.620   2.431   3.919
10075SOL    HW131124   1.694   2.398   3.978
10075SOL    HW231125   1.586   2.519   3.953
10076SOL     OW31126   5.437   0.499   4.594
10076SOL    HW131127   5.536   0.499   4.577
10076SOL    HW231128   5.390   0.474   4.510
10077SOL     OW31129   3.305   0.835   6.788
10077SOL    HW131130   3.331   0.883   6.704
10077SOL    HW231131   3.241   0.762   6.766
10078SOL     OW31132   5.708   6.434   5.301
10078SOL    HW131133   5.698   6.347   5.251
10078SOL    HW231134   5.709   6.416   5.399
10079SOL     OW31135   6.375   3.055   6.263
10079SOL    HW131136   6.429   3.004   6.330
10079SOL    HW231137   6.302   3.105   6.309
10080SOL     OW31138   1.369   2.401   6.489
10080SOL    HW131139   1.327   2.396   6.399
10080SOL    HW231140   1.310   2.358   6.557
10081SOL     OW31141   0.454   1.188   6.813
10081SOL    HW131142   0.548   1.215   6.831
10081SOL    HW231143   0.446   1.153   6.720
10082SOL     OW31144   6.509   0.828   0.765
10082SOL    HW131145   6.568   0.902   0.798
10082SOL    HW231146   6.422   0.865   0.735
10083SOL     OW31147   5.058   1.255   4.374
10083SOL    HW131148   5.113   1.210   4.303
10083SOL    HW231149   5.096   1.345   4.394
10084SOL     OW31150   2.372   0.932   6.365
10084SOL    HW131151   2.397   0.972   6.277
10084SOL    HW231152   2.308   0.857   6.351
10085SOL     OW31153   0.773   5.410   2.522
10085SOL    HW131154   0.725   5.401   2.435
10085SOL    HW231155   0.870   5.429   2.506
10086SOL     OW31156   6.686   3.927   2.224
10086SOL    HW131157   6.744   3.925   2.142
10086SOL    HW231158   6.595   3.891   2.201
10087SOL     OW31159   1.526   0.022   3.710
10087SOL    HW131160   1.608   0.023   3.766
10087SOL    HW231161   1.449   0.060   3.762
10088SOL     OW31162   6.963   0.462   4.952
10088SOL    HW131163   6.967   0.550   5.001
10088SOL    HW231164   0.011   0.464   4.876
10089SOL     OW31165   1.916   3.041   2.205
10089SOL    HW131166   2.011   3.065   2.227
10089SOL    HW231167   1.890   2.959   2.255
10090SOL     OW31168   0.600   4.323   1.541
10090SOL    HW131169   0.614   4.272   1.625
10090SOL    HW231170   0.542   4.270   1.479
10091SOL     OW31171   0.498   2.311   4.480
10091SOL    HW131172   0.597   2.293   4.478
10091SOL    HW231173   0.465   2.326   4.387
10092SOL     OW31174   1.801   3.348   4.657
10092SOL    HW131175   1.795   3.262   4.708
10092SOL    HW231176   1.710   3.380   4.634
10093SOL     OW31177   6.854   5.182   6.439
10093SOL    HW131178   6.846   5.095   6.389
10093SOL    HW231179   6.872   5.163   6.536
10094SOL     OW31180   1.815   1.185   1.943
10094SOL    HW131181   1.898   1.215   1.895
10094SOL    HW231182   1.735   1.217   1.892
10095SOL     OW31183   0.481   1.001   6.096
10095SOL    HW131184   0.450   1.079   6.042
10095SOL    HW231185   0.547   0.947   6.043
10096SOL     OW31186   0.334   4.599   1.777
10096SOL    HW131187   0.406   4.620   1.711
10096SOL    HW231188   0.282   4.682   1.797
10097SOL     OW31189   1.048   2.460   6.457
10097SOL    HW131190   1.065   2.558   6.454
10097SOL    HW231191   0.992   2.434   6.378
10098SOL     OW31192   3.302   4.759   6.694
10098SOL    HW131193   3.227   4.800   6.642
10098SOL    HW231194   3.266   4.684   6.750
10099SOL     OW31195   6.611   4.359   4.576
10099SOL    HW131196   6.570   4.301   4.646
10099SOL    HW231197   6.579   4.453   4.589
10100SOL     OW31198   5.612   0.613   5.659
10100SOL    HW131199   5.577   0.543   5.720
10100SOL    HW231200   5.697   0.581   5.616
10101SOL     OW31201   6.972   4.564   2.159
10101SOL    HW131202   6.902   4.523   2.219
10101SOL    HW231203   7.010   4.645   2.204
10102SOL     OW31204   3.890   1.057   3.233
10102SOL    HW131205   3.791   1.067   3.243
10102SOL    HW231206   3.913   1.052   3.136
10103SOL     OW31207   2.510   1.907   0.355
10103SOL    HW131208   2.574   1.866   0.420
10103SOL    HW231209   2.416   1.892   0.387
10104SOL     OW31210   1.757   5.675   5.177
10104SOL    HW131211   1.676   5.732   5.192
10104SOL    HW231212   1.821   5.689   5.253
10105SOL     OW31213   2.848   0.472   6.401
10105SOL    HW131214   2.918   0.413   6.441
10105SOL    HW231215   2.886   0.523   6.324
10106SOL     OW31216   5.479   5.634   0.324
10106SOL    HW131217   5.541   5.647   0.246
10106SOL    HW231218   5.531   5.633   0.409
10107SOL     OW31219   5.683   0.729   5.967
10107SOL    HW131220   5.684   0.775   5.879
10107SOL    HW231221   5.616   0.772   6.027
10108SOL     OW31222   5.744   6.259   0.071
10108SOL    HW131223   5.697   6.171   0.073
10108SOL    HW231224   5.701   6.319   0.003
10109SOL     OW31225   4.775   5.091   3.378
10109SOL    HW131226   4.697   5.122   3.433
10109SOL    HW231227   4.837   5.037   3.435
10110SOL     OW31228   3.336   1.465   5.916
10110SOL    HW131229   3.430   1.435   5.903
10110SOL    HW231230   3.333   1.565   5.919
10111SOL     OW31231   0.415   2.677   2.829
10111SOL    HW131232   0.483   2.688   2.900
10111SOL    HW231233   0.401   2.764   2.782
10112SOL     OW31234   4.295   4.099   6.358
10112SOL    HW131235   4.335   4.046   6.283
10112SOL    HW231236   4.223   4.046   6.402
10113SOL     OW31237   3.534   6.502   0.297
10113SOL    HW131238   3.535   6.569   0.372
10113SOL    HW231239   3.480   6.538   0.221
10114SOL     OW31240   4.193   1.825   1.206
10114SOL    HW131241   4.206   1.726   1.206
10114SOL    HW231242   4.105   1.848   1.246
10115SOL     OW31243   0.774   1.931   3.983
10115SOL    HW131244   0.748   1.835   3.981
10115SOL    HW231245   0.718   1.982   3.918
10116SOL     OW31246   0.859   0.696   1.080
10116SOL    HW131247   0.840   0.792   1.099
10116SOL    HW231248   0.781   0.640   1.109
10117SOL     OW31249   5.164   0.597   5.786
10117SOL    HW131250   5.183   0.622   5.691
10117SOL    HW231251   5.066   0.580   5.797
10118SOL     OW31252   6.690   4.958   2.714
10118SOL    HW131253   6.624   4.995   2.780
10118SOL    HW231254   6.667   4.990   2.622
10119SOL     OW31255   2.705   0.260   5.501
10119SOL    HW131256   2.772   0.334   5.508
10119SOL    HW231257   2.623   0.294   5.455
10120SOL     OW31258   6.117   2.759   3.977
10120SOL    HW131259   6.162   2.751   3.888
10120SOL    HW231260   6.018   2.769   3.964
10121SOL     OW31261   6.159   5.028   4.253
10121SOL    HW131262   6.180   5.049   4.349
10121SOL    HW231263   6.080   5.082   4.223
10122SOL     OW31264   5.201   3.110   0.463
10122SOL    HW131265   5.265   3.185   0.482
10122SOL    HW231266   5.193   3.052   0.544
10123SOL     OW31267   0.049   6.897   0.314
10123SOL    HW131268   0.094   6.898   0.225
10123SOL    HW231269   0.077   6.978   0.367
10124SOL     OW31270   2.879   4.510   0.873
10124SOL    HW131271   2.932   4.567   0.810
10124SOL    HW231272   2.941   4.452   0.925
10125SOL     OW31273   1.247   0.512   1.318
10125SOL    HW131274   1.162   0.510   1.265
10125SOL    HW231275   1.234   0.570   1.399
10126SOL     OW31276   5.701   5.119   0.083
10126SOL    HW131277   5.671   5.091   7.008
10126SOL    HW231278   5.732   5.039   0.134
10127SOL     OW31279   3.501   4.555   5.322
10127SOL    HW131280   3.434   4.486   5.298
10127SOL    HW231281   3.560   4.520   5.395
10128SOL     OW31282   0.091   1.984   1.420
10128SOL    HW131283   0.036   1.907   1.386
10128SOL    HW231284   0.095   2.055   1.350
10129SOL     OW31285   5.350   2.594   3.247
10129SOL    HW131286   5.266   2.605   3.300
10129SOL    HW231287   5.347   2.507   3.199
10130SOL     OW31288   6.703   5.138   1.824
10130SOL    HW131289   6.770   5.173   1.890
10130SOL    HW231290   6.701   5.197   1.743
10131SOL     OW31291   6.702   0.956   0.956
10131SOL    HW131292   6.706   0.891   1.032
10131SOL    HW231293   6.638   1.029   0.978
10132SOL     OW31294   3.037   0.051   2.721
10132SOL    HW131295   3.005   0.027   2.630
10132SOL    HW231296   3.084   6.989   2.762
10133SOL     OW31297   4.970   5.293   3.221
10133SOL    HW131298   5.054   5.263   3.176
10133SOL    HW231299   4.895   5.232   3.195
10134SOL     OW31300   0.277   1.400   2.295
10134SOL    HW131301   0.335   1.466   2.343
10134SOL    HW231302   0.334   1.335   2.245
10135SOL     OW31303   3.415   6.214   3.109
10135SOL    HW131304   3.510   6.183   3.114
10135SOL    HW231305   3.401   6.290   3.172
10136SOL     OW31306   6.253   7.005   2.168
10136SOL    HW131307   6.271   0.050   2.245
10136SOL    HW231308   6.158   6.972   2.173
10137SOL     OW31309   5.868   4.954   4.471
10137SOL    HW131310   5.786   4.897   4.464
10137SOL    HW231311   5.938   4.919   4.409
10138SOL     OW31312   5.694   2.480   6.928
10138SOL    HW131313   5.638   2.404   6.896
10138SOL    HW231314   5.780   2.445   6.966
10139SOL     OW31315   3.762   2.927   3.191
10139SOL    HW131316   3.767   2.846   3.133
10139SOL    HW231317   3.681   2.922   3.249
10140SOL     OW31318   0.701   4.520   5.512
10140SOL    HW131319   0.630   4.471   5.564
10140SOL    HW231320   0.669   4.612   5.491
10141SOL     OW31321   2.038   0.284   4.015
10141SOL    HW131322   2.076   0.221   3.947
10141SOL    HW231323   1.976   0.348   3.969
10142SOL     OW31324   5.197   6.138   4.517
10142SOL    HW131325   5.101   6.110   4.510
10142SOL    HW231326   5.215   6.210   4.449
10143SOL     OW31327   5.232   6.187   1.150
10143SOL    HW131328   5.149   6.230   1.116
10143SOL    HW231329   5.284   6.253   1.205
10144SOL     OW31330   2.762   5.232   3.403
10144SOL    HW131331   2.843   5.247   3.460
10144SOL    HW231332   2.697   5.175   3.453
10145SOL     OW31333   2.923   6.306   5.972
10145SOL    HW131334   2.933   6.211   6.002
10145SOL    HW231335   2.990   6.325   5.900
10146SOL     OW31336   5.124   4.769   4.777
10146SOL    HW131337   5.049   4.826   4.811
10146SOL    HW231338   5.204   4.781   4.836
10147SOL     OW31339   4.965   5.061   4.471
10147SOL    HW131340   5.031   5.130   4.500
10147SOL    HW231341   4.981   4.976   4.522
10148SOL     OW31342   5.541   5.007   0.751
10148SOL    HW131343   5.462   4.957   0.714
10148SOL    HW231344   5.586   5.058   0.678
10149SOL     OW31345   3.754   3.700   1.028
10149SOL    HW131346   3.738   3.796   1.007
10149SOL    HW231347   3.830   3.693   1.093
10150SOL     OW31348   4.816   4.669   1.529
10150SOL    HW131349   4.863   4.696   1.613
10150SOL    HW231350   4.881   4.670   1.453
10151SOL     OW31351   1.525   6.689   5.457
10151SOL    HW131352   1.610   6.729   5.422
10151SOL    HW231353   1.532   6.589   5.454
10152SOL     OW31354   0.303   5.163   3.601
10152SOL    HW131355   0.370   5.090   3.618
10152SOL    HW231356   0.335   5.220   3.526
10153SOL     OW31357   5.202   6.814   3.678
10153SOL    HW131358   5.255   6.733   3.652
10153SOL    HW231359   5.123   6.824   3.617
10154SOL     OW31360   6.391   5.461   5.523
10154SOL    HW131361   6.297   5.484   5.497
10154SOL    HW231362   6.455   5.505   5.460
10155SOL     OW31363   3.645   1.713   6.784
10155SOL    HW131364   3.571   1.647   6.798
10155SOL    HW231365   3.606   1.801   6.757
10156SOL     OW31366   5.695   0.194   2.461
10156SOL    HW131367   5.792   0.218   2.453
10156SOL    HW231368   5.686   0.095   2.466
10157SOL     OW31369   5.225   0.730   6.013
10157SOL    HW131370   5.208   0.665   5.939
10157SOL    HW231371   5.317   0.767   6.004
10158SOL     OW31372   4.283   3.747   6.471
10158SOL    HW131373   4.226   3.826   6.494
10158SOL    HW231374   4.377   3.778   6.453
10159SOL     OW31375   1.281   0.935   6.349
10159SOL    HW131376   1.343   0.997   6.398
10159SOL    HW231377   1.333   0.857   6.314
10160SOL     OW31378   1.024   5.752   3.233
10160SOL    HW131379   0.934   5.769   3.191
10160SOL    HW231380   1.014   5.682   3.304
10161SOL     OW31381   2.337   5.741   5.778
10161SOL    HW131382   2.365   5.836   5.786
10161SOL    HW231383   2.314   5.721   5.682
10162SOL     OW31384   3.230   1.895   0.020
10162SOL    HW131385   3.135   1.872   0.043
10162SOL    HW231386   3.275   1.814   6.998
10163SOL     OW31387   6.555   2.717   5.664
10163SOL    HW131388   6.521   2.624   5.680
10163SOL    HW231389   6.621   2.741   5.734
10164SOL     OW31390   0.826   2.654   5.505
10164SOL    HW131391   0.926   2.646   5.501
10164SOL    HW231392   0.790   2.585   5.568
10165SOL     OW31393   6.711   2.183   3.272
10165SOL    HW131394   6.776   2.259   3.283
10165SOL    HW231395   6.621   2.213   3.303
10166SOL     OW31396   1.200   0.949   2.374
10166SOL    HW131397   1.224   0.919   2.282
10166SOL    HW231398   1.179   1.047   2.373
10167SOL     OW31399   4.304   0.806   0.289
10167SOL    HW131400   4.241   0.787   0.365
10167SOL    HW231401   4.349   0.894   0.305
10168SOL     OW31402   6.742   4.032   4.240
10168SOL    HW131403   6.838   4.034   4.268
10168SOL    HW231404   6.685   4.065   4.315
10169SOL     OW31405   6.226   4.125   4.423
10169SOL    HW131406   6.199   4.084   4.336
10169SOL    HW231407   6.272   4.212   4.405
10170SOL     OW31408   1.641   4.129   4.343
10170SOL    HW131409   1.619   4.133   4.245
10170SOL    HW231410   1.640   4.034   4.374
10171SOL     OW31411   6.046   3.272   6.072
10171SOL    HW131412   6.093   3.198   6.026
10171SOL    HW231413   5.956   3.286   6.030
10172SOL     OW31414   5.149   1.601   3.514
10172SOL    HW131415   5.231   1.568   3.467
10172SOL    HW231416   5.117   1.686   3.471
10173SOL     OW31417   2.344   1.630   2.270
10173SOL    HW131418   2.425   1.658   2.219
10173SOL    HW231419   2.335   1.531   2.267
10174SOL     OW31420   6.254   4.787   1.023
10174SOL    HW131421   6.248   4.718   0.952
10174SOL    HW231422   6.345   4.785   1.065
10175SOL     OW31423   5.965   2.150   6.374
10175SOL    HW131424   5.986   2.057   6.343
10175SOL    HW231425   6.050   2.203   6.381
10176SOL     OW31426   2.354   4.338   0.103
10176SOL    HW131427   2.436   4.281   0.112
10176SOL    HW231428   2.313   4.352   0.193
10177SOL     OW31429   1.628   0.163   6.097
10177SOL    HW131430   1.569   0.175   6.016
10177SOL    HW231431   1.724   0.174   6.069
10178SOL     OW31432   5.609   2.337   4.451
10178SOL    HW131433   5.532   2.328   4.388
10178SOL    HW231434   5.662   2.419   4.428
10179SOL     OW31435   1.424   3.247   6.924
10179SOL    HW131436   1.357   3.300   6.873
10179SOL    HW231437   1.409   3.150   6.908
10180SOL     OW31438   2.521   6.447   5.400
10180SOL    HW131439   2.430   6.449   5.359
10180SOL    HW231440   2.512   6.426   5.498
10181SOL     OW31441   5.696   3.109   1.202
10181SOL    HW131442   5.782   3.161   1.206
10181SOL    HW231443   5.717   3.012   1.189
10182SOL     OW31444   5.595   1.163   0.562
10182SOL    HW131445   5.665   1.098   0.589
10182SOL    HW231446   5.512   1.147   0.615
10183SOL     OW31447   1.370   2.017   6.531
10183SOL    HW131448   1.426   2.049   6.608
10183SOL    HW231449   1.369   1.917   6.531
10184SOL     OW31450   4.154   0.572   6.064
10184SOL    HW131451   4.079   0.629   6.032
10184SOL    HW231452   4.224   0.565   5.992
10185SOL     OW31453   4.824   0.500   6.860
10185SOL    HW131454   4.854   0.523   6.952
10185SOL    HW231455   4.771   0.575   6.821
10186SOL     OW31456   4.240   2.275   3.317
10186SOL    HW131457   4.194   2.301   3.401
10186SOL    HW231458   4.289   2.188   3.331
10187SOL     OW31459   1.179   1.953   2.403
10187SOL    HW131460   1.112   2.019   2.367
10187SOL    HW231461   1.137   1.899   2.476
10188SOL     OW31462   3.284   5.198   1.273
10188SOL    HW131463   3.353   5.203   1.201
10188SOL    HW231464   3.245   5.289   1.288
10189SOL     OW31465   1.415   6.824   5.061
10189SOL    HW131466   1.402   6.757   5.134
10189SOL    HW231467   1.499   6.876   5.079
10190SOL     OW31468   5.501   2.445   0.486
10190SOL    HW131469   5.536   2.524   0.436
10190SOL    HW231470   5.461   2.476   0.572
10191SOL     OW31471   6.263   4.536   0.079
10191SOL    HW131472   6.342   4.478   0.100
10191SOL    HW231473   6.209   4.495   0.006
10192SOL     OW31474   3.171   1.039   6.400
10192SOL    HW131475   3.245   1.059   6.465
10192SOL    HW231476   3.141   1.124   6.356
10193SOL     OW31477   4.297   3.879   0.256
10193SOL    HW131478   4.341   3.789   0.247
10193SOL    HW231479   4.321   3.919   0.345
10194SOL     OW31480   4.990   3.436   6.051
10194SOL    HW131481   5.071   3.461   6.104
10194SOL    HW231482   4.997   3.475   5.959
10195SOL     OW31483   6.467   3.956   1.773
10195SOL    HW131484   6.393   3.966   1.707
10195SOL    HW231485   6.429   3.963   1.866
10196SOL     OW31486   0.817   1.821   4.962
10196SOL    HW131487   0.877   1.897   4.941
10196SOL    HW231488   0.730   1.832   4.914
10197SOL     OW31489   5.811   0.551   6.540
10197SOL    HW131490   5.909   0.564   6.527
10197SOL    HW231491   5.765   0.639   6.544
10198SOL     OW31492   3.928   0.067   3.551
10198SOL    HW131493   3.989   7.010   3.519
10198SOL    HW231494   3.984   0.142   3.588
10199SOL     OW31495   1.095   2.364   5.579
10199SOL    HW131496   1.032   2.361   5.657
10199SOL    HW231497   1.168   2.430   5.598
10200SOL     OW31498   5.782   2.470   1.306
10200SOL    HW131499   5.718   2.492   1.380
10200SOL    HW231500   5.807   2.373   1.311
10201SOL     OW31501   0.752   3.446   0.845
10201SOL    HW131502   0.800   3.484   0.766
10201SOL    HW231503   0.656   3.471   0.841
10202SOL     OW31504   4.240   0.815   4.351
10202SOL    HW131505   4.279   0.782   4.437
10202SOL    HW231506   4.230   0.915   4.356
10203SOL     OW31507   6.474   2.769   4.711
10203SOL    HW131508   6.499   2.863   4.688
10203SOL    HW231509   6.438   2.766   4.804
10204SOL     OW31510   5.787   5.297   6.493
10204SOL    HW131511   5.714   5.228   6.495
10204SOL    HW231512   5.862   5.264   6.436
10205SOL     OW31513   1.403   0.914   5.799
10205SOL    HW131514   1.348   0.950   5.724
10205SOL    HW231515   1.424   0.987   5.863
10206SOL     OW31516   1.569   1.043   4.589
10206SOL    HW131517   1.583   1.099   4.670
10206SOL    HW231518   1.555   0.948   4.616
10207SOL     OW31519   2.024   2.211   5.137
10207SOL    HW131520   1.950   2.278   5.134
10207SOL    HW231521   2.015   2.153   5.218
10208SOL     OW31522   6.559   5.598   5.339
10208SOL    HW131523   6.576   5.692   5.368
10208SOL    HW231524   6.644   5.558   5.305
10209SOL     OW31525   6.993   0.081   5.414
10209SOL    HW131526   6.979   7.015   5.359
10209SOL    HW231527   6.951   0.159   5.368
10210SOL     OW31528   2.909   6.952   1.803
10210SOL    HW131529   2.908   0.020   1.858
10210SOL    HW231530   2.963   6.882   1.851
10211SOL     OW31531   5.397   6.030   6.024
10211SOL    HW131532   5.317   5.989   5.980
10211SOL    HW231533   5.393   6.013   6.122
10212SOL     OW31534   0.392   0.630   6.385
10212SOL    HW131535   0.373   0.631   6.483
10212SOL    HW231536   0.476   0.682   6.367
10213SOL     OW31537   6.512   2.082   0.986
10213SOL    HW131538   6.472   1.991   0.997
10213SOL    HW231539   6.452   2.150   1.027
10214SOL     OW31540   0.953   2.246   0.206
10214SOL    HW131541   1.001   2.295   0.133
10214SOL    HW231542   1.019   2.209   0.271
10215SOL     OW31543   3.085   3.350   2.191
10215SOL    HW131544   3.181   3.375   2.177
10215SOL    HW231545   3.055   3.380   2.281
10216SOL     OW31546   0.387   6.345   2.112
10216SOL    HW131547   0.461   6.299   2.160
10216SOL    HW231548   0.419   6.376   2.023
10217SOL     OW31549   3.666   1.306   4.675
10217SOL    HW131550   3.714   1.270   4.595
10217SOL    HW231551   3.578   1.344   4.647
10218SOL     OW31552   1.442   3.083   2.282
10218SOL    HW131553   1.485   3.016   2.221
10218SOL    HW231554   1.406   3.036   2.362
10219SOL     OW31555   6.686   6.002   3.179
10219SOL    HW131556   6.699   5.906   3.205
10219SOL    HW231557   6.735   6.020   3.094
10220SOL     OW31558   3.503   2.802   0.644
10220SOL    HW131559   3.576   2.781   0.579
10220SOL    HW231560   3.494   2.901   0.653
10221SOL     OW31561   0.886   4.981   4.076
10221SOL    HW131562   0.897   5.070   4.033
10221SOL    HW231563   0.934   4.912   4.021
10222SOL     OW31564   3.323   3.550   4.085
10222SOL    HW131565   3.271   3.510   4.160
10222SOL    HW231566   3.409   3.500   4.073
10223SOL     OW31567   1.080   6.004   0.808
10223SOL    HW131568   1.096   5.978   0.713
10223SOL    HW231569   1.095   6.102   0.819
10224SOL     OW31570   6.029   4.054   2.981
10224SOL    HW131571   5.955   4.093   3.036
10224SOL    HW231572   6.020   4.084   2.886
10225SOL     OW31573   2.314   3.730   5.748
10225SOL    HW131574   2.332   3.666   5.673
10225SOL    HW231575   2.393   3.733   5.809
10226SOL     OW31576   4.854   2.964   0.396
10226SOL    HW131577   4.911   2.981   0.316
10226SOL    HW231578   4.798   2.882   0.382
10227SOL     OW31579   5.261   3.491   1.181
10227SOL    HW131580   5.311   3.460   1.100
10227SOL    HW231581   5.324   3.503   1.258
10228SOL     OW31582   5.246   0.582   0.668
10228SOL    HW131583   5.343   0.578   0.648
10228SOL    HW231584   5.212   0.491   0.692
10229SOL     OW31585   0.076   3.290   4.974
10229SOL    HW131586   0.098   3.235   4.894
10229SOL    HW231587   0.004   3.356   4.951
10230SOL     OW31588   0.173   6.191   2.057
10230SOL    HW131589   0.250   6.250   2.081
10230SOL    HW231590   0.138   6.217   1.967
10231SOL     OW31591   0.484   5.385   2.678
10231SOL    HW131592   0.571   5.409   2.633
10231SOL    HW231593   0.417   5.458   2.662
10232SOL     OW31594   5.100   4.576   3.697
10232SOL    HW131595   5.041   4.648   3.663
10232SOL    HW231596   5.045   4.495   3.720
10233SOL     OW31597   2.973   4.185   5.764
10233SOL    HW131598   3.019   4.205   5.678
10233SOL    HW231599   2.994   4.091   5.792
10234SOL     OW31600   0.648   1.406   2.108
10234SOL    HW131601   0.626   1.479   2.174
10234SOL    HW231602   0.608   1.320   2.139
10235SOL     OW31603   1.486   0.948   3.064
10235SOL    HW131604   1.440   1.028   3.104
10235SOL    HW231605   1.504   0.964   2.967
10236SOL     OW31606   1.858   6.968   2.036
10236SOL    HW131607   1.863   0.036   2.089
10236SOL    HW231608   1.763   6.941   2.023
10237SOL     OW31609   0.445   3.649   4.835
10237SOL    HW131610   0.376   3.714   4.803
10237SOL    HW231611   0.513   3.697   4.890
10238SOL     OW31612   3.057   0.007   1.568
10238SOL    HW131613   2.988   0.071   1.532
10238SOL    HW231614   3.022   6.980   1.651
10239SOL     OW31615   0.655   2.271   4.123
10239SOL    HW131616   0.564   2.308   4.145
10239SOL    HW231617   0.660   2.176   4.152
10240SOL     OW31618   1.743   6.527   0.694
10240SOL    HW131619   1.710   6.512   0.787
10240SOL    HW231620   1.770   6.623   0.683
10241SOL     OW31621   4.405   2.972   1.256
10241SOL    HW131622   4.388   3.070   1.254
10241SOL    HW231623   4.339   2.925   1.197
10242SOL     OW31624   0.136   3.077   6.616
10242SOL    HW131625   0.151   2.983   6.645
10242SOL    HW231626   0.162   3.086   6.520
10243SOL     OW31627   2.876   5.618   1.324
10243SOL    HW131628   2.780   5.606   1.301
10243SOL    HW231629   2.928   5.639   1.241
10244SOL     OW31630   2.476   5.228   1.755
10244SOL    HW131631   2.554   5.179   1.792
10244SOL    HW231632   2.497   5.326   1.749
10245SOL     OW31633   4.823   4.223   1.015
10245SOL    HW131634   4.867   4.243   1.103
10245SOL    HW231635   4.789   4.307   0.974
10246SOL     OW31636   3.057   3.062   4.292
10246SOL    HW131637   3.025   3.156   4.292
10246SOL    HW231638   3.018   3.013   4.214
10247SOL     OW31639   0.798   2.990   3.929
10247SOL    HW131640   0.765   3.077   3.966
10247SOL    HW231641   0.768   2.915   3.987
10248SOL     OW31642   1.165   1.175   4.324
10248SOL    HW131643   1.108   1.249   4.359
10248SOL    HW231644   1.159   1.172   4.225
10249SOL     OW31645   2.769   5.314   6.397
10249SOL    HW131646   2.730   5.237   6.448
10249SOL    HW231647   2.815   5.279   6.315
10250SOL     OW31648   3.696   2.523   0.538
10250SOL    HW131649   3.748   2.521   0.624
10250SOL    HW231650   3.680   2.618   0.511
10251SOL     OW31651   1.691   0.562   4.293
10251SOL    HW131652   1.626   0.512   4.351
10251SOL    HW231653   1.647   0.587   4.207
10252SOL     OW31654   5.506   4.442   6.080
10252SOL    HW131655   5.583   4.455   6.143
10252SOL    HW231656   5.533   4.379   6.007
10253SOL     OW31657   3.351   6.122   6.349
10253SOL    HW131658   3.299   6.183   6.288
10253SOL    HW231659   3.370   6.170   6.434
10254SOL     OW31660   5.797   1.780   5.876
10254SOL    HW131661   5.780   1.797   5.779
10254SOL    HW231662   5.716   1.736   5.917
10255SOL     OW31663   3.986   4.303   1.647
10255SOL    HW131664   4.038   4.363   1.707
10255SOL    HW231665   3.895   4.286   1.686
10256SOL     OW31666   3.732   1.218   3.534
10256SOL    HW131667   3.826   1.249   3.547
10256SOL    HW231668   3.689   1.269   3.459
10257SOL     OW31669   4.067   5.884   3.152
10257SOL    HW131670   4.107   5.798   3.120
10257SOL    HW231671   4.021   5.930   3.075
10258SOL     OW31672   2.267   1.380   2.212
10258SOL    HW131673   2.340   1.314   2.191
10258SOL    HW231674   2.215   1.400   2.129
10259SOL     OW31675   2.090   4.294   4.178
10259SOL    HW131676   2.002   4.322   4.139
10259SOL    HW231677   2.082   4.287   4.278
10260SOL     OW31678   0.205   0.753   3.002
10260SOL    HW131679   0.215   0.664   2.958
10260SOL    HW231680   0.113   0.788   2.986
10261SOL     OW31681   0.172   3.532   0.456
10261SOL    HW131682   0.197   3.598   0.527
10261SOL    HW231683   0.248   3.469   0.441
10262SOL     OW31684   4.145   1.130   0.368
10262SOL    HW131685   4.158   1.219   0.324
10262SOL    HW231686   4.072   1.080   0.322
10263SOL     OW31687   5.555   0.630   2.455
10263SOL    HW131688   5.519   0.721   2.473
10263SOL    HW231689   5.481   0.563   2.458
10264SOL     OW31690   6.626   0.107   6.757
10264SOL    HW131691   6.554   0.164   6.719
10264SOL    HW231692   6.712   0.122   6.708
10265SOL     OW31693   2.152   2.256   0.888
10265SOL    HW131694   2.215   2.179   0.878
10265SOL    HW231695   2.176   2.309   0.969
10266SOL     OW31696   2.603   3.314   1.744
10266SOL    HW131697   2.652   3.391   1.704
10266SOL    HW231698   2.516   3.345   1.781
10267SOL     OW31699   5.615   0.243   1.069
10267SOL    HW131700   5.671   0.195   1.137
10267SOL    HW231701   5.545   0.297   1.116
10268SOL     OW31702   3.610   6.126   2.081
10268SOL    HW131703   3.517   6.094   2.101
10268SOL    HW231704   3.605   6.209   2.026
10269SOL     OW31705   2.762   2.237   0.571
10269SOL    HW131706   2.736   2.229   0.475
10269SOL    HW231707   2.859   2.257   0.579
10270SOL     OW31708   3.120   0.606   3.191
10270SOL    HW131709   3.149   0.689   3.239
10270SOL    HW231710   3.074   0.632   3.106
10271SOL     OW31711   1.624   1.664   6.516
10271SOL    HW131712   1.675   1.657   6.602
10271SOL    HW231713   1.673   1.725   6.453
10272SOL     OW31714   5.958   0.166   4.310
10272SOL    HW131715   5.923   0.259   4.325
10272SOL    HW231716   6.055   0.164   4.331
10273SOL     OW31717   2.334   5.409   3.784
10273SOL    HW131718   2.366   5.500   3.759
10273SOL    HW231719   2.237   5.401   3.762
10274SOL     OW31720   1.181   4.886   5.338
10274SOL    HW131721   1.166   4.913   5.433
10274SOL    HW231722   1.191   4.967   5.281
10275SOL     OW31723   6.846   0.683   1.962
10275SOL    HW131724   6.941   0.689   1.992
10275SOL    HW231725   6.812   0.774   1.937
10276SOL     OW31726   3.693   5.470   4.956
10276SOL    HW131727   3.763   5.501   5.021
10276SOL    HW231728   3.665   5.377   4.979
10277SOL     OW31729   1.198   5.642   3.837
10277SOL    HW131730   1.126   5.574   3.822
10277SOL    HW231731   1.197   5.708   3.762
10278SOL     OW31732   6.821   0.242   5.045
10278SOL    HW131733   6.855   0.149   5.030
10278SOL    HW231734   6.881   0.307   5.000
10279SOL     OW31735   1.303   6.294   3.900
10279SOL    HW131736   1.314   6.200   3.932
10279SOL    HW231737   1.274   6.351   3.977
10280SOL     OW31738   6.723   4.850   0.198
10280SOL    HW131739   6.643   4.906   0.178
10280SOL    HW231740   6.695   4.768   0.249
10281SOL     OW31741   6.076   1.302   3.427
10281SOL    HW131742   6.026   1.215   3.420
10281SOL    HW231743   6.051   1.347   3.513
10282SOL     OW31744   4.877   3.443   3.412
10282SOL    HW131745   4.870   3.344   3.396
10282SOL    HW231746   4.883   3.460   3.510
10283SOL     OW31747   1.244   2.772   1.012
10283SOL    HW131748   1.235   2.735   0.919
10283SOL    HW231749   1.327   2.827   1.018
10284SOL     OW31750   6.989   3.819   4.585
10284SOL    HW131751   0.012   3.910   4.590
10284SOL    HW231752   0.031   3.755   4.635
10285SOL     OW31753   6.014   6.488   5.870
10285SOL    HW131754   6.039   6.584   5.878
10285SOL    HW231755   5.938   6.468   5.932
10286SOL     OW31756   2.734   1.903   3.302
10286SOL    HW131757   2.824   1.865   3.326
10286SOL    HW231758   2.703   1.964   3.374
10287SOL     OW31759   2.107   5.862   2.967
10287SOL    HW131760   2.133   5.777   3.014
10287SOL    HW231761   2.156   5.869   2.881
10288SOL     OW31762   3.882   6.474   5.100
10288SOL    HW131763   3.851   6.380   5.095
10288SOL    HW231764   3.837   6.521   5.176
10289SOL     OW31765   2.961   5.653   6.806
10289SOL    HW131766   2.903   5.587   6.757
10289SOL    HW231767   2.932   5.658   6.902
10290SOL     OW31768   3.511   2.776   1.789
10290SOL    HW131769   3.561   2.689   1.790
10290SOL    HW231770   3.573   2.849   1.762
10291SOL     OW31771   2.549   1.766   2.066
10291SOL    HW131772   2.573   1.777   1.969
10291SOL    HW231773   2.542   1.856   2.109
10292SOL     OW31774   6.617   6.703   5.699
10292SOL    HW131775   6.664   6.654   5.772
10292SOL    HW231776   6.684   6.753   5.643
10293SOL     OW31777   1.194   4.581   4.770
10293SOL    HW131778   1.241   4.647   4.711
10293SOL    HW231779   1.209   4.488   4.735
10294SOL     OW31780   3.499   1.218   2.066
10294SOL    HW131781   3.507   1.150   1.993
10294SOL    HW231782   3.482   1.173   2.153
10295SOL     OW31783   1.377   1.740   6.553
10295SOL    HW131784   1.465   1.694   6.552
10295SOL    HW231785   1.316   1.698   6.486
10296SOL     OW31786   6.041   1.308   5.756
10296SOL    HW131787   5.951   1.351   5.758
10296SOL    HW231788   6.104   1.359   5.815
10297SOL     OW31789   3.162   1.193   0.036
10297SOL    HW131790   3.192   1.252   6.977
10297SOL    HW231791   3.062   1.193   0.040
10298SOL     OW31792   0.239   2.510   2.348
10298SOL    HW131793   0.276   2.420   2.325
10298SOL    HW231794   0.248   2.571   2.270
10299SOL     OW31795   4.419   0.063   3.214
10299SOL    HW131796   4.414   0.023   3.122
10299SOL    HW231797   4.337   0.118   3.231
10300SOL     OW31798   1.379   4.289   1.835
10300SOL    HW131799   1.430   4.252   1.913
10300SOL    HW231800   1.301   4.229   1.815
10301SOL     OW31801   3.586   0.771   0.167
10301SOL    HW131802   3.672   0.742   0.124
10301SOL    HW231803   3.517   0.787   0.096
10302SOL     OW31804   2.953   6.321   5.271
10302SOL    HW131805   2.988   6.295   5.181
10302SOL    HW231806   2.969   6.418   5.287
10303SOL     OW31807   0.557   5.213   4.723
10303SOL    HW131808   0.532   5.181   4.814
10303SOL    HW231809   0.474   5.239   4.673
10304SOL     OW31810   5.926   6.381   1.160
10304SOL    HW131811   5.861   6.399   1.086
10304SOL    HW231812   6.016   6.360   1.122
10305SOL     OW31813   3.538   4.073   5.972
10305SOL    HW131814   3.556   4.171   5.970
10305SOL    HW231815   3.528   4.039   5.879
10306SOL     OW31816   3.783   0.613   1.277
10306SOL    HW131817   3.691   0.627   1.242
10306SOL    HW231818   3.832   0.550   1.216
10307SOL     OW31819   2.363   0.286   5.796
10307SOL    HW131820   2.315   0.344   5.729
10307SOL    HW231821   2.307   0.275   5.877
10308SOL     OW31822   2.808   4.856   2.020
10308SOL    HW131823   2.759   4.878   2.105
10308SOL    HW231824   2.803   4.758   2.003
10309SOL     OW31825   0.439   1.218   5.008
10309SOL    HW131826   0.450   1.126   5.044
10309SOL    HW231827   0.526   1.249   4.969
10310SOL     OW31828   2.208   3.966   5.770
10310SOL    HW131829   2.284   3.904   5.748
10310SOL    HW231830   2.207   4.041   5.705
10311SOL     OW31831   5.214   5.358   6.794
10311SOL    HW131832   5.186   5.343   6.699
10311SOL    HW231833   5.270   5.441   6.800
10312SOL     OW31834   4.199   0.158   2.179
10312SOL    HW131835   4.123   0.193   2.125
10312SOL    HW231836   4.273   0.226   2.181
10313SOL     OW31837   5.313   6.738   2.972
10313SOL    HW131838   5.282   6.760   3.064
10313SOL    HW231839   5.375   6.659   2.975
10314SOL     OW31840   0.590   6.968   1.175
10314SOL    HW131841   0.602   0.029   1.237
10314SOL    HW231842   0.515   6.988   1.112
10315SOL     OW31843   5.845   5.122   3.546
10315SOL    HW131844   5.769   5.058   3.551
10315SOL    HW231845   5.832   5.195   3.612
10316SOL     OW31846   0.372   1.914   6.739
10316SOL    HW131847   0.367   2.007   6.776
10316SOL    HW231848   0.389   1.919   6.640
10317SOL     OW31849   3.440   6.117   5.072
10317SOL    HW131850   3.512   6.114   5.141
10317SOL    HW231851   3.458   6.192   5.008
10318SOL     OW31852   6.703   6.934   0.109
10318SOL    HW131853   6.689   6.995   0.187
10318SOL    HW231854   6.800   6.932   0.087
10319SOL     OW31855   0.583   4.227   4.007
10319SOL    HW131856   0.594   4.150   3.944
10319SOL    HW231857   0.647   4.299   3.983
10320SOL     OW31858   0.443   6.394   3.890
10320SOL    HW131859   0.363   6.339   3.913
10320SOL    HW231860   0.413   6.477   3.842
10321SOL     OW31861   5.226   2.817   2.305
10321SOL    HW131862   5.210   2.901   2.253
10321SOL    HW231863   5.269   2.840   2.392
10322SOL     OW31864   4.579   4.453   4.833
10322SOL    HW131865   4.571   4.505   4.748
10322SOL    HW231866   4.502   4.475   4.893
10323SOL     OW31867   0.966   4.280   5.868
10323SOL    HW131868   0.877   4.245   5.898
10323SOL    HW231869   1.005   4.218   5.800
10324SOL     OW31870   2.801   3.491   1.960
10324SOL    HW131871   2.865   3.413   1.965
10324SOL    HW231872   2.707   3.457   1.964
10325SOL     OW31873   6.440   5.622   3.678
10325SOL    HW131874   6.497   5.579   3.608
10325SOL    HW231875   6.350   5.642   3.641
10326SOL     OW31876   5.238   3.738   6.803
10326SOL    HW131877   5.153   3.703   6.764
10326SOL    HW231878   5.265   3.821   6.755
10327SOL     OW31879   1.907   4.398   1.014
10327SOL    HW131880   2.002   4.414   1.041
10327SOL    HW231881   1.896   4.419   0.917
10328SOL     OW31882   5.736   1.897   2.430
10328SOL    HW131883   5.647   1.941   2.421
10328SOL    HW231884   5.729   1.801   2.404
10329SOL     OW31885   3.690   2.070   2.862
10329SOL    HW131886   3.616   2.099   2.800
10329SOL    HW231887   3.742   1.997   2.820
10330SOL     OW31888   5.149   0.713   1.820
10330SOL    HW131889   5.123   0.807   1.841
10330SOL    HW231890   5.067   0.656   1.815
10331SOL     OW31891   6.034   5.498   5.946
10331SOL    HW131892   6.029   5.421   5.883
10331SOL    HW231893   6.110   5.484   6.009
10332SOL     OW31894   1.528   1.225   6.251
10332SOL    HW131895   1.436   1.201   6.222
10332SOL    HW231896   1.580   1.142   6.270
10333SOL     OW31897   1.275   3.924   4.462
10333SOL    HW131898   1.369   3.946   4.433
10333SOL    HW231899   1.260   3.960   4.554
10334SOL     OW31900   3.107   1.346   3.507
10334SOL    HW131901   3.079   1.442   3.511
10334SOL    HW231902   3.206   1.339   3.520
10335SOL     OW31903   0.756   2.338   5.351
10335SOL    HW131904   0.721   2.372   5.264
10335SOL    HW231905   0.855   2.329   5.346
10336SOL     OW31906   5.318   6.970   3.311
10336SOL    HW131907   5.380   6.902   3.352
10336SOL    HW231908   5.255   7.003   3.381
10337SOL     OW31909   6.579   5.480   6.881
10337SOL    HW131910   6.638   5.511   6.956
10337SOL    HW231911   6.491   5.527   6.886
10338SOL     OW31912   1.119   6.546   1.846
10338SOL    HW131913   1.150   6.562   1.939
10338SOL    HW231914   1.039   6.603   1.826
10339SOL     OW31915   6.025   2.588   6.093
10339SOL    HW131916   6.096   2.627   6.152
10339SOL    HW231917   6.057   2.501   6.056
10340SOL     OW31918   2.488   3.345   6.286
10340SOL    HW131919   2.492   3.309   6.379
10340SOL    HW231920   2.479   3.445   6.289
10341SOL     OW31921   2.156   3.455   3.364
10341SOL    HW131922   2.174   3.459   3.462
10341SOL    HW231923   2.112   3.369   3.341
10342SOL     OW31924   0.207   0.949   3.957
10342SOL    HW131925   0.228   1.046   3.953
10342SOL    HW231926   0.197   0.913   3.864
10343SOL     OW31927   3.266   5.609   2.560
10343SOL    HW131928   3.353   5.580   2.599
10343SOL    HW231929   3.214   5.658   2.630
10344SOL     OW31930   4.312   6.019   6.280
10344SOL    HW131931   4.270   6.102   6.244
10344SOL    HW231932   4.409   6.016   6.254
10345SOL     OW31933   1.831   3.490   4.359
10345SOL    HW131934   1.867   3.558   4.423
10345SOL    HW231935   1.893   3.481   4.281
10346SOL     OW31936   0.030   6.067   0.061
10346SOL    HW131937   0.055   6.017   0.144
10346SOL    HW231938   6.981   6.139   0.084
10347SOL     OW31939   4.924   1.760   4.451
10347SOL    HW131940   4.970   1.739   4.364
10347SOL    HW231941   4.825   1.763   4.436
10348SOL     OW31942   6.290   4.595   0.844
10348SOL    HW131943   6.324   4.663   0.779
10348SOL    HW231944   6.350   4.515   0.844
10349SOL     OW31945   1.084   6.861   6.191
10349SOL    HW131946   1.159   6.809   6.150
10349SOL    HW231947   1.076   6.949   6.145
10350SOL     OW31948   2.871   6.980   5.786
10350SOL    HW131949   2.915   0.037   5.735
10350SOL    HW231950   2.791   6.948   5.735
10351SOL     OW31951   4.228   5.360   6.473
10351SOL    HW131952   4.176   5.440   6.500
10351SOL    HW231953   4.267   5.373   6.382
10352SOL     OW31954   3.385   3.932   6.286
10352SOL    HW131955   3.400   4.014   6.342
10352SOL    HW231956   3.372   3.959   6.190
10353SOL     OW31957   0.863   3.211   4.816
10353SOL    HW131958   0.790   3.168   4.763
10353SOL    HW231959   0.825   3.245   4.902
10354SOL     OW31960   5.288   1.785   1.349
10354SOL    HW131961   5.282   1.836   1.263
10354SOL    HW231962   5.214   1.812   1.410
10355SOL     OW31963   1.412   5.041   2.672
10355SOL    HW131964   1.421   5.076   2.765
10355SOL    HW231965   1.403   4.941   2.675
10356SOL     OW31966   0.212   2.715   4.649
10356SOL    HW131967   0.126   2.672   4.675
10356SOL    HW231968   0.227   2.704   4.551
10357SOL     OW31969   2.737   2.082   7.004
10357SOL    HW131970   2.742   2.179   6.980
10357SOL    HW231971   2.682   2.033   6.935
10358SOL     OW31972   0.090   1.553   2.119
10358SOL    HW131973   0.158   1.491   2.158
10358SOL    HW231974   0.077   1.631   2.180
10359SOL     OW31975   0.792   1.659   1.319
10359SOL    HW131976   0.809   1.680   1.415
10359SOL    HW231977   0.710   1.709   1.289
10360SOL     OW31978   6.839   5.753   2.813
10360SOL    HW131979   6.874   5.670   2.769
10360SOL    HW231980   6.850   5.745   2.912
10361SOL     OW31981   1.481   4.898   1.337
10361SOL    HW131982   1.518   4.855   1.420
10361SOL    HW231983   1.445   4.988   1.359
10362SOL     OW31984   1.644   5.063   4.579
10362SOL    HW131985   1.705   5.130   4.538
10362SOL    HW231986   1.557   5.063   4.531
10363SOL     OW31987   6.094   0.364   3.324
10363SOL    HW131988   6.013   0.323   3.367
10363SOL    HW231989   6.069   0.398   3.233
10364SOL     OW31990   1.558   4.453   1.290
10364SOL    HW131991   1.617   4.442   1.370
10364SOL    HW231992   1.474   4.499   1.317
10365SOL     OW31993   4.542   6.109   6.950
10365SOL    HW131994   4.472   6.179   6.964
10365SOL    HW231995   4.618   6.124   7.013
10366SOL     OW31996   3.864   6.808   3.838
10366SOL    HW131997   3.898   6.845   3.925
10366SOL    HW231998   3.926   6.832   3.764
10367SOL     OW31999   6.597   1.985   3.068
10367SOL    HW132000   6.564   2.051   3.136
10367SOL    HW232001   6.521   1.959   3.008
10368SOL     OW32002   2.954   0.183   1.178
10368SOL    HW132003   2.953   0.116   1.103
10368SOL    HW232004   2.890   0.257   1.158
10369SOL     OW32005   4.483   3.026   0.055
10369SOL    HW132006   4.541   2.996   6.996
10369SOL    HW232007   4.395   3.057   0.020
10370SOL     OW32008   4.077   0.477   5.027
10370SOL    HW132009   4.146   0.509   4.962
10370SOL    HW232010   4.114   0.401   5.080
10371SOL     OW32011   4.953   6.546   5.671
10371SOL    HW132012   5.014   6.530   5.593
10371SOL    HW232013   5.005   6.585   5.747
10372SOL     OW32014   1.286   0.421   3.527
10372SOL    HW132015   1.242   0.456   3.609
10372SOL    HW232016   1.287   0.493   3.457
10373SOL     OW32017   1.536   5.296   5.149
10373SOL    HW132018   1.625   5.327   5.182
10373SOL    HW232019   1.527   5.198   5.163
10374SOL     OW32020   2.815   2.051   4.836
10374SOL    HW132021   2.844   1.955   4.834
10374SOL    HW232022   2.723   2.058   4.797
10375SOL     OW32023   0.245   1.950   0.408
10375SOL    HW132024   0.332   1.983   0.443
10375SOL    HW232025   0.230   1.985   0.315
10376SOL     OW32026   6.399   0.911   3.468
10376SOL    HW132027   6.424   0.986   3.407
10376SOL    HW232028   6.430   0.825   3.429
10377SOL     OW32029   0.362   6.838   4.359
10377SOL    HW132030   0.396   6.812   4.449
10377SOL    HW232031   0.400   6.928   4.334
10378SOL     OW32032   6.378   6.775   5.826
10378SOL    HW132033   6.455   6.748   5.769
10378SOL    HW232034   6.356   6.701   5.890
10379SOL     OW32035   5.021   1.615   4.667
10379SOL    HW132036   5.051   1.524   4.639
10379SOL    HW232037   4.968   1.657   4.593
10380SOL     OW32038   4.556   0.957   3.672
10380SOL    HW132039   4.600   0.868   3.658
10380SOL    HW232040   4.626   1.029   3.671
10381SOL     OW32041   4.422   5.302   5.032
10381SOL    HW132042   4.357   5.327   4.960
10381SOL    HW232043   4.422   5.373   5.103
10382SOL     OW32044   1.618   5.953   0.372
10382SOL    HW132045   1.675   5.928   0.294
10382SOL    HW232046   1.646   5.901   0.453
10383SOL     OW32047   5.489   2.623   0.044
10383SOL    HW132048   5.480   2.721   0.028
10383SOL    HW232049   5.567   2.587   7.010
10384SOL     OW32050   6.327   0.731   6.644
10384SOL    HW132051   6.407   0.673   6.635
10384SOL    HW232052   6.286   0.717   6.735
10385SOL     OW32053   5.903   2.340   0.012
10385SOL    HW132054   5.979   2.309   6.972
10385SOL    HW232055   5.854   2.260   0.049
10386SOL     OW32056   6.597   1.919   6.362
10386SOL    HW132057   6.519   1.878   6.315
10386SOL    HW232058   6.567   1.999   6.414
10387SOL     OW32059   2.233   4.129   2.526
10387SOL    HW132060   2.288   4.155   2.447
10387SOL    HW232061   2.190   4.040   2.510
10388SOL     OW32062   1.577   5.337   2.376
10388SOL    HW132063   1.637   5.387   2.439
10388SOL    HW232064   1.592   5.239   2.388
10389SOL     OW32065   0.549   5.036   3.597
10389SOL    HW132066   0.586   5.047   3.689
10389SOL    HW232067   0.625   5.035   3.531
10390SOL     OW32068   2.188   3.799   3.476
10390SOL    HW132069   2.184   3.881   3.534
10390SOL    HW232070   2.268   3.745   3.501
10391SOL     OW32071   3.731   6.220   5.121
10391SOL    HW132072   3.727   6.220   5.221
10391SOL    HW232073   3.760   6.130   5.088
10392SOL     OW32074   6.586   5.207   6.869
10392SOL    HW132075   6.616   5.194   6.963
10392SOL    HW232076   6.580   5.305   6.849
10393SOL     OW32077   1.169   1.165   4.047
10393SOL    HW132078   1.228   1.225   3.993
10393SOL    HW232079   1.179   1.071   4.014
10394SOL     OW32080   3.134   6.564   0.505
10394SOL    HW132081   3.053   6.570   0.563
10394SOL    HW232082   3.186   6.482   0.529
10395SOL     OW32083   1.381   1.334   5.020
10395SOL    HW132084   1.333   1.355   4.934
10395SOL    HW232085   1.473   1.301   4.999
10396SOL     OW32086   0.927   6.685   4.764
10396SOL    HW132087   0.985   6.669   4.843
10396SOL    HW232088   0.851   6.620   4.764
10397SOL     OW32089   4.144   1.851   2.683
10397SOL    HW132090   4.192   1.780   2.632
10397SOL    HW232091   4.197   1.936   2.680
10398SOL     OW32092   6.808   3.804   2.006
10398SOL    HW132093   6.890   3.825   1.954
10398SOL    HW232094   6.829   3.736   2.076
10399SOL     OW32095   6.383   2.509   5.743
10399SOL    HW132096   6.359   2.528   5.838
10399SOL    HW232097   6.306   2.533   5.684
10400SOL     OW32098   1.399   5.059   2.192
10400SOL    HW132099   1.376   5.100   2.280
10400SOL    HW232100   1.385   5.126   2.119
10401SOL     OW32101   0.525   5.399   0.692
10401SOL    HW132102   0.467   5.480   0.680
10401SOL    HW232103   0.467   5.319   0.710
10402SOL     OW32104   1.103   2.222   4.662
10402SOL    HW132105   1.183   2.230   4.722
10402SOL    HW232106   1.041   2.300   4.679
10403SOL     OW32107   4.709   0.981   2.229
10403SOL    HW132108   4.682   0.905   2.288
10403SOL    HW232109   4.752   0.946   2.146
10404SOL     OW32110   0.008   0.196   4.097
10404SOL    HW132111   0.033   0.146   4.180
10404SOL    HW232112   6.929   0.178   4.074
10405SOL     OW32113   1.924   6.578   6.478
10405SOL    HW132114   1.975   6.566   6.563
10405SOL    HW232115   1.881   6.668   6.477
10406SOL     OW32116   2.048   5.850   5.661
10406SOL    HW132117   2.092   5.930   5.620
10406SOL    HW232118   2.111   5.773   5.660
10407SOL     OW32119   1.952   1.422   6.174
10407SOL    HW132120   1.866   1.413   6.124
10407SOL    HW232121   1.933   1.446   6.270
10408SOL     OW32122   4.227   5.977   3.339
10408SOL    HW132123   4.182   5.949   3.253
10408SOL    HW232124   4.209   6.073   3.356
10409SOL     OW32125   6.570   4.398   2.505
10409SOL    HW132126   6.569   4.481   2.561
10409SOL    HW232127   6.623   4.327   2.552
10410SOL     OW32128   5.725   6.258   0.639
10410SOL    HW132129   5.813   6.210   0.635
10410SOL    HW232130   5.671   6.236   0.558
10411SOL     OW32131   1.456   4.778   2.680
10411SOL    HW132132   1.498   4.750   2.593
10411SOL    HW232133   1.431   4.697   2.733
10412SOL     OW32134   0.089   2.197   6.390
10412SOL    HW132135   0.150   2.276   6.384
10412SOL    HW232136   0.095   2.156   6.481
10413SOL     OW32137   0.455   2.055   5.757
10413SOL    HW132138   0.534   2.104   5.721
10413SOL    HW232139   0.432   2.090   5.848
10414SOL     OW32140   5.621   6.429   4.953
10414SOL    HW132141   5.619   6.356   5.021
10414SOL    HW232142   5.528   6.463   4.937
10415SOL     OW32143   0.172   5.467   2.956
10415SOL    HW132144   0.205   5.527   3.028
10415SOL    HW232145   0.094   5.508   2.910
10416SOL     OW32146   4.761   7.010   0.391
10416SOL    HW132147   4.714   0.025   0.308
10416SOL    HW232148   4.843   6.958   0.366
10417SOL     OW32149   3.958   4.919   4.394
10417SOL    HW132150   3.940   4.886   4.301
10417SOL    HW232151   3.928   5.014   4.402
10418SOL     OW32152   6.339   3.836   6.664
10418SOL    HW132153   6.357   3.896   6.742
10418SOL    HW232154   6.372   3.879   6.580
10419SOL     OW32155   1.934   0.624   4.412
10419SOL    HW132156   1.854   0.602   4.357
10419SOL    HW232157   2.010   0.648   4.353
10420SOL     OW32158   5.830   3.477   4.730
10420SOL    HW132159   5.865   3.397   4.682
10420SOL    HW232160   5.867   3.560   4.689
10421SOL     OW32161   1.450   4.552   4.080
10421SOL    HW132162   1.365   4.508   4.109
10421SOL    HW232163   1.499   4.585   4.161
10422SOL     OW32164   5.598   3.084   5.730
10422SOL    HW132165   5.676   3.084   5.793
10422SOL    HW232166   5.529   3.020   5.764
10423SOL     OW32167   2.693   5.494   3.801
10423SOL    HW132168   2.716   5.558   3.728
10423SOL    HW232169   2.636   5.541   3.869
10424SOL     OW32170   4.246   1.278   1.785
10424SOL    HW132171   4.220   1.280   1.882
10424SOL    HW232172   4.296   1.362   1.763
10425SOL     OW32173   1.478   3.864   0.406
10425SOL    HW132174   1.540   3.789   0.431
10425SOL    HW232175   1.384   3.838   0.426
10426SOL     OW32176   5.866   2.266   6.725
10426SOL    HW132177   5.956   2.298   6.695
10426SOL    HW232178   5.801   2.273   6.650
10427SOL     OW32179   5.915   0.896   3.193
10427SOL    HW132180   5.820   0.923   3.178
10427SOL    HW232181   5.928   0.871   3.289
10428SOL     OW32182   1.696   6.816   4.860
10428SOL    HW132183   1.700   6.733   4.915
10428SOL    HW232184   1.623   6.809   4.793
10429SOL     OW32185   2.058   4.069   1.684
10429SOL    HW132186   2.049   4.150   1.743
10429SOL    HW232187   2.152   4.036   1.687
10430SOL     OW32188   3.904   0.185   4.573
10430SOL    HW132189   3.982   0.139   4.530
10430SOL    HW232190   3.830   0.119   4.586
10431SOL     OW32191   4.067   1.499   4.108
10431SOL    HW132192   4.053   1.597   4.091
10431SOL    HW232193   4.003   1.468   4.178
10432SOL     OW32194   1.279   5.164   0.442
10432SOL    HW132195   1.219   5.169   0.522
10432SOL    HW232196   1.272   5.074   0.400
10433SOL     OW32197   4.167   6.436   3.593
10433SOL    HW132198   4.117   6.409   3.675
10433SOL    HW232199   4.122   6.516   3.552
10434SOL     OW32200   4.308   1.204   6.316
10434SOL    HW132201   4.264   1.190   6.405
10434SOL    HW232202   4.302   1.120   6.262
10435SOL     OW32203   2.281   1.459   1.534
10435SOL    HW132204   2.333   1.422   1.610
10435SOL    HW232205   2.341   1.515   1.476
10436SOL     OW32206   1.307   3.538   4.702
10436SOL    HW132207   1.296   3.493   4.791
10436SOL    HW232208   1.338   3.632   4.717
10437SOL     OW32209   6.889   6.149   5.104
10437SOL    HW132210   6.897   6.085   5.180
10437SOL    HW232211   6.915   6.104   5.019
10438SOL     OW32212   6.827   6.026   6.547
10438SOL    HW132213   6.732   6.036   6.519
10438SOL    HW232214   6.862   5.937   6.517
10439SOL     OW32215   6.218   5.614   4.730
10439SOL    HW132216   6.294   5.597   4.793
10439SOL    HW232217   6.233   5.700   4.681
10440SOL     OW32218   5.857   2.603   1.038
10440SOL    HW132219   5.847   2.702   1.031
10440SOL    HW232220   5.808   2.570   1.120
10441SOL     OW32221   4.554   2.142   6.913
10441SOL    HW132222   4.547   2.065   6.976
10441SOL    HW232223   4.475   2.142   6.851
10442SOL     OW32224   2.908   1.463   5.042
10442SOL    HW132225   2.858   1.391   4.995
10442SOL    HW232226   2.859   1.491   5.124
10443SOL     OW32227   0.556   0.497   0.482
10443SOL    HW132228   0.460   0.524   0.480
10443SOL    HW232229   0.564   0.400   0.459
10444SOL     OW32230   4.617   4.873   3.614
10444SOL    HW132231   4.656   4.926   3.690
10444SOL    HW232232   4.527   4.839   3.640
10445SOL     OW32233   0.844   3.338   3.710
10445SOL    HW132234   0.773   3.279   3.669
10445SOL    HW232235   0.802   3.397   3.779
10446SOL     OW32236   2.378   4.810   5.057
10446SOL    HW132237   2.427   4.890   5.023
10446SOL    HW232238   2.443   4.744   5.093
10447SOL     OW32239   1.032   2.090   2.956
10447SOL    HW132240   0.983   2.025   3.014
10447SOL    HW232241   0.990   2.092   2.865
10448SOL     OW32242   1.558   6.068   2.220
10448SOL    HW132243   1.498   5.990   2.201
10448SOL    HW232244   1.626   6.042   2.289
10449SOL     OW32245   3.818   4.915   4.647
10449SOL    HW132246   3.718   4.912   4.639
10449SOL    HW232247   3.859   4.912   4.556
10450SOL     OW32248   0.646   1.981   4.312
10450SOL    HW132249   0.561   1.971   4.260
10450SOL    HW232250   0.702   1.899   4.300
10451SOL     OW32251   3.329   2.060   3.807
10451SOL    HW132252   3.403   1.993   3.798
10451SOL    HW232253   3.340   2.131   3.738
10452SOL     OW32254   6.803   2.845   4.676
10452SOL    HW132255   6.834   2.914   4.742
10452SOL    HW232256   6.706   2.826   4.691
10453SOL     OW32257   4.253   5.886   4.284
10453SOL    HW132258   4.161   5.900   4.247
10453SOL    HW232259   4.259   5.795   4.324
10454SOL     OW32260   6.571   0.922   6.826
10454SOL    HW132261   6.558   0.972   6.912
10454SOL    HW232262   6.519   0.966   6.753
10455SOL     OW32263   0.554   6.246   2.664
10455SOL    HW132264   0.589   6.197   2.584
10455SOL    HW232265   0.550   6.344   2.644
10456SOL     OW32266   1.420   5.462   5.930
10456SOL    HW132267   1.476   5.431   6.007
10456SOL    HW232268   1.394   5.384   5.874
10457SOL     OW32269   4.158   1.648   0.021
10457SOL    HW132270   4.140   1.552   7.016
10457SOL    HW232271   4.072   1.699   0.019
10458SOL     OW32272   1.499   6.568   6.735
10458SOL    HW132273   1.443   6.651   6.731
10458SOL    HW232274   1.500   6.524   6.646
10459SOL     OW32275   6.051   5.722   1.125
10459SOL    HW132276   5.960   5.756   1.150
10459SOL    HW232277   6.120   5.790   1.150
10460SOL     OW32278   6.142   0.423   0.258
10460SOL    HW132279   6.147   0.415   0.159
10460SOL    HW232280   6.220   0.477   0.291
10461SOL     OW32281   6.746   4.163   6.288
10461SOL    HW132282   6.685   4.104   6.342
10461SOL    HW232283   6.811   4.209   6.348
10462SOL     OW32284   3.089   3.668   6.458
10462SOL    HW132285   3.076   3.689   6.361
10462SOL    HW232286   3.184   3.683   6.483
10463SOL     OW32287   5.027   2.688   6.493
10463SOL    HW132288   5.082   2.681   6.410
10463SOL    HW232289   5.060   2.622   6.560
10464SOL     OW32290   6.305   4.510   1.733
10464SOL    HW132291   6.244   4.460   1.672
10464SOL    HW232292   6.307   4.607   1.706
10465SOL     OW32293   5.768   4.489   1.311
10465SOL    HW132294   5.861   4.512   1.341
10465SOL    HW232295   5.759   4.390   1.303
10466SOL     OW32296   5.846   3.775   5.785
10466SOL    HW132297   5.827   3.861   5.739
10466SOL    HW232298   5.794   3.771   5.871
10467SOL     OW32299   0.145   2.556   6.618
10467SOL    HW132300   0.163   2.572   6.521
10467SOL    HW232301   0.209   2.487   6.653
10468SOL     OW32302   1.333   4.290   4.417
10468SOL    HW132303   1.432   4.282   4.417
10468SOL    HW232304   1.300   4.297   4.322
10469SOL     OW32305   1.000   1.613   3.945
10469SOL    HW132306   0.918   1.600   4.001
10469SOL    HW232307   0.973   1.652   3.856
10470SOL     OW32308   2.197   3.976   2.030
10470SOL    HW132309   2.227   4.029   2.108
10470SOL    HW232310   2.257   3.994   1.952
10471SOL     OW32311   2.279   5.385   6.563
10471SOL    HW132312   2.225   5.420   6.486
10471SOL    HW232313   2.257   5.289   6.578
10472SOL     OW32314   4.016   5.440   5.983
10472SOL    HW132315   4.086   5.501   6.021
10472SOL    HW232316   3.926   5.470   6.015
10473SOL     OW32317   5.988   4.623   0.527
10473SOL    HW132318   5.919   4.672   0.581
10473SOL    HW232319   5.947   4.595   0.440
10474SOL     OW32320   6.368   6.595   4.859
10474SOL    HW132321   6.420   6.653   4.797
10474SOL    HW232322   6.311   6.652   4.918
10475SOL     OW32323   0.517   5.177   1.335
10475SOL    HW132324   0.428   5.212   1.366
10475SOL    HW232325   0.587   5.245   1.356
10476SOL     OW32326   4.991   6.370   1.002
10476SOL    HW132327   4.937   6.419   1.070
10476SOL    HW232328   5.055   6.433   0.957
10477SOL     OW32329   0.061   5.701   3.860
10477SOL    HW132330   0.040   5.767   3.933
10477SOL    HW232331   0.153   5.717   3.826
10478SOL     OW32332   0.006   0.967   6.253
10478SOL    HW132333   0.090   0.912   6.253
10478SOL    HW232334   6.982   0.964   6.162
10479SOL     OW32335   0.745   3.428   2.063
10479SOL    HW132336   0.705   3.379   1.986
10479SOL    HW232337   0.842   3.445   2.046
10480SOL     OW32338   2.631   0.930   3.058
10480SOL    HW132339   2.626   0.909   3.155
10480SOL    HW232340   2.563   1.001   3.035
10481SOL     OW32341   6.725   1.811   1.456
10481SOL    HW132342   6.685   1.892   1.413
10481SOL    HW232343   6.718   1.819   1.555
10482SOL     OW32344   5.373   3.105   3.928
10482SOL    HW132345   5.338   3.104   3.834
10482SOL    HW232346   5.303   3.140   3.990
10483SOL     OW32347   5.778   0.160   0.147
10483SOL    HW132348   5.708   0.116   0.091
10483SOL    HW232349   5.748   0.253   0.170
10484SOL     OW32350   6.809   0.941   1.889
10484SOL    HW132351   6.866   1.000   1.946
10484SOL    HW232352   6.713   0.955   1.911
10485SOL     OW32353   5.243   3.378   4.951
10485SOL    HW132354   5.288   3.291   4.929
10485SOL    HW232355   5.289   3.453   4.902
10486SOL     OW32356   5.255   2.804   2.815
10486SOL    HW132357   5.346   2.773   2.845
10486SOL    HW232358   5.193   2.726   2.812
10487SOL     OW32359   4.756   6.891   2.363
10487SOL    HW132360   4.733   6.933   2.275
10487SOL    HW232361   4.680   6.903   2.427
10488SOL     OW32362   3.695   4.005   6.989
10488SOL    HW132363   3.702   4.029   0.070
10488SOL    HW232364   3.671   3.909   6.980
10489SOL     OW32365   2.038   5.273   5.197
10489SOL    HW132366   2.129   5.315   5.201
10489SOL    HW232367   2.031   5.215   5.116
10490SOL     OW32368   6.284   0.298   4.089
10490SOL    HW132369   6.200   0.255   4.056
10490SOL    HW232370   6.360   0.233   4.084
10491SOL     OW32371   0.215   4.627   5.031
10491SOL    HW132372   0.152   4.586   5.097
10491SOL    HW232373   0.255   4.710   5.069
10492SOL     OW32374   3.966   4.236   6.095
10492SOL    HW132375   3.997   4.144   6.119
10492SOL    HW232376   3.901   4.230   6.019
10493SOL     OW32377   3.250   1.550   0.866
10493SOL    HW132378   3.263   1.648   0.882
10493SOL    HW232379   3.339   1.504   0.863
10494SOL     OW32380   5.573   1.927   5.584
10494SOL    HW132381   5.536   1.947   5.675
10494SOL    HW232382   5.648   1.861   5.592
10495SOL     OW32383   1.344   0.070   6.769
10495SOL    HW132384   1.354   0.055   6.867
10495SOL    HW232385   1.392   0.154   6.744
10496SOL     OW32386   6.181   0.429   5.405
10496SOL    HW132387   6.224   0.396   5.488
10496SOL    HW232388   6.236   0.503   5.366
10497SOL     OW32389   1.280   1.788   6.794
10497SOL    HW132390   1.307   1.761   6.702
10497SOL    HW232391   1.181   1.777   6.804
10498SOL     OW32392   2.935   4.450   6.074
10498SOL    HW132393   2.916   4.547   6.062
10498SOL    HW232394   2.986   4.416   5.996
10499SOL     OW32395   3.121   5.743   3.321
10499SOL    HW132396   3.052   5.745   3.248
10499SOL    HW232397   3.212   5.752   3.281
10500SOL     OW32398   1.868   2.077   6.676
10500SOL    HW132399   1.913   1.997   6.637
10500SOL    HW232400   1.825   2.051   6.763
10501SOL     OW32401   0.967   3.070   3.399
10501SOL    HW132402   1.031   3.005   3.441
10501SOL    HW232403   0.979   3.160   3.439
10502SOL     OW32404   3.180   5.358   5.295
10502SOL    HW132405   3.129   5.437   5.331
10502SOL    HW232406   3.278   5.371   5.313
10503SOL     OW32407   2.745   3.242   5.530
10503SOL    HW132408   2.773   3.200   5.444
10503SOL    HW232409   2.799   3.325   5.545
10504SOL     OW32410   2.440   3.161   1.503
10504SOL    HW132411   2.386   3.138   1.584
10504SOL    HW232412   2.418   3.254   1.474
10505SOL     OW32413   0.122   6.824   1.157
10505SOL    HW132414   0.049   6.755   1.157
10505SOL    HW232415   0.130   6.864   1.065
10506SOL     OW32416   0.315   3.879   5.214
10506SOL    HW132417   0.305   3.929   5.128
10506SOL    HW232418   0.230   3.886   5.266
10507SOL     OW32419   1.799   0.291   3.679
10507SOL    HW132420   1.830   0.274   3.585
10507SOL    HW232421   1.703   0.267   3.687
10508SOL     OW32422   5.315   3.897   2.683
10508SOL    HW132423   5.235   3.952   2.660
10508SOL    HW232424   5.290   3.800   2.679
10509SOL     OW32425   2.200   0.790   6.070
10509SOL    HW132426   2.145   0.806   6.153
10509SOL    HW232427   2.264   0.866   6.057
10510SOL     OW32428   6.062   6.614   6.822
10510SOL    HW132429   5.966   6.586   6.824
10510SOL    HW232430   6.113   6.552   6.762
10511SOL     OW32431   0.495   2.074   0.486
10511SOL    HW132432   0.444   2.132   0.549
10511SOL    HW232433   0.544   2.131   0.420
10512SOL     OW32434   3.301   6.860   6.355
10512SOL    HW132435   3.276   6.945   6.402
10512SOL    HW232436   3.219   6.804   6.341
10513SOL     OW32437   0.195   2.036   0.134
10513SOL    HW132438   0.225   1.965   0.070
10513SOL    HW232439   0.100   2.060   0.116
10514SOL     OW32440   6.793   3.125   1.503
10514SOL    HW132441   6.727   3.051   1.508
10514SOL    HW232442   6.793   3.176   1.589
10515SOL     OW32443   6.191   2.892   4.739
10515SOL    HW132444   6.172   2.974   4.794
10515SOL    HW232445   6.238   2.919   4.655
10516SOL     OW32446   2.953   6.727   0.799
10516SOL    HW132447   2.906   6.726   0.711
10516SOL    HW232448   3.028   6.793   0.796
10517SOL     OW32449   0.025   2.144   2.978
10517SOL    HW132450   0.067   2.057   3.002
10517SOL    HW232451   0.071   2.183   2.898
10518SOL     OW32452   0.421   6.486   2.822
10518SOL    HW132453   0.505   6.514   2.775
10518SOL    HW232454   0.437   6.398   2.867
10519SOL     OW32455   3.296   3.935   5.305
10519SOL    HW132456   3.387   3.916   5.340
10519SOL    HW232457   3.302   4.000   5.229
10520SOL     OW32458   3.301   4.696   6.397
10520SOL    HW132459   3.377   4.661   6.451
10520SOL    HW232460   3.255   4.620   6.352
10521SOL     OW32461   6.192   5.171   2.050
10521SOL    HW132462   6.123   5.162   2.122
10521SOL    HW232463   6.156   5.134   1.964
10522SOL     OW32464   6.533   0.318   2.062
10522SOL    HW132465   6.604   0.381   2.092
10522SOL    HW232466   6.463   0.309   2.133
10523SOL     OW32467   0.061   5.680   5.992
10523SOL    HW132468   0.003   5.631   5.928
10523SOL    HW232469   0.082   5.622   6.070
10524SOL     OW32470   4.783   0.481   4.444
10524SOL    HW132471   4.871   0.496   4.490
10524SOL    HW232472   4.771   0.547   4.370
10525SOL     OW32473   3.065   6.356   4.832
10525SOL    HW132474   2.984   6.351   4.773
10525SOL    HW232475   3.079   6.450   4.862
10526SOL     OW32476   5.381   6.971   2.333
10526SOL    HW132477   5.334   6.883   2.346
10526SOL    HW232478   5.313   0.026   2.319
10527SOL     OW32479   1.893   2.752   4.767
10527SOL    HW132480   1.820   2.684   4.773
10527SOL    HW232481   1.931   2.767   4.858
10528SOL     OW32482   6.287   4.960   5.608
10528SOL    HW132483   6.229   5.036   5.578
10528SOL    HW232484   6.383   4.989   5.606
10529SOL     OW32485   0.260   5.804   4.691
10529SOL    HW132486   0.270   5.753   4.605
10529SOL    HW232487   0.297   5.896   4.680
10530SOL     OW32488   1.927   1.841   5.235
10530SOL    HW132489   1.880   1.909   5.178
10530SOL    HW232490   1.935   1.755   5.184
10531SOL     OW32491   1.507   2.104   5.438
10531SOL    HW132492   1.453   2.041   5.494
10531SOL    HW232493   1.604   2.094   5.461
10532SOL     OW32494   3.376   2.950   5.072
10532SOL    HW132495   3.425   3.035   5.052
10532SOL    HW232496   3.322   2.924   4.992
10533SOL     OW32497   2.790   1.064   6.590
10533SOL    HW132498   2.858   1.000   6.626
10533SOL    HW232499   2.813   1.157   6.620
10534SOL     OW32500   5.722   5.568   1.058
10534SOL    HW132501   5.742   5.621   1.141
10534SOL    HW232502   5.681   5.481   1.084
10535SOL     OW32503   0.238   1.334   1.937
10535SOL    HW132504   0.180   1.412   1.961
10535SOL    HW232505   0.293   1.308   2.016
10536SOL     OW32506   5.530   5.824   3.657
10536SOL    HW132507   5.478   5.867   3.731
10536SOL    HW232508   5.469   5.809   3.579
10537SOL     OW32509   6.809   5.661   0.907
10537SOL    HW132510   6.814   5.740   0.845
10537SOL    HW232511   6.778   5.692   0.998
10538SOL     OW32512   4.192   4.327   6.850
10538SOL    HW132513   4.178   4.355   6.945
10538SOL    HW232514   4.209   4.229   6.847
10539SOL     OW32515   0.819   3.593   5.238
10539SOL    HW132516   0.872   3.676   5.219
10539SOL    HW232517   0.807   3.584   5.337
10540SOL     OW32518   2.834   0.724   0.445
10540SOL    HW132519   2.915   0.683   0.486
10540SOL    HW232520   2.767   0.745   0.516
10541SOL     OW32521   4.243   2.169   0.420
10541SOL    HW132522   4.249   2.249   0.479
10541SOL    HW232523   4.187   2.099   0.465
10542SOL     OW32524   1.175   2.143   0.326
10542SOL    HW132525   1.268   2.134   0.292
10542SOL    HW232526   1.160   2.080   0.402
10543SOL     OW32527   2.888   0.910   4.975
10543SOL    HW132528   2.842   0.994   5.005
10543SOL    HW232529   2.986   0.917   4.995
10544SOL     OW32530   7.010   2.363   1.551
10544SOL    HW132531   6.953   2.403   1.479
10544SOL    HW232532   6.968   2.278   1.584
10545SOL     OW32533   5.007   0.837   3.277
10545SOL    HW132534   5.027   0.815   3.182
10545SOL    HW232535   5.093   0.845   3.328
10546SOL     OW32536   4.042   1.270   5.319
10546SOL    HW132537   4.104   1.324   5.262
10546SOL    HW232538   3.955   1.256   5.271
10547SOL     OW32539   4.281   0.140   1.528
10547SOL    HW132540   4.201   0.156   1.470
10547SOL    HW232541   4.272   0.052   1.573
10548SOL     OW32542   4.205   4.758   5.585
10548SOL    HW132543   4.283   4.701   5.561
10548SOL    HW232544   4.194   4.761   5.684
10549SOL     OW32545   1.661   1.578   1.530
10549SOL    HW132546   1.661   1.628   1.443
10549SOL    HW232547   1.636   1.639   1.604
10550SOL     OW32548   5.238   0.140   4.624
10550SOL    HW132549   5.170   0.131   4.551
10550SOL    HW232550   5.317   0.083   4.604
10551SOL     OW32551   1.330   2.643   6.153
10551SOL    HW132552   1.272   2.717   6.184
10551SOL    HW232553   1.275   2.561   6.138
10552SOL     OW32554   3.160   2.143   4.812
10552SOL    HW132555   3.142   2.240   4.822
10552SOL    HW232556   3.118   2.092   4.887
10553SOL     OW32557   2.981   5.315   5.875
10553SOL    HW132558   3.046   5.325   5.799
10553SOL    HW232559   3.007   5.375   5.950
10554SOL     OW32560   6.268   4.297   5.984
10554SOL    HW132561   6.315   4.222   6.031
10554SOL    HW232562   6.335   4.356   5.939
10555SOL     OW32563   3.647   2.830   0.899
10555SOL    HW132564   3.576   2.886   0.940
10555SOL    HW232565   3.615   2.794   0.811
10556SOL     OW32566   1.213   3.387   3.932
10556SOL    HW132567   1.301   3.392   3.980
10556SOL    HW232568   1.218   3.439   3.848
10557SOL     OW32569   5.681   1.406   3.332
10557SOL    HW132570   5.604   1.454   3.291
10557SOL    HW232571   5.759   1.468   3.338
10558SOL     OW32572   5.322   5.569   4.939
10558SOL    HW132573   5.257   5.640   4.912
10558SOL    HW232574   5.274   5.482   4.950
10559SOL     OW32575   4.775   2.629   1.109
10559SOL    HW132576   4.855   2.672   1.151
10559SOL    HW232577   4.740   2.687   1.035
10560SOL     OW32578   0.211   3.049   4.235
10560SOL    HW132579   0.301   3.090   4.248
10560SOL    HW232580   0.222   2.954   4.206
10561SOL     OW32581   2.880   4.181   6.131
10561SOL    HW132582   2.904   4.275   6.106
10561SOL    HW232583   2.963   4.132   6.158
10562SOL     OW32584   3.065   1.551   0.683
10562SOL    HW132585   3.025   1.622   0.741
10562SOL    HW232586   3.156   1.527   0.718
10563SOL     OW32587   1.281   1.840   3.282
10563SOL    HW132588   1.369   1.829   3.327
10563SOL    HW232589   1.290   1.902   3.204
10564SOL     OW32590   6.894   2.288   2.038
10564SOL    HW132591   6.903   2.268   2.136
10564SOL    HW232592   6.975   2.254   1.990
10565SOL     OW32593   5.331   1.481   4.839
10565SOL    HW132594   5.377   1.402   4.880
10565SOL    HW232595   5.249   1.452   4.790
10566SOL     OW32596   4.211   5.493   7.001
10566SOL    HW132597   4.117   5.506   6.969
10566SOL    HW232598   4.225   5.545   0.069
10567SOL     OW32599   2.063   5.297   4.200
10567SOL    HW132600   2.143   5.291   4.141
10567SOL    HW232601   1.983   5.321   4.145
10568SOL     OW32602   3.912   1.850   2.828
10568SOL    HW132603   3.829   1.802   2.798
10568SOL    HW232604   3.984   1.837   2.760
10569SOL     OW32605   6.205   2.942   3.358
10569SOL    HW132606   6.120   2.975   3.318
10569SOL    HW232607   6.185   2.883   3.436
10570SOL     OW32608   1.190   4.111   1.744
10570SOL    HW132609   1.094   4.127   1.721
10570SOL    HW232610   1.234   4.059   1.671
10571SOL     OW32611   6.190   6.742   5.015
10571SOL    HW132612   6.119   6.686   4.971
10571SOL    HW232613   6.201   6.828   4.965
10572SOL     OW32614   6.420   3.336   1.586
10572SOL    HW132615   6.365   3.253   1.600
10572SOL    HW232616   6.479   3.351   1.665
10573SOL     OW32617   6.688   4.596   6.529
10573SOL    HW132618   6.692   4.571   6.432
10573SOL    HW232619   6.697   4.695   6.538
10574SOL     OW32620   0.583   2.072   3.467
10574SOL    HW132621   0.628   2.012   3.533
10574SOL    HW232622   0.607   2.044   3.374
10575SOL     OW32623   1.011   6.619   5.831
10575SOL    HW132624   0.960   6.682   5.773
10575SOL    HW232625   1.108   6.626   5.810
10576SOL     OW32626   1.174   5.344   3.135
10576SOL    HW132627   1.211   5.432   3.106
10576SOL    HW232628   1.174   5.338   3.235
10577SOL     OW32629   0.365   2.883   5.974
10577SOL    HW132630   0.315   2.833   5.903
10577SOL    HW232631   0.386   2.975   5.941
10578SOL     OW32632   5.509   0.808   5.485
10578SOL    HW132633   5.528   0.735   5.550
10578SOL    HW232634   5.538   0.780   5.394
10579SOL     OW32635   4.825   0.193   1.093
10579SOL    HW132636   4.757   0.149   1.034
10579SOL    HW232637   4.913   0.195   1.047
10580SOL     OW32638   0.032   6.101   0.462
10580SOL    HW132639   6.986   6.178   0.445
10580SOL    HW232640   0.019   6.068   0.555
10581SOL     OW32641   4.731   2.197   4.103
10581SOL    HW132642   4.638   2.186   4.140
10581SOL    HW232643   4.735   2.281   4.049
10582SOL     OW32644   3.514   4.733   0.021
10582SOL    HW132645   3.528   4.815   6.982
10582SOL    HW232646   3.562   4.656   6.996
10583SOL     OW32647   4.499   0.977   1.913
10583SOL    HW132648   4.555   0.898   1.890
10583SOL    HW232649   4.497   1.040   1.836
10584SOL     OW32650   6.132   0.226   1.157
10584SOL    HW132651   6.089   0.294   1.097
10584SOL    HW232652   6.229   0.217   1.131
10585SOL     OW32653   2.440   4.619   6.266
10585SOL    HW132654   2.532   4.586   6.288
10585SOL    HW232655   2.420   4.601   6.170
10586SOL     OW32656   4.756   1.656   0.535
10586SOL    HW132657   4.822   1.713   0.486
10586SOL    HW232658   4.685   1.715   0.575
10587SOL     OW32659   6.179   3.097   0.372
10587SOL    HW132660   6.095   3.098   0.426
10587SOL    HW232661   6.167   3.154   0.291
10588SOL     OW32662   1.489   5.032   3.354
10588SOL    HW132663   1.516   5.089   3.276
10588SOL    HW232664   1.504   5.083   3.439
10589SOL     OW32665   5.903   1.333   4.319
10589SOL    HW132666   5.987   1.283   4.296
10589SOL    HW232667   5.823   1.277   4.297
10590SOL     OW32668   1.469   0.786   4.733
10590SOL    HW132669   1.421   0.698   4.728
10590SOL    HW232670   1.408   0.854   4.773
10591SOL     OW32671   2.105   2.486   0.734
10591SOL    HW132672   2.059   2.411   0.782
10591SOL    HW232673   2.099   2.471   0.636
10592SOL     OW32674   6.147   1.508   6.546
10592SOL    HW132675   6.105   1.427   6.503
10592SOL    HW232676   6.076   1.573   6.572
10593SOL     OW32677   1.281   5.080   1.899
10593SOL    HW132678   1.315   5.172   1.917
10593SOL    HW232679   1.186   5.085   1.869
10594SOL     OW32680   0.789   1.412   4.289
10594SOL    HW132681   0.806   1.356   4.208
10594SOL    HW232682   0.703   1.384   4.332
10595SOL     OW32683   2.561   5.432   5.371
10595SOL    HW132684   2.536   5.493   5.446
10595SOL    HW232685   2.627   5.364   5.404
10596SOL     OW32686   3.124   1.115   2.175
10596SOL    HW132687   3.027   1.093   2.187
10596SOL    HW232688   3.167   1.045   2.118
10597SOL     OW32689   2.132   0.404   3.632
10597SOL    HW132690   2.174   0.440   3.715
10597SOL    HW232691   2.039   0.441   3.623
10598SOL     OW32692   2.198   1.251   0.180
10598SOL    HW132693   2.295   1.228   0.170
10598SOL    HW232694   2.148   1.222   0.098
10599SOL     OW32695   5.167   0.459   6.804
10599SOL    HW132696   5.085   0.403   6.787
10599SOL    HW232697   5.175   0.529   6.733
10600SOL     OW32698   1.767   2.068   5.521
10600SOL    HW132699   1.801   2.035   5.609
10600SOL    HW232700   1.806   2.158   5.503
10601SOL     OW32701   3.681   5.951   5.524
10601SOL    HW132702   3.649   6.003   5.604
10601SOL    HW232703   3.652   5.997   5.440
10602SOL     OW32704   4.727   0.768   0.947
10602SOL    HW132705   4.708   0.801   0.855
10602SOL    HW232706   4.670   0.817   1.013
10603SOL     OW32707   0.771   5.251   4.948
10603SOL    HW132708   0.819   5.164   4.954
10603SOL    HW232709   0.707   5.249   4.871
10604SOL     OW32710   6.884   4.111   5.649
10604SOL    HW132711   6.967   4.134   5.599
10604SOL    HW232712   6.805   4.125   5.589
10605SOL     OW32713   1.986   5.149   6.258
10605SOL    HW132714   1.936   5.151   6.345
10605SOL    HW232715   1.963   5.066   6.208
10606SOL     OW32716   0.506   0.720   2.703
10606SOL    HW132717   0.439   0.792   2.686
10606SOL    HW232718   0.588   0.737   2.649
10607SOL     OW32719   5.875   4.866   6.822
10607SOL    HW132720   5.958   4.862   6.879
10607SOL    HW232721   5.824   4.948   6.844
10608SOL     OW32722   5.885   0.508   2.856
10608SOL    HW132723   5.900   0.415   2.825
10608SOL    HW232724   5.820   0.554   2.795
10609SOL     OW32725   3.703   6.453   2.916
10609SOL    HW132726   3.682   6.472   2.820
10609SOL    HW232727   3.643   6.508   2.974
10610SOL     OW32728   1.982   4.101   4.412
10610SOL    HW132729   1.922   4.133   4.486
10610SOL    HW232730   1.938   4.025   4.364
10611SOL     OW32731   4.904   2.435   6.264
10611SOL    HW132732   4.810   2.432   6.231
10611SOL    HW232733   4.914   2.370   6.340
10612SOL     OW32734   1.671   0.168   1.187
10612SOL    HW132735   1.704   0.140   1.278
10612SOL    HW232736   1.626   0.091   1.143
10613SOL     OW32737   0.401   6.999   6.449
10613SOL    HW132738   0.440   0.065   6.490
10613SOL    HW232739   0.327   6.965   6.508
10614SOL     OW32740   6.628   0.869   3.768
10614SOL    HW132741   6.571   0.943   3.733
10614SOL    HW232742   6.595   0.781   3.734
10615SOL     OW32743   6.687   5.899   5.649
10615SOL    HW132744   6.679   5.806   5.684
10615SOL    HW232745   6.647   5.904   5.558
10616SOL     OW32746   2.441   5.951   0.781
10616SOL    HW132747   2.444   5.934   0.879
10616SOL    HW232748   2.476   6.043   0.762
10617SOL     OW32749   0.061   1.746   6.559
10617SOL    HW132750   6.998   1.740   6.620
10617SOL    HW232751   0.038   1.707   6.470
10618SOL     OW32752   6.653   3.672   1.066
10618SOL    HW132753   6.613   3.591   1.023
10618SOL    HW232754   6.753   3.664   1.065
10619SOL     OW32755   0.426   4.109   3.136
10619SOL    HW132756   0.497   4.043   3.111
10619SOL    HW232757   0.360   4.117   3.061
10620SOL     OW32758   1.124   5.242   4.078
10620SOL    HW132759   1.218   5.228   4.048
10620SOL    HW232760   1.061   5.223   4.003
10621SOL     OW32761   2.925   6.305   0.559
10621SOL    HW132762   2.896   6.255   0.640
10621SOL    HW232763   3.023   6.290   0.544
10622SOL     OW32764   4.542   1.903   0.952
10622SOL    HW132765   4.454   1.930   0.992
10622SOL    HW232766   4.572   1.817   0.993
10623SOL     OW32767   6.910   0.983   4.274
10623SOL    HW132768   6.838   1.006   4.209
10623SOL    HW232769   6.886   1.021   4.364
10624SOL     OW32770   2.930   1.285   4.108
10624SOL    HW132771   2.966   1.329   4.026
10624SOL    HW232772   2.934   1.186   4.098
10625SOL     OW32773   0.785   2.983   0.268
10625SOL    HW132774   0.861   3.042   0.295
10625SOL    HW232775   0.739   2.948   0.350
10626SOL     OW32776   5.825   1.766   2.032
10626SOL    HW132777   5.757   1.751   1.961
10626SOL    HW232778   5.917   1.752   1.994
10627SOL     OW32779   6.226   5.785   4.372
10627SOL    HW132780   6.170   5.794   4.454
10627SOL    HW232781   6.310   5.837   4.383
10628SOL     OW32782   6.959   5.257   5.812
10628SOL    HW132783   6.993   5.271   5.905
10628SOL    HW232784   0.020   5.249   5.750
10629SOL     OW32785   2.454   4.920   6.649
10629SOL    HW132786   2.424   4.934   6.554
10629SOL    HW232787   2.483   5.008   6.687
10630SOL     OW32788   6.612   0.821   2.354
10630SOL    HW132789   6.553   0.891   2.393
10630SOL    HW232790   6.662   0.775   2.427
10631SOL     OW32791   1.111   6.680   4.971
10631SOL    HW132792   1.149   6.587   4.963
10631SOL    HW232793   1.186   6.746   4.972
10632SOL     OW32794   0.153   2.890   6.191
10632SOL    HW132795   0.202   2.863   6.109
10632SOL    HW232796   0.057   2.861   6.184
10633SOL     OW32797   0.630   4.998   0.706
10633SOL    HW132798   0.554   5.060   0.726
10633SOL    HW232799   0.713   5.032   0.750
10634SOL     OW32800   3.940   6.325   2.613
10634SOL    HW132801   3.898   6.405   2.571
10634SOL    HW232802   4.030   6.309   2.572
10635SOL     OW32803   1.535   1.058   1.837
10635SOL    HW132804   1.488   0.970   1.827
10635SOL    HW232805   1.582   1.081   1.751
10636SOL     OW32806   5.451   1.415   0.879
10636SOL    HW132807   5.503   1.500   0.868
10636SOL    HW232808   5.487   1.363   0.955
10637SOL     OW32809   3.048   4.421   5.846
10637SOL    HW132810   3.024   4.492   5.780
10637SOL    HW232811   3.015   4.332   5.813
10638SOL     OW32812   6.705   6.947   5.919
10638SOL    HW132813   6.735   7.007   5.844
10638SOL    HW232814   6.629   6.891   5.888
10639SOL     OW32815   3.776   2.043   4.914
10639SOL    HW132816   3.708   1.970   4.918
10639SOL    HW232817   3.783   2.088   5.003
10640SOL     OW32818   4.311   6.255   1.063
10640SOL    HW132819   4.247   6.280   1.135
10640SOL    HW232820   4.378   6.328   1.050
10641SOL     OW32821   3.588   0.852   6.432
10641SOL    HW132822   3.583   0.860   6.333
10641SOL    HW232823   3.680   0.876   6.463
10642SOL     OW32824   0.188   4.808   0.117
10642SOL    HW132825   0.136   4.790   0.201
10642SOL    HW232826   0.221   4.722   0.079
10643SOL     OW32827   3.975   3.576   5.627
10643SOL    HW132828   3.969   3.490   5.678
10643SOL    HW232829   3.979   3.557   5.529
10644SOL     OW32830   3.908   1.293   4.806
10644SOL    HW132831   3.817   1.291   4.765
10644SOL    HW232832   3.941   1.387   4.809
10645SOL     OW32833   2.410   0.140   4.905
10645SOL    HW132834   2.380   0.101   4.818
10645SOL    HW232835   2.423   0.238   4.895
10646SOL     OW32836   1.141   4.659   6.630
10646SOL    HW132837   1.052   4.613   6.633
10646SOL    HW232838   1.189   4.632   6.547
10647SOL     OW32839   0.201   6.026   1.119
10647SOL    HW132840   0.133   5.974   1.170
10647SOL    HW232841   0.273   5.965   1.088
10648SOL     OW32842   4.854   5.367   6.782
10648SOL    HW132843   4.769   5.315   6.774
10648SOL    HW232844   4.876   5.382   6.879
10649SOL     OW32845   0.073   4.012   6.024
10649SOL    HW132846   0.092   4.073   5.947
10649SOL    HW232847   6.993   4.020   6.050
10650SOL     OW32848   3.211   0.909   5.348
10650SOL    HW132849   3.117   0.878   5.362
10650SOL    HW232850   3.273   0.853   5.403
10651SOL     OW32851   2.637   0.546   5.483
10651SOL    HW132852   2.633   0.496   5.570
10651SOL    HW232853   2.639   0.644   5.501
10652SOL     OW32854   3.769   1.578   0.555
10652SOL    HW132855   3.835   1.504   0.564
10652SOL    HW232856   3.677   1.544   0.576
10653SOL     OW32857   5.961   3.807   4.153
10653SOL    HW132858   5.996   3.787   4.061
10653SOL    HW232859   5.905   3.731   4.184
10654SOL     OW32860   4.607   0.733   1.847
10654SOL    HW132861   4.589   0.639   1.878
10654SOL    HW232862   4.590   0.740   1.749
10655SOL     OW32863   2.609   5.553   1.269
10655SOL    HW132864   2.639   5.471   1.220
10655SOL    HW232865   2.518   5.537   1.307
10656SOL     OW32866   6.368   2.484   6.652
10656SOL    HW132867   6.455   2.438   6.668
10656SOL    HW232868   6.384   2.581   6.638
10657SOL     OW32869   6.437   0.394   1.450
10657SOL    HW132870   6.366   0.327   1.429
10657SOL    HW232871   6.506   0.352   1.508
10658SOL     OW32872   0.159   6.505   4.552
10658SOL    HW132873   0.134   6.498   4.455
10658SOL    HW232874   0.193   6.597   4.570
10659SOL     OW32875   4.817   0.821   0.684
10659SOL    HW132876   4.764   0.758   0.628
10659SOL    HW232877   4.883   0.770   0.739
10660SOL     OW32878   5.557   5.503   6.264
10660SOL    HW132879   5.576   5.440   6.190
10660SOL    HW232880   5.602   5.591   6.246
10661SOL     OW32881   0.497   0.641   2.221
10661SOL    HW132882   0.476   0.612   2.314
10661SOL    HW232883   0.452   0.729   2.203
10662SOL     OW32884   6.463   1.829   6.748
10662SOL    HW132885   6.444   1.736   6.714
10662SOL    HW232886   6.403   1.848   6.826
10663SOL     OW32887   0.635   1.842   0.524
10663SOL    HW132888   0.590   1.932   0.518
10663SOL    HW232889   0.702   1.844   0.598
10664SOL     OW32890   2.247   5.057   6.265
10664SOL    HW132891   2.291   5.064   6.176
10664SOL    HW232892   2.158   5.102   6.262
10665SOL     OW32893   5.606   0.946   6.802
10665SOL    HW132894   5.513   0.961   6.835
10665SOL    HW232895   5.660   0.903   6.874
10666SOL     OW32896   0.314   0.094   0.238
10666SOL    HW132897   0.325   0.005   0.194
10666SOL    HW232898   0.300   0.081   0.336
10667SOL     OW32899   3.185   2.369   5.692
10667SOL    HW132900   3.089   2.364   5.721
10667SOL    HW232901   3.224   2.456   5.721
10668SOL     OW32902   2.455   0.800   6.592
10668SOL    HW132903   2.436   0.835   6.684
10668SOL    HW232904   2.446   0.873   6.525
10669SOL     OW32905   1.228   6.441   6.342
10669SOL    HW132906   1.137   6.401   6.350
10669SOL    HW232907   1.220   6.539   6.321
10670SOL     OW32908   6.769   4.159   4.645
10670SOL    HW132909   6.869   4.154   4.649
10670SOL    HW232910   6.742   4.254   4.627
10671SOL     OW32911   1.941   2.376   3.044
10671SOL    HW132912   2.006   2.442   3.082
10671SOL    HW232913   1.866   2.424   2.999
10672SOL     OW32914   0.141   2.509   0.638
10672SOL    HW132915   0.175   2.448   0.709
10672SOL    HW232916   0.049   2.541   0.662
10673SOL     OW32917   3.250   3.744   4.309
10673SOL    HW132918   3.307   3.776   4.234
10673SOL    HW232919   3.230   3.820   4.371
10674SOL     OW32920   3.967   1.616   2.459
10674SOL    HW132921   4.043   1.563   2.422
10674SOL    HW232922   3.891   1.555   2.481
10675SOL     OW32923   0.996   0.914   5.580
10675SOL    HW132924   1.040   0.929   5.491
10675SOL    HW232925   1.066   0.914   5.652
10676SOL     OW32926   6.843   0.338   6.558
10676SOL    HW132927   6.765   0.313   6.500
10676SOL    HW232928   6.811   0.376   6.644
10677SOL     OW32929   5.978   1.186   1.027
10677SOL    HW132930   6.051   1.124   0.998
10677SOL    HW232931   5.997   1.219   1.119
10678SOL     OW32932   1.886   5.183   3.504
10678SOL    HW132933   1.861   5.274   3.471
10678SOL    HW232934   1.873   5.116   3.431
10679SOL     OW32935   5.876   4.743   3.628
10679SOL    HW132936   5.841   4.663   3.578
10679SOL    HW232937   5.907   4.714   3.719
10680SOL     OW32938   0.739   2.501   3.692
10680SOL    HW132939   0.785   2.412   3.683
10680SOL    HW232940   0.807   2.570   3.717
10681SOL     OW32941   0.521   2.381   6.932
10681SOL    HW132942   0.436   2.404   6.979
10681SOL    HW232943   0.597   2.431   6.974
10682SOL     OW32944   6.402   1.987   2.868
10682SOL    HW132945   6.450   1.977   2.780
10682SOL    HW232946   6.325   1.922   2.871
10683SOL     OW32947   1.484   0.145   4.221
10683SOL    HW132948   1.471   0.128   4.319
10683SOL    HW232949   1.402   0.119   4.171
10684SOL     OW32950   5.119   5.721   0.439
10684SOL    HW132951   5.188   5.740   0.370
10684SOL    HW232952   5.070   5.637   0.415
10685SOL     OW32953   6.234   2.527   2.570
10685SOL    HW132954   6.241   2.440   2.619
10685SOL    HW232955   6.153   2.527   2.512
10686SOL     OW32956   4.164   5.065   0.867
10686SOL    HW132957   4.245   5.107   0.828
10686SOL    HW232958   4.189   4.980   0.913
10687SOL     OW32959   6.400   5.172   1.390
10687SOL    HW132960   6.479   5.228   1.415
10687SOL    HW232961   6.421   5.075   1.405
10688SOL     OW32962   0.243   5.111   0.931
10688SOL    HW132963   0.262   5.207   0.950
10688SOL    HW232964   0.216   5.065   1.016
10689SOL     OW32965   1.049   0.131   0.900
10689SOL    HW132966   1.060   0.159   0.995
10689SOL    HW232967   1.134   0.148   0.850
10690SOL     OW32968   4.651   6.602   3.201
10690SOL    HW132969   4.623   6.665   3.273
10690SOL    HW232970   4.647   6.508   3.236
10691SOL     OW32971   6.119   1.307   1.713
10691SOL    HW132972   6.049   1.378   1.706
10691SOL    HW232973   6.206   1.341   1.678
10692SOL     OW32974   6.338   6.555   3.749
10692SOL    HW132975   6.381   6.586   3.834
10692SOL    HW232976   6.263   6.617   3.724
10693SOL     OW32977   5.117   2.838   3.926
10693SOL    HW132978   5.127   2.930   3.890
10693SOL    HW232979   5.115   2.841   4.026
10694SOL     OW32980   2.243   6.363   0.446
10694SOL    HW132981   2.265   6.298   0.373
10694SOL    HW232982   2.158   6.336   0.491
10695SOL     OW32983   5.255   3.036   5.711
10695SOL    HW132984   5.173   3.085   5.739
10695SOL    HW232985   5.301   3.086   5.637
10696SOL     OW32986   6.604   0.255   1.609
10696SOL    HW132987   6.594   0.176   1.669
10696SOL    HW232988   6.597   0.339   1.663
10697SOL     OW32989   1.780   6.331   2.730
10697SOL    HW132990   1.763   6.341   2.828
10697SOL    HW232991   1.877   6.314   2.714
10698SOL     OW32992   3.194   0.385   4.303
10698SOL    HW132993   3.094   0.383   4.303
10698SOL    HW232994   3.227   0.414   4.393
10699SOL     OW32995   1.870   2.465   3.669
10699SOL    HW132996   1.883   2.440   3.573
10699SOL    HW232997   1.772   2.463   3.691
10700SOL     OW32998   0.792   2.262   2.562
10700SOL    HW132999   0.877   2.273   2.511
10700SOL    HW233000   0.751   2.352   2.580
10701SOL     OW33001   2.709   0.410   1.556
10701SOL    HW133002   2.748   0.334   1.503
10701SOL    HW233003   2.692   0.488   1.496
10702SOL     OW33004   5.116   2.308   1.150
10702SOL    HW133005   5.057   2.262   1.084
10702SOL    HW233006   5.061   2.339   1.228
10703SOL     OW33007   3.783   2.956   4.124
10703SOL    HW133008   3.755   3.013   4.047
10703SOL    HW233009   3.723   2.876   4.130
10704SOL     OW33010   5.728   6.136   1.909
10704SOL    HW133011   5.686   6.226   1.905
10704SOL    HW233012   5.691   6.085   1.986
10705SOL     OW33013   1.541   3.136   6.589
10705SOL    HW133014   1.600   3.112   6.666
10705SOL    HW233015   1.479   3.060   6.570
10706SOL     OW33016   3.145   3.266   1.069
10706SOL    HW133017   3.157   3.242   0.973
10706SOL    HW233018   3.088   3.198   1.114
10707SOL     OW33019   6.129   0.037   6.391
10707SOL    HW133020   6.092   0.121   6.350
10707SOL    HW233021   6.178   0.059   6.475
10708SOL     OW33022   4.968   1.234   1.309
10708SOL    HW133023   4.922   1.319   1.283
10708SOL    HW233024   5.052   1.256   1.359
10709SOL     OW33025   0.739   0.254   6.173
10709SOL    HW133026   0.815   0.196   6.145
10709SOL    HW233027   0.772   0.323   6.238
10710SOL     OW33028   6.791   6.452   3.624
10710SOL    HW133029   6.762   6.357   3.633
10710SOL    HW233030   6.760   6.488   3.535
10711SOL     OW33031   2.206   4.540   5.431
10711SOL    HW133032   2.234   4.630   5.463
10711SOL    HW233033   2.239   4.470   5.494
10712SOL     OW33034   3.543   1.571   6.409
10712SOL    HW133035   3.613   1.638   6.431
10712SOL    HW233036   3.558   1.536   6.316
10713SOL     OW33037   1.839   6.784   0.647
10713SOL    HW133038   1.869   6.849   0.577
10713SOL    HW233039   1.782   6.831   0.715
10714SOL     OW33040   6.048   5.860   4.598
10714SOL    HW133041   6.027   5.847   4.695
10714SOL    HW233042   6.115   5.933   4.588
10715SOL     OW33043   5.678   0.561   2.706
10715SOL    HW133044   5.654   0.553   2.609
10715SOL    HW233045   5.641   0.646   2.743
10716SOL     OW33046   0.218   0.947   1.615
10716SOL    HW133047   0.310   0.978   1.590
10716SOL    HW233048   0.189   0.993   1.699
10717SOL     OW33049   0.013   6.339   2.430
10717SOL    HW133050   0.013   6.434   2.398
10717SOL    HW233051   6.988   6.280   2.360
10718SOL     OW33052   1.163   4.130   5.416
10718SOL    HW133053   1.128   4.190   5.344
10718SOL    HW233054   1.244   4.172   5.457
10719SOL     OW33055   3.760   6.136   2.333
10719SOL    HW133056   3.779   6.042   2.361
10719SOL    HW233057   3.698   6.135   2.254
10720SOL     OW33058   0.398   3.444   6.480
10720SOL    HW133059   0.322   3.431   6.416
10720SOL    HW233060   0.485   3.439   6.431
10721SOL     OW33061   5.584   1.910   4.244
10721SOL    HW133062   5.663   1.942   4.295
10721SOL    HW233063   5.585   1.810   4.238
10722SOL     OW33064   0.444   5.423   0.259
10722SOL    HW133065   0.392   5.398   0.177
10722SOL    HW233066   0.523   5.479   0.232
10723SOL     OW33067   6.367   4.172   6.213
10723SOL    HW133068   6.438   4.223   6.261
10723SOL    HW233069   6.370   4.076   6.241
10724SOL     OW33070   3.647   6.971   5.559
10724SOL    HW133071   3.581   6.954   5.486
10724SOL    HW233072   3.676   0.050   5.556
10725SOL     OW33073   0.547   6.611   5.319
10725SOL    HW133074   0.496   6.534   5.279
10725SOL    HW233075   0.482   6.681   5.348
10726SOL     OW33076   7.015   0.651   3.479
10726SOL    HW133077   6.960   0.665   3.562
10726SOL    HW233078   6.995   0.560   3.442
10727SOL     OW33079   4.697   6.743   6.167
10727SOL    HW133080   4.716   6.647   6.188
10727SOL    HW233081   4.618   6.749   6.107
10728SOL     OW33082   5.901   5.310   3.736
10728SOL    HW133083   5.840   5.366   3.791
10728SOL    HW233084   5.984   5.290   3.788
10729SOL     OW33085   6.540   3.492   4.050
10729SOL    HW133086   6.617   3.466   3.992
10729SOL    HW233087   6.512   3.413   4.105
10730SOL     OW33088   1.244   6.376   4.388
10730SOL    HW133089   1.182   6.298   4.392
10730SOL    HW233090   1.250   6.419   4.478
10731SOL     OW33091   5.195   5.719   6.627
10731SOL    HW133092   5.116   5.678   6.675
10731SOL    HW233093   5.216   5.665   6.546
10732SOL     OW33094   6.642   6.108   2.384
10732SOL    HW133095   6.733   6.066   2.393
10732SOL    HW233096   6.585   6.080   2.460
10733SOL     OW33097   0.495   1.880   6.081
10733SOL    HW133098   0.454   1.849   5.995
10733SOL    HW233099   0.428   1.869   6.155
10734SOL     OW33100   0.494   1.022   4.604
10734SOL    HW133101   0.399   1.035   4.631
10734SOL    HW233102   0.498   1.005   4.506
10735SOL     OW33103   0.100   0.725   2.049
10735SOL    HW133104   0.135   0.719   1.956
10735SOL    HW233105   0.119   0.640   2.098
10736SOL     OW33106   6.010   5.782   3.730
10736SOL    HW133107   6.001   5.723   3.810
10736SOL    HW233108   5.920   5.812   3.700
10737SOL     OW33109   6.869   0.683   1.475
10737SOL    HW133110   6.782   0.726   1.450
10737SOL    HW233111   6.928   0.752   1.518
10738SOL     OW33112   2.627   6.532   1.576
10738SOL    HW133113   2.541   6.532   1.526
10738SOL    HW233114   2.686   6.606   1.541
10739SOL     OW33115   4.855   2.993   4.153
10739SOL    HW133116   4.816   2.932   4.084
10739SOL    HW233117   4.808   2.979   4.240
10740SOL     OW33118   2.996   0.154   5.652
10740SOL    HW133119   2.978   0.222   5.581
10740SOL    HW233120   3.094   0.149   5.669
10741SOL     OW33121   1.205   2.685   3.994
10741SOL    HW133122   1.120   2.680   4.047
10741SOL    HW233123   1.247   2.775   4.007
10742SOL     OW33124   6.991   0.287   2.213
10742SOL    HW133125   6.939   0.323   2.291
10742SOL    HW233126   0.021   0.203   2.241
10743SOL     OW33127   3.783   1.978   5.802
10743SOL    HW133128   3.724   1.993   5.881
10743SOL    HW233129   3.852   2.049   5.798
10744SOL     OW33130   2.884   1.974   1.697
10744SOL    HW133131   2.906   1.969   1.599
10744SOL    HW233132   2.893   2.069   1.728
10745SOL     OW33133   2.427   5.810   1.449
10745SOL    HW133134   2.524   5.815   1.473
10745SOL    HW233135   2.375   5.777   1.528
10746SOL     OW33136   1.987   5.453   5.870
10746SOL    HW133137   1.949   5.526   5.928
10746SOL    HW233138   2.086   5.452   5.879
10747SOL     OW33139   0.483   0.667   4.656
10747SOL    HW133140   0.487   0.631   4.562
10747SOL    HW233141   0.439   0.600   4.716
10748SOL     OW33142   2.976   6.663   2.284
10748SOL    HW133143   2.909   6.660   2.358
10748SOL    HW233144   2.997   6.569   2.254
10749SOL     OW33145   5.930   4.287   2.111
10749SOL    HW133146   5.907   4.373   2.157
10749SOL    HW233147   5.853   4.257   2.055
10750SOL     OW33148   4.186   2.192   4.135
10750SOL    HW133149   4.285   2.182   4.141
10750SOL    HW233150   4.149   2.208   4.226
10751SOL     OW33151   6.523   6.286   3.907
10751SOL    HW133152   6.517   6.378   3.946
10751SOL    HW233153   6.619   6.258   3.905
10752SOL     OW33154   0.172   6.614   6.853
10752SOL    HW133155   0.212   6.532   6.813
10752SOL    HW233156   0.236   6.691   6.842
10753SOL     OW33157   5.468   6.762   4.880
10753SOL    HW133158   5.411   6.694   4.834
10753SOL    HW233159   5.469   6.742   4.979
10754SOL     OW33160   0.513   5.698   2.148
10754SOL    HW133161   0.507   5.778   2.088
10754SOL    HW233162   0.609   5.677   2.166
10755SOL     OW33163   0.516   2.225   1.745
10755SOL    HW133164   0.448   2.181   1.687
10755SOL    HW233165   0.552   2.306   1.699
10756SOL     OW33166   1.061   0.181   6.461
10756SOL    HW133167   1.017   0.125   6.531
10756SOL    HW233168   1.151   0.142   6.440
10757SOL     OW33169   6.525   3.231   2.096
10757SOL    HW133170   6.466   3.172   2.150
10757SOL    HW233171   6.489   3.324   2.098
10758SOL     OW33172   1.210   1.561   0.624
10758SOL    HW133173   1.188   1.562   0.527
10758SOL    HW233174   1.145   1.503   0.672
10759SOL     OW33175   2.934   3.694   4.741
10759SOL    HW133176   2.836   3.694   4.761
10759SOL    HW233177   2.948   3.673   4.644
10760SOL     OW33178   0.858   5.197   6.989
10760SOL    HW133179   0.864   5.115   6.932
10760SOL    HW233180   0.767   5.205   0.012
10761SOL     OW33181   1.756   1.338   6.003
10761SOL    HW133182   1.659   1.312   5.998
10761SOL    HW233183   1.802   1.314   5.918
10762SOL     OW33184   1.545   6.773   0.530
10762SOL    HW133185   1.597   6.858   0.540
10762SOL    HW233186   1.582   6.719   0.454
10763SOL     OW33187   4.931   1.077   2.711
10763SOL    HW133188   4.983   1.153   2.673
10763SOL    HW233189   4.833   1.091   2.691
10764SOL     OW33190   5.127   5.981   4.887
10764SOL    HW133191   5.113   5.900   4.831
10764SOL    HW233192   5.171   5.955   4.973
10765SOL     OW33193   0.708   2.242   0.672
10765SOL    HW133194   0.663   2.330   0.654
10765SOL    HW233195   0.807   2.255   0.669
10766SOL     OW33196   2.334   5.168   6.018
10766SOL    HW133197   2.252   5.113   6.001
10766SOL    HW233198   2.359   5.217   5.934
10767SOL     OW33199   1.523   5.020   6.481
10767SOL    HW133200   1.491   5.087   6.414
10767SOL    HW233201   1.471   5.029   6.565
10768SOL     OW33202   5.341   6.310   0.081
10768SOL    HW133203   5.257   6.346   0.039
10768SOL    HW233204   5.414   6.378   0.073
10769SOL     OW33205   2.948   3.633   4.474
10769SOL    HW133206   2.946   3.682   4.387
10769SOL    HW233207   3.016   3.561   4.470
10770SOL     OW33208   5.268   0.349   3.461
10770SOL    HW133209   5.218   0.312   3.383
10770SOL    HW233210   5.265   0.284   3.537
10771SOL     OW33211   4.369   6.062   5.965
10771SOL    HW133212   4.384   6.119   5.884
10771SOL    HW233213   4.453   6.014   5.987
10772SOL     OW33214   4.903   4.601   2.682
10772SOL    HW133215   4.928   4.593   2.586
10772SOL    HW233216   4.984   4.625   2.736
10773SOL     OW33217   0.668   3.924   0.250
10773SOL    HW133218   0.572   3.921   0.281
10773SOL    HW233219   0.689   4.016   0.216
10774SOL     OW33220   0.494   3.175   1.008
10774SOL    HW133221   0.570   3.215   0.955
10774SOL    HW233222   0.436   3.121   0.947
10775SOL     OW33223   1.966   4.326   0.353
10775SOL    HW133224   1.894   4.259   0.339
10775SOL    HW233225   1.944   4.383   0.433
10776SOL     OW33226   0.613   2.991   3.044
10776SOL    HW133227   0.704   2.970   3.082
10776SOL    HW233228   0.566   2.905   3.022
10777SOL     OW33229   1.543   0.415   1.377
10777SOL    HW133230   1.547   0.493   1.315
10777SOL    HW233231   1.489   0.342   1.336
10778SOL     OW33232   4.722   0.397   3.730
10778SOL    HW133233   4.681   0.357   3.812
10778SOL    HW233234   4.650   0.429   3.669
10779SOL     OW33235   5.887   2.585   5.761
10779SOL    HW133236   5.796   2.619   5.784
10779SOL    HW233237   5.897   2.492   5.796
10780SOL     OW33238   1.536   4.952   5.147
10780SOL    HW133239   1.438   4.962   5.164
10780SOL    HW233240   1.581   4.921   5.230
10781SOL     OW33241   5.862   1.893   6.288
10781SOL    HW133242   5.909   1.863   6.205
10781SOL    HW233243   5.901   1.846   6.367
10782SOL     OW33244   1.164   3.014   5.058
10782SOL    HW133245   1.146   2.919   5.081
10782SOL    HW233246   1.220   3.019   4.975
10783SOL     OW33247   1.424   3.700   3.340
10783SOL    HW133248   1.485   3.740   3.272
10783SOL    HW233249   1.361   3.636   3.295
10784SOL     OW33250   4.886   5.536   4.037
10784SOL    HW133251   4.929   5.559   4.124
10784SOL    HW233252   4.955   5.499   3.974
10785SOL     OW33253   1.364   5.138   1.396
10785SOL    HW133254   1.363   5.198   1.315
10785SOL    HW233255   1.382   5.193   1.478
10786SOL     OW33256   5.209   1.367   2.335
10786SOL    HW133257   5.250   1.330   2.418
10786SOL    HW233258   5.192   1.292   2.270
10787SOL     OW33259   3.708   2.026   3.583
10787SOL    HW133260   3.746   2.090   3.516
10787SOL    HW233261   3.779   1.999   3.648
10788SOL     OW33262   1.462   3.364   0.199
10788SOL    HW133263   1.426   3.302   0.270
10788SOL    HW233264   1.468   3.315   0.112
10789SOL     OW33265   6.659   1.688   2.289
10789SOL    HW133266   6.569   1.645   2.298
10789SOL    HW233267   6.685   1.729   2.377
10790SOL     OW33268   6.905   2.006   5.439
10790SOL    HW133269   6.806   1.993   5.431
10790SOL    HW233270   6.941   1.945   5.510
10791SOL     OW33271   1.917   2.706   3.967
10791SOL    HW133272   1.941   2.712   3.870
10791SOL    HW233273   1.986   2.653   4.015
10792SOL     OW33274   3.493   0.811   2.287
10792SOL    HW133275   3.406   0.769   2.312
10792SOL    HW233276   3.550   0.822   2.368
10793SOL     OW33277   3.333   1.734   4.487
10793SOL    HW133278   3.325   1.771   4.580
10793SOL    HW233279   3.246   1.694   4.459
10794SOL     OW33280   4.889   2.803   6.853
10794SOL    HW133281   4.905   2.827   6.758
10794SOL    HW233282   4.976   2.800   6.902
10795SOL     OW33283   6.243   3.254   3.426
10795SOL    HW133284   6.245   3.350   3.452
10795SOL    HW233285   6.256   3.246   3.327
10796SOL     OW33286   0.472   1.537   5.969
10796SOL    HW133287   0.464   1.542   6.068
10796SOL    HW233288   0.556   1.583   5.940
10797SOL     OW33289   5.476   4.740   6.500
10797SOL    HW133290   5.413   4.792   6.443
10797SOL    HW233291   5.427   4.664   6.543
10798SOL     OW33292   1.654   6.345   0.521
10798SOL    HW133293   1.663   6.357   0.422
10798SOL    HW233294   1.706   6.417   0.568
10799SOL     OW33295   2.898   0.656   2.447
10799SOL    HW133296   2.844   0.698   2.520
10799SOL    HW233297   2.995   0.664   2.469
10800SOL     OW33298   2.025   0.239   4.934
10800SOL    HW133299   2.040   0.182   5.015
10800SOL    HW233300   2.110   0.246   4.882
10801SOL     OW33301   2.844   6.000   6.771
10801SOL    HW133302   2.756   6.011   6.818
10801SOL    HW233303   2.884   6.089   6.752
10802SOL     OW33304   0.902   4.674   4.259
10802SOL    HW133305   0.816   4.725   4.252
10802SOL    HW233306   0.950   4.679   4.171
10803SOL     OW33307   0.000   3.939   4.977
10803SOL    HW133308   0.084   3.890   5.002
10803SOL    HW233309   6.937   3.884   5.002
10804SOL     OW33310   3.944   4.572   0.952
10804SOL    HW133311   4.030   4.603   0.913
10804SOL    HW233312   3.960   4.531   1.042
10805SOL     OW33313   4.092   6.301   0.310
10805SOL    HW133314   4.015   6.364   0.296
10805SOL    HW233315   4.057   6.211   0.336
10806SOL     OW33316   5.404   3.095   6.348
10806SOL    HW133317   5.380   3.046   6.432
10806SOL    HW233318   5.502   3.116   6.348
10807SOL     OW33319   5.248   2.181   4.826
10807SOL    HW133320   5.166   2.234   4.850
10807SOL    HW233321   5.271   2.120   4.902
10808SOL     OW33322   0.779   2.226   6.620
10808SOL    HW133323   0.844   2.155   6.645
10808SOL    HW233324   0.803   2.264   6.531
10809SOL     OW33325   1.470   1.030   2.511
10809SOL    HW133326   1.452   1.105   2.446
10809SOL    HW233327   1.396   1.027   2.578
10810SOL     OW33328   2.103   1.187   6.062
10810SOL    HW133329   2.064   1.254   6.124
10810SOL    HW233330   2.078   1.210   5.968
10811SOL     OW33331   4.151   5.674   6.788
10811SOL    HW133332   4.170   5.752   6.848
10811SOL    HW233333   4.183   5.590   6.831
10812SOL     OW33334   6.568   3.044   2.768
10812SOL    HW133335   6.580   3.029   2.866
10812SOL    HW233336   6.526   3.133   2.752
10813SOL     OW33337   3.262   6.503   2.279
10813SOL    HW133338   3.237   6.576   2.342
10813SOL    HW233339   3.346   6.459   2.310
10814SOL     OW33340   1.525   6.372   4.287
10814SOL    HW133341   1.439   6.365   4.339
10814SOL    HW233342   1.552   6.281   4.256
10815SOL     OW33343   5.322   1.863   5.457
10815SOL    HW133344   5.355   1.811   5.378
10815SOL    HW233345   5.399   1.898   5.509
10816SOL     OW33346   2.250   1.725   1.648
10816SOL    HW133347   2.197   1.737   1.733
10816SOL    HW233348   2.237   1.633   1.613
10817SOL     OW33349   3.511   1.678   2.054
10817SOL    HW133350   3.558   1.738   1.989
10817SOL    HW233351   3.488   1.730   2.136
10818SOL     OW33352   4.657   3.713   6.469
10818SOL    HW133353   4.639   3.636   6.530
10818SOL    HW233354   4.732   3.768   6.507
10819SOL     OW33355   1.393   3.870   5.179
10819SOL    HW133356   1.387   3.853   5.277
10819SOL    HW233357   1.406   3.968   5.163
10820SOL     OW33358   0.741   5.843   4.611
10820SOL    HW133359   0.768   5.757   4.653
10820SOL    HW233360   0.651   5.832   4.567
10821SOL     OW33361   0.805   0.729   6.629
10821SOL    HW133362   0.891   0.751   6.583
10821SOL    HW233363   0.823   0.662   6.701
10822SOL     OW33364   0.603   4.262   6.538
10822SOL    HW133365   0.685   4.207   6.522
10822SOL    HW233366   0.568   4.295   6.450
10823SOL     OW33367   2.383   2.486   0.703
10823SOL    HW133368   2.285   2.480   0.722
10823SOL    HW233369   2.397   2.499   0.605
10824SOL     OW33370   5.386   1.303   4.065
10824SOL    HW133371   5.461   1.287   4.001
10824SOL    HW233372   5.351   1.395   4.052
10825SOL     OW33373   2.911   1.163   2.609
10825SOL    HW133374   2.870   1.254   2.612
10825SOL    HW233375   2.954   1.142   2.697
10826SOL     OW33376   6.902   3.487   1.303
10826SOL    HW133377   6.894   3.560   1.234
10826SOL    HW233378   6.829   3.421   1.290
10827SOL     OW33379   0.842   2.559   4.560
10827SOL    HW133380   0.879   2.520   4.644
10827SOL    HW233381   0.787   2.491   4.512
10828SOL     OW33382   2.517   4.811   0.106
10828SOL    HW133383   2.579   4.881   0.141
10828SOL    HW233384   2.496   4.830   0.010
10829SOL     OW33385   2.338   4.111   1.843
10829SOL    HW133386   2.381   4.201   1.829
10829SOL    HW233387   2.352   4.054   1.762
10830SOL     OW33388   6.162   0.643   3.469
10830SOL    HW133389   6.213   0.654   3.384
10830SOL    HW233390   6.147   0.545   3.487
10831SOL     OW33391   5.430   2.312   1.970
10831SOL    HW133392   5.470   2.342   2.056
10831SOL    HW233393   5.393   2.220   1.980
10832SOL     OW33394   0.829   3.103   2.736
10832SOL    HW133395   0.767   3.168   2.690
10832SOL    HW233396   0.787   3.012   2.735
10833SOL     OW33397   3.435   0.116   4.451
10833SOL    HW133398   3.509   0.155   4.395
10833SOL    HW233399   3.380   0.054   4.395
10834SOL     OW33400   0.062   1.318   6.040
10834SOL    HW133401   0.038   1.414   6.050
10834SOL    HW233402   0.160   1.306   6.055
10835SOL     OW33403   0.876   1.914   0.845
10835SOL    HW133404   0.878   1.932   0.747
10835SOL    HW233405   0.788   1.872   0.869
10836SOL     OW33406   0.946   2.662   1.039
10836SOL    HW133407   0.918   2.567   1.046
10836SOL    HW233408   1.028   2.677   1.095
10837SOL     OW33409   0.420   5.657   0.753
10837SOL    HW133410   0.405   5.649   0.655
10837SOL    HW233411   0.513   5.688   0.770
10838SOL     OW33412   6.357   6.308   0.961
10838SOL    HW133413   6.439   6.317   0.904
10838SOL    HW233414   6.294   6.384   0.941
10839SOL     OW33415   1.998   1.858   6.583
10839SOL    HW133416   2.077   1.805   6.613
10839SOL    HW233417   1.968   1.826   6.494
10840SOL     OW33418   2.176   0.030   2.524
10840SOL    HW133419   2.174   0.059   2.428
10840SOL    HW233420   2.140   6.953   2.531
10841SOL     OW33421   4.523   3.687   0.926
10841SOL    HW133422   4.477   3.700   1.014
10841SOL    HW233423   4.517   3.591   0.899
10842SOL     OW33424   6.051   2.124   1.804
10842SOL    HW133425   6.091   2.046   1.756
10842SOL    HW233426   6.084   2.209   1.763
10843SOL     OW33427   0.662   2.432   1.922
10843SOL    HW133428   0.754   2.447   1.884
10843SOL    HW233429   0.640   2.335   1.918
10844SOL     OW33430   5.192   0.500   4.124
10844SOL    HW133431   5.256   0.557   4.071
10844SOL    HW233432   5.155   0.428   4.065
10845SOL     OW33433   2.246   3.075   1.097
10845SOL    HW133434   2.297   3.160   1.111
10845SOL    HW233435   2.157   3.083   1.142
10846SOL     OW33436   3.473   2.768   1.480
10846SOL    HW133437   3.475   2.755   1.579
10846SOL    HW233438   3.550   2.720   1.438
10847SOL     OW33439   4.620   2.266   5.310
10847SOL    HW133440   4.538   2.295   5.259
10847SOL    HW233441   4.689   2.233   5.245
10848SOL     OW33442   1.539   0.887   6.776
10848SOL    HW133443   1.631   0.926   6.769
10848SOL    HW233444   1.488   0.934   6.847
10849SOL     OW33445   1.516   4.701   4.304
10849SOL    HW133446   1.557   4.629   4.359
10849SOL    HW233447   1.586   4.741   4.244
10850SOL     OW33448   5.546   0.818   2.160
10850SOL    HW133449   5.470   0.754   2.149
10850SOL    HW233450   5.569   0.858   2.071
10851SOL     OW33451   4.610   2.887   6.863
10851SOL    HW133452   4.705   2.877   6.835
10851SOL    HW233453   4.567   2.797   6.867
10852SOL     OW33454   6.109   0.591   5.913
10852SOL    HW133455   6.016   0.566   5.940
10852SOL    HW233456   6.149   0.650   5.983
10853SOL     OW33457   3.439   0.826   4.462
10853SOL    HW133458   3.480   0.747   4.417
10853SOL    HW233459   3.386   0.796   4.541
10854SOL     OW33460   6.063   6.804   0.451
10854SOL    HW133461   6.032   6.891   0.412
10854SOL    HW233462   6.048   6.805   0.550
10855SOL     OW33463   0.593   5.914   1.192
10855SOL    HW133464   0.555   5.985   1.133
10855SOL    HW233465   0.690   5.931   1.207
10856SOL     OW33466   5.561   6.385   6.816
10856SOL    HW133467   5.578   6.426   6.905
10856SOL    HW233468   5.517   6.452   6.756
10857SOL     OW33469   6.650   6.920   4.815
10857SOL    HW133470   6.605   6.893   4.900
10857SOL    HW233471   6.584   6.967   4.756
10858SOL     OW33472   2.072   2.164   0.122
10858SOL    HW133473   2.126   2.081   0.129
10858SOL    HW233474   2.022   2.165   0.036
10859SOL     OW33475   2.438   5.333   2.669
10859SOL    HW133476   2.487   5.267   2.726
10859SOL    HW233477   2.367   5.378   2.723
10860SOL     OW33478   6.119   2.047   1.295
10860SOL    HW133479   6.075   1.958   1.285
10860SOL    HW233480   6.049   2.119   1.291
10861SOL     OW33481   1.640   4.091   1.634
10861SOL    HW133482   1.677   4.015   1.581
10861SOL    HW233483   1.547   4.111   1.602
10862SOL     OW33484   3.258   4.441   5.304
10862SOL    HW133485   3.182   4.380   5.328
10862SOL    HW233486   3.221   4.522   5.259
10863SOL     OW33487   1.785   0.389   2.985
10863SOL    HW133488   1.732   0.472   2.964
10863SOL    HW233489   1.876   0.396   2.943
10864SOL     OW33490   2.919   3.715   2.070
10864SOL    HW133491   2.884   3.628   2.037
10864SOL    HW233492   2.868   3.744   2.151
10865SOL     OW33493   2.941   1.944   2.571
10865SOL    HW133494   3.005   1.969   2.643
10865SOL    HW233495   2.982   1.965   2.482
10866SOL     OW33496   0.863   3.142   4.495
10866SOL    HW133497   0.802   3.130   4.573
10866SOL    HW233498   0.949   3.185   4.525
10867SOL     OW33499   4.516   3.284   0.182
10867SOL    HW133500   4.507   3.194   0.140
10867SOL    HW233501   4.521   3.274   0.282
10868SOL     OW33502   1.089   0.003   5.177
10868SOL    HW133503   1.041   0.060   5.243
10868SOL    HW233504   1.185   7.010   5.205
10869NA      NA33505   0.065   1.146   6.404
10870NA      NA33506   4.627   4.792   5.226
10871NA      NA33507   0.850   4.754   2.858
10872NA      NA33508   6.010   3.580   3.440
10873NA      NA33509   3.988   2.732   5.516
10874NA      NA33510   2.380   4.516   6.793
10875NA      NA33511   1.634   5.489   0.355
10876NA      NA33512   4.368   5.114   1.882
10877NA      NA33513   5.071   3.867   1.379
10878NA      NA33514   3.778   1.806   0.653
10879NA      NA33515   5.478   6.582   1.405
10880NA      NA33516   2.570   0.027   5.026
10881NA      NA33517   4.117   5.042   2.722
10882NA      NA33518   3.999   4.739   6.666
   7.01624   7.01624   7.01624
