Generated by trjconv : CNT in water t= 271.00000
33518
    1C        C    1   2.843   2.769   4.749
    1C        C    2   2.898   2.718   4.868
    1C        C    3   2.847   2.776   4.985
    1C        C    4   2.854   2.774   4.261
    1C        C    5   2.906   2.730   4.385
    1C        C    6   2.849   2.775   4.506
    1C        C    7   3.013   2.640   4.626
    1C        C    8   2.897   2.720   4.627
    1C        C    9   3.077   2.607   4.748
    1C        C   10   3.013   2.637   4.870
    1C        C   11   3.189   2.500   4.980
    1C        C   12   3.063   2.563   4.979
    1C        C   13   2.847   2.770   3.771
    1C        C   14   2.899   2.722   3.894
    1C        C   15   2.847   2.772   4.016
    1C        C   16   3.020   2.648   4.139
    1C        C   17   2.903   2.727   4.137
    1C        C   18   3.084   2.619   4.262
    1C        C   19   3.025   2.653   4.385
    1C        C   20   3.213   2.556   4.505
    1C        C   21   3.081   2.609   4.507
    1C        C   22   3.281   2.537   4.627
    1C        C   23   3.209   2.553   4.747
    1C        C   24   3.416   2.487   4.864
    1C        C   25   3.275   2.510   4.866
    1C        C   26   3.493   2.488   4.981
    1C        C   27   2.853   2.771   3.282
    1C        C   28   2.905   2.729   3.406
    1C        C   29   2.852   2.775   3.528
    1C        C   30   3.019   2.644   3.650
    1C        C   31   2.904   2.725   3.650
    1C        C   32   3.077   2.609   3.774
    1C        C   33   3.017   2.645   3.897
    1C        C   34   3.213   2.557   4.017
    1C        C   35   3.083   2.612   4.018
    1C        C   36   3.280   2.539   4.140
    1C        C   37   3.214   2.563   4.262
    1C        C   38   3.419   2.508   4.381
    1C        C   39   3.280   2.531   4.383
    1C        C   40   3.489   2.502   4.503
    1C        C   41   3.419   2.505   4.626
    1C        C   42   3.633   2.473   4.745
    1C        C   43   3.491   2.478   4.744
    1C        C   44   3.708   2.479   4.865
    1C        C   45   3.632   2.477   4.982
    1C        C   46   2.837   2.757   2.795
    1C        C   47   2.897   2.718   2.917
    1C        C   48   2.846   2.767   3.039
    1C        C   49   3.024   2.647   3.163
    1C        C   50   2.907   2.727   3.159
    1C        C   51   3.084   2.613   3.287
    1C        C   52   3.019   2.645   3.408
    1C        C   53   3.212   2.551   3.528
    1C        C   54   3.082   2.608   3.529
    1C        C   55   3.278   2.532   3.652
    1C        C   56   3.208   2.554   3.773
    1C        C   57   3.417   2.508   3.896
    1C        C   58   3.278   2.532   3.893
    1C        C   59   3.489   2.500   4.017
    1C        C   60   3.418   2.509   4.139
    1C        C   61   3.632   2.499   4.258
    1C        C   62   3.491   2.503   4.259
    1C        C   63   3.700   2.508   4.381
    1C        C   64   3.631   2.500   4.504
    1C        C   65   3.838   2.543   4.622
    1C        C   66   3.704   2.499   4.625
    1C        C   67   3.906   2.563   4.744
    1C        C   68   3.842   2.523   4.864
    1C        C   69   4.055   2.586   4.980
    1C        C   70   3.926   2.531   4.976
    1C        C   71   2.823   2.739   2.308
    1C        C   72   2.881   2.695   2.429
    1C        C   73   2.834   2.749   2.551
    1C        C   74   3.009   2.632   2.675
    1C        C   75   2.891   2.709   2.674
    1C        C   76   3.077   2.605   2.796
    1C        C   77   3.014   2.639   2.917
    1C        C   78   3.206   2.548   3.039
    1C        C   79   3.077   2.605   3.039
    1C        C   80   3.278   2.532   3.160
    1C        C   81   3.211   2.551   3.283
    1C        C   82   3.416   2.503   3.403
    1C        C   83   3.276   2.526   3.405
    1C        C   84   3.486   2.497   3.526
    1C        C   85   3.417   2.508   3.649
    1C        C   86   3.626   2.501   3.769
    1C        C   87   3.485   2.501   3.772
    1C        C   88   3.698   2.510   3.891
    1C        C   89   3.631   2.502   4.015
    1C        C   90   3.839   2.548   4.136
    1C        C   91   3.703   2.508   4.136
    1C        C   92   3.903   2.572   4.259
    1C        C   93   3.837   2.541   4.380
    1C        C   94   4.031   2.630   4.501
    1C        C   95   3.908   2.561   4.501
    1C        C   96   4.093   2.668   4.622
    1C        C   97   4.034   2.623   4.742
    1C        C   98   4.191   2.767   4.864
    1C        C   99   4.099   2.657   4.864
    1C        C  100   4.215   2.847   4.976
    1C        C  101   2.825   2.737   2.069
    1C        C  102   2.990   2.597   2.192
    1C        C  103   2.878   2.686   2.188
    1C        C  104   3.065   2.582   2.312
    1C        C  105   3.001   2.621   2.432
    1C        C  106   3.200   2.540   2.549
    1C        C  107   3.070   2.595   2.553
    1C        C  108   3.271   2.528   2.671
    1C        C  109   3.207   2.549   2.795
    1C        C  110   3.413   2.499   2.915
    1C        C  111   3.274   2.525   2.917
    1C        C  112   3.486   2.488   3.035
    1C        C  113   3.416   2.502   3.157
    1C        C  114   3.626   2.498   3.282
    1C        C  115   3.485   2.495   3.280
    1C        C  116   3.697   2.510   3.404
    1C        C  117   3.627   2.501   3.526
    1C        C  118   3.835   2.544   3.646
    1C        C  119   3.698   2.509   3.648
    1C        C  120   3.902   2.568   3.769
    1C        C  121   3.834   2.549   3.891
    1C        C  122   4.030   2.632   4.013
    1C        C  123   3.902   2.571   4.012
    1C        C  124   4.092   2.671   4.134
    1C        C  125   4.030   2.635   4.255
    1C        C  126   4.197   2.761   4.379
    1C        C  127   4.089   2.670   4.378
    1C        C  128   4.240   2.821   4.499
    1C        C  129   4.191   2.770   4.621
    1C        C  130   4.322   2.939   4.740
    1C        C  131   4.241   2.822   4.743
    1C        C  132   4.354   3.009   4.859
    1C        C  133   4.282   2.968   4.972
    1C        C  134   3.172   2.474   2.084
    1C        C  135   3.036   2.505   2.092
    1C        C  136   3.262   2.489   2.190
    1C        C  137   3.198   2.533   2.308
    1C        C  138   3.407   2.483   2.432
    1C        C  139   3.270   2.515   2.429
    1C        C  140   3.483   2.485   2.551
    1C        C  141   3.410   2.504   2.670
    1C        C  142   3.623   2.491   2.792
    1C        C  143   3.482   2.495   2.791
    1C        C  144   3.694   2.506   2.914
    1C        C  145   3.627   2.496   3.038
    1C        C  146   3.834   2.538   3.158
    1C        C  147   3.697   2.503   3.160
    1C        C  148   3.901   2.565   3.279
    1C        C  149   3.835   2.542   3.402
    1C        C  150   4.031   2.624   3.524
    1C        C  151   3.903   2.563   3.524
    1C        C  152   4.086   2.673   3.644
    1C        C  153   4.025   2.638   3.766
    1C        C  154   4.193   2.763   3.891
    1C        C  155   4.087   2.669   3.889
    1C        C  156   4.247   2.814   4.011
    1C        C  157   4.198   2.765   4.134
    1C        C  158   4.337   2.921   4.253
    1C        C  159   4.251   2.809   4.257
    1C        C  160   4.372   2.986   4.374
    1C        C  161   4.330   2.930   4.497
    1C        C  162   4.438   3.115   4.617
    1C        C  163   4.367   2.993   4.618
    1C        C  164   4.464   3.187   4.736
    1C        C  165   4.432   3.127   4.859
    1C        C  166   4.517   3.322   4.976
    1C        C  167   4.476   3.189   4.976
    1C        C  168   3.475   2.444   2.073
    1C        C  169   3.399   2.456   2.190
    1C        C  170   3.617   2.470   2.307
    1C        C  171   3.475   2.462   2.309
    1C        C  172   3.694   2.488   2.425
    1C        C  173   3.624   2.487   2.548
    1C        C  174   3.829   2.539   2.668
    1C        C  175   3.694   2.498   2.670
    1C        C  176   3.896   2.566   2.790
    1C        C  177   3.831   2.540   2.913
    1C        C  178   4.024   2.625   3.034
    1C        C  179   3.900   2.558   3.035
    1C        C  180   4.086   2.663   3.155
    1C        C  181   4.029   2.627   3.279
    1C        C  182   4.200   2.748   3.400
    1C        C  183   4.092   2.657   3.401
    1C        C  184   4.249   2.803   3.521
    1C        C  185   4.197   2.761   3.645
    1C        C  186   4.335   2.919   3.765
    1C        C  187   4.244   2.811   3.768
    1C        C  188   4.375   2.981   3.885
    1C        C  189   4.337   2.923   4.008
    1C        C  190   4.445   3.104   4.128
    1C        C  191   4.377   2.980   4.131
    1C        C  192   4.465   3.174   4.249
    1C        C  193   4.434   3.113   4.373
    1C        C  194   4.497   3.317   4.494
    1C        C  195   4.461   3.181   4.494
    1C        C  196   4.518   3.388   4.614
    1C        C  197   4.512   3.321   4.738
    1C        C  198   4.562   3.535   4.852
    1C        C  199   4.530   3.396   4.858
    1C        C  200   4.580   3.619   4.966
    1C        C  201   3.613   2.420   2.075
    1C        C  202   3.828   2.505   2.187
    1C        C  203   3.692   2.460   2.187
    1C        C  204   3.902   2.538   2.304
    1C        C  205   3.832   2.517   2.424
    1C        C  206   4.025   2.613   2.544
    1C        C  207   3.897   2.553   2.545
    1C        C  208   4.084   2.658   2.664
    1C        C  209   4.023   2.626   2.788
    1C        C  210   4.195   2.749   2.911
    1C        C  211   4.080   2.667   2.911
    1C        C  212   4.245   2.800   3.032
    1C        C  213   4.197   2.751   3.156
    1C        C  214   4.338   2.909   3.272
    1C        C  215   4.251   2.798   3.278
    1C        C  216   4.378   2.968   3.395
    1C        C  217   4.338   2.912   3.519
    1C        C  218   4.434   3.102   3.640
    1C        C  219   4.371   2.976   3.641
    1C        C  220   4.463   3.172   3.759
    1C        C  221   4.439   3.107   3.882
    1C        C  222   4.499   3.308   4.006
    1C        C  223   4.467   3.171   4.005
    1C        C  224   4.511   3.382   4.126
    1C        C  225   4.499   3.311   4.247
    1C        C  226   4.522   3.522   4.367
    1C        C  227   4.513   3.381   4.369
    1C        C  228   4.525   3.598   4.486
    1C        C  229   4.529   3.529   4.609
    1C        C  230   4.511   3.742   4.728
    1C        C  231   4.545   3.604   4.728
    1C        C  232   4.499   3.818   4.846
    1C        C  233   4.550   3.756   4.962
    1C        C  234   4.014   2.617   2.065
    1C        C  235   3.895   2.545   2.070
    1C        C  236   4.085   2.649   2.181
    1C        C  237   4.027   2.606   2.302
    1C        C  238   4.203   2.731   2.422
    1C        C  239   4.087   2.650   2.423
    1C        C  240   4.253   2.782   2.544
    1C        C  241   4.196   2.744   2.667
    1C        C  242   4.338   2.904   2.784
    1C        C  243   4.250   2.793   2.788
    1C        C  244   4.378   2.963   2.906
    1C        C  245   4.336   2.908   3.029
    1C        C  246   4.444   3.093   3.150
    1C        C  247   4.380   2.967   3.150
    1C        C  248   4.458   3.162   3.273
    1C        C  249   4.434   3.097   3.396
    1C        C  250   4.494   3.303   3.514
    1C        C  251   4.456   3.167   3.516
    1C        C  252   4.507   3.375   3.635
    1C        C  253   4.493   3.310   3.760
    1C        C  254   4.520   3.518   3.879
    1C        C  255   4.511   3.377   3.883
    1C        C  256   4.514   3.592   3.999
    1C        C  257   4.520   3.523   4.122
    1C        C  258   4.492   3.733   4.244
    1C        C  259   4.512   3.593   4.245
    1C        C  260   4.475   3.804   4.364
    1C        C  261   4.496   3.736   4.486
    1C        C  262   4.427   3.939   4.602
    1C        C  263   4.479   3.807   4.607
    1C        C  264   4.405   4.012   4.721
    1C        C  265   4.436   3.944   4.841
    1C        C  266   4.329   4.135   4.955
    1C        C  267   4.408   4.020   4.955
    1C        C  268   4.264   2.773   2.062
    1C        C  269   4.196   2.736   2.178
    1C        C  270   4.346   2.886   2.298
    1C        C  271   4.257   2.776   2.299
    1C        C  272   4.386   2.949   2.418
    1C        C  273   4.341   2.893   2.540
    1C        C  274   4.446   3.081   2.660
    1C        C  275   4.379   2.956   2.660
    1C        C  276   4.470   3.150   2.780
    1C        C  277   4.445   3.087   2.904
    1C        C  278   4.501   3.292   3.025
    1C        C  279   4.473   3.154   3.026
    1C        C  280   4.509   3.363   3.146
    1C        C  281   4.496   3.298   3.271
    1C        C  282   4.523   3.512   3.389
    1C        C  283   4.514   3.371   3.391
    1C        C  284   4.517   3.585   3.510
    1C        C  285   4.516   3.516   3.633
    1C        C  286   4.489   3.725   3.754
    1C        C  287   4.516   3.587   3.756
    1C        C  288   4.478   3.799   3.874
    1C        C  289   4.491   3.731   3.997
    1C        C  290   4.428   3.932   4.118
    1C        C  291   4.473   3.798   4.120
    1C        C  292   4.400   4.002   4.238
    1C        C  293   4.432   3.939   4.360
    1C        C  294   4.328   4.127   4.479
    1C        C  295   4.398   4.004   4.480
    1C        C  296   4.289   4.192   4.598
    1C        C  297   4.328   4.131   4.720
    1C        C  298   4.199   4.312   4.840
    1C        C  299   4.285   4.198   4.838
    1C        C  300   4.168   4.404   4.946
    1C        C  301   4.353   2.880   2.064
    1C        C  302   4.466   3.072   2.180
    1C        C  303   4.396   2.947   2.179
    1C        C  304   4.477   3.145   2.302
    1C        C  305   4.446   3.077   2.422
    1C        C  306   4.504   3.286   2.538
    1C        C  307   4.478   3.148   2.539
    1C        C  308   4.516   3.358   2.659
    1C        C  309   4.503   3.288   2.781
    1C        C  310   4.525   3.500   2.901
    1C        C  311   4.519   3.359   2.902
    1C        C  312   4.521   3.575   3.021
    1C        C  313   4.523   3.504   3.143
    1C        C  314   4.486   3.714   3.262
    1C        C  315   4.521   3.577   3.264
    1C        C  316   4.472   3.787   3.383
    1C        C  317   4.494   3.724   3.507
    1C        C  318   4.429   3.926   3.629
    1C        C  319   4.474   3.792   3.630
    1C        C  320   4.397   3.991   3.750
    1C        C  321   4.432   3.933   3.874
    1C        C  322   4.319   4.113   3.993
    1C        C  323   4.400   3.997   3.996
    1C        C  324   4.280   4.174   4.114
    1C        C  325   4.330   4.124   4.236
    1C        C  326   4.189   4.286   4.354
    1C        C  327   4.289   4.186   4.357
    1C        C  328   4.136   4.335   4.476
    1C        C  329   4.194   4.297   4.598
    1C        C  330   4.025   4.435   4.715
    1C        C  331   4.140   4.351   4.717
    1C        C  332   3.972   4.491   4.833
    1C        C  333   4.051   4.480   4.948
    1C        C  334   4.553   3.270   2.066
    1C        C  335   4.533   3.131   2.069
    1C        C  336   4.538   3.352   2.178
    1C        C  337   4.510   3.283   2.298
    1C        C  338   4.526   3.499   2.414
    1C        C  339   4.516   3.358   2.417
    1C        C  340   4.518   3.571   2.535
    1C        C  341   4.521   3.499   2.657
    1C        C  342   4.491   3.709   2.775
    1C        C  343   4.521   3.571   2.779
    1C        C  344   4.477   3.780   2.896
    1C        C  345   4.500   3.714   3.019
    1C        C  346   4.423   3.915   3.140
    1C        C  347   4.475   3.783   3.140
    1C        C  348   4.394   3.982   3.261
    1C        C  349   4.425   3.920   3.384
    1C        C  350   4.327   4.109   3.504
    1C        C  351   4.400   3.988   3.505
    1C        C  352   4.282   4.168   3.624
    1C        C  353   4.321   4.110   3.747
    1C        C  354   4.181   4.270   3.866
    1C        C  355   4.278   4.167   3.869
    1C        C  356   4.126   4.316   3.987
    1C        C  357   4.181   4.275   4.110
    1C        C  358   4.010   4.400   4.230
    1C        C  359   4.129   4.323   4.232
    1C        C  360   3.952   4.442   4.352
    1C        C  361   4.022   4.418   4.473
    1C        C  362   3.831   4.517   4.593
    1C        C  363   3.963   4.465   4.592
    1C        C  364   3.764   4.546   4.714
    1C        C  365   3.839   4.539   4.834
    1C        C  366   3.631   4.596   4.950
    1C        C  367   3.767   4.568   4.951
    1C        C  368   4.514   3.565   2.052
    1C        C  369   4.531   3.493   2.172
    1C        C  370   4.511   3.709   2.291
    1C        C  371   4.523   3.569   2.291
    1C        C  372   4.498   3.783   2.411
    1C        C  373   4.506   3.711   2.532
    1C        C  374   4.431   3.913   2.650
    1C        C  375   4.480   3.780   2.653
    1C        C  376   4.397   3.975   2.772
    1C        C  377   4.427   3.912   2.895
    1C        C  378   4.321   4.098   3.012
    1C        C  379   4.392   3.976   3.016
    1C        C  380   4.276   4.154   3.134
    1C        C  381   4.316   4.100   3.258
    1C        C  382   4.178   4.257   3.378
    1C        C  383   4.281   4.160   3.381
    1C        C  384   4.123   4.306   3.499
    1C        C  385   4.182   4.267   3.622
    1C        C  386   4.007   4.389   3.744
    1C        C  387   4.126   4.313   3.743
    1C        C  388   3.944   4.428   3.864
    1C        C  389   4.008   4.394   3.985
    1C        C  390   3.822   4.496   4.108
    1C        C  391   3.949   4.435   4.107
    1C        C  392   3.753   4.517   4.230
    1C        C  393   3.823   4.499   4.351
    1C        C  394   3.617   4.547   4.476
    1C        C  395   3.756   4.522   4.474
    1C        C  396   3.549   4.568   4.598
    1C        C  397   3.624   4.565   4.718
    1C        C  398   3.412   4.546   4.839
    1C        C  399   3.550   4.574   4.838
    1C        C  400   3.342   4.521   4.958
    1C        C  401   4.508   3.704   2.053
    1C        C  402   4.459   3.916   2.165
    1C        C  403   4.495   3.780   2.170
    1C        C  404   4.422   3.980   2.285
    1C        C  405   4.446   3.914   2.408
    1C        C  406   4.334   4.100   2.527
    1C        C  407   4.411   3.981   2.528
    1C        C  408   4.283   4.156   2.647
    1C        C  409   4.324   4.095   2.768
    1C        C  410   4.181   4.253   2.888
    1C        C  411   4.282   4.154   2.889
    1C        C  412   4.125   4.297   3.010
    1C        C  413   4.174   4.252   3.134
    1C        C  414   4.003   4.377   3.250
    1C        C  415   4.121   4.300   3.256
    1C        C  416   3.946   4.414   3.374
    1C        C  417   4.005   4.384   3.499
    1C        C  418   3.814   4.476   3.619
    1C        C  419   3.943   4.419   3.621
    1C        C  420   3.748   4.501   3.741
    1C        C  421   3.813   4.482   3.864
    1C        C  422   3.611   4.537   3.987
    1C        C  423   3.750   4.510   3.988
    1C        C  424   3.543   4.543   4.111
    1C        C  425   3.614   4.540   4.232
    1C        C  426   3.404   4.549   4.358
    1C        C  427   3.545   4.549   4.355
    1C        C  428   3.334   4.545   4.480
    1C        C  429   3.408   4.560   4.600
    1C        C  430   3.196   4.519   4.724
    1C        C  431   3.336   4.541   4.720
    1C        C  432   3.126   4.492   4.845
    1C        C  433   3.206   4.493   4.961
    1C        C  434   4.381   4.116   2.049
    1C        C  435   4.452   3.994   2.049
    1C        C  436   4.305   4.162   2.161
    1C        C  437   4.339   4.095   2.282
    1C        C  438   4.187   4.245   2.402
    1C        C  439   4.291   4.150   2.403
    1C        C  440   4.127   4.293   2.521
    1C        C  441   4.178   4.251   2.645
    1C        C  442   4.006   4.376   2.765
    1C        C  443   4.124   4.298   2.767
    1C        C  444   3.943   4.410   2.887
    1C        C  445   4.006   4.373   3.008
    1C        C  446   3.814   4.472   3.132
    1C        C  447   3.940   4.409   3.128
    1C        C  448   3.747   4.493   3.255
    1C        C  449   3.818   4.474   3.375
    1C        C  450   3.610   4.529   3.497
    1C        C  451   3.748   4.496   3.495
    1C        C  452   3.542   4.540   3.620
    1C        C  453   3.611   4.535   3.743
    1C        C  454   3.400   4.542   3.866
    1C        C  455   3.541   4.545   3.865
    1C        C  456   3.331   4.535   3.990
    1C        C  457   3.401   4.542   4.112
    1C        C  458   3.194   4.511   4.238
    1C        C  459   3.333   4.538   4.236
    1C        C  460   3.128   4.491   4.361
    1C        C  461   3.197   4.512   4.483
    1C        C  462   2.997   4.440   4.604
    1C        C  463   3.125   4.498   4.604
    1C        C  464   2.932   4.398   4.722
    1C        C  465   2.993   4.441   4.843
    1C        C  466   2.800   4.343   4.959
    1C        C  467   2.910   4.430   4.960
    1C        C  468   4.127   4.285   2.040
    1C        C  469   4.189   4.245   2.159
    1C        C  470   4.012   4.369   2.281
    1C        C  471   4.131   4.291   2.281
    1C        C  472   3.944   4.401   2.400
    1C        C  473   4.008   4.369   2.522
    1C        C  474   3.811   4.456   2.642
    1C        C  475   3.943   4.405   2.642
    1C        C  476   3.750   4.489   2.765
    1C        C  477   3.815   4.469   2.888
    1C        C  478   3.607   4.521   3.008
    1C        C  479   3.745   4.489   3.010
    1C        C  480   3.539   4.527   3.131
    1C        C  481   3.608   4.519   3.254
    1C        C  482   3.396   4.537   3.378
    1C        C  483   3.538   4.535   3.376
    1C        C  484   3.329   4.531   3.502
    1C        C  485   3.400   4.541   3.624
    1C        C  486   3.190   4.502   3.747
    1C        C  487   3.328   4.535   3.745
    1C        C  488   3.125   4.482   3.871
    1C        C  489   3.195   4.499   3.993
    1C        C  490   3.004   4.416   4.117
    1C        C  491   3.128   4.482   4.117
    1C        C  492   2.945   4.382   4.241
    1C        C  493   3.001   4.429   4.362
    1C        C  494   2.833   4.301   4.485
    1C        C  495   2.937   4.397   4.484
    1C        C  496   2.777   4.251   4.605
    1C        C  497   2.821   4.308   4.726
    1C        C  498   2.672   4.159   4.848
    1C        C  499   2.756   4.273   4.846
    1C        C  500   2.603   4.111   4.960
    1C        C  501   4.009   4.358   2.045
    1C        C  502   3.820   4.468   2.159
    1C        C  503   3.944   4.401   2.161
    1C        C  504   3.745   4.482   2.278
    1C        C  505   3.812   4.451   2.399
    1C        C  506   3.605   4.507   2.522
    1C        C  507   3.743   4.477   2.520
    1C        C  508   3.537   4.521   2.645
    1C        C  509   3.611   4.518   2.765
    1C        C  510   3.396   4.527   2.885
    1C        C  511   3.538   4.527   2.885
    1C        C  512   3.329   4.522   3.009
    1C        C  513   3.398   4.526   3.132
    1C        C  514   3.190   4.496   3.257
    1C        C  515   3.327   4.531   3.254
    1C        C  516   3.123   4.473   3.379
    1C        C  517   3.192   4.497   3.500
    1C        C  518   3.001   4.414   3.625
    1C        C  519   3.127   4.477   3.623
    1C        C  520   2.942   4.379   3.748
    1C        C  521   3.000   4.416   3.871
    1C        C  522   2.837   4.287   3.997
    1C        C  523   2.943   4.381   3.995
    1C        C  524   2.791   4.238   4.121
    1C        C  525   2.838   4.289   4.244
    1C        C  526   2.700   4.131   4.368
    1C        C  527   2.781   4.246   4.365
    1C        C  528   2.651   4.075   4.489
    1C        C  529   2.680   4.148   4.607
    1C        C  530   2.585   3.959   4.733
    1C        C  531   2.643   4.089   4.729
    1C        C  532   2.541   3.898   4.854
    1C        C  533   2.532   3.991   4.963
    1C        C  534   3.620   4.549   2.040
    1C        C  535   3.753   4.506   2.041
    1C        C  536   3.536   4.536   2.155
    1C        C  537   3.608   4.517   2.277
    1C        C  538   3.395   4.510   2.402
    1C        C  539   3.537   4.516   2.399
    1C        C  540   3.323   4.512   2.523
    1C        C  541   3.396   4.521   2.643
    1C        C  542   3.185   4.487   2.768
    1C        C  543   3.323   4.517   2.764
    1C        C  544   3.122   4.462   2.893
    1C        C  545   3.192   4.489   3.013
    1C        C  546   2.997   4.408   3.133
    1C        C  547   3.122   4.475   3.135
    1C        C  548   2.940   4.369   3.256
    1C        C  549   2.996   4.410   3.379
    1C        C  550   2.827   4.288   3.508
    1C        C  551   2.939   4.375   3.504
    1C        C  552   2.781   4.237   3.631
    1C        C  553   2.833   4.288   3.751
    1C        C  554   2.705   4.121   3.878
    1C        C  555   2.790   4.234   3.874
    1C        C  556   2.664   4.064   4.000
    1C        C  557   2.702   4.128   4.120
    1C        C  558   2.610   3.942   4.249
    1C        C  559   2.668   4.071   4.244
    1C        C  560   2.573   3.878   4.369
    1C        C  561   2.597   3.945   4.491
    1C        C  562   2.529   3.748   4.617
    1C        C  563   2.562   3.886   4.615
    1C        C  564   2.514   3.679   4.739
    1C        C  565   2.521   3.757   4.857
    1C        C  566   2.533   3.547   4.978
    1C        C  567   2.525   3.686   4.978
    1C        C  568   3.327   4.478   2.042
    1C        C  569   3.396   4.514   2.158
    1C        C  570   3.185   4.482   2.281
    1C        C  571   3.323   4.514   2.280
    1C        C  572   3.117   4.460   2.403
    1C        C  573   3.183   4.489   2.524
    1C        C  574   2.989   4.407   2.649
    1C        C  575   3.116   4.467   2.647
    1C        C  576   2.928   4.365   2.770
    1C        C  577   2.993   4.404   2.889
    1C        C  578   2.826   4.278   3.017
    1C        C  579   2.937   4.365   3.013
    1C        C  580   2.777   4.228   3.140
    1C        C  581   2.835   4.275   3.260
    1C        C  582   2.709   4.112   3.387
    1C        C  583   2.788   4.229   3.385
    1C        C  584   2.668   4.055   3.510
    1C        C  585   2.702   4.119   3.631
    1C        C  586   2.602   3.936   3.757
    1C        C  587   2.667   4.061   3.755
    1C        C  588   2.578   3.872   3.881
    1C        C  589   2.605   3.935   4.004
    1C        C  590   2.540   3.738   4.129
    1C        C  591   2.585   3.872   4.129
    1C        C  592   2.523   3.672   4.252
    1C        C  593   2.536   3.742   4.375
    1C        C  594   2.516   3.532   4.499
    1C        C  595   2.522   3.673   4.497
    1C        C  596   2.518   3.463   4.622
    1C        C  597   2.511   3.536   4.743
    1C        C  598   2.527   3.326   4.865
    1C        C  599   2.530   3.467   4.864
    1C        C  600   2.537   3.247   4.981
    1C        C  601   3.195   4.437   2.044
    1C        C  602   2.982   4.400   2.161
    1C        C  603   3.118   4.447   2.161
    1C        C  604   2.928   4.357   2.285
    1C        C  605   2.989   4.399   2.406
    1C        C  606   2.823   4.271   2.527
    1C        C  607   2.928   4.366   2.528
    1C        C  608   2.772   4.223   2.650
    1C        C  609   2.826   4.267   2.772
    1C        C  610   2.688   4.113   2.898
    1C        C  611   2.777   4.222   2.897
    1C        C  612   2.653   4.054   3.022
    1C        C  613   2.696   4.113   3.143
    1C        C  614   2.590   3.933   3.267
    1C        C  615   2.662   4.055   3.267
    1C        C  616   2.571   3.866   3.390
    1C        C  617   2.602   3.930   3.512
    1C        C  618   2.538   3.731   3.639
    1C        C  619   2.577   3.867   3.636
    1C        C  620   2.521   3.665   3.763
    1C        C  621   2.536   3.737   3.883
    1C        C  622   2.518   3.527   4.011
    1C        C  623   2.532   3.668   4.006
    1C        C  624   2.518   3.458   4.134
    1C        C  625   2.524   3.531   4.255
    1C        C  626   2.536   3.320   4.381
    1C        C  627   2.520   3.461   4.377
    1C        C  628   2.558   3.250   4.502
    1C        C  629   2.541   3.323   4.621
    1C        C  630   2.597   3.122   4.746
    1C        C  631   2.548   3.255   4.745
    1C        C  632   2.621   3.049   4.866
    1C        C  633   2.564   3.110   4.982
    1C        C  634   2.784   4.300   2.056
    1C        C  635   2.893   4.389   2.050
    1C        C  636   2.751   4.226   2.170
    1C        C  637   2.814   4.272   2.287
    1C        C  638   2.680   4.107   2.409
    1C        C  639   2.765   4.219   2.409
    1C        C  640   2.641   4.050   2.532
    1C        C  641   2.684   4.113   2.652
    1C        C  642   2.591   3.926   2.779
    1C        C  643   2.647   4.055   2.775
    1C        C  644   2.563   3.860   2.901
    1C        C  645   2.592   3.926   3.022
    1C        C  646   2.532   3.726   3.150
    1C        C  647   2.565   3.864   3.146
    1C        C  648   2.515   3.660   3.274
    1C        C  649   2.535   3.730   3.395
    1C        C  650   2.508   3.521   3.520
    1C        C  651   2.516   3.662   3.518
    1C        C  652   2.514   3.452   3.643
    1C        C  653   2.512   3.524   3.765
    1C        C  654   2.537   3.317   3.892
    1C        C  655   2.514   3.457   3.889
    1C        C  656   2.556   3.249   4.014
    1C        C  657   2.532   3.317   4.136
    1C        C  658   2.598   3.118   4.259
    1C        C  659   2.549   3.251   4.259
    1C        C  660   2.633   3.053   4.379
    1C        C  661   2.602   3.116   4.502
    1C        C  662   2.706   2.935   4.623
    1C        C  663   2.629   3.054   4.626
    1C        C  664   2.750   2.876   4.743
    1C        C  665   2.699   2.929   4.865
    1C        C  666   2.740   2.865   4.983
    1C        C  667   2.689   4.020   2.053
    1C        C  668   2.685   4.101   2.167
    1C        C  669   2.592   3.909   2.294
    1C        C  670   2.645   4.041   2.289
    1C        C  671   2.558   3.850   2.417
    1C        C  672   2.584   3.921   2.537
    1C        C  673   2.518   3.721   2.661
    1C        C  674   2.563   3.855   2.660
    1C        C  675   2.511   3.651   2.784
    1C        C  676   2.530   3.722   2.904
    1C        C  677   2.504   3.515   3.033
    1C        C  678   2.519   3.655   3.028
    1C        C  679   2.509   3.445   3.156
    1C        C  680   2.505   3.519   3.276
    1C        C  681   2.527   3.309   3.403
    1C        C  682   2.508   3.449   3.399
    1C        C  683   2.547   3.240   3.525
    1C        C  684   2.534   3.312   3.646
    1C        C  685   2.600   3.114   3.772
    1C        C  686   2.554   3.247   3.770
    1C        C  687   2.634   3.053   3.895
    1C        C  688   2.600   3.115   4.017
    1C        C  689   2.715   2.938   4.139
    1C        C  690   2.631   3.051   4.139
    1C        C  691   2.760   2.880   4.260
    1C        C  692   2.716   2.938   4.380
    1C        C  693   2.752   2.878   4.503
    1C        C  694   2.636   3.891   2.057
    1C        C  695   2.537   3.702   2.178
    1C        C  696   2.585   3.835   2.174
    1C        C  697   2.515   3.637   2.301
    1C        C  698   2.521   3.714   2.420
    1C        C  699   2.487   3.505   2.545
    1C        C  700   2.505   3.646   2.543
    1C        C  701   2.497   3.436   2.668
    1C        C  702   2.500   3.510   2.789
    1C        C  703   2.517   3.301   2.914
    1C        C  704   2.501   3.442   2.912
    1C        C  705   2.537   3.234   3.037
    1C        C  706   2.528   3.305   3.159
    1C        C  707   2.598   3.108   3.281
    1C        C  708   2.546   3.239   3.282
    1C        C  709   2.633   3.046   3.403
    1C        C  710   2.601   3.110   3.526
    1C        C  711   2.708   2.931   3.650
    1C        C  712   2.628   3.048   3.650
    1C        C  713   2.758   2.880   3.771
    1C        C  714   2.717   2.938   3.893
    1C        C  715   2.760   2.883   4.016
    1C        C  716   2.452   3.500   2.065
    1C        C  717   2.494   3.634   2.063
    1C        C  718   2.465   3.424   2.185
    1C        C  719   2.481   3.499   2.305
    1C        C  720   2.503   3.289   2.429
    1C        C  721   2.483   3.429   2.427
    1C        C  722   2.533   3.224   2.551
    1C        C  723   2.515   3.296   2.671
    1C        C  724   2.589   3.099   2.794
    1C        C  725   2.533   3.229   2.794
    1C        C  726   2.612   3.033   2.917
    1C        C  727   2.576   3.098   3.038
    1C        C  728   2.705   2.926   3.160
    1C        C  729   2.622   3.041   3.159
    1C        C  730   2.754   2.872   3.281
    1C        C  731   2.708   2.926   3.404
    1C        C  732   2.754   2.877   3.528
    1C        C  733   2.481   3.198   2.075
    1C        C  734   2.479   3.281   2.187
    1C        C  735   2.580   3.089   2.307
    1C        C  736   2.520   3.218   2.308
    1C        C  737   2.615   3.026   2.429
    1C        C  738   2.591   3.095   2.549
    1C        C  739   2.704   2.918   2.673
    1C        C  740   2.627   3.037   2.673
    1C        C  741   2.743   2.863   2.797
    1C        C  742   2.697   2.920   2.917
    1C        C  743   2.750   2.870   3.039
    1C        C  744   2.545   3.075   2.075
    1C        C  745   2.683   2.900   2.188
    1C        C  746   2.603   3.016   2.189
    1C        C  747   2.727   2.844   2.310
    1C        C  748   2.689   2.906   2.431
    1C        C  749   2.737   2.851   2.552
    1C        C  750   2.734   2.842   2.071
    1C        C  751   3.663   2.326   1.972
    1C        O  752   3.668   2.202   1.991
    1C        O  753   3.619   2.355   1.842
    1C        C  754   4.631   3.065   1.980
    1C        O  755   4.595   3.030   1.864
    1C        O  756   4.751   3.003   2.016
    1C        C  757   4.423   4.209   1.942
    1C        O  758   4.467   4.324   1.967
    1C        O  759   4.379   4.196   1.810
    1C        C  760   3.590   4.639   1.925
    1C        O  761   3.533   4.750   1.938
    1C        O  762   3.590   4.587   1.795
    1C        C  763   2.874   4.497   1.952
    1C        O  764   2.935   4.490   1.842
    1C        O  765   2.789   4.608   1.962
    1C        C  766   2.344   3.466   1.969
    1C        O  767   2.360   3.468   1.844
    1C        O  768   2.211   3.504   1.993
    1C        C  769   4.682   3.585   5.068
    1C        O  770   4.670   3.528   5.180
    1C        O  771   4.810   3.639   5.052
    1C        C  772   4.263   4.452   5.049
    1C        O  773   4.226   4.428   5.167
    1C        O  774   4.328   4.576   5.036
    1C        C  775   4.155   2.509   5.057
    1C        O  776   4.228   2.424   4.998
    1C        O  777   4.181   2.528   5.193
    1C        C  778   2.889   4.552   5.041
    1C        O  779   2.813   4.648   5.013
    1C        O  780   2.941   4.555   5.171
    1C        C  781   2.482   3.029   5.074
    1C        O  782   2.360   3.010   5.046
    1C        O  783   2.517   3.013   5.207
    1C        C  784   2.403   4.010   5.033
    1C        O  785   2.302   4.068   4.985
    1C        O  786   2.392   3.996   5.172
    1C        C  787   2.937   2.439   2.003
    1C        O  788   2.956   2.448   1.879
    1C        O  789   2.897   2.307   2.022
    1C        C  790   3.197   2.390   5.078
    1C        O  791   3.175   2.269   5.051
    1C        O  792   3.196   2.399   5.218
    1C        H  793   4.258   3.041   5.047
    1C        H  794   4.217   2.799   5.072
    1C        H  795   4.467   3.137   5.069
    1C        H  796   4.490   3.367   5.070
    1C        H  797   4.599   3.811   5.039
    1C        H  798   4.461   4.002   5.046
    1C        H  799   4.312   4.182   5.049
    1C        H  800   4.009   4.502   5.044
    1C        H  801   3.822   4.591   5.040
    1C        H  802   3.612   4.685   5.006
    1C        H  803   3.399   4.509   5.048
    1C        H  804   3.160   4.494   5.058
    1C        H  805   3.908   2.460   5.053
    1C        H  806   3.681   2.462   5.076
    1C        H  807   3.014   2.567   5.074
    1C        H  808   3.449   2.519   5.073
    1C        H  809   2.918   2.791   5.064
    1C        H  810   2.731   2.916   5.077
    1C        H  811   2.560   3.301   5.071
    1C        H  812   2.523   3.495   5.071
    1C        H  813   2.462   3.720   5.058
    1C        H  814   2.567   4.194   5.017
    1C        H  815   2.721   4.370   5.026
    1C        H  816   2.679   2.850   1.980
    1C        H  817   2.894   2.731   1.987
    1C        H  818   3.192   2.383   2.031
    1C        H  819   3.422   2.439   1.980
    1C        H  820   3.878   2.490   1.980
    1C        H  821   4.036   2.678   1.979
    1C        H  822   4.287   2.695   1.992
    1C        H  823   4.399   2.911   1.972
    1C        H  824   4.558   3.315   1.969
    1C        H  825   4.480   3.516   1.963
    1C        H  826   4.539   3.755   1.964
    1C        H  827   3.804   4.495   1.948
    1C        H  828   3.951   4.353   1.955
    1C        H  829   4.192   4.330   1.968
    1C        H  830   4.536   3.987   1.984
    1C        H  831   2.660   3.829   1.972
    1C        H  832   2.678   4.068   1.958
    1C        H  833   2.721   4.291   1.970
    1C        H  834   3.384   4.424   1.969
    1C        H  835   3.144   4.419   1.952
    1C        H  836   2.577   3.042   1.979
    1C        H  837   2.426   3.225   1.987
    1C        H  838   2.467   3.689   1.976
    2V3OU   H29  839   2.815   3.546   2.507
    2V3OU   C27  840   2.790   3.498   2.605
    2V3OU   H27  841   2.733   3.566   2.673
    2V3OU   H28  842   2.742   3.400   2.581
    2V3OU   O11  843   2.912   3.467   2.674
    2V3OU   C15  844   2.921   3.406   2.797
    2V3OU   C13  845   3.050   3.377   2.847
    2V3OU   C14  846   3.081   3.270   2.932
    2V3OU   C16  847   2.979   3.190   2.982
    2V3OU    H6  848   2.992   3.112   3.059
    2V3OU   C12  849   3.218   3.226   2.969
    2V3OU    O2  850   3.239   3.129   3.044
    2V3OU   C10  851   3.328   3.309   2.918
    2V3OU    C8  852   3.456   3.271   2.957
    2V3OU   O10  853   3.485   3.156   3.024
    2V3OU   H26  854   3.401   3.115   3.047
    2V3OU    C6  855   3.568   3.352   2.920
    2V3OU    C5  856   3.539   3.470   2.851
    2V3OU    C4  857   3.705   3.296   2.931
    2V3OU    H4  858   3.722   3.229   3.021
    2V3OU    H5  859   3.713   3.230   2.840
    2V3OU    C2  860   3.817   3.400   2.926
    2V3OU    O6  861   3.811   3.480   3.044
    2V3OU   H21  862   3.756   3.557   3.023
    2V3OU    C3  863   3.785   3.496   2.811
    2V3OU    H2  864   3.863   3.574   2.792
    2V3OU    H3  865   3.785   3.442   2.712
    2V3OU   C25  866   3.949   3.324   2.918
    2V3OU    O7  867   3.996   3.297   2.808
    2V3OU   C26  868   4.035   3.290   3.039
    2V3OU   H22  869   4.062   3.385   3.091
    2V3OU   H23  870   4.122   3.227   3.009
    2V3OU    O8  871   3.962   3.212   3.131
    2V3OU   H24  872   3.926   3.268   3.203
    2V3OU    C1  873   3.652   3.566   2.830
    2V3OU    H1  874   3.629   3.618   2.732
    2V3OU    O3  875   3.655   3.659   2.939
    2V3OU   C19  876   3.614   3.796   2.935
    2V3OU    H9  877   3.517   3.806   2.878
    2V3OU    O4  878   3.720   3.855   2.863
    2V3OU   C20  879   3.849   3.872   2.922
    2V3OU   H10  880   3.888   3.766   2.928
    2V3OU   C24  881   3.616   3.860   3.073
    2V3OU   H16  882   3.545   3.796   3.133
    2V3OU   H17  883   3.568   3.961   3.061
    2V3OU   C23  884   3.749   3.871   3.147
    2V3OU   H15  885   3.792   3.770   3.176
    2V3OU    N1  886   3.737   3.955   3.265
    2V3OU   H19  887   3.814   3.922   3.320
    2V3OU   H20  888   3.649   3.937   3.309
    2V3OU   C21  889   3.849   3.949   3.055
    2V3OU   H11  890   3.955   3.927   3.085
    2V3OU    O5  891   3.828   4.089   3.059
    2V3OU   H18  892   3.784   4.110   3.143
    2V3OU   C22  893   3.918   3.952   2.813
    2V3OU   H12  894   3.861   4.047   2.798
    2V3OU   H13  895   3.904   3.899   2.715
    2V3OU   H14  896   4.029   3.957   2.831
    2V3OU   C11  897   3.160   3.469   2.814
    2V3OU    O1  898   3.138   3.583   2.767
    2V3OU    C9  899   3.298   3.426   2.844
    2V3OU    C7  900   3.406   3.507   2.812
    2V3OU    O9  901   3.389   3.624   2.740
    2V3OU   H25  902   3.293   3.640   2.744
    2V3OU   C17  903   2.825   3.319   2.852
    2V3OU    H7  904   2.727   3.350   2.817
    2V3OU   C18  905   2.849   3.216   2.942
    2V3OU    H8  906   2.783   3.166   3.015
    3SOL     OW  907   2.107   5.421   6.528
    3SOL    HW1  908   2.169   5.405   6.451
    3SOL    HW2  909   2.067   5.512   6.519
    4SOL     OW  910   0.012   0.711   2.193
    4SOL    HW1  911   6.972   0.787   2.191
    4SOL    HW2  912   0.078   0.727   2.266
    5SOL     OW  913   4.327   2.128   2.265
    5SOL    HW1  914   4.263   2.070   2.315
    5SOL    HW2  915   4.287   2.154   2.177
    6SOL     OW  916   4.276   1.041   1.620
    6SOL    HW1  917   4.240   0.982   1.548
    6SOL    HW2  918   4.252   1.136   1.599
    7SOL     OW  919   0.882   4.116   3.468
    7SOL    HW1  920   0.798   4.171   3.461
    7SOL    HW2  921   0.943   4.156   3.535
    8SOL     OW  922   3.167   0.998   5.534
    8SOL    HW1  923   3.138   1.093   5.524
    8SOL    HW2  924   3.260   0.996   5.571
    9SOL     OW  925   4.758   1.395   5.736
    9SOL    HW1  926   4.666   1.409   5.698
    9SOL    HW2  927   4.780   1.470   5.798
   10SOL     OW  928   2.030   4.890   5.292
   10SOL    HW1  929   2.065   4.923   5.204
   10SOL    HW2  930   1.990   4.799   5.281
   11SOL     OW  931   3.274   0.994   5.263
   11SOL    HW1  932   3.243   1.073   5.210
   11SOL    HW2  933   3.253   1.008   5.359
   12SOL     OW  934   2.856   5.441   3.605
   12SOL    HW1  935   2.948   5.465   3.635
   12SOL    HW2  936   2.861   5.390   3.518
   13SOL     OW  937   3.686   6.571   4.272
   13SOL    HW1  938   3.716   6.509   4.199
   13SOL    HW2  939   3.602   6.618   4.245
   14SOL     OW  940   3.636   5.132   6.164
   14SOL    HW1  941   3.725   5.093   6.139
   14SOL    HW2  942   3.644   5.179   6.252
   15SOL     OW  943   1.104   6.780   1.255
   15SOL    HW1  944   1.151   6.737   1.177
   15SOL    HW2  945   1.008   6.752   1.255
   16SOL     OW  946   5.534   2.726   6.213
   16SOL    HW1  947   5.471   2.658   6.251
   16SOL    HW2  948   5.539   2.805   6.274
   17SOL     OW  949   5.752   5.916   6.122
   17SOL    HW1  950   5.832   5.941   6.068
   17SOL    HW2  951   5.781   5.865   6.203
   18SOL     OW  952   3.625   1.321   5.640
   18SOL    HW1  953   3.669   1.235   5.613
   18SOL    HW2  954   3.526   1.313   5.628
   19SOL     OW  955   0.330   1.294   2.842
   19SOL    HW1  956   0.386   1.330   2.767
   19SOL    HW2  957   0.388   1.246   2.907
   20SOL     OW  958   4.867   2.042   4.382
   20SOL    HW1  959   4.864   2.012   4.286
   20SOL    HW2  960   4.812   1.979   4.438
   21SOL     OW  961   3.291   0.755   1.960
   21SOL    HW1  962   3.209   0.794   2.002
   21SOL    HW2  963   3.296   0.784   1.864
   22SOL     OW  964   1.535   6.388   6.943
   22SOL    HW1  965   1.550   6.347   0.007
   22SOL    HW2  966   1.610   6.363   6.882
   23SOL     OW  967   5.463   5.238   2.408
   23SOL    HW1  968   5.532   5.284   2.353
   23SOL    HW2  969   5.372   5.259   2.372
   24SOL     OW  970   3.319   0.580   2.767
   24SOL    HW1  971   3.271   0.620   2.845
   24SOL    HW2  972   3.360   0.653   2.712
   25SOL     OW  973   3.840   0.358   3.781
   25SOL    HW1  974   3.885   0.445   3.760
   25SOL    HW2  975   3.840   0.300   3.700
   26SOL     OW  976   6.616   1.303   0.596
   26SOL    HW1  977   6.587   1.270   0.686
   26SOL    HW2  978   6.575   1.393   0.579
   27SOL     OW  979   1.949   0.771   2.467
   27SOL    HW1  980   2.004   0.854   2.479
   27SOL    HW2  981   2.000   0.692   2.501
   28SOL     OW  982   2.412   0.739   5.138
   28SOL    HW1  983   2.475   0.778   5.206
   28SOL    HW2  984   2.434   0.776   5.048
   29SOL     OW  985   6.247   1.480   1.755
   29SOL    HW1  986   6.295   1.399   1.723
   29SOL    HW2  987   6.261   1.555   1.690
   30SOL     OW  988   3.959   0.716   3.414
   30SOL    HW1  989   3.933   0.806   3.449
   30SOL    HW2  990   3.938   0.646   3.483
   31SOL     OW  991   0.526   2.287   6.239
   31SOL    HW1  992   0.514   2.200   6.191
   31SOL    HW2  993   0.453   2.299   6.306
   32SOL     OW  994   0.255   1.747   3.098
   32SOL    HW1  995   0.325   1.683   3.066
   32SOL    HW2  996   0.255   1.750   3.198
   33SOL     OW  997   0.685   4.323   4.836
   33SOL    HW1  998   0.739   4.373   4.903
   33SOL    HW2  999   0.607   4.279   4.880
   34SOL     OW 1000   2.626   6.874   5.066
   34SOL    HW1 1001   2.684   6.847   4.989
   34SOL    HW2 1002   2.633   6.807   5.139
   35SOL     OW 1003   4.999   2.910   5.868
   35SOL    HW1 1004   4.926   2.977   5.874
   35SOL    HW2 1005   5.040   2.897   5.958
   36SOL     OW 1006   4.700   1.249   4.749
   36SOL    HW1 1007   4.784   1.200   4.726
   36SOL    HW2 1008   4.701   1.339   4.705
   37SOL     OW 1009   1.326   1.773   5.599
   37SOL    HW1 1010   1.309   1.726   5.686
   37SOL    HW2 1011   1.425   1.778   5.583
   38SOL     OW 1012   1.020   5.091   2.667
   38SOL    HW1 1013   0.970   5.031   2.604
   38SOL    HW2 1014   1.115   5.100   2.637
   39SOL     OW 1015   6.413   4.481   6.336
   39SOL    HW1 1016   6.449   4.512   6.424
   39SOL    HW2 1017   6.475   4.509   6.262
   40SOL     OW 1018   4.744   1.805   0.475
   40SOL    HW1 1019   4.826   1.750   0.460
   40SOL    HW2 1020   4.663   1.751   0.453
   41SOL     OW 1021   0.203   4.863   3.104
   41SOL    HW1 1022   0.227   4.790   3.040
   41SOL    HW2 1023   0.138   4.925   3.062
   42SOL     OW 1024   3.299   5.126   3.966
   42SOL    HW1 1025   3.264   5.210   3.925
   42SOL    HW2 1026   3.392   5.142   4.000
   43SOL     OW 1027   5.267   6.933   5.714
   43SOL    HW1 1028   5.267   6.847   5.765
   43SOL    HW2 1029   5.203   6.997   5.757
   44SOL     OW 1030   4.764   2.338   5.990
   44SOL    HW1 1031   4.787   2.415   6.050
   44SOL    HW2 1032   4.677   2.356   5.945
   45SOL     OW 1033   4.935   5.452   1.388
   45SOL    HW1 1034   4.869   5.466   1.461
   45SOL    HW2 1035   4.945   5.536   1.334
   46SOL     OW 1036   0.699   2.735   3.532
   46SOL    HW1 1037   0.778   2.772   3.582
   46SOL    HW2 1038   0.630   2.705   3.597
   47SOL     OW 1039   4.675   4.311   0.941
   47SOL    HW1 1040   4.752   4.354   0.895
   47SOL    HW2 1041   4.593   4.318   0.884
   48SOL     OW 1042   6.607   2.779   6.300
   48SOL    HW1 1043   6.604   2.682   6.326
   48SOL    HW2 1044   6.517   2.820   6.311
   49SOL     OW 1045   5.864   3.091   2.413
   49SOL    HW1 1046   5.898   3.155   2.482
   49SOL    HW2 1047   5.764   3.087   2.418
   50SOL     OW 1048   5.546   1.108   4.875
   50SOL    HW1 1049   5.492   1.192   4.868
   50SOL    HW2 1050   5.636   1.123   4.834
   51SOL     OW 1051   2.606   6.289   3.109
   51SOL    HW1 1052   2.694   6.254   3.078
   51SOL    HW2 1053   2.614   6.323   3.202
   52SOL     OW 1054   6.229   3.122   2.458
   52SOL    HW1 1055   6.328   3.115   2.467
   52SOL    HW2 1056   6.185   3.060   2.524
   53SOL     OW 1057   4.298   0.778   3.827
   53SOL    HW1 1058   4.390   0.815   3.816
   53SOL    HW2 1059   4.294   0.720   3.909
   54SOL     OW 1060   5.033   5.333   0.911
   54SOL    HW1 1061   4.960   5.348   0.978
   54SOL    HW2 1062   5.059   5.236   0.910
   55SOL     OW 1063   2.128   3.125   6.004
   55SOL    HW1 1064   2.200   3.158   6.065
   55SOL    HW2 1065   2.169   3.079   5.925
   56SOL     OW 1066   0.336   0.761   1.469
   56SOL    HW1 1067   0.367   0.855   1.482
   56SOL    HW2 1068   0.334   0.714   1.558
   57SOL     OW 1069   4.430   1.008   1.178
   57SOL    HW1 1070   4.346   1.050   1.145
   57SOL    HW2 1071   4.467   0.947   1.108
   58SOL     OW 1072   1.264   0.083   5.297
   58SOL    HW1 1073   1.202   0.082   5.219
   58SOL    HW2 1074   1.210   0.078   5.382
   59SOL     OW 1075   0.260   2.666   5.902
   59SOL    HW1 1076   0.298   2.685   5.812
   59SOL    HW2 1077   0.165   2.698   5.906
   60SOL     OW 1078   5.248   2.710   4.252
   60SOL    HW1 1079   5.336   2.740   4.216
   60SOL    HW2 1080   5.206   2.644   4.189
   61SOL     OW 1081   6.613   2.336   4.298
   61SOL    HW1 1082   6.567   2.261   4.251
   61SOL    HW2 1083   6.661   2.392   4.232
   62SOL     OW 1084   1.915   0.767   2.194
   62SOL    HW1 1085   1.864   0.690   2.156
   62SOL    HW2 1086   1.917   0.759   2.294
   63SOL     OW 1087   5.392   1.102   3.785
   63SOL    HW1 1088   5.390   1.128   3.881
   63SOL    HW2 1089   5.482   1.122   3.747
   64SOL     OW 1090   7.000   2.744   5.914
   64SOL    HW1 1091   6.961   2.694   5.837
   64SOL    HW2 1092   6.932   2.753   5.987
   65SOL     OW 1093   0.477   4.215   6.254
   65SOL    HW1 1094   0.477   4.149   6.329
   65SOL    HW2 1095   0.455   4.168   6.168
   66SOL     OW 1096   3.939   0.646   4.218
   66SOL    HW1 1097   4.008   0.579   4.244
   66SOL    HW2 1098   3.848   0.605   4.227
   67SOL     OW 1099   6.706   2.653   5.755
   67SOL    HW1 1100   6.770   2.576   5.757
   67SOL    HW2 1101   6.742   2.724   5.694
   68SOL     OW 1102   6.881   1.311   6.882
   68SOL    HW1 1103   6.930   1.224   6.871
   68SOL    HW2 1104   6.936   1.385   6.844
   69SOL     OW 1105   0.620   2.913   6.514
   69SOL    HW1 1106   0.532   2.944   6.479
   69SOL    HW2 1107   0.649   2.973   6.589
   70SOL     OW 1108   5.260   4.582   4.496
   70SOL    HW1 1109   5.357   4.587   4.518
   70SOL    HW2 1110   5.214   4.519   4.559
   71SOL     OW 1111   4.112   1.953   2.886
   71SOL    HW1 1112   4.103   1.862   2.925
   71SOL    HW2 1113   4.096   2.022   2.956
   72SOL     OW 1114   1.474   0.933   3.558
   72SOL    HW1 1115   1.500   0.943   3.462
   72SOL    HW2 1116   1.537   0.984   3.616
   73SOL     OW 1117   3.784   0.266   1.296
   73SOL    HW1 1118   3.762   0.181   1.344
   73SOL    HW2 1119   3.880   0.265   1.271
   74SOL     OW 1120   3.645   0.661   0.072
   74SOL    HW1 1121   3.627   0.683   0.168
   74SOL    HW2 1122   3.726   0.603   0.066
   75SOL     OW 1123   4.222   0.384   1.339
   75SOL    HW1 1124   4.230   0.484   1.338
   75SOL    HW2 1125   4.297   0.345   1.392
   76SOL     OW 1126   2.928   2.910   0.973
   76SOL    HW1 1127   2.892   2.940   1.062
   76SOL    HW2 1128   2.863   2.934   0.901
   77SOL     OW 1129   0.652   0.358   3.817
   77SOL    HW1 1130   0.692   0.287   3.875
   77SOL    HW2 1131   0.552   0.351   3.822
   78SOL     OW 1132   5.208   1.630   0.275
   78SOL    HW1 1133   5.150   1.551   0.296
   78SOL    HW2 1134   5.199   1.697   0.349
   79SOL     OW 1135   3.156   5.693   0.914
   79SOL    HW1 1136   3.137   5.787   0.942
   79SOL    HW2 1137   3.216   5.694   0.834
   80SOL     OW 1138   4.832   0.804   3.636
   80SOL    HW1 1139   4.930   0.798   3.623
   80SOL    HW2 1140   4.785   0.771   3.554
   81SOL     OW 1141   2.518   0.372   2.318
   81SOL    HW1 1142   2.493   0.362   2.222
   81SOL    HW2 1143   2.499   0.465   2.349
   82SOL     OW 1144   5.952   4.884   0.552
   82SOL    HW1 1145   6.040   4.912   0.591
   82SOL    HW2 1146   5.908   4.964   0.511
   83SOL     OW 1147   0.215   0.107   0.546
   83SOL    HW1 1148   0.192   0.039   0.476
   83SOL    HW2 1149   0.313   0.104   0.564
   84SOL     OW 1150   6.119   2.904   2.635
   84SOL    HW1 1151   6.024   2.883   2.614
   84SOL    HW2 1152   6.127   2.928   2.731
   85SOL     OW 1153   1.678   1.066   3.668
   85SOL    HW1 1154   1.717   1.135   3.607
   85SOL    HW2 1155   1.752   1.013   3.710
   86SOL     OW 1156   0.760   1.441   6.087
   86SOL    HW1 1157   0.751   1.366   6.020
   86SOL    HW2 1158   0.771   1.402   6.179
   87SOL     OW 1159   5.210   4.492   1.064
   87SOL    HW1 1160   5.116   4.515   1.091
   87SOL    HW2 1161   5.218   4.494   0.964
   88SOL     OW 1162   3.162   1.688   6.379
   88SOL    HW1 1163   3.110   1.629   6.317
   88SOL    HW2 1164   3.172   1.778   6.338
   89SOL     OW 1165   2.547   2.897   6.751
   89SOL    HW1 1166   2.627   2.844   6.722
   89SOL    HW2 1167   2.487   2.913   6.672
   90SOL     OW 1168   4.125   5.370   1.876
   90SOL    HW1 1169   4.029   5.356   1.852
   90SOL    HW2 1170   4.148   5.467   1.865
   91SOL     OW 1171   6.218   4.093   6.224
   91SOL    HW1 1172   6.255   4.058   6.138
   91SOL    HW2 1173   6.292   4.104   6.290
   92SOL     OW 1174   4.524   4.488   1.150
   92SOL    HW1 1175   4.428   4.464   1.167
   92SOL    HW2 1176   4.567   4.416   1.094
   93SOL     OW 1177   2.900   3.580   0.385
   93SOL    HW1 1178   2.991   3.620   0.389
   93SOL    HW2 1179   2.832   3.651   0.404
   94SOL     OW 1180   3.222   5.260   6.292
   94SOL    HW1 1181   3.293   5.283   6.226
   94SOL    HW2 1182   3.175   5.343   6.322
   95SOL     OW 1183   1.761   0.500   2.620
   95SOL    HW1 1184   1.699   0.574   2.646
   95SOL    HW2 1185   1.735   0.416   2.667
   96SOL     OW 1186   3.852   6.819   5.903
   96SOL    HW1 1187   3.792   6.772   5.969
   96SOL    HW2 1188   3.897   6.751   5.846
   97SOL     OW 1189   2.258   2.910   5.847
   97SOL    HW1 1190   2.353   2.940   5.845
   97SOL    HW2 1191   2.241   2.845   5.773
   98SOL     OW 1192   1.031   2.869   0.849
   98SOL    HW1 1193   0.988   2.783   0.873
   98SOL    HW2 1194   1.069   2.863   0.757
   99SOL     OW 1195   4.470   3.221   1.473
   99SOL    HW1 1196   4.428   3.182   1.555
   99SOL    HW2 1197   4.501   3.314   1.493
  100SOL     OW 1198   1.275   6.532   3.696
  100SOL    HW1 1199   1.304   6.437   3.679
  100SOL    HW2 1200   1.191   6.531   3.749
  101SOL     OW 1201   1.520   4.224   2.111
  101SOL    HW1 1202   1.595   4.245   2.172
  101SOL    HW2 1203   1.491   4.306   2.062
  102SOL     OW 1204   2.890   5.261   1.823
  102SOL    HW1 1205   2.872   5.249   1.725
  102SOL    HW2 1206   2.965   5.327   1.835
  103SOL     OW 1207   2.296   1.736   2.140
  103SOL    HW1 1208   2.394   1.746   2.160
  103SOL    HW2 1209   2.284   1.722   2.042
  104SOL     OW 1210   1.524   5.637   2.544
  104SOL    HW1 1211   1.526   5.538   2.532
  104SOL    HW2 1212   1.467   5.678   2.473
  105SOL     OW 1213   5.675   1.015   6.331
  105SOL    HW1 1214   5.698   1.066   6.414
  105SOL    HW2 1215   5.584   1.042   6.300
  106SOL     OW 1216   3.372   6.052   3.857
  106SOL    HW1 1217   3.387   5.988   3.932
  106SOL    HW2 1218   3.376   6.146   3.893
  107SOL     OW 1219   0.952   1.195   7.021
  107SOL    HW1 1220   0.930   1.268   6.957
  107SOL    HW2 1221   1.037   1.217   0.044
  108SOL     OW 1222   3.837   0.213   6.092
  108SOL    HW1 1223   3.756   0.240   6.041
  108SOL    HW2 1224   3.810   0.177   6.181
  109SOL     OW 1225   2.206   1.156   2.785
  109SOL    HW1 1226   2.285   1.195   2.832
  109SOL    HW2 1227   2.236   1.084   2.723
  110SOL     OW 1228   3.035   5.326   3.838
  110SOL    HW1 1229   2.997   5.365   3.922
  110SOL    HW2 1230   2.970   5.262   3.798
  111SOL     OW 1231   2.173   1.337   4.256
  111SOL    HW1 1232   2.130   1.351   4.167
  111SOL    HW2 1233   2.105   1.354   4.328
  112SOL     OW 1234   3.293   5.576   0.172
  112SOL    HW1 1235   3.233   5.521   0.230
  112SOL    HW2 1236   3.386   5.573   0.209
  113SOL     OW 1237   1.134   6.345   2.361
  113SOL    HW1 1238   1.119   6.291   2.444
  113SOL    HW2 1239   1.098   6.437   2.374
  114SOL     OW 1240   0.848   6.619   1.335
  114SOL    HW1 1241   0.749   6.603   1.328
  114SOL    HW2 1242   0.883   6.576   1.418
  115SOL     OW 1243   4.395   1.159   2.830
  115SOL    HW1 1244   4.453   1.213   2.892
  115SOL    HW2 1245   4.394   1.202   2.740
  116SOL     OW 1246   6.767   6.287   0.845
  116SOL    HW1 1247   6.829   6.305   0.769
  116SOL    HW2 1248   6.820   6.250   0.922
  117SOL     OW 1249   0.378   1.786   1.238
  117SOL    HW1 1250   0.368   1.813   1.334
  117SOL    HW2 1251   0.474   1.796   1.210
  118SOL     OW 1252   1.636   0.953   2.447
  118SOL    HW1 1253   1.722   0.986   2.409
  118SOL    HW2 1254   1.603   0.875   2.393
  119SOL     OW 1255   0.240   0.309   6.839
  119SOL    HW1 1256   0.154   0.298   6.889
  119SOL    HW2 1257   0.220   0.333   6.744
  120SOL     OW 1258   5.209   1.592   5.598
  120SOL    HW1 1259   5.167   1.515   5.645
  120SOL    HW2 1260   5.180   1.593   5.502
  121SOL     OW 1261   1.950   3.193   0.346
  121SOL    HW1 1262   1.895   3.273   0.370
  121SOL    HW2 1263   2.045   3.220   0.332
  122SOL     OW 1264   1.651   3.529   0.566
  122SOL    HW1 1265   1.588   3.452   0.569
  122SOL    HW2 1266   1.600   3.614   0.579
  123SOL     OW 1267   1.326   1.667   3.159
  123SOL    HW1 1268   1.290   1.670   3.066
  123SOL    HW2 1269   1.268   1.720   3.220
  124SOL     OW 1270   3.655   2.471   0.814
  124SOL    HW1 1271   3.572   2.477   0.871
  124SOL    HW2 1272   3.631   2.493   0.720
  125SOL     OW 1273   4.179   2.656   0.445
  125SOL    HW1 1274   4.159   2.677   0.349
  125SOL    HW2 1275   4.120   2.710   0.504
  126SOL     OW 1276   3.674   3.830   1.807
  126SOL    HW1 1277   3.734   3.833   1.727
  126SOL    HW2 1278   3.706   3.895   1.875
  127SOL     OW 1279   0.870   4.930   6.402
  127SOL    HW1 1280   0.823   4.843   6.415
  127SOL    HW2 1281   0.850   4.966   6.311
  128SOL     OW 1282   4.653   3.031   1.302
  128SOL    HW1 1283   4.672   2.985   1.389
  128SOL    HW2 1284   4.582   3.101   1.316
  129SOL     OW 1285   3.139   3.664   6.300
  129SOL    HW1 1286   3.151   3.731   6.227
  129SOL    HW2 1287   3.227   3.621   6.322
  130SOL     OW 1288   1.196   1.127   4.103
  130SOL    HW1 1289   1.265   1.060   4.131
  130SOL    HW2 1290   1.147   1.160   4.184
  131SOL     OW 1291   5.051   0.507   3.203
  131SOL    HW1 1292   4.971   0.478   3.255
  131SOL    HW2 1293   5.030   0.591   3.153
  132SOL     OW 1294   3.006   2.563   1.655
  132SOL    HW1 1295   3.102   2.589   1.653
  132SOL    HW2 1296   2.989   2.506   1.736
  133SOL     OW 1297   5.201   0.890   4.368
  133SOL    HW1 1298   5.218   0.826   4.293
  133SOL    HW2 1299   5.152   0.844   4.441
  134SOL     OW 1300   0.175   1.220   2.630
  134SOL    HW1 1301   0.199   1.253   2.721
  134SOL    HW2 1302   0.254   1.175   2.589
  135SOL     OW 1303   4.790   3.967   4.282
  135SOL    HW1 1304   4.708   3.917   4.310
  135SOL    HW2 1305   4.819   3.934   4.192
  136SOL     OW 1306   1.551   5.472   5.131
  136SOL    HW1 1307   1.541   5.411   5.210
  136SOL    HW2 1308   1.486   5.547   5.139
  137SOL     OW 1309   4.468   1.336   3.050
  137SOL    HW1 1310   4.388   1.349   3.107
  137SOL    HW2 1311   4.492   1.422   3.006
  138SOL     OW 1312   1.002   3.544   3.019
  138SOL    HW1 1313   0.968   3.591   3.100
  138SOL    HW2 1314   1.038   3.612   2.954
  139SOL     OW 1315   2.070   6.768   5.721
  139SOL    HW1 1316   2.064   6.703   5.797
  139SOL    HW2 1317   1.984   6.817   5.711
  140SOL     OW 1318   2.024   6.818   4.056
  140SOL    HW1 1319   1.975   6.859   3.980
  140SOL    HW2 1320   2.096   6.758   4.022
  141SOL     OW 1321   0.230   2.578   4.574
  141SOL    HW1 1322   0.259   2.509   4.507
  141SOL    HW2 1323   0.132   2.567   4.593
  142SOL     OW 1324   2.084   3.588   2.210
  142SOL    HW1 1325   1.984   3.578   2.202
  142SOL    HW2 1326   2.128   3.554   2.128
  143SOL     OW 1327   5.801   5.320   0.651
  143SOL    HW1 1328   5.861   5.396   0.626
  143SOL    HW2 1329   5.792   5.257   0.573
  144SOL     OW 1330   1.636   4.664   5.940
  144SOL    HW1 1331   1.668   4.624   5.854
  144SOL    HW2 1332   1.577   4.598   5.987
  145SOL     OW 1333   1.392   4.444   1.958
  145SOL    HW1 1334   1.306   4.443   2.009
  145SOL    HW2 1335   1.379   4.491   1.871
  146SOL     OW 1336   5.293   0.248   6.244
  146SOL    HW1 1337   5.334   0.157   6.236
  146SOL    HW2 1338   5.358   0.316   6.212
  147SOL     OW 1339   5.447   2.171   6.191
  147SOL    HW1 1340   5.505   2.231   6.136
  147SOL    HW2 1341   5.453   2.199   6.287
  148SOL     OW 1342   0.153   5.461   0.712
  148SOL    HW1 1343   0.210   5.397   0.661
  148SOL    HW2 1344   0.191   5.553   0.706
  149SOL     OW 1345   3.656   2.092   4.892
  149SOL    HW1 1346   3.561   2.106   4.920
  149SOL    HW2 1347   3.670   2.133   4.802
  150SOL     OW 1348   5.529   6.396   6.658
  150SOL    HW1 1349   5.588   6.425   6.583
  150SOL    HW2 1350   5.575   6.414   6.745
  151SOL     OW 1351   3.318   0.673   1.376
  151SOL    HW1 1352   3.270   0.605   1.321
  151SOL    HW2 1353   3.254   0.745   1.404
  152SOL     OW 1354   0.409   1.406   1.273
  152SOL    HW1 1355   0.400   1.498   1.311
  152SOL    HW2 1356   0.323   1.357   1.285
  153SOL     OW 1357   2.918   6.942   3.705
  153SOL    HW1 1358   2.989   6.872   3.705
  153SOL    HW2 1359   2.854   6.926   3.630
  154SOL     OW 1360   0.981   3.406   0.698
  154SOL    HW1 1361   0.923   3.449   0.768
  154SOL    HW2 1362   1.020   3.322   0.735
  155SOL     OW 1363   0.871   1.233   4.508
  155SOL    HW1 1364   0.842   1.242   4.603
  155SOL    HW2 1365   0.843   1.143   4.473
  156SOL     OW 1366   6.907   0.774   0.934
  156SOL    HW1 1367   6.928   0.839   0.861
  156SOL    HW2 1368   6.964   0.792   1.013
  157SOL     OW 1369   5.955   3.724   0.639
  157SOL    HW1 1370   5.995   3.632   0.644
  157SOL    HW2 1371   5.996   3.774   0.563
  158SOL     OW 1372   1.504   3.235   2.138
  158SOL    HW1 1373   1.453   3.162   2.182
  158SOL    HW2 1374   1.526   3.209   2.044
  159SOL     OW 1375   4.717   4.976   1.601
  159SOL    HW1 1376   4.637   5.016   1.646
  159SOL    HW2 1377   4.800   5.021   1.635
  160SOL     OW 1378   5.774   6.628   1.139
  160SOL    HW1 1379   5.681   6.598   1.119
  160SOL    HW2 1380   5.831   6.548   1.159
  161SOL     OW 1381   1.343   0.042   3.718
  161SOL    HW1 1382   1.284   0.005   3.647
  161SOL    HW2 1383   1.373   0.134   3.692
  162SOL     OW 1384   4.089   6.090   0.079
  162SOL    HW1 1385   4.156   6.104   0.153
  162SOL    HW2 1386   4.028   6.015   0.104
  163SOL     OW 1387   6.656   6.048   2.154
  163SOL    HW1 1388   6.653   6.131   2.209
  163SOL    HW2 1389   6.567   6.001   2.158
  164SOL     OW 1390   0.966   4.322   3.244
  164SOL    HW1 1391   0.981   4.252   3.315
  164SOL    HW2 1392   0.874   4.312   3.206
  165SOL     OW 1393   4.911   4.150   0.698
  165SOL    HW1 1394   4.824   4.100   0.701
  165SOL    HW2 1395   4.954   4.136   0.609
  166SOL     OW 1396   0.945   2.810   2.285
  166SOL    HW1 1397   0.956   2.718   2.247
  166SOL    HW2 1398   0.925   2.803   2.383
  167SOL     OW 1399   5.357   2.320   0.086
  167SOL    HW1 1400   5.328   2.240   0.137
  167SOL    HW2 1401   5.391   2.292   7.022
  168SOL     OW 1402   3.860   1.882   0.484
  168SOL    HW1 1403   3.861   1.880   0.584
  168SOL    HW2 1404   3.922   1.953   0.452
  169SOL     OW 1405   6.284   2.253   1.103
  169SOL    HW1 1406   6.362   2.192   1.092
  169SOL    HW2 1407   6.211   2.206   1.153
  170SOL     OW 1408   0.156   6.779   2.340
  170SOL    HW1 1409   0.106   6.765   2.426
  170SOL    HW2 1410   0.210   6.862   2.347
  171SOL     OW 1411   2.997   4.568   0.082
  171SOL    HW1 1412   2.988   4.490   0.020
  171SOL    HW2 1413   3.047   4.641   0.036
  172SOL     OW 1414   6.205   1.436   3.284
  172SOL    HW1 1415   6.238   1.381   3.207
  172SOL    HW2 1416   6.226   1.389   3.370
  173SOL     OW 1417   5.929   1.077   3.843
  173SOL    HW1 1418   5.952   1.138   3.767
  173SOL    HW2 1419   5.858   1.118   3.899
  174SOL     OW 1420   4.034   5.286   3.856
  174SOL    HW1 1421   3.971   5.341   3.911
  174SOL    HW2 1422   4.008   5.290   3.760
  175SOL     OW 1423   3.226   0.342   1.380
  175SOL    HW1 1424   3.131   0.347   1.352
  175SOL    HW2 1425   3.239   0.392   1.466
  176SOL     OW 1426   6.827   4.862   2.103
  176SOL    HW1 1427   6.818   4.877   2.202
  176SOL    HW2 1428   6.876   4.776   2.087
  177SOL     OW 1429   5.136   3.785   4.104
  177SOL    HW1 1430   5.151   3.696   4.146
  177SOL    HW2 1431   5.038   3.805   4.103
  178SOL     OW 1432   2.850   3.884   5.481
  178SOL    HW1 1433   2.828   3.886   5.384
  178SOL    HW2 1434   2.942   3.921   5.495
  179SOL     OW 1435   4.120   1.393   6.146
  179SOL    HW1 1436   4.092   1.437   6.231
  179SOL    HW2 1437   4.092   1.297   6.147
  180SOL     OW 1438   1.816   6.854   1.007
  180SOL    HW1 1439   1.874   6.798   0.947
  180SOL    HW2 1440   1.838   6.835   1.102
  181SOL     OW 1441   3.359   3.443   6.011
  181SOL    HW1 1442   3.375   3.424   6.107
  181SOL    HW2 1443   3.262   3.463   5.996
  182SOL     OW 1444   4.302   1.775   6.206
  182SOL    HW1 1445   4.327   1.802   6.299
  182SOL    HW2 1446   4.336   1.682   6.189
  183SOL     OW 1447   3.475   1.792   3.669
  183SOL    HW1 1448   3.450   1.722   3.601
  183SOL    HW2 1449   3.535   1.859   3.627
  184SOL     OW 1450   0.648   6.022   3.813
  184SOL    HW1 1451   0.549   6.028   3.804
  184SOL    HW2 1452   0.687   5.981   3.730
  185SOL     OW 1453   1.155   1.125   4.658
  185SOL    HW1 1454   1.207   1.157   4.737
  185SOL    HW2 1455   1.215   1.122   4.578
  186SOL     OW 1456   6.197   1.195   4.208
  186SOL    HW1 1457   6.213   1.116   4.149
  186SOL    HW2 1458   6.103   1.226   4.197
  187SOL     OW 1459   4.868   6.273   2.765
  187SOL    HW1 1460   4.819   6.221   2.695
  187SOL    HW2 1461   4.940   6.327   2.723
  188SOL     OW 1462   1.046   3.198   3.573
  188SOL    HW1 1463   1.081   3.220   3.482
  188SOL    HW2 1464   0.959   3.245   3.587
  189SOL     OW 1465   1.659   5.614   0.270
  189SOL    HW1 1466   1.738   5.673   0.289
  189SOL    HW2 1467   1.689   5.533   0.219
  190SOL     OW 1468   6.132   4.233   5.897
  190SOL    HW1 1469   6.134   4.288   5.814
  190SOL    HW2 1470   6.140   4.292   5.977
  191SOL     OW 1471   6.067   0.517   0.235
  191SOL    HW1 1472   6.108   0.475   0.316
  191SOL    HW2 1473   6.021   0.602   0.260
  192SOL     OW 1474   0.613   5.439   1.382
  192SOL    HW1 1475   0.544   5.414   1.450
  192SOL    HW2 1476   0.569   5.475   1.300
  193SOL     OW 1477   4.529   3.729   5.354
  193SOL    HW1 1478   4.566   3.821   5.362
  193SOL    HW2 1479   4.587   3.674   5.294
  194SOL     OW 1480   4.124   6.632   3.382
  194SOL    HW1 1481   4.082   6.715   3.344
  194SOL    HW2 1482   4.214   6.654   3.419
  195SOL     OW 1483   1.325   0.769   4.289
  195SOL    HW1 1484   1.244   0.710   4.286
  195SOL    HW2 1485   1.402   0.718   4.328
  196SOL     OW 1486   2.639   0.066   6.924
  196SOL    HW1 1487   2.663   0.123   6.845
  196SOL    HW2 1488   2.626   6.997   6.894
  197SOL     OW 1489   2.471   0.090   1.597
  197SOL    HW1 1490   2.429   0.175   1.627
  197SOL    HW2 1491   2.407   0.041   1.536
  198SOL     OW 1492   4.630   6.855   1.932
  198SOL    HW1 1493   4.718   6.893   1.902
  198SOL    HW2 1494   4.595   6.908   2.009
  199SOL     OW 1495   6.176   1.789   3.652
  199SOL    HW1 1496   6.167   1.877   3.606
  199SOL    HW2 1497   6.271   1.777   3.682
  200SOL     OW 1498   1.149   4.254   1.819
  200SOL    HW1 1499   1.220   4.197   1.860
  200SOL    HW2 1500   1.191   4.336   1.780
  201SOL     OW 1501   5.811   0.007   6.128
  201SOL    HW1 1502   5.756   0.082   6.164
  201SOL    HW2 1503   5.859   6.987   6.203
  202SOL     OW 1504   5.273   0.297   5.566
  202SOL    HW1 1505   5.278   0.355   5.484
  202SOL    HW2 1506   5.306   0.349   5.645
  203SOL     OW 1507   4.500   2.552   4.257
  203SOL    HW1 1508   4.547   2.603   4.330
  203SOL    HW2 1509   4.465   2.466   4.294
  204SOL     OW 1510   6.666   0.591   6.077
  204SOL    HW1 1511   6.612   0.591   6.161
  204SOL    HW2 1512   6.720   0.675   6.071
  205SOL     OW 1513   0.714   0.767   3.275
  205SOL    HW1 1514   0.719   0.849   3.332
  205SOL    HW2 1515   0.624   0.724   3.287
  206SOL     OW 1516   0.564   5.292   2.143
  206SOL    HW1 1517   0.492   5.336   2.197
  206SOL    HW2 1518   0.532   5.278   2.050
  207SOL     OW 1519   4.739   0.546   4.171
  207SOL    HW1 1520   4.642   0.556   4.191
  207SOL    HW2 1521   4.759   0.580   4.079
  208SOL     OW 1522   5.334   3.567   5.601
  208SOL    HW1 1523   5.372   3.509   5.673
  208SOL    HW2 1524   5.271   3.514   5.545
  209SOL     OW 1525   0.812   4.813   4.501
  209SOL    HW1 1526   0.902   4.833   4.539
  209SOL    HW2 1527   0.760   4.898   4.493
  210SOL     OW 1528   4.117   2.206   1.352
  210SOL    HW1 1529   4.172   2.271   1.299
  210SOL    HW2 1530   4.080   2.135   1.292
  211SOL     OW 1531   2.103   6.072   3.669
  211SOL    HW1 1532   2.066   5.986   3.705
  211SOL    HW2 1533   2.161   6.114   3.738
  212SOL     OW 1534   1.610   4.616   0.970
  212SOL    HW1 1535   1.572   4.589   1.059
  212SOL    HW2 1536   1.629   4.714   0.971
  213SOL     OW 1537   3.598   1.173   6.018
  213SOL    HW1 1538   3.633   1.149   6.108
  213SOL    HW2 1539   3.632   1.108   5.950
  214SOL     OW 1540   4.516   5.350   1.767
  214SOL    HW1 1541   4.480   5.407   1.693
  214SOL    HW2 1542   4.558   5.409   1.836
  215SOL     OW 1543   2.170   3.709   1.096
  215SOL    HW1 1544   2.269   3.693   1.107
  215SOL    HW2 1545   2.123   3.621   1.090
  216SOL     OW 1546   2.132   5.816   4.462
  216SOL    HW1 1547   2.223   5.852   4.481
  216SOL    HW2 1548   2.121   5.807   4.363
  217SOL     OW 1549   2.350   2.806   3.634
  217SOL    HW1 1550   2.253   2.800   3.613
  217SOL    HW2 1551   2.402   2.826   3.551
  218SOL     OW 1552   1.135   2.606   4.507
  218SOL    HW1 1553   1.047   2.566   4.532
  218SOL    HW2 1554   1.119   2.691   4.457
  219SOL     OW 1555   4.056   6.834   6.207
  219SOL    HW1 1556   3.970   6.793   6.179
  219SOL    HW2 1557   4.080   6.908   6.144
  220SOL     OW 1558   3.716   6.686   0.448
  220SOL    HW1 1559   3.765   6.765   0.485
  220SOL    HW2 1560   3.642   6.718   0.388
  221SOL     OW 1561   6.604   3.808   2.676
  221SOL    HW1 1562   6.658   3.765   2.748
  221SOL    HW2 1563   6.532   3.745   2.646
  222SOL     OW 1564   2.776   4.813   5.707
  222SOL    HW1 1565   2.688   4.800   5.661
  222SOL    HW2 1566   2.776   4.900   5.756
  223SOL     OW 1567   5.937   3.576   1.257
  223SOL    HW1 1568   5.862   3.623   1.304
  223SOL    HW2 1569   5.958   3.624   1.172
  224SOL     OW 1570   2.749   2.319   4.213
  224SOL    HW1 1571   2.657   2.291   4.241
  224SOL    HW2 1572   2.808   2.321   4.294
  225SOL     OW 1573   6.067   2.158   6.094
  225SOL    HW1 1574   6.003   2.097   6.047
  225SOL    HW2 1575   6.075   2.243   6.042
  226SOL     OW 1576   1.848   0.367   6.423
  226SOL    HW1 1577   1.781   0.421   6.372
  226SOL    HW2 1578   1.903   0.427   6.481
  227SOL     OW 1579   1.645   3.470   2.925
  227SOL    HW1 1580   1.585   3.472   2.845
  227SOL    HW2 1581   1.687   3.560   2.939
  228SOL     OW 1582   3.309   6.183   3.376
  228SOL    HW1 1583   3.369   6.172   3.455
  228SOL    HW2 1584   3.214   6.184   3.407
  229SOL     OW 1585   5.082   5.995   0.161
  229SOL    HW1 1586   5.141   5.928   0.117
  229SOL    HW2 1587   5.030   6.045   0.091
  230SOL     OW 1588   2.759   5.074   2.457
  230SOL    HW1 1589   2.715   5.010   2.394
  230SOL    HW2 1590   2.704   5.080   2.541
  231SOL     OW 1591   6.370   1.608   6.365
  231SOL    HW1 1592   6.364   1.571   6.458
  231SOL    HW2 1593   6.464   1.596   6.331
  232SOL     OW 1594   1.200   4.078   6.086
  232SOL    HW1 1595   1.143   4.135   6.027
  232SOL    HW2 1596   1.287   4.059   6.040
  233SOL     OW 1597   1.895   2.058   4.232
  233SOL    HW1 1598   1.933   2.142   4.194
  233SOL    HW2 1599   1.900   1.985   4.164
  234SOL     OW 1600   4.409   6.299   5.101
  234SOL    HW1 1601   4.449   6.373   5.155
  234SOL    HW2 1602   4.342   6.250   5.156
  235SOL     OW 1603   3.365   3.167   1.597
  235SOL    HW1 1604   3.448   3.126   1.637
  235SOL    HW2 1605   3.386   3.260   1.566
  236SOL     OW 1606   5.579   2.691   6.593
  236SOL    HW1 1607   5.655   2.731   6.541
  236SOL    HW2 1608   5.593   2.592   6.601
  237SOL     OW 1609   6.338   5.676   1.917
  237SOL    HW1 1610   6.247   5.674   1.874
  237SOL    HW2 1611   6.388   5.756   1.884
  238SOL     OW 1612   5.930   2.403   0.112
  238SOL    HW1 1613   5.937   2.466   0.035
  238SOL    HW2 1614   5.933   2.309   0.079
  239SOL     OW 1615   0.227   5.541   6.163
  239SOL    HW1 1616   0.158   5.529   6.091
  239SOL    HW2 1617   0.281   5.458   6.172
  240SOL     OW 1618   0.846   2.567   5.533
  240SOL    HW1 1619   0.764   2.515   5.510
  240SOL    HW2 1620   0.833   2.612   5.622
  241SOL     OW 1621   1.782   6.983   4.606
  241SOL    HW1 1622   1.875   6.949   4.586
  241SOL    HW2 1623   1.745   0.002   4.525
  242SOL     OW 1624   2.563   3.629   5.682
  242SOL    HW1 1625   2.482   3.586   5.723
  242SOL    HW2 1626   2.584   3.585   5.595
  243SOL     OW 1627   5.118   1.135   5.907
  243SOL    HW1 1628   5.131   1.129   6.006
  243SOL    HW2 1629   5.030   1.095   5.882
  244SOL     OW 1630   5.033   2.829   4.417
  244SOL    HW1 1631   5.104   2.794   4.355
  244SOL    HW2 1632   5.003   2.755   4.478
  245SOL     OW 1633   0.039   3.801   5.404
  245SOL    HW1 1634   6.984   3.788   5.347
  245SOL    HW2 1635   0.121   3.788   5.349
  246SOL     OW 1636   5.088   2.760   3.170
  246SOL    HW1 1637   5.089   2.852   3.130
  246SOL    HW2 1638   5.006   2.750   3.227
  247SOL     OW 1639   2.849   0.829   1.527
  247SOL    HW1 1640   2.770   0.773   1.504
  247SOL    HW2 1641   2.827   0.925   1.514
  248SOL     OW 1642   3.816   1.976   3.028
  248SOL    HW1 1643   3.883   2.040   2.991
  248SOL    HW2 1644   3.815   1.983   3.128
  249SOL     OW 1645   4.586   7.025   5.878
  249SOL    HW1 1646   4.652   7.023   5.804
  249SOL    HW2 1647   4.530   6.942   5.875
  250SOL     OW 1648   5.821   2.865   0.910
  250SOL    HW1 1649   5.887   2.932   0.943
  250SOL    HW2 1650   5.825   2.783   0.968
  251SOL     OW 1651   4.553   4.190   6.423
  251SOL    HW1 1652   4.499   4.177   6.340
  251SOL    HW2 1653   4.495   4.224   6.496
  252SOL     OW 1654   6.079   0.580   6.512
  252SOL    HW1 1655   5.994   0.622   6.480
  252SOL    HW2 1656   6.069   0.480   6.512
  253SOL     OW 1657   1.910   4.462   6.904
  253SOL    HW1 1658   1.974   4.392   6.873
  253SOL    HW2 1659   1.855   4.427   6.980
  254SOL     OW 1660   5.289   3.552   3.108
  254SOL    HW1 1661   5.377   3.521   3.071
  254SOL    HW2 1662   5.237   3.598   3.036
  255SOL     OW 1663   1.950   3.246   4.047
  255SOL    HW1 1664   1.869   3.232   4.104
  255SOL    HW2 1665   1.929   3.313   3.976
  256SOL     OW 1666   6.219   4.833   6.503
  256SOL    HW1 1667   6.139   4.866   6.452
  256SOL    HW2 1668   6.206   4.737   6.526
  257SOL     OW 1669   4.631   6.884   4.135
  257SOL    HW1 1670   4.570   6.805   4.134
  257SOL    HW2 1671   4.625   6.932   4.047
  258SOL     OW 1672   6.849   5.176   4.906
  258SOL    HW1 1673   6.930   5.139   4.861
  258SOL    HW2 1674   6.790   5.220   4.838
  259SOL     OW 1675   1.258   2.493   2.308
  259SOL    HW1 1676   1.160   2.501   2.289
  259SOL    HW2 1677   1.295   2.584   2.327
  260SOL     OW 1678   4.337   0.676   0.879
  260SOL    HW1 1679   4.317   0.578   0.884
  260SOL    HW2 1680   4.253   0.728   0.894
  261SOL     OW 1681   0.107   3.904   1.349
  261SOL    HW1 1682   0.081   3.987   1.399
  261SOL    HW2 1683   0.141   3.930   1.259
  262SOL     OW 1684   0.397   4.058   1.228
  262SOL    HW1 1685   0.487   4.041   1.188
  262SOL    HW2 1686   0.327   4.010   1.175
  263SOL     OW 1687   0.795   1.526   4.103
  263SOL    HW1 1688   0.809   1.520   4.201
  263SOL    HW2 1689   0.730   1.455   4.074
  264SOL     OW 1690   4.705   3.785   5.924
  264SOL    HW1 1691   4.772   3.858   5.909
  264SOL    HW2 1692   4.742   3.719   5.990
  265SOL     OW 1693   4.461   4.471   3.308
  265SOL    HW1 1694   4.465   4.482   3.407
  265SOL    HW2 1695   4.421   4.553   3.266
  266SOL     OW 1696   3.833   4.010   5.779
  266SOL    HW1 1697   3.843   3.982   5.874
  266SOL    HW2 1698   3.906   3.968   5.724
  267SOL     OW 1699   6.102   2.391   5.952
  267SOL    HW1 1700   6.096   2.351   5.861
  267SOL    HW2 1701   6.197   2.414   5.972
  268SOL     OW 1702   4.397   6.918   5.148
  268SOL    HW1 1703   4.496   6.913   5.134
  268SOL    HW2 1704   4.374   6.998   5.204
  269SOL     OW 1705   1.491   3.004   0.962
  269SOL    HW1 1706   1.535   3.048   0.884
  269SOL    HW2 1707   1.399   3.042   0.974
  270SOL     OW 1708   6.669   0.020   1.544
  270SOL    HW1 1709   6.581   7.022   1.586
  270SOL    HW2 1710   6.652   0.059   1.453
  271SOL     OW 1711   2.825   1.744   0.444
  271SOL    HW1 1712   2.806   1.666   0.384
  271SOL    HW2 1713   2.781   1.730   0.532
  272SOL     OW 1714   3.562   5.249   4.064
  272SOL    HW1 1715   3.650   5.212   4.034
  272SOL    HW2 1716   3.577   5.318   4.135
  273SOL     OW 1717   2.099   5.002   5.041
  273SOL    HW1 1718   2.017   5.048   5.008
  273SOL    HW2 1719   2.136   4.944   4.969
  274SOL     OW 1720   4.728   2.676   3.784
  274SOL    HW1 1721   4.698   2.615   3.857
  274SOL    HW2 1722   4.738   2.769   3.821
  275SOL     OW 1723   6.228   5.851   5.804
  275SOL    HW1 1724   6.253   5.756   5.787
  275SOL    HW2 1725   6.259   5.908   5.728
  276SOL     OW 1726   0.717   5.435   3.263
  276SOL    HW1 1727   0.726   5.366   3.334
  276SOL    HW2 1728   0.631   5.423   3.215
  277SOL     OW 1729   2.301   3.143   0.905
  277SOL    HW1 1730   2.204   3.160   0.887
  277SOL    HW2 1731   2.310   3.062   0.962
  278SOL     OW 1732   0.167   5.216   1.783
  278SOL    HW1 1733   0.258   5.177   1.800
  278SOL    HW2 1734   0.165   5.256   1.692
  279SOL     OW 1735   0.254   2.946   4.228
  279SOL    HW1 1736   0.237   2.935   4.326
  279SOL    HW2 1737   0.353   2.947   4.212
  280SOL     OW 1738   2.314   6.886   2.944
  280SOL    HW1 1739   2.326   6.832   2.861
  280SOL    HW2 1740   2.332   6.829   3.024
  281SOL     OW 1741   3.368   4.890   2.130
  281SOL    HW1 1742   3.372   4.979   2.086
  281SOL    HW2 1743   3.422   4.824   2.078
  282SOL     OW 1744   4.228   2.093   5.561
  282SOL    HW1 1745   4.190   2.171   5.611
  282SOL    HW2 1746   4.162   2.061   5.493
  283SOL     OW 1747   6.630   1.058   5.965
  283SOL    HW1 1748   6.596   0.993   6.033
  283SOL    HW2 1749   6.694   1.121   6.009
  284SOL     OW 1750   0.266   4.372   4.708
  284SOL    HW1 1751   0.254   4.436   4.633
  284SOL    HW2 1752   0.194   4.386   4.776
  285SOL     OW 1753   5.258   5.423   6.440
  285SOL    HW1 1754   5.327   5.465   6.381
  285SOL    HW2 1755   5.297   5.407   6.531
  286SOL     OW 1756   3.138   5.373   5.034
  286SOL    HW1 1757   3.221   5.317   5.027
  286SOL    HW2 1758   3.062   5.325   4.989
  287SOL     OW 1759   0.548   4.511   6.304
  287SOL    HW1 1760   0.492   4.550   6.377
  287SOL    HW2 1761   0.500   4.434   6.262
  288SOL     OW 1762   4.163   2.305   0.190
  288SOL    HW1 1763   4.140   2.378   0.125
  288SOL    HW2 1764   4.200   2.345   0.273
  289SOL     OW 1765   0.341   5.145   4.967
  289SOL    HW1 1766   0.300   5.115   5.054
  289SOL    HW2 1767   0.268   5.166   4.902
  290SOL     OW 1768   4.826   1.574   3.693
  290SOL    HW1 1769   4.871   1.486   3.684
  290SOL    HW2 1770   4.807   1.611   3.602
  291SOL     OW 1771   3.167   0.694   4.698
  291SOL    HW1 1772   3.228   0.627   4.656
  291SOL    HW2 1773   3.081   0.696   4.648
  292SOL     OW 1774   3.451   1.993   2.760
  292SOL    HW1 1775   3.474   2.047   2.842
  292SOL    HW2 1776   3.534   1.949   2.725
  293SOL     OW 1777   4.489   5.207   2.014
  293SOL    HW1 1778   4.548   5.154   1.954
  293SOL    HW2 1779   4.523   5.301   2.020
  294SOL     OW 1780   6.937   5.376   6.219
  294SOL    HW1 1781   6.982   5.416   6.139
  294SOL    HW2 1782   6.940   5.277   6.213
  295SOL     OW 1783   3.391   1.301   5.115
  295SOL    HW1 1784   3.304   1.253   5.105
  295SOL    HW2 1785   3.394   1.378   5.051
  296SOL     OW 1786   6.085   1.694   2.188
  296SOL    HW1 1787   5.991   1.663   2.173
  296SOL    HW2 1788   6.093   1.790   2.164
  297SOL     OW 1789   2.810   4.791   2.455
  297SOL    HW1 1790   2.845   4.879   2.486
  297SOL    HW2 1791   2.839   4.776   2.360
  298SOL     OW 1792   3.546   6.328   0.525
  298SOL    HW1 1793   3.515   6.234   0.534
  298SOL    HW2 1794   3.476   6.391   0.560
  299SOL     OW 1795   4.567   2.901   0.029
  299SOL    HW1 1796   4.657   2.861   0.012
  299SOL    HW2 1797   4.523   2.922   6.967
  300SOL     OW 1798   5.106   0.916   1.580
  300SOL    HW1 1799   5.013   0.937   1.551
  300SOL    HW2 1800   5.171   0.955   1.515
  301SOL     OW 1801   5.520   2.781   0.681
  301SOL    HW1 1802   5.496   2.798   0.585
  301SOL    HW2 1803   5.613   2.812   0.698
  302SOL     OW 1804   0.294   0.818   3.752
  302SOL    HW1 1805   0.275   0.734   3.802
  302SOL    HW2 1806   0.291   0.896   3.815
  303SOL     OW 1807   6.943   6.660   2.193
  303SOL    HW1 1808   6.926   6.706   2.106
  303SOL    HW2 1809   6.937   6.726   2.268
  304SOL     OW 1810   2.082   6.522   5.864
  304SOL    HW1 1811   2.120   6.454   5.927
  304SOL    HW2 1812   2.150   6.543   5.793
  305SOL     OW 1813   1.501   2.675   0.535
  305SOL    HW1 1814   1.562   2.699   0.611
  305SOL    HW2 1815   1.447   2.754   0.509
  306SOL     OW 1816   1.862   0.668   3.388
  306SOL    HW1 1817   1.803   0.738   3.348
  306SOL    HW2 1818   1.915   0.708   3.463
  307SOL     OW 1819   5.132   5.029   0.660
  307SOL    HW1 1820   5.120   5.038   0.758
  307SOL    HW2 1821   5.073   5.095   0.613
  308SOL     OW 1822   5.224   3.106   4.244
  308SOL    HW1 1823   5.217   3.203   4.264
  308SOL    HW2 1824   5.218   3.054   4.329
  309SOL     OW 1825   2.229   5.498   0.152
  309SOL    HW1 1826   2.151   5.459   0.104
  309SOL    HW2 1827   2.257   5.436   0.226
  310SOL     OW 1828   5.361   6.694   5.840
  310SOL    HW1 1829   5.401   6.739   5.920
  310SOL    HW2 1830   5.376   6.595   5.847
  311SOL     OW 1831   4.011   5.061   2.552
  311SOL    HW1 1832   4.074   4.988   2.576
  311SOL    HW2 1833   4.003   5.125   2.629
  312SOL     OW 1834   4.406   0.976   4.258
  312SOL    HW1 1835   4.344   1.007   4.185
  312SOL    HW2 1836   4.370   0.894   4.301
  313SOL     OW 1837   2.951   3.600   2.098
  313SOL    HW1 1838   2.933   3.681   2.154
  313SOL    HW2 1839   3.037   3.558   2.127
  314SOL     OW 1840   2.613   4.377   6.672
  314SOL    HW1 1841   2.638   4.381   6.575
  314SOL    HW2 1842   2.514   4.387   6.681
  315SOL     OW 1843   1.357   3.177   4.035
  315SOL    HW1 1844   1.451   3.173   4.070
  315SOL    HW2 1845   1.297   3.125   4.095
  316SOL     OW 1846   3.021   1.506   4.411
  316SOL    HW1 1847   3.050   1.443   4.339
  316SOL    HW2 1848   3.094   1.572   4.429
  317SOL     OW 1849   6.962   1.340   1.229
  317SOL    HW1 1850   0.028   1.317   1.261
  317SOL    HW2 1851   6.970   1.395   1.145
  318SOL     OW 1852   0.516   5.583   6.504
  318SOL    HW1 1853   0.475   5.582   6.595
  318SOL    HW2 1854   0.445   5.596   6.435
  319SOL     OW 1855   6.404   1.521   3.603
  319SOL    HW1 1856   6.426   1.595   3.539
  319SOL    HW2 1857   6.484   1.500   3.659
  320SOL     OW 1858   6.370   2.497   1.220
  320SOL    HW1 1859   6.291   2.540   1.263
  320SOL    HW2 1860   6.341   2.416   1.169
  321SOL     OW 1861   3.157   1.223   0.249
  321SOL    HW1 1862   3.109   1.232   0.161
  321SOL    HW2 1863   3.159   1.312   0.295
  322SOL     OW 1864   3.386   2.930   3.663
  322SOL    HW1 1865   3.455   2.893   3.726
  322SOL    HW2 1866   3.305   2.957   3.716
  323SOL     OW 1867   1.508   3.017   6.150
  323SOL    HW1 1868   1.413   3.047   6.161
  323SOL    HW2 1869   1.557   3.081   6.091
  324SOL     OW 1870   2.845   0.513   3.996
  324SOL    HW1 1871   2.900   0.587   4.034
  324SOL    HW2 1872   2.753   0.516   4.035
  325SOL     OW 1873   0.529   2.570   1.768
  325SOL    HW1 1874   0.541   2.583   1.866
  325SOL    HW2 1875   0.437   2.536   1.749
  326SOL     OW 1876   1.229   5.195   6.785
  326SOL    HW1 1877   1.256   5.115   6.837
  326SOL    HW2 1878   1.233   5.175   6.687
  327SOL     OW 1879   1.453   4.349   2.837
  327SOL    HW1 1880   1.398   4.321   2.916
  327SOL    HW2 1881   1.469   4.447   2.840
  328SOL     OW 1882   1.570   5.562   1.879
  328SOL    HW1 1883   1.661   5.523   1.891
  328SOL    HW2 1884   1.577   5.649   1.829
  329SOL     OW 1885   3.324   2.908   4.144
  329SOL    HW1 1886   3.401   2.940   4.199
  329SOL    HW2 1887   3.357   2.885   4.052
  330SOL     OW 1888   3.542   6.247   1.232
  330SOL    HW1 1889   3.559   6.170   1.294
  330SOL    HW2 1890   3.544   6.333   1.283
  331SOL     OW 1891   3.982   5.636   0.253
  331SOL    HW1 1892   3.985   5.598   0.346
  331SOL    HW2 1893   3.906   5.594   0.203
  332SOL     OW 1894   4.757   2.322   5.146
  332SOL    HW1 1895   4.777   2.364   5.058
  332SOL    HW2 1896   4.726   2.393   5.210
  333SOL     OW 1897   3.356   0.570   6.388
  333SOL    HW1 1898   3.283   0.601   6.450
  333SOL    HW2 1899   3.350   0.471   6.377
  334SOL     OW 1900   3.190   0.947   1.161
  334SOL    HW1 1901   3.139   0.886   1.222
  334SOL    HW2 1902   3.127   1.002   1.108
  335SOL     OW 1903   4.113   6.950   5.291
  335SOL    HW1 1904   4.171   6.963   5.371
  335SOL    HW2 1905   4.117   6.854   5.262
  336SOL     OW 1906   2.510   1.105   3.718
  336SOL    HW1 1907   2.545   1.054   3.639
  336SOL    HW2 1908   2.526   1.053   3.802
  337SOL     OW 1909   0.784   2.633   6.665
  337SOL    HW1 1910   0.844   2.658   6.588
  337SOL    HW2 1911   0.773   2.713   6.725
  338SOL     OW 1912   3.275   2.814   1.486
  338SOL    HW1 1913   3.315   2.765   1.408
  338SOL    HW2 1914   3.212   2.884   1.452
  339SOL     OW 1915   3.752   6.022   4.150
  339SOL    HW1 1916   3.798   6.064   4.228
  339SOL    HW2 1917   3.713   6.093   4.092
  340SOL     OW 1918   4.688   4.309   4.779
  340SOL    HW1 1919   4.635   4.225   4.764
  340SOL    HW2 1920   4.696   4.326   4.877
  341SOL     OW 1921   6.538   0.061   4.444
  341SOL    HW1 1922   6.603   0.025   4.511
  341SOL    HW2 1923   6.461   7.025   4.435
  342SOL     OW 1924   6.156   3.478   6.951
  342SOL    HW1 1925   6.252   3.475   6.980
  342SOL    HW2 1926   6.141   3.559   6.894
  343SOL     OW 1927   1.816   5.600   0.932
  343SOL    HW1 1928   1.758   5.653   0.994
  343SOL    HW2 1929   1.910   5.601   0.966
  344SOL     OW 1930   1.323   3.438   2.263
  344SOL    HW1 1931   1.371   3.369   2.209
  344SOL    HW2 1932   1.372   3.525   2.257
  345SOL     OW 1933   3.995   2.025   2.638
  345SOL    HW1 1934   4.043   2.112   2.629
  345SOL    HW2 1935   4.023   1.979   2.722
  346SOL     OW 1936   2.323   0.865   3.031
  346SOL    HW1 1937   2.272   0.819   3.103
  346SOL    HW2 1938   2.264   0.876   2.950
  347SOL     OW 1939   2.799   5.971   6.589
  347SOL    HW1 1940   2.869   5.957   6.519
  347SOL    HW2 1941   2.767   5.883   6.624
  348SOL     OW 1942   5.331   4.651   2.054
  348SOL    HW1 1943   5.340   4.569   1.998
  348SOL    HW2 1944   5.352   4.629   2.149
  349SOL     OW 1945   6.760   5.477   1.124
  349SOL    HW1 1946   6.779   5.387   1.161
  349SOL    HW2 1947   6.780   5.478   1.026
  350SOL     OW 1948   3.305   3.098   0.935
  350SOL    HW1 1949   3.249   3.179   0.954
  350SOL    HW2 1950   3.335   3.100   0.839
  351SOL     OW 1951   2.001   3.181   1.402
  351SOL    HW1 1952   1.943   3.099   1.406
  351SOL    HW2 1953   1.979   3.232   1.319
  352SOL     OW 1954   2.925   0.203   4.698
  352SOL    HW1 1955   2.882   0.269   4.637
  352SOL    HW2 1956   3.008   0.243   4.737
  353SOL     OW 1957   1.939   0.231   0.944
  353SOL    HW1 1958   1.876   0.307   0.930
  353SOL    HW2 1959   1.931   0.167   0.867
  354SOL     OW 1960   3.933   2.481   1.059
  354SOL    HW1 1961   3.877   2.398   1.055
  354SOL    HW2 1962   4.028   2.455   1.079
  355SOL     OW 1963   1.503   3.657   2.514
  355SOL    HW1 1964   1.441   3.598   2.463
  355SOL    HW2 1965   1.466   3.671   2.606
  356SOL     OW 1966   2.866   0.145   5.951
  356SOL    HW1 1967   2.853   0.195   6.037
  356SOL    HW2 1968   2.786   0.086   5.936
  357SOL     OW 1969   6.718   5.762   6.083
  357SOL    HW1 1970   6.631   5.810   6.075
  357SOL    HW2 1971   6.708   5.685   6.145
  358SOL     OW 1972   4.307   6.812   0.389
  358SOL    HW1 1973   4.217   6.790   0.427
  358SOL    HW2 1974   4.321   6.911   0.393
  359SOL     OW 1975   2.234   2.449   1.960
  359SOL    HW1 1976   2.160   2.387   1.936
  359SOL    HW2 1977   2.316   2.396   1.981
  360SOL     OW 1978   1.107   5.199   6.095
  360SOL    HW1 1979   1.009   5.185   6.110
  360SOL    HW2 1980   1.135   5.287   6.135
  361SOL     OW 1981   5.998   6.384   2.996
  361SOL    HW1 1982   6.046   6.435   3.067
  361SOL    HW2 1983   5.901   6.377   3.020
  362SOL     OW 1984   3.568   3.403   1.122
  362SOL    HW1 1985   3.492   3.390   1.186
  362SOL    HW2 1986   3.647   3.440   1.172
  363SOL     OW 1987   5.211   4.014   3.364
  363SOL    HW1 1988   5.185   3.926   3.325
  363SOL    HW2 1989   5.199   4.086   3.296
  364SOL     OW 1990   6.624   5.651   6.544
  364SOL    HW1 1991   6.533   5.684   6.571
  364SOL    HW2 1992   6.681   5.729   6.519
  365SOL     OW 1993   6.250   6.032   1.937
  365SOL    HW1 1994   6.156   6.060   1.960
  365SOL    HW2 1995   6.314   6.081   1.995
  366SOL     OW 1996   5.554   0.845   6.141
  366SOL    HW1 1997   5.600   0.889   6.218
  366SOL    HW2 1998   5.467   0.891   6.123
  367SOL     OW 1999   5.571   3.541   1.054
  367SOL    HW1 2000   5.594   3.444   1.066
  367SOL    HW2 2001   5.543   3.580   1.141
  368SOL     OW 2002   6.978   3.252   4.832
  368SOL    HW1 2003   7.024   3.236   4.919
  368SOL    HW2 2004   0.011   3.222   4.757
  369SOL     OW 2005   6.269   5.210   2.407
  369SOL    HW1 2006   6.357   5.231   2.364
  369SOL    HW2 2007   6.202   5.189   2.336
  370SOL     OW 2008   2.574   1.161   5.630
  370SOL    HW1 2009   2.554   1.205   5.542
  370SOL    HW2 2010   2.610   1.069   5.614
  371SOL     OW 2011   2.249   3.782   6.086
  371SOL    HW1 2012   2.302   3.781   6.001
  371SOL    HW2 2013   2.299   3.831   6.157
  372SOL     OW 2014   0.891   6.801   6.013
  372SOL    HW1 2015   0.873   6.880   6.072
  372SOL    HW2 2016   0.990   6.785   6.008
  373SOL     OW 2017   6.514   6.401   4.769
  373SOL    HW1 2018   6.486   6.446   4.854
  373SOL    HW2 2019   6.590   6.339   4.788
  374SOL     OW 2020   2.713   1.771   4.005
  374SOL    HW1 2021   2.805   1.738   3.986
  374SOL    HW2 2022   2.714   1.828   4.086
  375SOL     OW 2023   0.712   4.173   4.097
  375SOL    HW1 2024   0.785   4.118   4.138
  375SOL    HW2 2025   0.732   4.270   4.110
  376SOL     OW 2026   2.683   1.079   5.245
  376SOL    HW1 2027   2.761   1.025   5.277
  376SOL    HW2 2028   2.645   1.037   5.163
  377SOL     OW 2029   1.290   1.665   1.131
  377SOL    HW1 2030   1.346   1.586   1.158
  377SOL    HW2 2031   1.348   1.733   1.086
  378SOL     OW 2032   4.569   2.710   6.579
  378SOL    HW1 2033   4.514   2.695   6.661
  378SOL    HW2 2034   4.536   2.792   6.532
  379SOL     OW 2035   6.360   3.630   1.118
  379SOL    HW1 2036   6.321   3.548   1.159
  379SOL    HW2 2037   6.411   3.606   1.035
  380SOL     OW 2038   2.311   1.277   0.715
  380SOL    HW1 2039   2.272   1.197   0.668
  380SOL    HW2 2040   2.299   1.358   0.657
  381SOL     OW 2041   1.434   3.723   2.835
  381SOL    HW1 2042   1.409   3.735   2.932
  381SOL    HW2 2043   1.387   3.792   2.780
  382SOL     OW 2044   6.036   0.318   6.511
  382SOL    HW1 2045   5.944   0.280   6.517
  382SOL    HW2 2046   6.090   0.267   6.444
  383SOL     OW 2047   4.194   3.846   6.099
  383SOL    HW1 2048   4.188   3.941   6.067
  383SOL    HW2 2049   4.116   3.826   6.159
  384SOL     OW 2050   6.855   5.606   4.036
  384SOL    HW1 2051   6.856   5.648   3.945
  384SOL    HW2 2052   6.845   5.507   4.028
  385SOL     OW 2053   3.886   5.348   5.305
  385SOL    HW1 2054   3.788   5.369   5.307
  385SOL    HW2 2055   3.903   5.272   5.242
  386SOL     OW 2056   2.047   6.625   5.413
  386SOL    HW1 2057   2.069   6.721   5.426
  386SOL    HW2 2058   2.051   6.578   5.501
  387SOL     OW 2059   1.201   6.705   3.488
  387SOL    HW1 2060   1.283   6.728   3.434
  387SOL    HW2 2061   1.227   6.645   3.564
  388SOL     OW 2062   1.565   1.857   4.604
  388SOL    HW1 2063   1.578   1.828   4.698
  388SOL    HW2 2064   1.643   1.829   4.549
  389SOL     OW 2065   3.681   4.360   1.149
  389SOL    HW1 2066   3.681   4.308   1.063
  389SOL    HW2 2067   3.705   4.298   1.224
  390SOL     OW 2068   3.425   1.194   0.121
  390SOL    HW1 2069   3.426   1.097   0.145
  390SOL    HW2 2070   3.345   1.238   0.162
  391SOL     OW 2071   2.166   3.426   5.888
  391SOL    HW1 2072   2.074   3.386   5.892
  391SOL    HW2 2073   2.228   3.362   5.841
  392SOL     OW 2074   1.567   4.474   0.540
  392SOL    HW1 2075   1.578   4.552   0.477
  392SOL    HW2 2076   1.522   4.399   0.492
  393SOL     OW 2077   1.319   4.558   6.114
  393SOL    HW1 2078   1.408   4.512   6.108
  393SOL    HW2 2079   1.289   4.584   6.022
  394SOL     OW 2080   7.002   2.324   0.762
  394SOL    HW1 2081   0.038   2.403   0.767
  394SOL    HW2 2082   6.963   2.319   0.670
  395SOL     OW 2083   5.225   4.188   3.132
  395SOL    HW1 2084   5.170   4.270   3.146
  395SOL    HW2 2085   5.289   4.203   3.057
  396SOL     OW 2086   2.867   3.377   1.961
  396SOL    HW1 2087   2.894   3.323   2.041
  396SOL    HW2 2088   2.899   3.471   1.972
  397SOL     OW 2089   5.839   1.844   6.238
  397SOL    HW1 2090   5.918   1.826   6.298
  397SOL    HW2 2091   5.826   1.943   6.230
  398SOL     OW 2092   1.247   0.072   3.220
  398SOL    HW1 2093   1.225   7.021   3.280
  398SOL    HW2 2094   1.343   0.098   3.233
  399SOL     OW 2095   5.111   6.449   3.110
  399SOL    HW1 2096   5.096   6.478   3.204
  399SOL    HW2 2097   5.023   6.437   3.064
  400SOL     OW 2098   6.207   6.645   5.121
  400SOL    HW1 2099   6.277   6.649   5.050
  400SOL    HW2 2100   6.252   6.653   5.211
  401SOL     OW 2101   5.387   0.069   6.709
  401SOL    HW1 2102   5.339   0.041   6.626
  401SOL    HW2 2103   5.347   0.154   6.743
  402SOL     OW 2104   6.550   0.109   3.744
  402SOL    HW1 2105   6.494   0.188   3.767
  402SOL    HW2 2106   6.491   0.029   3.729
  403SOL     OW 2107   4.061   1.650   4.848
  403SOL    HW1 2108   4.014   1.736   4.863
  403SOL    HW2 2109   4.122   1.631   4.926
  404SOL     OW 2110   1.586   4.981   3.698
  404SOL    HW1 2111   1.673   4.964   3.651
  404SOL    HW2 2112   1.589   4.942   3.790
  405SOL     OW 2113   2.202   2.929   2.699
  405SOL    HW1 2114   2.183   3.027   2.710
  405SOL    HW2 2115   2.193   2.904   2.603
  406SOL     OW 2116   0.744   4.340   4.567
  406SOL    HW1 2117   0.703   4.316   4.654
  406SOL    HW2 2118   0.686   4.307   4.492
  407SOL     OW 2119   0.337   1.309   4.895
  407SOL    HW1 2120   0.289   1.343   4.977
  407SOL    HW2 2121   0.422   1.264   4.922
  408SOL     OW 2122   2.498   2.224   3.064
  408SOL    HW1 2123   2.551   2.164   3.125
  408SOL    HW2 2124   2.486   2.178   2.976
  409SOL     OW 2125   6.071   3.516   2.270
  409SOL    HW1 2126   6.003   3.460   2.223
  409SOL    HW2 2127   6.117   3.575   2.204
  410SOL     OW 2128   1.135   1.605   0.926
  410SOL    HW1 2129   1.157   1.616   1.023
  410SOL    HW2 2130   1.214   1.569   0.877
  411SOL     OW 2131   6.760   0.956   1.531
  411SOL    HW1 2132   6.842   0.948   1.588
  411SOL    HW2 2133   6.757   1.046   1.489
  412SOL     OW 2134   3.175   5.812   3.194
  412SOL    HW1 2135   3.182   5.721   3.153
  412SOL    HW2 2136   3.233   5.817   3.275
  413SOL     OW 2137   5.527   4.149   2.029
  413SOL    HW1 2138   5.501   4.053   2.032
  413SOL    HW2 2139   5.621   4.160   2.060
  414SOL     OW 2140   3.630   5.309   3.221
  414SOL    HW1 2141   3.555   5.246   3.203
  414SOL    HW2 2142   3.607   5.400   3.187
  415SOL     OW 2143   0.601   6.694   6.104
  415SOL    HW1 2144   0.670   6.700   6.032
  415SOL    HW2 2145   0.516   6.656   6.066
  416SOL     OW 2146   4.686   6.322   4.932
  416SOL    HW1 2147   4.719   6.412   4.906
  416SOL    HW2 2148   4.587   6.319   4.923
  417SOL     OW 2149   2.283   6.479   5.661
  417SOL    HW1 2150   2.266   6.453   5.566
  417SOL    HW2 2151   2.372   6.443   5.690
  418SOL     OW 2152   3.746   6.759   6.440
  418SOL    HW1 2153   3.679   6.707   6.493
  418SOL    HW2 2154   3.722   6.856   6.443
  419SOL     OW 2155   1.595   6.003   2.580
  419SOL    HW1 2156   1.687   6.015   2.618
  419SOL    HW2 2157   1.588   6.054   2.494
  420SOL     OW 2158   6.025   1.721   0.277
  420SOL    HW1 2159   6.098   1.664   0.314
  420SOL    HW2 2160   5.942   1.666   0.267
  421SOL     OW 2161   6.474   4.121   5.228
  421SOL    HW1 2162   6.525   4.035   5.235
  421SOL    HW2 2163   6.455   4.156   5.319
  422SOL     OW 2164   5.168   3.941   1.549
  422SOL    HW1 2165   5.205   3.926   1.457
  422SOL    HW2 2166   5.075   3.905   1.553
  423SOL     OW 2167   0.874   2.574   6.395
  423SOL    HW1 2168   0.973   2.565   6.396
  423SOL    HW2 2169   0.832   2.485   6.409
  424SOL     OW 2170   1.398   4.981   1.400
  424SOL    HW1 2171   1.441   4.896   1.430
  424SOL    HW2 2172   1.454   5.022   1.328
  425SOL     OW 2173   4.862   2.059   3.294
  425SOL    HW1 2174   4.906   2.129   3.239
  425SOL    HW2 2175   4.907   1.971   3.279
  426SOL     OW 2176   2.656   2.089   4.690
  426SOL    HW1 2177   2.687   2.015   4.750
  426SOL    HW2 2178   2.569   2.064   4.648
  427SOL     OW 2179   5.618   6.957   3.760
  427SOL    HW1 2180   5.631   0.018   3.808
  427SOL    HW2 2181   5.702   6.903   3.765
  428SOL     OW 2182   4.038   0.123   3.211
  428SOL    HW1 2183   4.108   0.188   3.240
  428SOL    HW2 2184   4.047   0.106   3.113
  429SOL     OW 2185   0.700   5.146   3.093
  429SOL    HW1 2186   0.614   5.146   3.143
  429SOL    HW2 2187   0.724   5.240   3.067
  430SOL     OW 2188   1.463   5.967   3.988
  430SOL    HW1 2189   1.423   6.053   3.955
  430SOL    HW2 2190   1.523   5.985   4.066
  431SOL     OW 2191   3.179   0.130   1.209
  431SOL    HW1 2192   3.163   0.045   1.260
  431SOL    HW2 2193   3.222   0.197   1.269
  432SOL     OW 2194   6.450   2.119   1.502
  432SOL    HW1 2195   6.448   2.219   1.506
  432SOL    HW2 2196   6.462   2.090   1.407
  433SOL     OW 2197   2.351   6.702   5.327
  433SOL    HW1 2198   2.381   6.627   5.385
  433SOL    HW2 2199   2.391   6.692   5.236
  434SOL     OW 2200   3.968   5.541   3.140
  434SOL    HW1 2201   3.923   5.615   3.088
  434SOL    HW2 2202   3.966   5.563   3.237
  435SOL     OW 2203   4.403   2.127   6.618
  435SOL    HW1 2204   4.471   2.177   6.671
  435SOL    HW2 2205   4.311   2.150   6.650
  436SOL     OW 2206   3.041   4.944   1.699
  436SOL    HW1 2207   3.026   4.887   1.780
  436SOL    HW2 2208   3.083   5.030   1.726
  437SOL     OW 2209   0.549   1.254   6.003
  437SOL    HW1 2210   0.468   1.311   5.991
  437SOL    HW2 2211   0.531   1.163   5.965
  438SOL     OW 2212   2.136   4.084   4.391
  438SOL    HW1 2213   2.194   4.113   4.314
  438SOL    HW2 2214   2.168   3.995   4.424
  439SOL     OW 2215   6.023   6.200   2.799
  439SOL    HW1 2216   5.939   6.154   2.771
  439SOL    HW2 2217   6.012   6.237   2.891
  440SOL     OW 2218   2.788   2.026   5.362
  440SOL    HW1 2219   2.734   2.085   5.421
  440SOL    HW2 2220   2.734   1.999   5.282
  441SOL     OW 2221   0.508   3.086   3.461
  441SOL    HW1 2222   0.574   3.088   3.536
  441SOL    HW2 2223   0.529   3.010   3.400
  442SOL     OW 2224   4.215   5.840   5.283
  442SOL    HW1 2225   4.193   5.752   5.242
  442SOL    HW2 2226   4.150   5.909   5.251
  443SOL     OW 2227   5.734   4.387   4.378
  443SOL    HW1 2228   5.761   4.303   4.332
  443SOL    HW2 2229   5.757   4.382   4.475
  444SOL     OW 2230   5.247   0.755   6.454
  444SOL    HW1 2231   5.157   0.795   6.438
  444SOL    HW2 2232   5.241   0.655   6.444
  445SOL     OW 2233   1.620   5.412   2.837
  445SOL    HW1 2234   1.691   5.365   2.890
  445SOL    HW2 2235   1.642   5.404   2.740
  446SOL     OW 2236   3.959   4.804   2.897
  446SOL    HW1 2237   3.900   4.748   2.839
  446SOL    HW2 2238   4.030   4.846   2.842
  447SOL     OW 2239   0.091   3.296   5.728
  447SOL    HW1 2240   0.160   3.269   5.795
  447SOL    HW2 2241   0.030   3.218   5.709
  448SOL     OW 2242   2.518   0.561   2.725
  448SOL    HW1 2243   2.583   0.602   2.789
  448SOL    HW2 2244   2.425   0.581   2.756
  449SOL     OW 2245   2.813   1.282   3.932
  449SOL    HW1 2246   2.740   1.306   3.868
  449SOL    HW2 2247   2.901   1.308   3.892
  450SOL     OW 2248   1.586   4.966   3.427
  450SOL    HW1 2249   1.537   5.010   3.503
  450SOL    HW2 2250   1.668   4.921   3.462
  451SOL     OW 2251   1.540   2.160   4.932
  451SOL    HW1 2252   1.487   2.089   4.886
  451SOL    HW2 2253   1.545   2.242   4.875
  452SOL     OW 2254   5.064   6.421   0.770
  452SOL    HW1 2255   5.007   6.498   0.796
  452SOL    HW2 2256   5.008   6.338   0.765
  453SOL     OW 2257   3.474   0.534   6.927
  453SOL    HW1 2258   3.470   0.531   6.827
  453SOL    HW2 2259   3.525   0.615   6.956
  454SOL     OW 2260   6.818   3.720   6.535
  454SOL    HW1 2261   6.861   3.748   6.449
  454SOL    HW2 2262   6.866   3.763   6.611
  455SOL     OW 2263   5.133   2.517   4.664
  455SOL    HW1 2264   5.176   2.500   4.752
  455SOL    HW2 2265   5.190   2.482   4.590
  456SOL     OW 2266   0.659   6.876   4.216
  456SOL    HW1 2267   0.742   6.879   4.160
  456SOL    HW2 2268   0.614   6.787   4.204
  457SOL     OW 2269   1.974   4.233   4.503
  457SOL    HW1 2270   1.887   4.234   4.452
  457SOL    HW2 2271   2.040   4.178   4.453
  458SOL     OW 2272   2.772   6.231   2.749
  458SOL    HW1 2273   2.765   6.260   2.844
  458SOL    HW2 2274   2.745   6.135   2.741
  459SOL     OW 2275   2.416   7.001   6.337
  459SOL    HW1 2276   2.319   7.024   6.348
  459SOL    HW2 2277   2.428   6.902   6.342
  460SOL     OW 2278   2.002   0.125   4.448
  460SOL    HW1 2279   1.994   0.136   4.349
  460SOL    HW2 2280   1.942   0.191   4.494
  461SOL     OW 2281   0.093   5.366   5.441
  461SOL    HW1 2282   0.025   5.299   5.409
  461SOL    HW2 2283   0.054   5.420   5.515
  462SOL     OW 2284   4.282   3.322   6.401
  462SOL    HW1 2285   4.184   3.344   6.399
  462SOL    HW2 2286   4.312   3.312   6.496
  463SOL     OW 2287   6.523   6.580   4.168
  463SOL    HW1 2288   6.427   6.608   4.174
  463SOL    HW2 2289   6.569   6.601   4.254
  464SOL     OW 2290   2.982   0.767   5.635
  464SOL    HW1 2291   3.025   0.851   5.603
  464SOL    HW2 2292   3.015   0.746   5.728
  465SOL     OW 2293   0.468   2.193   0.155
  465SOL    HW1 2294   0.513   2.188   0.066
  465SOL    HW2 2295   0.450   2.100   0.188
  466SOL     OW 2296   2.178   6.630   3.932
  466SOL    HW1 2297   2.213   6.646   3.840
  466SOL    HW2 2298   2.141   6.537   3.938
  467SOL     OW 2299   1.567   1.301   2.385
  467SOL    HW1 2300   1.568   1.234   2.310
  467SOL    HW2 2301   1.488   1.284   2.444
  468SOL     OW 2302   3.387   6.010   5.048
  468SOL    HW1 2303   3.292   6.021   5.074
  468SOL    HW2 2304   3.421   5.922   5.079
  469SOL     OW 2305   2.543   3.634   6.086
  469SOL    HW1 2306   2.558   3.612   6.182
  469SOL    HW2 2307   2.575   3.727   6.067
  470SOL     OW 2308   4.018   6.086   0.974
  470SOL    HW1 2309   3.997   6.025   0.897
  470SOL    HW2 2310   4.115   6.110   0.971
  471SOL     OW 2311   2.310   2.668   4.058
  471SOL    HW1 2312   2.327   2.598   3.989
  471SOL    HW2 2313   2.373   2.657   4.135
  472SOL     OW 2314   5.347   4.645   6.614
  472SOL    HW1 2315   5.329   4.627   6.517
  472SOL    HW2 2316   5.365   4.742   6.627
  473SOL     OW 2317   1.311   1.765   2.886
  473SOL    HW1 2318   1.350   1.839   2.940
  473SOL    HW2 2319   1.373   1.742   2.811
  474SOL     OW 2320   5.441   5.925   4.608
  474SOL    HW1 2321   5.372   5.986   4.647
  474SOL    HW2 2322   5.532   5.953   4.638
  475SOL     OW 2323   6.577   2.861   0.383
  475SOL    HW1 2324   6.632   2.871   0.300
  475SOL    HW2 2325   6.561   2.764   0.401
  476SOL     OW 2326   6.853   3.883   2.183
  476SOL    HW1 2327   6.943   3.844   2.162
  476SOL    HW2 2328   6.792   3.810   2.214
  477SOL     OW 2329   2.459   5.942   3.253
  477SOL    HW1 2330   2.498   5.899   3.335
  477SOL    HW2 2331   2.525   6.008   3.217
  478SOL     OW 2332   3.970   6.183   2.660
  478SOL    HW1 2333   3.943   6.191   2.756
  478SOL    HW2 2334   3.917   6.248   2.606
  479SOL     OW 2335   3.860   3.365   5.317
  479SOL    HW1 2336   3.944   3.416   5.340
  479SOL    HW2 2337   3.867   3.272   5.353
  480SOL     OW 2338   2.448   0.281   0.965
  480SOL    HW1 2339   2.360   0.240   0.940
  480SOL    HW2 2340   2.508   0.283   0.885
  481SOL     OW 2341   1.117   6.396   1.695
  481SOL    HW1 2342   1.055   6.407   1.618
  481SOL    HW2 2343   1.064   6.398   1.780
  482SOL     OW 2344   4.396   4.891   2.188
  482SOL    HW1 2345   4.395   4.792   2.197
  482SOL    HW2 2346   4.318   4.921   2.132
  483SOL     OW 2347   6.626   2.470   2.721
  483SOL    HW1 2348   6.626   2.423   2.810
  483SOL    HW2 2349   6.534   2.467   2.682
  484SOL     OW 2350   1.638   3.992   4.677
  484SOL    HW1 2351   1.627   4.070   4.738
  484SOL    HW2 2352   1.725   3.947   4.696
  485SOL     OW 2353   4.532   4.849   2.641
  485SOL    HW1 2354   4.468   4.823   2.569
  485SOL    HW2 2355   4.552   4.947   2.634
  486SOL     OW 2356   6.382   1.495   0.555
  486SOL    HW1 2357   6.451   1.528   0.491
  486SOL    HW2 2358   6.376   1.556   0.634
  487SOL     OW 2359   0.621   0.366   3.365
  487SOL    HW1 2360   0.699   0.387   3.423
  487SOL    HW2 2361   0.587   0.274   3.386
  488SOL     OW 2362   0.994   0.341   2.689
  488SOL    HW1 2363   0.987   0.439   2.703
  488SOL    HW2 2364   0.902   0.302   2.684
  489SOL     OW 2365   5.183   6.257   5.773
  489SOL    HW1 2366   5.167   6.180   5.711
  489SOL    HW2 2367   5.254   6.316   5.734
  490SOL     OW 2368   1.947   5.822   3.650
  490SOL    HW1 2369   1.877   5.834   3.579
  490SOL    HW2 2370   1.903   5.799   3.736
  491SOL     OW 2371   1.029   2.880   1.541
  491SOL    HW1 2372   0.961   2.808   1.556
  491SOL    HW2 2373   1.001   2.963   1.588
  492SOL     OW 2374   1.399   1.066   5.885
  492SOL    HW1 2375   1.367   1.127   5.812
  492SOL    HW2 2376   1.499   1.073   5.892
  493SOL     OW 2377   3.192   6.633   5.761
  493SOL    HW1 2378   3.122   6.631   5.690
  493SOL    HW2 2379   3.188   6.721   5.809
  494SOL     OW 2380   1.202   6.596   6.635
  494SOL    HW1 2381   1.174   6.511   6.680
  494SOL    HW2 2382   1.131   6.665   6.647
  495SOL     OW 2383   3.905   5.660   3.410
  495SOL    HW1 2384   3.845   5.722   3.360
  495SOL    HW2 2385   3.853   5.581   3.442
  496SOL     OW 2386   5.828   2.798   1.935
  496SOL    HW1 2387   5.829   2.898   1.929
  496SOL    HW2 2388   5.771   2.761   1.862
  497SOL     OW 2389   3.197   1.128   4.562
  497SOL    HW1 2390   3.254   1.078   4.498
  497SOL    HW2 2391   3.181   1.073   4.643
  498SOL     OW 2392   0.706   5.158   2.501
  498SOL    HW1 2393   0.705   5.101   2.582
  498SOL    HW2 2394   0.616   5.156   2.458
  499SOL     OW 2395   1.885   5.596   4.675
  499SOL    HW1 2396   1.941   5.525   4.719
  499SOL    HW2 2397   1.798   5.604   4.724
  500SOL     OW 2398   6.725   2.518   6.834
  500SOL    HW1 2399   6.786   2.468   6.896
  500SOL    HW2 2400   6.721   2.470   6.746
  501SOL     OW 2401   4.073   6.758   0.621
  501SOL    HW1 2402   4.049   6.684   0.684
  501SOL    HW2 2403   4.137   6.820   0.665
  502SOL     OW 2404   0.884   4.582   6.037
  502SOL    HW1 2405   0.926   4.664   6.077
  502SOL    HW2 2406   0.921   4.501   6.081
  503SOL     OW 2407   0.735   4.679   6.471
  503SOL    HW1 2408   0.733   4.580   6.458
  503SOL    HW2 2409   0.641   4.713   6.476
  504SOL     OW 2410   1.045   5.547   2.328
  504SOL    HW1 2411   1.080   5.547   2.234
  504SOL    HW2 2412   0.959   5.497   2.331
  505SOL     OW 2413   4.015   5.810   4.760
  505SOL    HW1 2414   3.997   5.723   4.805
  505SOL    HW2 2415   3.930   5.862   4.752
  506SOL     OW 2416   3.720   5.563   2.396
  506SOL    HW1 2417   3.631   5.533   2.363
  506SOL    HW2 2418   3.712   5.589   2.493
  507SOL     OW 2419   2.966   6.624   2.937
  507SOL    HW1 2420   2.939   6.588   3.026
  507SOL    HW2 2421   3.025   6.558   2.890
  508SOL     OW 2422   0.172   3.254   2.630
  508SOL    HW1 2423   0.193   3.351   2.624
  508SOL    HW2 2424   0.127   3.234   2.717
  509SOL     OW 2425   2.831   1.729   0.801
  509SOL    HW1 2426   2.906   1.794   0.791
  509SOL    HW2 2427   2.744   1.778   0.806
  510SOL     OW 2428   6.253   4.266   6.918
  510SOL    HW1 2429   6.264   4.167   6.914
  510SOL    HW2 2430   6.338   4.308   6.950
  511SOL     OW 2431   0.457   3.265   6.147
  511SOL    HW1 2432   0.466   3.187   6.209
  511SOL    HW2 2433   0.515   3.340   6.179
  512SOL     OW 2434   6.996   2.081   6.497
  512SOL    HW1 2435   6.991   1.998   6.441
  512SOL    HW2 2436   6.985   2.057   6.593
  513SOL     OW 2437   5.240   6.668   2.965
  513SOL    HW1 2438   5.335   6.662   2.935
  513SOL    HW2 2439   5.206   6.577   2.990
  514SOL     OW 2440   6.261   0.552   4.621
  514SOL    HW1 2441   6.290   0.465   4.581
  514SOL    HW2 2442   6.310   0.627   4.576
  515SOL     OW 2443   1.242   1.142   0.668
  515SOL    HW1 2444   1.204   1.168   0.756
  515SOL    HW2 2445   1.246   1.222   0.608
  516SOL     OW 2446   2.725   4.774   1.774
  516SOL    HW1 2447   2.764   4.726   1.852
  516SOL    HW2 2448   2.625   4.775   1.783
  517SOL     OW 2449   3.301   4.800   1.820
  517SOL    HW1 2450   3.293   4.892   1.781
  517SOL    HW2 2451   3.388   4.790   1.867
  518SOL     OW 2452   2.058   2.573   3.803
  518SOL    HW1 2453   2.022   2.483   3.828
  518SOL    HW2 2454   2.158   2.573   3.814
  519SOL     OW 2455   1.040   6.536   2.963
  519SOL    HW1 2456   1.038   6.634   2.943
  519SOL    HW2 2457   1.076   6.487   2.884
  520SOL     OW 2458   6.255   3.838   6.557
  520SOL    HW1 2459   6.352   3.860   6.544
  520SOL    HW2 2460   6.200   3.888   6.490
  521SOL     OW 2461   6.688   6.364   5.593
  521SOL    HW1 2462   6.615   6.422   5.557
  521SOL    HW2 2463   6.672   6.269   5.566
  522SOL     OW 2464   4.038   3.418   3.883
  522SOL    HW1 2465   3.943   3.423   3.854
  522SOL    HW2 2466   4.085   3.502   3.859
  523SOL     OW 2467   0.334   5.898   0.798
  523SOL    HW1 2468   0.395   5.933   0.868
  523SOL    HW2 2469   0.275   5.972   0.764
  524SOL     OW 2470   1.493   2.526   2.960
  524SOL    HW1 2471   1.489   2.494   3.054
  524SOL    HW2 2472   1.409   2.575   2.938
  525SOL     OW 2473   1.760   4.264   6.031
  525SOL    HW1 2474   1.736   4.173   6.066
  525SOL    HW2 2475   1.822   4.254   5.953
  526SOL     OW 2476   3.484   6.701   4.137
  526SOL    HW1 2477   3.426   6.774   4.171
  526SOL    HW2 2478   3.428   6.632   4.092
  527SOL     OW 2479   6.840   2.794   0.556
  527SOL    HW1 2480   6.816   2.721   0.620
  527SOL    HW2 2481   6.938   2.793   0.540
  528SOL     OW 2482   1.947   2.450   3.430
  528SOL    HW1 2483   1.907   2.444   3.339
  528SOL    HW2 2484   1.992   2.363   3.453
  529SOL     OW 2485   1.937   6.165   5.219
  529SOL    HW1 2486   1.854   6.122   5.183
  529SOL    HW2 2487   1.912   6.243   5.276
  530SOL     OW 2488   4.007   3.721   3.415
  530SOL    HW1 2489   4.033   3.783   3.489
  530SOL    HW2 2490   4.084   3.662   3.392
  531SOL     OW 2491   0.984   1.493   3.016
  531SOL    HW1 2492   0.952   1.586   3.004
  531SOL    HW2 2493   1.070   1.481   2.966
  532SOL     OW 2494   0.867   2.420   0.516
  532SOL    HW1 2495   0.904   2.374   0.596
  532SOL    HW2 2496   0.942   2.464   0.465
  533SOL     OW 2497   4.184   6.790   3.130
  533SOL    HW1 2498   4.192   6.888   3.112
  533SOL    HW2 2499   4.097   6.757   3.093
  534SOL     OW 2500   5.546   5.970   2.422
  534SOL    HW1 2501   5.559   5.921   2.509
  534SOL    HW2 2502   5.630   6.019   2.399
  535SOL     OW 2503   6.266   3.683   3.687
  535SOL    HW1 2504   6.317   3.765   3.713
  535SOL    HW2 2505   6.272   3.615   3.760
  536SOL     OW 2506   5.987   4.655   2.974
  536SOL    HW1 2507   6.042   4.611   2.903
  536SOL    HW2 2508   5.978   4.594   3.053
  537SOL     OW 2509   3.290   0.054   4.726
  537SOL    HW1 2510   3.286   0.154   4.723
  537SOL    HW2 2511   3.207   0.017   4.684
  538SOL     OW 2512   0.828   4.675   3.935
  538SOL    HW1 2513   0.759   4.603   3.934
  538SOL    HW2 2514   0.869   4.682   4.026
  539SOL     OW 2515   1.700   4.603   1.669
  539SOL    HW1 2516   1.701   4.584   1.767
  539SOL    HW2 2517   1.794   4.606   1.634
  540SOL     OW 2518   1.584   1.514   2.855
  540SOL    HW1 2519   1.497   1.550   2.820
  540SOL    HW2 2520   1.566   1.462   2.938
  541SOL     OW 2521   5.815   5.560   4.290
  541SOL    HW1 2522   5.754   5.630   4.252
  541SOL    HW2 2523   5.906   5.599   4.301
  542SOL     OW 2524   5.028   6.741   6.768
  542SOL    HW1 2525   5.077   6.717   6.685
  542SOL    HW2 2526   4.936   6.701   6.765
  543SOL     OW 2527   6.255   3.790   4.407
  543SOL    HW1 2528   6.185   3.748   4.464
  543SOL    HW2 2529   6.333   3.728   4.397
  544SOL     OW 2530   1.210   4.676   6.764
  544SOL    HW1 2531   1.136   4.610   6.777
  544SOL    HW2 2532   1.180   4.748   6.702
  545SOL     OW 2533   3.088   1.328   0.775
  545SOL    HW1 2534   3.004   1.378   0.754
  545SOL    HW2 2535   3.113   1.272   0.696
  546SOL     OW 2536   1.377   3.446   0.840
  546SOL    HW1 2537   1.396   3.498   0.924
  546SOL    HW2 2538   1.305   3.492   0.788
  547SOL     OW 2539   3.408   1.792   6.865
  547SOL    HW1 2540   3.470   1.754   6.796
  547SOL    HW2 2541   3.452   1.789   6.955
  548SOL     OW 2542   3.250   3.325   1.793
  548SOL    HW1 2543   3.267   3.254   1.723
  548SOL    HW2 2544   3.187   3.289   1.861
  549SOL     OW 2545   5.578   2.029   1.553
  549SOL    HW1 2546   5.520   1.948   1.558
  549SOL    HW2 2547   5.524   2.111   1.573
  550SOL     OW 2548   1.429   5.380   3.849
  550SOL    HW1 2549   1.490   5.348   3.777
  550SOL    HW2 2550   1.442   5.478   3.863
  551SOL     OW 2551   0.925   0.180   1.774
  551SOL    HW1 2552   0.860   0.107   1.752
  551SOL    HW2 2553   1.015   0.141   1.792
  552SOL     OW 2554   6.109   5.068   0.073
  552SOL    HW1 2555   6.128   4.971   0.059
  552SOL    HW2 2556   6.016   5.079   0.108
  553SOL     OW 2557   2.436   6.755   4.058
  553SOL    HW1 2558   2.406   6.841   4.100
  553SOL    HW2 2559   2.358   6.712   4.012
  554SOL     OW 2560   5.762   6.824   6.550
  554SOL    HW1 2561   5.772   6.781   6.640
  554SOL    HW2 2562   5.719   6.914   6.561
  555SOL     OW 2563   3.114   4.924   4.642
  555SOL    HW1 2564   3.139   5.008   4.690
  555SOL    HW2 2565   3.045   4.874   4.695
  556SOL     OW 2566   5.085   1.724   3.489
  556SOL    HW1 2567   5.125   1.699   3.577
  556SOL    HW2 2568   4.986   1.722   3.495
  557SOL     OW 2569   6.845   5.213   0.659
  557SOL    HW1 2570   6.784   5.145   0.620
  557SOL    HW2 2571   6.939   5.180   0.656
  558SOL     OW 2572   3.110   3.437   3.238
  558SOL    HW1 2573   3.060   3.523   3.246
  558SOL    HW2 2574   3.054   3.362   3.274
  559SOL     OW 2575   0.272   5.665   6.401
  559SOL    HW1 2576   0.231   5.598   6.339
  559SOL    HW2 2577   0.209   5.681   6.477
  560SOL     OW 2578   5.800   3.969   4.050
  560SOL    HW1 2579   5.842   3.996   3.964
  560SOL    HW2 2580   5.713   3.923   4.032
  561SOL     OW 2581   0.286   2.158   1.251
  561SOL    HW1 2582   0.271   2.217   1.171
  561SOL    HW2 2583   0.366   2.101   1.235
  562SOL     OW 2584   4.442   0.187   6.318
  562SOL    HW1 2585   4.418   0.090   6.304
  562SOL    HW2 2586   4.443   0.233   6.229
  563SOL     OW 2587   2.952   0.190   3.730
  563SOL    HW1 2588   2.861   0.227   3.713
  563SOL    HW2 2589   2.946   0.090   3.739
  564SOL     OW 2590   1.104   2.565   6.946
  564SOL    HW1 2591   1.074   2.529   6.858
  564SOL    HW2 2592   1.063   2.513   7.020
  565SOL     OW 2593   3.718   3.334   4.837
  565SOL    HW1 2594   3.686   3.286   4.756
  565SOL    HW2 2595   3.735   3.430   4.815
  566SOL     OW 2596   0.526   4.532   3.616
  566SOL    HW1 2597   0.447   4.565   3.667
  566SOL    HW2 2598   0.510   4.543   3.518
  567SOL     OW 2599   2.802   2.689   1.534
  567SOL    HW1 2600   2.758   2.740   1.608
  567SOL    HW2 2601   2.878   2.635   1.571
  568SOL     OW 2602   4.809   0.277   0.085
  568SOL    HW1 2603   4.892   0.244   0.130
  568SOL    HW2 2604   4.756   0.333   0.149
  569SOL     OW 2605   1.807   2.593   0.193
  569SOL    HW1 2606   1.729   2.628   0.141
  569SOL    HW2 2607   1.810   2.638   0.282
  570SOL     OW 2608   3.950   6.598   6.095
  570SOL    HW1 2609   3.865   6.547   6.112
  570SOL    HW2 2610   4.026   6.534   6.086
  571SOL     OW 2611   3.442   5.479   2.325
  571SOL    HW1 2612   3.382   5.490   2.405
  571SOL    HW2 2613   3.436   5.385   2.292
  572SOL     OW 2614   2.499   4.727   5.635
  572SOL    HW1 2615   2.447   4.732   5.550
  572SOL    HW2 2616   2.440   4.751   5.712
  573SOL     OW 2617   5.451   1.403   6.008
  573SOL    HW1 2618   5.404   1.393   6.096
  573SOL    HW2 2619   5.538   1.450   6.022
  574SOL     OW 2620   3.648   1.532   4.925
  574SOL    HW1 2621   3.677   1.624   4.898
  574SOL    HW2 2622   3.548   1.524   4.916
  575SOL     OW 2623   5.324   3.869   0.938
  575SOL    HW1 2624   5.413   3.905   0.966
  575SOL    HW2 2625   5.296   3.798   1.003
  576SOL     OW 2626   1.368   2.016   2.987
  576SOL    HW1 2627   1.393   2.111   2.965
  576SOL    HW2 2628   1.272   2.013   3.014
  577SOL     OW 2629   1.624   1.375   3.126
  577SOL    HW1 2630   1.660   1.316   3.197
  577SOL    HW2 2631   1.622   1.470   3.159
  578SOL     OW 2632   6.613   5.207   4.288
  578SOL    HW1 2633   6.625   5.117   4.246
  578SOL    HW2 2634   6.537   5.255   4.244
  579SOL     OW 2635   1.770   3.441   3.774
  579SOL    HW1 2636   1.806   3.393   3.694
  579SOL    HW2 2637   1.845   3.459   3.838
  580SOL     OW 2638   5.047   5.558   5.853
  580SOL    HW1 2639   4.950   5.557   5.828
  580SOL    HW2 2640   5.057   5.594   5.945
  581SOL     OW 2641   1.914   3.140   1.830
  581SOL    HW1 2642   1.863   3.172   1.750
  581SOL    HW2 2643   1.997   3.093   1.799
  582SOL     OW 2644   4.621   5.885   2.164
  582SOL    HW1 2645   4.526   5.914   2.181
  582SOL    HW2 2646   4.660   5.942   2.092
  583SOL     OW 2647   2.672   6.736   5.352
  583SOL    HW1 2648   2.644   6.827   5.385
  583SOL    HW2 2649   2.618   6.666   5.398
  584SOL     OW 2650   3.171   5.138   6.584
  584SOL    HW1 2651   3.202   5.168   6.494
  584SOL    HW2 2652   3.071   5.133   6.585
  585SOL     OW 2653   5.010   2.005   6.506
  585SOL    HW1 2654   5.088   2.061   6.533
  585SOL    HW2 2655   5.030   1.957   6.421
  586SOL     OW 2656   3.491   0.753   6.244
  586SOL    HW1 2657   3.474   0.845   6.279
  586SOL    HW2 2658   3.459   0.685   6.310
  587SOL     OW 2659   4.351   1.815   4.490
  587SOL    HW1 2660   4.296   1.736   4.516
  587SOL    HW2 2661   4.409   1.791   4.412
  588SOL     OW 2662   2.093   4.793   1.770
  588SOL    HW1 2663   2.007   4.827   1.733
  588SOL    HW2 2664   2.115   4.842   1.854
  589SOL     OW 2665   3.396   4.622   1.585
  589SOL    HW1 2666   3.304   4.607   1.622
  589SOL    HW2 2667   3.460   4.635   1.660
  590SOL     OW 2668   5.304   2.746   2.186
  590SOL    HW1 2669   5.379   2.783   2.131
  590SOL    HW2 2670   5.340   2.706   2.270
  591SOL     OW 2671   3.221   5.494   3.476
  591SOL    HW1 2672   3.160   5.523   3.550
  591SOL    HW2 2673   3.265   5.408   3.501
  592SOL     OW 2674   3.725   1.506   1.371
  592SOL    HW1 2675   3.704   1.478   1.278
  592SOL    HW2 2676   3.643   1.543   1.414
  593SOL     OW 2677   4.000   2.113   4.462
  593SOL    HW1 2678   3.929   2.088   4.529
  593SOL    HW2 2679   4.081   2.147   4.511
  594SOL     OW 2680   6.952   1.368   0.137
  594SOL    HW1 2681   0.011   1.325   0.105
  594SOL    HW2 2682   6.895   1.391   0.058
  595SOL     OW 2683   5.495   0.631   3.965
  595SOL    HW1 2684   5.445   0.666   3.885
  595SOL    HW2 2685   5.472   0.535   3.979
  596SOL     OW 2686   1.172   5.367   3.235
  596SOL    HW1 2687   1.214   5.450   3.272
  596SOL    HW2 2688   1.225   5.287   3.263
  597SOL     OW 2689   2.389   0.171   0.374
  597SOL    HW1 2690   2.388   0.071   0.376
  597SOL    HW2 2691   2.484   0.203   0.365
  598SOL     OW 2692   4.076   3.840   5.366
  598SOL    HW1 2693   4.125   3.777   5.306
  598SOL    HW2 2694   4.087   3.811   5.461
  599SOL     OW 2695   2.387   6.069   1.693
  599SOL    HW1 2696   2.355   6.090   1.786
  599SOL    HW2 2697   2.321   6.104   1.626
  600SOL     OW 2698   6.649   1.209   6.979
  600SOL    HW1 2699   6.617   1.172   6.892
  600SOL    HW2 2700   6.730   1.265   6.963
  601SOL     OW 2701   1.376   0.301   4.599
  601SOL    HW1 2702   1.433   0.224   4.568
  601SOL    HW2 2703   1.390   0.315   4.697
  602SOL     OW 2704   1.373   1.639   6.252
  602SOL    HW1 2705   1.292   1.690   6.223
  602SOL    HW2 2706   1.357   1.541   6.240
  603SOL     OW 2707   2.714   2.585   5.249
  603SOL    HW1 2708   2.796   2.638   5.229
  603SOL    HW2 2709   2.702   2.513   5.180
  604SOL     OW 2710   0.855   2.259   2.185
  604SOL    HW1 2711   0.927   2.189   2.179
  604SOL    HW2 2712   0.766   2.214   2.195
  605SOL     OW 2713   6.706   5.989   0.419
  605SOL    HW1 2714   6.675   6.044   0.496
  605SOL    HW2 2715   6.684   5.893   0.436
  606SOL     OW 2716   5.008   6.355   6.807
  606SOL    HW1 2717   5.060   6.386   6.728
  606SOL    HW2 2718   5.054   6.386   6.891
  607SOL     OW 2719   6.513   5.764   5.466
  607SOL    HW1 2720   6.540   5.768   5.562
  607SOL    HW2 2721   6.475   5.853   5.438
  608SOL     OW 2722   3.957   6.191   6.605
  608SOL    HW1 2723   3.888   6.165   6.673
  608SOL    HW2 2724   3.966   6.290   6.602
  609SOL     OW 2725   3.726   2.954   2.355
  609SOL    HW1 2726   3.826   2.960   2.348
  609SOL    HW2 2727   3.685   3.042   2.328
  610SOL     OW 2728   5.709   4.556   1.952
  610SOL    HW1 2729   5.763   4.569   2.035
  610SOL    HW2 2730   5.640   4.485   1.967
  611SOL     OW 2731   4.294   6.462   1.363
  611SOL    HW1 2732   4.233   6.403   1.417
  611SOL    HW2 2733   4.246   6.547   1.342
  612SOL     OW 2734   3.979   6.183   4.718
  612SOL    HW1 2735   3.892   6.137   4.732
  612SOL    HW2 2736   4.039   6.164   4.796
  613SOL     OW 2737   4.131   6.586   5.495
  613SOL    HW1 2738   4.036   6.565   5.519
  613SOL    HW2 2739   4.135   6.623   5.402
  614SOL     OW 2740   5.374   5.435   0.503
  614SOL    HW1 2741   5.277   5.444   0.484
  614SOL    HW2 2742   5.423   5.417   0.417
  615SOL     OW 2743   6.703   2.633   1.865
  615SOL    HW1 2744   6.666   2.549   1.824
  615SOL    HW2 2745   6.681   2.635   1.963
  616SOL     OW 2746   0.467   2.695   3.678
  616SOL    HW1 2747   0.403   2.727   3.748
  616SOL    HW2 2748   0.422   2.693   3.589
  617SOL     OW 2749   6.649   4.494   5.674
  617SOL    HW1 2750   6.664   4.527   5.768
  617SOL    HW2 2751   6.663   4.395   5.671
  618SOL     OW 2752   6.899   2.400   0.036
  618SOL    HW1 2753   6.932   2.329   7.000
  618SOL    HW2 2754   6.967   2.474   0.040
  619SOL     OW 2755   3.899   0.898   0.106
  619SOL    HW1 2756   3.909   0.834   0.182
  619SOL    HW2 2757   3.904   0.849   0.019
  620SOL     OW 2758   4.422   2.902   1.476
  620SOL    HW1 2759   4.465   2.953   1.550
  620SOL    HW2 2760   4.343   2.852   1.511
  621SOL     OW 2761   2.733   6.798   7.023
  621SOL    HW1 2762   2.751   6.719   6.964
  621SOL    HW2 2763   2.814   6.856   0.001
  622SOL     OW 2764   1.221   0.053   6.168
  622SOL    HW1 2765   1.206   0.105   6.252
  622SOL    HW2 2766   1.306   0.084   6.125
  623SOL     OW 2767   0.875   5.670   4.897
  623SOL    HW1 2768   0.844   5.672   4.992
  623SOL    HW2 2769   0.861   5.578   4.859
  624SOL     OW 2770   6.549   2.861   1.046
  624SOL    HW1 2771   6.598   2.827   0.966
  624SOL    HW2 2772   6.592   2.945   1.078
  625SOL     OW 2773   1.903   1.583   1.877
  625SOL    HW1 2774   1.944   1.672   1.897
  625SOL    HW2 2775   1.958   1.511   1.921
  626SOL     OW 2776   2.283   5.569   3.691
  626SOL    HW1 2777   2.366   5.563   3.746
  626SOL    HW2 2778   2.255   5.477   3.664
  627SOL     OW 2779   5.661   6.123   0.414
  627SOL    HW1 2780   5.571   6.167   0.407
  627SOL    HW2 2781   5.648   6.024   0.423
  628SOL     OW 2782   5.962   5.664   6.026
  628SOL    HW1 2783   6.004   5.596   5.967
  628SOL    HW2 2784   5.990   5.756   5.998
  629SOL     OW 2785   6.522   6.925   6.991
  629SOL    HW1 2786   6.510   6.831   7.022
  629SOL    HW2 2787   6.509   6.988   0.042
  630SOL     OW 2788   6.692   1.888   2.037
  630SOL    HW1 2789   6.726   1.957   1.973
  630SOL    HW2 2790   6.592   1.890   2.038
  631SOL     OW 2791   3.480   6.962   5.235
  631SOL    HW1 2792   3.491   0.035   5.240
  631SOL    HW2 2793   3.436   6.938   5.148
  632SOL     OW 2794   2.421   0.904   0.622
  632SOL    HW1 2795   2.509   0.863   0.597
  632SOL    HW2 2796   2.362   0.834   0.662
  633SOL     OW 2797   4.109   3.618   0.300
  633SOL    HW1 2798   4.021   3.600   0.344
  633SOL    HW2 2799   4.129   3.716   0.305
  634SOL     OW 2800   4.075   4.263   1.113
  634SOL    HW1 2801   4.008   4.191   1.132
  634SOL    HW2 2802   4.166   4.222   1.103
  635SOL     OW 2803   4.628   5.122   1.156
  635SOL    HW1 2804   4.599   5.034   1.120
  635SOL    HW2 2805   4.548   5.174   1.188
  636SOL     OW 2806   3.924   5.522   6.851
  636SOL    HW1 2807   3.996   5.453   6.843
  636SOL    HW2 2808   3.966   5.612   6.865
  637SOL     OW 2809   6.494   3.273   3.289
  637SOL    HW1 2810   6.395   3.278   3.295
  637SOL    HW2 2811   6.520   3.204   3.222
  638SOL     OW 2812   5.123   2.237   3.545
  638SOL    HW1 2813   5.087   2.144   3.544
  638SOL    HW2 2814   5.058   2.298   3.590
  639SOL     OW 2815   4.855   3.891   2.486
  639SOL    HW1 2816   4.768   3.875   2.532
  639SOL    HW2 2817   4.916   3.943   2.546
  640SOL     OW 2818   6.840   5.314   3.648
  640SOL    HW1 2819   6.789   5.289   3.731
  640SOL    HW2 2820   6.840   5.237   3.585
  641SOL     OW 2821   6.479   5.556   4.889
  641SOL    HW1 2822   6.513   5.556   4.795
  641SOL    HW2 2823   6.381   5.534   4.889
  642SOL     OW 2824   6.669   3.166   5.047
  642SOL    HW1 2825   6.591   3.215   5.084
  642SOL    HW2 2826   6.697   3.094   5.111
  643SOL     OW 2827   5.837   6.233   5.017
  643SOL    HW1 2828   5.859   6.330   5.008
  643SOL    HW2 2829   5.915   6.179   4.988
  644SOL     OW 2830   1.536   5.889   4.735
  644SOL    HW1 2831   1.627   5.922   4.709
  644SOL    HW2 2832   1.490   5.853   4.654
  645SOL     OW 2833   4.296   1.107   3.594
  645SOL    HW1 2834   4.314   1.067   3.505
  645SOL    HW2 2835   4.215   1.064   3.635
  646SOL     OW 2836   2.567   1.190   4.876
  646SOL    HW1 2837   2.504   1.174   4.952
  646SOL    HW2 2838   2.520   1.172   4.789
  647SOL     OW 2839   5.095   2.107   4.583
  647SOL    HW1 2840   5.038   2.174   4.630
  647SOL    HW2 2841   5.038   2.055   4.519
  648SOL     OW 2842   0.263   3.522   4.086
  648SOL    HW1 2843   0.171   3.483   4.090
  648SOL    HW2 2844   0.268   3.587   4.009
  649SOL     OW 2845   2.724   3.582   0.953
  649SOL    HW1 2846   2.758   3.494   0.987
  649SOL    HW2 2847   2.626   3.575   0.935
  650SOL     OW 2848   6.014   4.682   1.016
  650SOL    HW1 2849   5.992   4.585   1.002
  650SOL    HW2 2850   6.037   4.724   0.929
  651SOL     OW 2851   6.387   6.038   5.974
  651SOL    HW1 2852   6.362   5.965   6.037
  651SOL    HW2 2853   6.331   6.032   5.891
  652SOL     OW 2854   4.841   6.233   3.614
  652SOL    HW1 2855   4.893   6.257   3.532
  652SOL    HW2 2856   4.746   6.260   3.604
  653SOL     OW 2857   2.437   6.056   5.389
  653SOL    HW1 2858   2.413   6.028   5.482
  653SOL    HW2 2859   2.354   6.060   5.333
  654SOL     OW 2860   0.212   4.130   5.752
  654SOL    HW1 2861   0.263   4.082   5.680
  654SOL    HW2 2862   0.199   4.068   5.830
  655SOL     OW 2863   0.545   5.996   1.997
  655SOL    HW1 2864   0.631   5.958   1.962
  655SOL    HW2 2865   0.503   5.931   2.061
  656SOL     OW 2866   1.767   5.333   1.488
  656SOL    HW1 2867   1.751   5.369   1.396
  656SOL    HW2 2868   1.862   5.350   1.515
  657SOL     OW 2869   1.788   2.556   1.864
  657SOL    HW1 2870   1.866   2.494   1.851
  657SOL    HW2 2871   1.726   2.547   1.787
  658SOL     OW 2872   2.870   4.083   6.423
  658SOL    HW1 2873   2.879   4.182   6.419
  658SOL    HW2 2874   2.961   4.041   6.425
  659SOL     OW 2875   2.551   5.946   6.410
  659SOL    HW1 2876   2.467   5.999   6.416
  659SOL    HW2 2877   2.622   5.988   6.467
  660SOL     OW 2878   5.403   4.759   2.559
  660SOL    HW1 2879   5.460   4.796   2.633
  660SOL    HW2 2880   5.362   4.834   2.507
  661SOL     OW 2881   4.303   5.221   3.253
  661SOL    HW1 2882   4.302   5.124   3.229
  661SOL    HW2 2883   4.325   5.276   3.173
  662SOL     OW 2884   4.132   0.204   5.619
  662SOL    HW1 2885   4.046   0.244   5.586
  662SOL    HW2 2886   4.154   0.241   5.709
  663SOL     OW 2887   2.408   3.869   6.304
  663SOL    HW1 2888   2.483   3.838   6.363
  663SOL    HW2 2889   2.419   3.966   6.284
  664SOL     OW 2890   0.222   5.076   6.257
  664SOL    HW1 2891   0.177   5.038   6.176
  664SOL    HW2 2892   0.154   5.093   6.329
  665SOL     OW 2893   5.143   4.842   1.174
  665SOL    HW1 2894   5.151   4.941   1.183
  665SOL    HW2 2895   5.131   4.801   1.265
  666SOL     OW 2896   4.792   2.208   2.437
  666SOL    HW1 2897   4.735   2.200   2.354
  666SOL    HW2 2898   4.747   2.270   2.502
  667SOL     OW 2899   0.525   4.585   3.320
  667SOL    HW1 2900   0.487   4.621   3.235
  667SOL    HW2 2901   0.544   4.487   3.309
  668SOL     OW 2902   5.561   6.298   6.284
  668SOL    HW1 2903   5.478   6.349   6.307
  668SOL    HW2 2904   5.603   6.337   6.202
  669SOL     OW 2905   4.260   0.268   2.803
  669SOL    HW1 2906   4.278   0.263   2.705
  669SOL    HW2 2907   4.167   0.303   2.818
  670SOL     OW 2908   3.382   2.741   0.829
  670SOL    HW1 2909   3.311   2.773   0.892
  670SOL    HW2 2910   3.422   2.656   0.864
  671SOL     OW 2911   1.875   6.457   0.032
  671SOL    HW1 2912   1.902   6.361   0.020
  671SOL    HW2 2913   1.900   6.509   6.976
  672SOL     OW 2914   1.015   5.080   2.298
  672SOL    HW1 2915   0.999   5.009   2.366
  672SOL    HW2 2916   1.061   5.158   2.341
  673SOL     OW 2917   0.017   6.934   1.743
  673SOL    HW1 2918   0.002   6.873   1.820
  673SOL    HW2 2919   6.984   6.907   1.667
  674SOL     OW 2920   0.802   1.515   5.160
  674SOL    HW1 2921   0.746   1.571   5.220
  674SOL    HW2 2922   0.767   1.520   5.067
  675SOL     OW 2923   0.922   1.095   3.116
  675SOL    HW1 2924   0.854   1.031   3.081
  675SOL    HW2 2925   0.881   1.187   3.123
  676SOL     OW 2926   3.154   6.002   2.574
  676SOL    HW1 2927   3.199   5.915   2.592
  676SOL    HW2 2928   3.124   6.006   2.478
  677SOL     OW 2929   5.769   1.979   0.423
  677SOL    HW1 2930   5.769   1.951   0.518
  677SOL    HW2 2931   5.864   1.993   0.392
  678SOL     OW 2932   2.062   1.182   5.706
  678SOL    HW1 2933   2.065   1.275   5.742
  678SOL    HW2 2934   2.152   1.139   5.714
  679SOL     OW 2935   4.222   1.731   3.779
  679SOL    HW1 2936   4.303   1.786   3.759
  679SOL    HW2 2937   4.186   1.755   3.869
  680SOL     OW 2938   5.453   6.076   5.314
  680SOL    HW1 2939   5.508   6.074   5.231
  680SOL    HW2 2940   5.449   6.170   5.350
  681SOL     OW 2941   5.450   5.186   1.618
  681SOL    HW1 2942   5.518   5.115   1.635
  681SOL    HW2 2943   5.486   5.253   1.553
  682SOL     OW 2944   0.559   1.179   0.890
  682SOL    HW1 2945   0.497   1.138   0.823
  682SOL    HW2 2946   0.650   1.189   0.850
  683SOL     OW 2947   4.382   3.306   0.615
  683SOL    HW1 2948   4.450   3.365   0.573
  683SOL    HW2 2949   4.408   3.210   0.603
  684SOL     OW 2950   0.444   0.806   0.053
  684SOL    HW1 2951   0.389   0.847   0.126
  684SOL    HW2 2952   0.495   0.729   0.090
  685SOL     OW 2953   4.100   1.139   3.349
  685SOL    HW1 2954   4.123   1.236   3.338
  685SOL    HW2 2955   4.181   1.088   3.377
  686SOL     OW 2956   4.833   3.206   3.469
  686SOL    HW1 2957   4.853   3.223   3.372
  686SOL    HW2 2958   4.823   3.293   3.517
  687SOL     OW 2959   0.385   2.385   4.865
  687SOL    HW1 2960   0.331   2.462   4.833
  687SOL    HW2 2961   0.480   2.414   4.878
  688SOL     OW 2962   1.012   2.016   0.383
  688SOL    HW1 2963   1.096   2.058   0.348
  688SOL    HW2 2964   1.014   2.015   0.483
  689SOL     OW 2965   6.733   4.454   6.409
  689SOL    HW1 2966   6.743   4.539   6.461
  689SOL    HW2 2967   6.694   4.474   6.320
  690SOL     OW 2968   0.394   4.172   2.737
  690SOL    HW1 2969   0.307   4.200   2.695
  690SOL    HW2 2970   0.383   4.165   2.836
  691SOL     OW 2971   2.475   6.618   0.550
  691SOL    HW1 2972   2.438   6.597   0.460
  691SOL    HW2 2973   2.535   6.698   0.545
  692SOL     OW 2974   3.568   6.845   3.635
  692SOL    HW1 2975   3.531   6.901   3.561
  692SOL    HW2 2976   3.503   6.772   3.657
  693SOL     OW 2977   6.043   1.236   3.617
  693SOL    HW1 2978   6.013   1.156   3.566
  693SOL    HW2 2979   6.138   1.256   3.595
  694SOL     OW 2980   4.283   6.257   3.340
  694SOL    HW1 2981   4.204   6.295   3.387
  694SOL    HW2 2982   4.360   6.321   3.348
  695SOL     OW 2983   4.467   6.841   3.882
  695SOL    HW1 2984   4.465   6.764   3.945
  695SOL    HW2 2985   4.501   6.811   3.793
  696SOL     OW 2986   4.162   4.678   2.109
  696SOL    HW1 2987   4.146   4.773   2.082
  696SOL    HW2 2988   4.079   4.641   2.149
  697SOL     OW 2989   2.150   3.742   3.822
  697SOL    HW1 2990   2.181   3.821   3.770
  697SOL    HW2 2991   2.057   3.718   3.795
  698SOL     OW 2992   5.097   6.777   0.359
  698SOL    HW1 2993   5.170   6.795   0.426
  698SOL    HW2 2994   5.029   6.716   0.400
  699SOL     OW 2995   2.109   3.273   6.349
  699SOL    HW1 2996   2.020   3.271   6.302
  699SOL    HW2 2997   2.095   3.300   6.445
  700SOL     OW 2998   2.748   0.323   2.126
  700SOL    HW1 2999   2.683   0.247   2.133
  700SOL    HW2 3000   2.836   0.296   2.163
  701SOL     OW 3001   6.734   3.795   5.887
  701SOL    HW1 3002   6.828   3.764   5.904
  701SOL    HW2 3003   6.671   3.720   5.902
  702SOL     OW 3004   1.496   6.361   4.628
  702SOL    HW1 3005   1.473   6.456   4.605
  702SOL    HW2 3006   1.580   6.359   4.681
  703SOL     OW 3007   3.489   3.684   6.143
  703SOL    HW1 3008   3.443   3.648   6.224
  703SOL    HW2 3009   3.568   3.627   6.121
  704SOL     OW 3010   1.648   2.365   0.180
  704SOL    HW1 3011   1.711   2.438   0.204
  704SOL    HW2 3012   1.656   2.291   0.247
  705SOL     OW 3013   5.764   5.567   3.088
  705SOL    HW1 3014   5.855   5.607   3.075
  705SOL    HW2 3015   5.769   5.492   3.153
  706SOL     OW 3016   4.251   2.210   4.553
  706SOL    HW1 3017   4.273   2.292   4.606
  706SOL    HW2 3018   4.268   2.129   4.609
  707SOL     OW 3019   4.396   5.435   2.344
  707SOL    HW1 3020   4.459   5.492   2.396
  707SOL    HW2 3021   4.443   5.351   2.315
  708SOL     OW 3022   4.370   6.734   1.950
  708SOL    HW1 3023   4.458   6.771   1.919
  708SOL    HW2 3024   4.329   6.795   2.017
  709SOL     OW 3025   0.597   6.259   1.002
  709SOL    HW1 3026   0.508   6.246   1.045
  709SOL    HW2 3027   0.591   6.333   0.934
  710SOL     OW 3028   3.712   2.941   1.396
  710SOL    HW1 3029   3.797   2.992   1.382
  710SOL    HW2 3030   3.729   2.865   1.459
  711SOL     OW 3031   6.749   3.370   5.504
  711SOL    HW1 3032   6.721   3.384   5.409
  711SOL    HW2 3033   6.773   3.458   5.546
  712SOL     OW 3034   4.778   2.703   0.968
  712SOL    HW1 3035   4.771   2.770   1.042
  712SOL    HW2 3036   4.861   2.722   0.914
  713SOL     OW 3037   4.417   2.457   5.829
  713SOL    HW1 3038   4.439   2.451   5.731
  713SOL    HW2 3039   4.394   2.551   5.852
  714SOL     OW 3040   6.985   4.494   3.503
  714SOL    HW1 3041   6.979   4.481   3.602
  714SOL    HW2 3042   0.024   4.567   3.482
  715SOL     OW 3043   5.144   6.035   0.457
  715SOL    HW1 3044   5.128   6.051   0.360
  715SOL    HW2 3045   5.189   6.114   0.497
  716SOL     OW 3046   0.602   0.792   1.675
  716SOL    HW1 3047   0.619   0.716   1.612
  716SOL    HW2 3048   0.610   0.759   1.769
  717SOL     OW 3049   6.482   4.320   4.559
  717SOL    HW1 3050   6.387   4.293   4.573
  717SOL    HW2 3051   6.532   4.311   4.645
  718SOL     OW 3052   4.850   2.569   6.118
  718SOL    HW1 3053   4.806   2.656   6.139
  718SOL    HW2 3054   4.917   2.583   6.044
  719SOL     OW 3055   6.454   1.003   2.639
  719SOL    HW1 3056   6.449   1.100   2.616
  719SOL    HW2 3057   6.392   0.952   2.580
  720SOL     OW 3058   2.622   0.453   6.238
  720SOL    HW1 3059   2.543   0.494   6.192
  720SOL    HW2 3060   2.597   0.430   6.332
  721SOL     OW 3061   2.658   1.909   3.046
  721SOL    HW1 3062   2.745   1.869   3.017
  721SOL    HW2 3063   2.584   1.875   2.988
  722SOL     OW 3064   3.295   0.223   5.679
  722SOL    HW1 3065   3.196   0.216   5.695
  722SOL    HW2 3066   3.315   0.311   5.636
  723SOL     OW 3067   1.615   4.661   3.239
  723SOL    HW1 3068   1.713   4.645   3.253
  723SOL    HW2 3069   1.599   4.758   3.224
  724SOL     OW 3070   1.001   3.052   4.709
  724SOL    HW1 3071   1.016   2.957   4.734
  724SOL    HW2 3072   0.904   3.068   4.692
  725SOL     OW 3073   2.289   5.421   1.112
  725SOL    HW1 3074   2.267   5.324   1.122
  725SOL    HW2 3075   2.307   5.442   1.016
  726SOL     OW 3076   3.372   4.776   1.165
  726SOL    HW1 3077   3.367   4.837   1.244
  726SOL    HW2 3078   3.316   4.813   1.091
  727SOL     OW 3079   5.956   5.196   5.663
  727SOL    HW1 3080   5.896   5.143   5.603
  727SOL    HW2 3081   5.993   5.274   5.613
  728SOL     OW 3082   6.643   3.053   4.772
  728SOL    HW1 3083   6.652   3.093   4.863
  728SOL    HW2 3084   6.634   3.127   4.704
  729SOL     OW 3085   0.758   1.866   1.795
  729SOL    HW1 3086   0.715   1.850   1.883
  729SOL    HW2 3087   0.762   1.965   1.777
  730SOL     OW 3088   5.560   0.297   4.720
  730SOL    HW1 3089   5.612   0.373   4.758
  730SOL    HW2 3090   5.506   0.254   4.792
  731SOL     OW 3091   4.933   4.397   6.453
  731SOL    HW1 3092   4.910   4.344   6.535
  731SOL    HW2 3093   4.993   4.473   6.479
  732SOL     OW 3094   6.763   3.247   1.651
  732SOL    HW1 3095   6.767   3.311   1.728
  732SOL    HW2 3096   6.686   3.184   1.664
  733SOL     OW 3097   5.084   6.797   5.223
  733SOL    HW1 3098   5.169   6.846   5.240
  733SOL    HW2 3099   5.051   6.756   5.308
  734SOL     OW 3100   6.446   4.906   2.783
  734SOL    HW1 3101   6.480   4.835   2.721
  734SOL    HW2 3102   6.422   4.988   2.729
  735SOL     OW 3103   4.659   1.203   0.069
  735SOL    HW1 3104   4.568   1.177   0.103
  735SOL    HW2 3105   4.649   1.246   7.005
  736SOL     OW 3106   6.645   1.567   3.706
  736SOL    HW1 3107   6.671   1.553   3.802
  736SOL    HW2 3108   6.599   1.655   3.697
  737SOL     OW 3109   5.215   1.544   4.875
  737SOL    HW1 3110   5.241   1.635   4.842
  737SOL    HW2 3111   5.129   1.517   4.831
  738SOL     OW 3112   2.112   3.892   1.359
  738SOL    HW1 3113   2.122   3.851   1.268
  738SOL    HW2 3114   2.188   3.863   1.417
  739SOL     OW 3115   5.123   1.121   3.682
  739SOL    HW1 3116   5.221   1.107   3.696
  739SOL    HW2 3117   5.073   1.090   3.763
  740SOL     OW 3118   6.290   0.826   1.598
  740SOL    HW1 3119   6.277   0.885   1.677
  740SOL    HW2 3120   6.386   0.800   1.591
  741SOL     OW 3121   1.847   0.197   3.544
  741SOL    HW1 3122   1.819   0.275   3.488
  741SOL    HW2 3123   1.791   0.117   3.521
  742SOL     OW 3124   2.671   6.347   1.954
  742SOL    HW1 3125   2.577   6.333   1.923
  742SOL    HW2 3126   2.671   6.398   2.040
  743SOL     OW 3127   0.437   4.899   3.232
  743SOL    HW1 3128   0.339   4.898   3.210
  743SOL    HW2 3129   0.487   4.844   3.166
  744SOL     OW 3130   5.316   0.825   0.575
  744SOL    HW1 3131   5.292   0.729   0.568
  744SOL    HW2 3132   5.415   0.836   0.565
  745SOL     OW 3133   1.814   5.288   4.759
  745SOL    HW1 3134   1.754   5.331   4.827
  745SOL    HW2 3135   1.783   5.313   4.667
  746SOL     OW 3136   6.840   3.652   0.063
  746SOL    HW1 3137   6.855   3.739   0.016
  746SOL    HW2 3138   6.752   3.655   0.111
  747SOL     OW 3139   3.880   6.740   4.369
  747SOL    HW1 3140   3.820   6.676   4.321
  747SOL    HW2 3141   3.975   6.709   4.363
  748SOL     OW 3142   4.072   4.922   2.031
  748SOL    HW1 3143   4.131   4.999   2.005
  748SOL    HW2 3144   4.036   4.878   1.949
  749SOL     OW 3145   5.697   3.561   4.829
  749SOL    HW1 3146   5.628   3.628   4.802
  749SOL    HW2 3147   5.776   3.608   4.867
  750SOL     OW 3148   2.187   2.222   1.684
  750SOL    HW1 3149   2.123   2.205   1.610
  750SOL    HW2 3150   2.245   2.142   1.699
  751SOL     OW 3151   3.878   2.032   0.139
  751SOL    HW1 3152   3.857   1.954   0.080
  751SOL    HW2 3153   3.970   2.022   0.177
  752SOL     OW 3154   3.572   1.251   1.749
  752SOL    HW1 3155   3.627   1.174   1.719
  752SOL    HW2 3156   3.624   1.336   1.737
  753SOL     OW 3157   1.572   3.766   5.436
  753SOL    HW1 3158   1.525   3.747   5.350
  753SOL    HW2 3159   1.664   3.729   5.432
  754SOL     OW 3160   4.929   2.425   5.428
  754SOL    HW1 3161   4.900   2.340   5.385
  754SOL    HW2 3162   4.875   2.501   5.390
  755SOL     OW 3163   1.356   4.695   5.526
  755SOL    HW1 3164   1.369   4.720   5.622
  755SOL    HW2 3165   1.326   4.600   5.519
  756SOL     OW 3166   2.871   6.750   6.713
  756SOL    HW1 3167   2.860   6.801   6.628
  756SOL    HW2 3168   2.948   6.786   6.764
  757SOL     OW 3169   0.093   0.415   4.325
  757SOL    HW1 3170   0.141   0.409   4.237
  757SOL    HW2 3171   7.025   0.383   4.314
  758SOL     OW 3172   3.205   0.109   2.993
  758SOL    HW1 3173   3.201   0.111   2.893
  758SOL    HW2 3174   3.113   0.099   3.030
  759SOL     OW 3175   0.529   1.715   2.500
  759SOL    HW1 3176   0.566   1.705   2.408
  759SOL    HW2 3177   0.448   1.774   2.497
  760SOL     OW 3178   6.345   6.843   4.363
  760SOL    HW1 3179   6.291   6.906   4.420
  760SOL    HW2 3180   6.358   6.757   4.413
  761SOL     OW 3181   5.163   3.815   6.021
  761SOL    HW1 3182   5.117   3.896   6.057
  761SOL    HW2 3183   5.147   3.808   5.923
  762SOL     OW 3184   2.024   6.711   4.808
  762SOL    HW1 3185   2.039   6.772   4.731
  762SOL    HW2 3186   2.051   6.618   4.782
  763SOL     OW 3187   4.254   5.156   5.920
  763SOL    HW1 3188   4.290   5.083   5.978
  763SOL    HW2 3189   4.172   5.195   5.963
  764SOL     OW 3190   5.450   0.829   5.217
  764SOL    HW1 3191   5.507   0.902   5.255
  764SOL    HW2 3192   5.414   0.773   5.292
  765SOL     OW 3193   1.731   5.188   1.786
  765SOL    HW1 3194   1.736   5.250   1.708
  765SOL    HW2 3195   1.823   5.172   1.822
  766SOL     OW 3196   2.616   2.429   5.930
  766SOL    HW1 3197   2.606   2.523   5.897
  766SOL    HW2 3198   2.695   2.424   5.992
  767SOL     OW 3199   6.354   6.110   2.449
  767SOL    HW1 3200   6.339   6.098   2.547
  767SOL    HW2 3201   6.274   6.155   2.408
  768SOL     OW 3202   2.575   6.018   2.460
  768SOL    HW1 3203   2.495   6.062   2.501
  768SOL    HW2 3204   2.582   6.045   2.364
  769SOL     OW 3205   2.164   0.598   5.204
  769SOL    HW1 3206   2.101   0.672   5.231
  769SOL    HW2 3207   2.255   0.635   5.190
  770SOL     OW 3208   1.742   4.395   2.976
  770SOL    HW1 3209   1.672   4.370   3.042
  770SOL    HW2 3210   1.768   4.314   2.923
  771SOL     OW 3211   1.058   4.915   2.869
  771SOL    HW1 3212   1.012   4.952   2.788
  771SOL    HW2 3213   1.014   4.951   2.951
  772SOL     OW 3214   5.382   5.271   6.728
  772SOL    HW1 3215   5.473   5.311   6.740
  772SOL    HW2 3216   5.389   5.171   6.737
  773SOL     OW 3217   0.301   4.327   3.892
  773SOL    HW1 3218   0.205   4.296   3.890
  773SOL    HW2 3219   0.359   4.254   3.857
  774SOL     OW 3220   2.071   1.425   2.013
  774SOL    HW1 3221   1.995   1.360   2.015
  774SOL    HW2 3222   2.127   1.414   2.096
  775SOL     OW 3223   1.658   2.971   3.768
  775SOL    HW1 3224   1.698   2.972   3.860
  775SOL    HW2 3225   1.730   2.950   3.701
  776SOL     OW 3226   1.399   0.161   6.005
  776SOL    HW1 3227   1.479   0.176   5.947
  776SOL    HW2 3228   1.323   0.217   5.973
  777SOL     OW 3229   2.081   4.512   1.866
  777SOL    HW1 3230   2.093   4.590   1.805
  777SOL    HW2 3231   2.113   4.429   1.820
  778SOL     OW 3232   2.590   1.304   1.879
  778SOL    HW1 3233   2.591   1.239   1.803
  778SOL    HW2 3234   2.600   1.255   1.966
  779SOL     OW 3235   6.338   2.543   2.159
  779SOL    HW1 3236   6.411   2.494   2.206
  779SOL    HW2 3237   6.353   2.539   2.060
  780SOL     OW 3238   0.528   3.638   3.897
  780SOL    HW1 3239   0.578   3.684   3.970
  780SOL    HW2 3240   0.581   3.642   3.813
  781SOL     OW 3241   6.229   7.004   0.201
  781SOL    HW1 3242   6.175   0.010   0.279
  781SOL    HW2 3243   6.223   6.905   0.195
  782SOL     OW 3244   1.213   3.965   6.578
  782SOL    HW1 3245   1.287   3.985   6.642
  782SOL    HW2 3246   1.251   3.937   6.490
  783SOL     OW 3247   4.740   4.884   2.279
  783SOL    HW1 3248   4.738   4.784   2.279
  783SOL    HW2 3249   4.828   4.915   2.315
  784SOL     OW 3250   4.697   4.878   0.700
  784SOL    HW1 3251   4.776   4.832   0.739
  784SOL    HW2 3252   4.690   4.971   0.735
  785SOL     OW 3253   0.226   2.475   3.599
  785SOL    HW1 3254   0.166   2.477   3.519
  785SOL    HW2 3255   0.299   2.543   3.587
  786SOL     OW 3256   1.020   0.691   2.982
  786SOL    HW1 3257   0.991   0.705   3.077
  786SOL    HW2 3258   0.980   0.761   2.924
  787SOL     OW 3259   1.426   0.085   6.863
  787SOL    HW1 3260   1.504   0.068   6.803
  787SOL    HW2 3261   1.354   0.132   6.813
  788SOL     OW 3262   3.671   1.599   0.143
  788SOL    HW1 3263   3.577   1.626   0.124
  788SOL    HW2 3264   3.688   1.507   0.106
  789SOL     OW 3265   4.566   4.161   1.164
  789SOL    HW1 3266   4.596   4.181   1.257
  789SOL    HW2 3267   4.631   4.199   1.099
  790SOL     OW 3268   2.297   1.081   3.375
  790SOL    HW1 3269   2.235   1.017   3.330
  790SOL    HW2 3270   2.281   1.080   3.474
  791SOL     OW 3271   1.435   5.684   4.493
  791SOL    HW1 3272   1.457   5.600   4.542
  791SOL    HW2 3273   1.509   5.705   4.429
  792SOL     OW 3274   0.809   0.872   1.284
  792SOL    HW1 3275   0.794   0.950   1.223
  792SOL    HW2 3276   0.786   0.898   1.378
  793SOL     OW 3277   4.963   5.028   3.501
  793SOL    HW1 3278   5.016   5.015   3.418
  793SOL    HW2 3279   5.019   5.008   3.581
  794SOL     OW 3280   3.101   3.922   5.883
  794SOL    HW1 3281   3.115   3.939   5.786
  794SOL    HW2 3282   3.173   3.861   5.917
  795SOL     OW 3283   3.510   6.733   4.718
  795SOL    HW1 3284   3.576   6.808   4.715
  795SOL    HW2 3285   3.559   6.647   4.727
  796SOL     OW 3286   0.089   2.325   6.142
  796SOL    HW1 3287   0.092   2.350   6.239
  796SOL    HW2 3288   0.020   2.381   6.095
  797SOL     OW 3289   5.850   2.637   1.033
  797SOL    HW1 3290   5.829   2.564   1.097
  797SOL    HW2 3291   5.940   2.622   0.993
  798SOL     OW 3292   3.674   5.980   2.104
  798SOL    HW1 3293   3.657   5.969   2.201
  798SOL    HW2 3294   3.689   6.077   2.083
  799SOL     OW 3295   0.142   6.929   6.158
  799SOL    HW1 3296   0.186   6.965   6.075
  799SOL    HW2 3297   0.064   6.987   6.182
  800SOL     OW 3298   5.229   1.620   2.861
  800SOL    HW1 3299   5.265   1.551   2.924
  800SOL    HW2 3300   5.218   1.707   2.909
  801SOL     OW 3301   2.103   4.496   4.516
  801SOL    HW1 3302   2.028   4.556   4.544
  801SOL    HW2 3303   2.067   4.405   4.497
  802SOL     OW 3304   2.770   2.102   1.107
  802SOL    HW1 3305   2.733   2.177   1.162
  802SOL    HW2 3306   2.836   2.138   1.042
  803SOL     OW 3307   0.903   0.272   5.674
  803SOL    HW1 3308   0.843   0.204   5.715
  803SOL    HW2 3309   0.913   0.350   5.736
  804SOL     OW 3310   5.793   6.186   6.906
  804SOL    HW1 3311   5.862   6.157   6.839
  804SOL    HW2 3312   5.716   6.123   6.903
  805SOL     OW 3313   3.167   0.844   3.544
  805SOL    HW1 3314   3.103   0.807   3.612
  805SOL    HW2 3315   3.145   0.806   3.454
  806SOL     OW 3316   4.883   1.477   4.081
  806SOL    HW1 3317   4.804   1.492   4.022
  806SOL    HW2 3318   4.856   1.419   4.158
  807SOL     OW 3319   1.459   0.989   4.948
  807SOL    HW1 3320   1.436   1.005   5.044
  807SOL    HW2 3321   1.419   0.903   4.918
  808SOL     OW 3322   4.001   3.761   6.285
  808SOL    HW1 3323   3.931   3.696   6.257
  808SOL    HW2 3324   4.061   3.718   6.353
  809SOL     OW 3325   0.761   4.610   1.423
  809SOL    HW1 3326   0.796   4.685   1.368
  809SOL    HW2 3327   0.665   4.593   1.398
  810SOL     OW 3328   3.405   3.895   1.218
  810SOL    HW1 3329   3.360   3.808   1.239
  810SOL    HW2 3330   3.418   3.903   1.119
  811SOL     OW 3331   5.278   5.658   5.501
  811SOL    HW1 3332   5.339   5.675   5.578
  811SOL    HW2 3333   5.226   5.742   5.481
  812SOL     OW 3334   0.156   0.781   2.479
  812SOL    HW1 3335   0.151   0.682   2.467
  812SOL    HW2 3336   0.064   0.819   2.476
  813SOL     OW 3337   4.191   0.160   4.281
  813SOL    HW1 3338   4.188   0.070   4.325
  813SOL    HW2 3339   4.139   0.156   4.196
  814SOL     OW 3340   5.672   6.298   2.770
  814SOL    HW1 3341   5.712   6.362   2.704
  814SOL    HW2 3342   5.577   6.324   2.788
  815SOL     OW 3343   0.171   3.254   3.661
  815SOL    HW1 3344   0.195   3.159   3.682
  815SOL    HW2 3345   0.071   3.264   3.660
  816SOL     OW 3346   6.267   6.101   0.506
  816SOL    HW1 3347   6.324   6.175   0.542
  816SOL    HW2 3348   6.236   6.125   0.414
  817SOL     OW 3349   1.521   5.137   1.189
  817SOL    HW1 3350   1.595   5.196   1.157
  817SOL    HW2 3351   1.433   5.178   1.166
  818SOL     OW 3352   6.095   2.469   3.041
  818SOL    HW1 3353   6.087   2.431   2.949
  818SOL    HW2 3354   6.025   2.539   3.055
  819SOL     OW 3355   6.121   2.643   2.252
  819SOL    HW1 3356   6.055   2.595   2.309
  819SOL    HW2 3357   6.206   2.590   2.248
  820SOL     OW 3358   3.858   2.121   5.074
  820SOL    HW1 3359   3.827   2.141   5.167
  820SOL    HW2 3360   3.778   2.105   5.016
  821SOL     OW 3361   0.156   3.993   1.086
  821SOL    HW1 3362   0.162   3.956   0.994
  821SOL    HW2 3363   0.064   4.031   1.101
  822SOL     OW 3364   0.837   3.705   3.626
  822SOL    HW1 3365   0.809   3.617   3.666
  822SOL    HW2 3366   0.812   3.779   3.688
  823SOL     OW 3367   5.397   3.964   6.515
  823SOL    HW1 3368   5.449   3.993   6.435
  823SOL    HW2 3369   5.319   4.025   6.527
  824SOL     OW 3370   4.717   1.580   6.666
  824SOL    HW1 3371   4.647   1.591   6.596
  824SOL    HW2 3372   4.689   1.508   6.730
  825SOL     OW 3373   6.565   5.165   1.578
  825SOL    HW1 3374   6.589   5.088   1.638
  825SOL    HW2 3375   6.645   5.225   1.568
  826SOL     OW 3376   4.136   2.471   6.101
  826SOL    HW1 3377   4.133   2.527   6.184
  826SOL    HW2 3378   4.197   2.393   6.115
  827SOL     OW 3379   2.816   4.179   5.662
  827SOL    HW1 3380   2.795   4.209   5.569
  827SOL    HW2 3381   2.870   4.249   5.709
  828SOL     OW 3382   5.403   6.242   0.360
  828SOL    HW1 3383   5.339   6.232   0.437
  828SOL    HW2 3384   5.366   6.309   0.295
  829SOL     OW 3385   3.784   3.602   2.511
  829SOL    HW1 3386   3.875   3.643   2.501
  829SOL    HW2 3387   3.718   3.674   2.535
  830SOL     OW 3388   5.441   5.017   6.787
  830SOL    HW1 3389   5.431   4.980   6.694
  830SOL    HW2 3390   5.507   4.962   6.837
  831SOL     OW 3391   6.396   0.581   0.503
  831SOL    HW1 3392   6.404   0.678   0.525
  831SOL    HW2 3393   6.475   0.553   0.449
  832SOL     OW 3394   4.330   0.836   2.548
  832SOL    HW1 3395   4.263   0.769   2.580
  832SOL    HW2 3396   4.290   0.928   2.551
  833SOL     OW 3397   0.891   4.103   6.450
  833SOL    HW1 3398   0.829   4.127   6.375
  833SOL    HW2 3399   0.886   4.005   6.466
  834SOL     OW 3400   3.847   4.100   1.154
  834SOL    HW1 3401   3.805   4.097   1.244
  834SOL    HW2 3402   3.886   4.010   1.132
  835SOL     OW 3403   3.490   0.062   5.904
  835SOL    HW1 3404   3.506   0.149   5.952
  835SOL    HW2 3405   3.543   7.016   5.947
  836SOL     OW 3406   4.152   6.303   5.522
  836SOL    HW1 3407   4.176   6.400   5.529
  836SOL    HW2 3408   4.138   6.265   5.614
  837SOL     OW 3409   5.472   0.395   1.035
  837SOL    HW1 3410   5.466   0.360   1.128
  837SOL    HW2 3411   5.397   0.358   0.980
  838SOL     OW 3412   2.264   0.984   4.476
  838SOL    HW1 3413   2.308   1.045   4.411
  838SOL    HW2 3414   2.166   1.005   4.481
  839SOL     OW 3415   1.319   1.780   2.494
  839SOL    HW1 3416   1.402   1.805   2.444
  839SOL    HW2 3417   1.240   1.820   2.447
  840SOL     OW 3418   6.906   5.611   0.184
  840SOL    HW1 3419   6.838   5.668   0.137
  840SOL    HW2 3420   6.978   5.586   0.120
  841SOL     OW 3421   3.460   4.865   6.382
  841SOL    HW1 3422   3.553   4.891   6.407
  841SOL    HW2 3423   3.423   4.931   6.317
  842SOL     OW 3424   3.857   0.227   4.595
  842SOL    HW1 3425   3.782   0.260   4.538
  842SOL    HW2 3426   3.846   0.262   4.688
  843SOL     OW 3427   0.997   1.127   1.497
  843SOL    HW1 3428   0.898   1.115   1.507
  843SOL    HW2 3429   1.044   1.049   1.537
  844SOL     OW 3430   5.816   0.610   0.429
  844SOL    HW1 3431   5.902   0.656   0.451
  844SOL    HW2 3432   5.783   0.561   0.510
  845SOL     OW 3433   4.692   4.246   4.290
  845SOL    HW1 3434   4.680   4.281   4.383
  845SOL    HW2 3435   4.752   4.166   4.293
  846SOL     OW 3436   2.060   1.689   6.109
  846SOL    HW1 3437   1.983   1.640   6.068
  846SOL    HW2 3438   2.108   1.742   6.039
  847SOL     OW 3439   1.132   2.923   1.297
  847SOL    HW1 3440   1.119   2.873   1.383
  847SOL    HW2 3441   1.048   2.971   1.273
  848SOL     OW 3442   6.620   0.282   5.719
  848SOL    HW1 3443   6.642   0.186   5.738
  848SOL    HW2 3444   6.595   0.291   5.622
  849SOL     OW 3445   6.481   3.913   5.738
  849SOL    HW1 3446   6.455   3.955   5.825
  849SOL    HW2 3447   6.439   3.964   5.662
  850SOL     OW 3448   4.999   1.152   3.448
  850SOL    HW1 3449   5.046   1.107   3.523
  850SOL    HW2 3450   5.066   1.198   3.390
  851SOL     OW 3451   6.870   2.416   2.567
  851SOL    HW1 3452   6.941   2.476   2.604
  851SOL    HW2 3453   6.797   2.406   2.634
  852SOL     OW 3454   1.089   3.663   0.092
  852SOL    HW1 3455   0.991   3.653   0.072
  852SOL    HW2 3456   1.125   3.578   0.130
  853SOL     OW 3457   1.009   4.662   0.891
  853SOL    HW1 3458   0.981   4.628   0.981
  853SOL    HW2 3459   1.096   4.620   0.865
  854SOL     OW 3460   5.576   5.002   0.928
  854SOL    HW1 3461   5.522   5.016   0.845
  854SOL    HW2 3462   5.515   4.990   1.006
  855SOL     OW 3463   6.428   6.978   1.675
  855SOL    HW1 3464   6.354   7.014   1.732
  855SOL    HW2 3465   6.472   6.901   1.723
  856SOL     OW 3466   1.094   2.309   5.757
  856SOL    HW1 3467   1.065   2.333   5.850
  856SOL    HW2 3468   1.129   2.391   5.712
  857SOL     OW 3469   6.366   4.736   2.155
  857SOL    HW1 3470   6.290   4.676   2.178
  857SOL    HW2 3471   6.332   4.829   2.139
  858SOL     OW 3472   2.546   3.246   1.159
  858SOL    HW1 3473   2.521   3.328   1.209
  858SOL    HW2 3474   2.555   3.268   1.061
  859SOL     OW 3475   5.851   6.523   5.040
  859SOL    HW1 3476   5.779   6.514   4.971
  859SOL    HW2 3477   5.878   6.619   5.048
  860SOL     OW 3478   5.875   3.008   0.478
  860SOL    HW1 3479   5.938   3.083   0.458
  860SOL    HW2 3480   5.915   2.951   0.550
  861SOL     OW 3481   2.629   6.017   3.520
  861SOL    HW1 3482   2.559   5.946   3.515
  861SOL    HW2 3483   2.715   5.977   3.550
  862SOL     OW 3484   1.514   3.763   4.590
  862SOL    HW1 3485   1.552   3.847   4.630
  862SOL    HW2 3486   1.571   3.735   4.513
  863SOL     OW 3487   6.097   1.748   0.635
  863SOL    HW1 3488   6.099   1.844   0.665
  863SOL    HW2 3489   6.043   1.740   0.552
  864SOL     OW 3490   4.271   5.728   4.007
  864SOL    HW1 3491   4.277   5.631   3.981
  864SOL    HW2 3492   4.188   5.743   4.060
  865SOL     OW 3493   1.643   6.466   5.880
  865SOL    HW1 3494   1.642   6.390   5.944
  865SOL    HW2 3495   1.561   6.521   5.891
  866SOL     OW 3496   2.279   1.871   2.388
  866SOL    HW1 3497   2.338   1.951   2.382
  866SOL    HW2 3498   2.285   1.817   2.304
  867SOL     OW 3499   4.879   3.389   0.513
  867SOL    HW1 3500   4.956   3.407   0.451
  867SOL    HW2 3501   4.911   3.334   0.590
  868SOL     OW 3502   5.602   1.246   0.526
  868SOL    HW1 3503   5.658   1.268   0.606
  868SOL    HW2 3504   5.654   1.266   0.443
  869SOL     OW 3505   0.423   4.170   3.013
  869SOL    HW1 3506   0.463   4.099   3.071
  869SOL    HW2 3507   0.375   4.236   3.071
  870SOL     OW 3508   3.925   3.009   0.338
  870SOL    HW1 3509   3.888   3.063   0.263
  870SOL    HW2 3510   3.983   3.067   0.396
  871SOL     OW 3511   4.535   2.081   2.641
  871SOL    HW1 3512   4.459   2.090   2.576
  871SOL    HW2 3513   4.579   1.992   2.628
  872SOL     OW 3514   5.191   3.502   3.873
  872SOL    HW1 3515   5.221   3.412   3.905
  872SOL    HW2 3516   5.192   3.503   3.773
  873SOL     OW 3517   5.861   6.785   4.513
  873SOL    HW1 3518   5.763   6.769   4.522
  873SOL    HW2 3519   5.894   6.834   4.594
  874SOL     OW 3520   0.888   4.069   5.943
  874SOL    HW1 3521   0.893   4.162   5.906
  874SOL    HW2 3522   0.799   4.056   5.987
  875SOL     OW 3523   4.633   3.917   0.810
  875SOL    HW1 3524   4.561   3.986   0.801
  875SOL    HW2 3525   4.593   3.832   0.843
  876SOL     OW 3526   0.764   4.302   2.175
  876SOL    HW1 3527   0.826   4.274   2.103
  876SOL    HW2 3528   0.704   4.375   2.142
  877SOL     OW 3529   3.514   4.417   5.796
  877SOL    HW1 3530   3.604   4.429   5.837
  877SOL    HW2 3531   3.510   4.468   5.710
  878SOL     OW 3532   3.448   6.274   5.118
  878SOL    HW1 3533   3.416   6.181   5.098
  878SOL    HW2 3534   3.419   6.299   5.211
  879SOL     OW 3535   3.396   2.007   0.627
  879SOL    HW1 3536   3.446   2.042   0.547
  879SOL    HW2 3537   3.398   2.075   0.700
  880SOL     OW 3538   3.066   3.714   4.237
  880SOL    HW1 3539   3.043   3.755   4.325
  880SOL    HW2 3540   3.159   3.676   4.241
  881SOL     OW 3541   5.187   3.851   5.381
  881SOL    HW1 3542   5.189   3.918   5.456
  881SOL    HW2 3543   5.096   3.809   5.377
  882SOL     OW 3544   0.908   2.494   4.567
  882SOL    HW1 3545   0.871   2.489   4.660
  882SOL    HW2 3546   0.838   2.464   4.502
  883SOL     OW 3547   4.076   0.308   0.322
  883SOL    HW1 3548   4.136   0.312   0.401
  883SOL    HW2 3549   4.058   0.212   0.299
  884SOL     OW 3550   6.916   4.171   0.139
  884SOL    HW1 3551   6.934   4.077   0.166
  884SOL    HW2 3552   6.950   4.233   0.210
  885SOL     OW 3553   4.875   6.455   5.802
  885SOL    HW1 3554   4.894   6.553   5.803
  885SOL    HW2 3555   4.915   6.413   5.884
  886SOL     OW 3556   4.080   0.979   1.257
  886SOL    HW1 3557   4.086   1.072   1.220
  886SOL    HW2 3558   4.040   0.919   1.188
  887SOL     OW 3559   4.047   5.944   3.624
  887SOL    HW1 3560   4.141   5.924   3.654
  887SOL    HW2 3561   3.990   5.864   3.639
  888SOL     OW 3562   6.827   6.485   2.592
  888SOL    HW1 3563   6.844   6.516   2.498
  888SOL    HW2 3564   6.742   6.526   2.625
  889SOL     OW 3565   0.594   0.707   6.040
  889SOL    HW1 3566   0.657   0.727   6.115
  889SOL    HW2 3567   0.614   0.616   6.003
  890SOL     OW 3568   1.983   4.938   2.173
  890SOL    HW1 3569   1.886   4.916   2.178
  890SOL    HW2 3570   2.037   4.854   2.176
  891SOL     OW 3571   6.588   3.729   0.539
  891SOL    HW1 3572   6.512   3.787   0.565
  891SOL    HW2 3573   6.567   3.633   0.559
  892SOL     OW 3574   3.782   3.844   5.360
  892SOL    HW1 3575   3.881   3.835   5.359
  892SOL    HW2 3576   3.755   3.920   5.418
  893SOL     OW 3577   1.715   0.316   2.854
  893SOL    HW1 3578   1.811   0.298   2.878
  893SOL    HW2 3579   1.671   0.365   2.929
  894SOL     OW 3580   1.352   2.762   3.222
  894SOL    HW1 3581   1.451   2.776   3.213
  894SOL    HW2 3582   1.334   2.696   3.295
  895SOL     OW 3583   1.779   5.323   3.337
  895SOL    HW1 3584   1.832   5.378   3.402
  895SOL    HW2 3585   1.706   5.379   3.298
  896SOL     OW 3586   6.149   5.825   1.800
  896SOL    HW1 3587   6.125   5.818   1.703
  896SOL    HW2 3588   6.195   5.912   1.817
  897SOL     OW 3589   4.502   0.313   6.777
  897SOL    HW1 3590   4.416   0.263   6.773
  897SOL    HW2 3591   4.508   0.362   6.865
  898SOL     OW 3592   3.492   5.754   2.258
  898SOL    HW1 3593   3.506   5.657   2.280
  898SOL    HW2 3594   3.499   5.808   2.341
  899SOL     OW 3595   0.659   5.571   0.391
  899SOL    HW1 3596   0.585   5.509   0.364
  899SOL    HW2 3597   0.704   5.608   0.309
  900SOL     OW 3598   4.787   6.519   6.511
  900SOL    HW1 3599   4.698   6.476   6.496
  900SOL    HW2 3600   4.795   6.546   6.607
  901SOL     OW 3601   1.225   0.737   4.602
  901SOL    HW1 3602   1.191   0.678   4.528
  901SOL    HW2 3603   1.306   0.786   4.570
  902SOL     OW 3604   0.988   2.514   1.388
  902SOL    HW1 3605   1.051   2.495   1.463
  902SOL    HW2 3606   1.039   2.550   1.310
  903SOL     OW 3607   0.317   2.761   6.609
  903SOL    HW1 3608   0.391   2.696   6.596
  903SOL    HW2 3609   0.261   2.765   6.526
  904SOL     OW 3610   2.204   2.611   2.405
  904SOL    HW1 3611   2.222   2.632   2.309
  904SOL    HW2 3612   2.277   2.650   2.461
  905SOL     OW 3613   5.260   4.633   6.350
  905SOL    HW1 3614   5.282   4.666   6.258
  905SOL    HW2 3615   5.162   4.640   6.366
  906SOL     OW 3616   1.104   2.863   6.352
  906SOL    HW1 3617   1.133   2.836   6.444
  906SOL    HW2 3618   1.021   2.919   6.358
  907SOL     OW 3619   5.003   2.445   2.123
  907SOL    HW1 3620   4.967   2.479   2.209
  907SOL    HW2 3621   4.983   2.510   2.050
  908SOL     OW 3622   2.593   5.093   2.674
  908SOL    HW1 3623   2.608   5.180   2.721
  908SOL    HW2 3624   2.495   5.074   2.669
  909SOL     OW 3625   3.377   5.647   2.028
  909SOL    HW1 3626   3.332   5.583   2.091
  909SOL    HW2 3627   3.414   5.724   2.080
  910SOL     OW 3628   3.054   0.627   0.971
  910SOL    HW1 3629   3.022   0.611   0.877
  910SOL    HW2 3630   3.107   0.549   1.002
  911SOL     OW 3631   0.523   5.548   6.969
  911SOL    HW1 3632   0.565   5.635   6.995
  911SOL    HW2 3633   0.467   5.561   6.888
  912SOL     OW 3634   5.124   0.562   3.657
  912SOL    HW1 3635   5.200   0.619   3.686
  912SOL    HW2 3636   5.126   0.551   3.558
  913SOL     OW 3637   2.379   1.158   4.304
  913SOL    HW1 3638   2.302   1.216   4.278
  913SOL    HW2 3639   2.455   1.216   4.334
  914SOL     OW 3640   2.799   5.884   5.651
  914SOL    HW1 3641   2.880   5.834   5.619
  914SOL    HW2 3642   2.722   5.865   5.591
  915SOL     OW 3643   0.878   3.205   0.974
  915SOL    HW1 3644   0.964   3.169   1.008
  915SOL    HW2 3645   0.833   3.258   1.046
  916SOL     OW 3646   2.212   2.928   2.410
  916SOL    HW1 3647   2.194   3.025   2.396
  916SOL    HW2 3648   2.237   2.885   2.323
  917SOL     OW 3649   6.298   1.420   2.837
  917SOL    HW1 3650   6.345   1.391   2.920
  917SOL    HW2 3651   6.355   1.401   2.758
  918SOL     OW 3652   3.434   7.016   0.884
  918SOL    HW1 3653   3.383   0.046   0.819
  918SOL    HW2 3654   3.512   0.041   0.919
  919SOL     OW 3655   6.599   6.260   3.518
  919SOL    HW1 3656   6.574   6.163   3.524
  919SOL    HW2 3657   6.584   6.293   3.425
  920SOL     OW 3658   2.319   4.747   2.418
  920SOL    HW1 3659   2.418   4.733   2.419
  920SOL    HW2 3660   2.298   4.839   2.385
  921SOL     OW 3661   4.358   4.689   3.203
  921SOL    HW1 3662   4.259   4.688   3.192
  921SOL    HW2 3663   4.401   4.697   3.113
  922SOL     OW 3664   3.225   3.778   5.594
  922SOL    HW1 3665   3.298   3.818   5.649
  922SOL    HW2 3666   3.167   3.851   5.557
  923SOL     OW 3667   2.561   4.424   5.837
  923SOL    HW1 3668   2.642   4.476   5.810
  923SOL    HW2 3669   2.514   4.391   5.755
  924SOL     OW 3670   5.703   2.673   2.884
  924SOL    HW1 3671   5.614   2.642   2.917
  924SOL    HW2 3672   5.707   2.773   2.888
  925SOL     OW 3673   0.385   1.477   6.449
  925SOL    HW1 3674   0.469   1.489   6.396
  925SOL    HW2 3675   0.402   1.501   6.545
  926SOL     OW 3676   6.111   1.437   0.988
  926SOL    HW1 3677   6.033   1.469   1.042
  926SOL    HW2 3678   6.185   1.409   1.050
  927SOL     OW 3679   5.693   3.740   3.193
  927SOL    HW1 3680   5.719   3.787   3.108
  927SOL    HW2 3681   5.599   3.764   3.217
  928SOL     OW 3682   1.046   6.237   0.345
  928SOL    HW1 3683   1.081   6.227   0.438
  928SOL    HW2 3684   0.986   6.317   0.340
  929SOL     OW 3685   0.475   0.646   0.995
  929SOL    HW1 3686   0.486   0.714   1.068
  929SOL    HW2 3687   0.559   0.593   0.986
  930SOL     OW 3688   5.439   5.909   4.059
  930SOL    HW1 3689   5.473   5.829   4.108
  930SOL    HW2 3690   5.364   5.951   4.111
  931SOL     OW 3691   5.966   2.006   3.737
  931SOL    HW1 3692   5.935   2.023   3.830
  931SOL    HW2 3693   5.945   1.912   3.711
  932SOL     OW 3694   2.650   6.785   3.752
  932SOL    HW1 3695   2.650   6.885   3.740
  932SOL    HW2 3696   2.662   6.763   3.848
  933SOL     OW 3697   1.891   5.470   3.534
  933SOL    HW1 3698   1.924   5.471   3.628
  933SOL    HW2 3699   1.855   5.561   3.510
  934SOL     OW 3700   1.547   6.854   6.312
  934SOL    HW1 3701   1.463   6.803   6.328
  934SOL    HW2 3702   1.552   6.881   6.216
  935SOL     OW 3703   4.568   4.740   4.407
  935SOL    HW1 3704   4.548   4.671   4.338
  935SOL    HW2 3705   4.506   4.729   4.484
  936SOL     OW 3706   0.968   0.333   6.275
  936SOL    HW1 3707   1.055   0.372   6.305
  936SOL    HW2 3708   0.983   0.278   6.193
  937SOL     OW 3709   5.445   1.417   5.169
  937SOL    HW1 3710   5.457   1.508   5.208
  937SOL    HW2 3711   5.401   1.357   5.235
  938SOL     OW 3712   6.703   5.181   6.023
  938SOL    HW1 3713   6.770   5.120   6.065
  938SOL    HW2 3714   6.738   5.216   5.936
  939SOL     OW 3715   6.867   6.567   5.415
  939SOL    HW1 3716   6.872   6.507   5.334
  939SOL    HW2 3717   6.801   6.529   5.480
  940SOL     OW 3718   0.491   3.159   1.813
  940SOL    HW1 3719   0.576   3.207   1.793
  940SOL    HW2 3720   0.424   3.223   1.850
  941SOL     OW 3721   5.313   1.380   6.267
  941SOL    HW1 3722   5.225   1.356   6.310
  941SOL    HW2 3723   5.385   1.322   6.305
  942SOL     OW 3724   5.027   0.298   3.037
  942SOL    HW1 3725   4.933   0.285   3.006
  942SOL    HW2 3726   5.031   0.377   3.098
  943SOL     OW 3727   2.161   3.570   4.033
  943SOL    HW1 3728   2.141   3.635   4.106
  943SOL    HW2 3729   2.187   3.619   3.950
  944SOL     OW 3730   0.389   4.851   5.940
  944SOL    HW1 3731   0.469   4.874   5.995
  944SOL    HW2 3732   0.306   4.862   5.995
  945SOL     OW 3733   6.542   4.588   5.430
  945SOL    HW1 3734   6.606   4.568   5.504
  945SOL    HW2 3735   6.549   4.684   5.405
  946SOL     OW 3736   4.773   2.832   6.139
  946SOL    HW1 3737   4.673   2.836   6.146
  946SOL    HW2 3738   4.812   2.816   6.229
  947SOL     OW 3739   3.811   3.012   3.384
  947SOL    HW1 3740   3.777   2.977   3.472
  947SOL    HW2 3741   3.906   3.041   3.394
  948SOL     OW 3742   3.782   0.207   2.064
  948SOL    HW1 3743   3.728   0.125   2.045
  948SOL    HW2 3744   3.826   0.198   2.153
  949SOL     OW 3745   0.738   5.956   6.024
  949SOL    HW1 3746   0.787   5.869   6.021
  949SOL    HW2 3747   0.777   6.013   6.096
  950SOL     OW 3748   4.609   5.436   2.014
  950SOL    HW1 3749   4.685   5.420   2.077
  950SOL    HW2 3750   4.593   5.534   2.005
  951SOL     OW 3751   2.357   0.851   3.948
  951SOL    HW1 3752   2.278   0.896   3.907
  951SOL    HW2 3753   2.346   0.752   3.943
  952SOL     OW 3754   4.405   1.651   3.085
  952SOL    HW1 3755   4.423   1.660   2.987
  952SOL    HW2 3756   4.306   1.657   3.101
  953SOL     OW 3757   5.538   4.580   3.776
  953SOL    HW1 3758   5.610   4.581   3.846
  953SOL    HW2 3759   5.463   4.522   3.807
  954SOL     OW 3760   3.845   5.187   1.264
  954SOL    HW1 3761   3.803   5.220   1.348
  954SOL    HW2 3762   3.843   5.259   1.194
  955SOL     OW 3763   0.372   3.772   2.562
  955SOL    HW1 3764   0.436   3.849   2.559
  955SOL    HW2 3765   0.300   3.792   2.629
  956SOL     OW 3766   6.680   1.774   3.194
  956SOL    HW1 3767   6.702   1.686   3.154
  956SOL    HW2 3768   6.658   1.840   3.122
  957SOL     OW 3769   6.154   3.942   5.248
  957SOL    HW1 3770   6.057   3.967   5.243
  957SOL    HW2 3771   6.171   3.896   5.335
  958SOL     OW 3772   4.425   1.709   1.788
  958SOL    HW1 3773   4.370   1.758   1.720
  958SOL    HW2 3774   4.365   1.665   1.854
  959SOL     OW 3775   4.488   6.040   2.534
  959SOL    HW1 3776   4.443   6.028   2.445
  959SOL    HW2 3777   4.444   5.981   2.602
  960SOL     OW 3778   1.406   6.375   1.737
  960SOL    HW1 3779   1.313   6.398   1.707
  960SOL    HW2 3780   1.410   6.278   1.760
  961SOL     OW 3781   4.567   0.061   3.784
  961SOL    HW1 3782   4.539   6.990   3.786
  961SOL    HW2 3783   4.588   0.088   3.691
  962SOL     OW 3784   0.475   1.115   5.335
  962SOL    HW1 3785   0.467   1.040   5.400
  962SOL    HW2 3786   0.563   1.109   5.288
  963SOL     OW 3787   6.356   1.542   6.637
  963SOL    HW1 3788   6.427   1.592   6.686
  963SOL    HW2 3789   6.278   1.527   6.698
  964SOL     OW 3790   5.445   4.189   0.297
  964SOL    HW1 3791   5.525   4.203   0.238
  964SOL    HW2 3792   5.475   4.165   0.389
  965SOL     OW 3793   5.077   2.142   1.233
  965SOL    HW1 3794   5.148   2.190   1.181
  965SOL    HW2 3795   4.989   2.187   1.220
  966SOL     OW 3796   5.268   2.438   1.996
  966SOL    HW1 3797   5.185   2.430   2.052
  966SOL    HW2 3798   5.341   2.480   2.050
  967SOL     OW 3799   2.440   4.172   0.897
  967SOL    HW1 3800   2.410   4.230   0.821
  967SOL    HW2 3801   2.534   4.141   0.879
  968SOL     OW 3802   3.625   0.547   1.512
  968SOL    HW1 3803   3.624   0.447   1.500
  968SOL    HW2 3804   3.552   0.574   1.574
  969SOL     OW 3805   2.963   6.275   6.396
  969SOL    HW1 3806   2.979   6.370   6.426
  969SOL    HW2 3807   3.032   6.250   6.328
  970SOL     OW 3808   5.322   1.061   6.353
  970SOL    HW1 3809   5.308   1.023   6.261
  970SOL    HW2 3810   5.330   0.986   6.419
  971SOL     OW 3811   6.742   2.251   3.184
  971SOL    HW1 3812   6.703   2.188   3.252
  971SOL    HW2 3813   6.825   2.210   3.146
  972SOL     OW 3814   5.356   3.301   2.459
  972SOL    HW1 3815   5.337   3.369   2.389
  972SOL    HW2 3816   5.277   3.292   2.520
  973SOL     OW 3817   0.264   4.800   6.657
  973SOL    HW1 3818   0.175   4.845   6.665
  973SOL    HW2 3819   0.326   4.859   6.605
  974SOL     OW 3820   5.254   6.163   2.127
  974SOL    HW1 3821   5.322   6.116   2.071
  974SOL    HW2 3822   5.292   6.181   2.218
  975SOL     OW 3823   1.631   0.030   6.504
  975SOL    HW1 3824   1.608   0.125   6.482
  975SOL    HW2 3825   1.582   6.994   6.442
  976SOL     OW 3826   6.438   3.476   2.909
  976SOL    HW1 3827   6.484   3.535   2.843
  976SOL    HW2 3828   6.503   3.451   2.982
  977SOL     OW 3829   1.039   0.425   2.427
  977SOL    HW1 3830   0.956   0.477   2.405
  977SOL    HW2 3831   1.042   0.406   2.525
  978SOL     OW 3832   4.661   3.428   5.840
  978SOL    HW1 3833   4.677   3.420   5.939
  978SOL    HW2 3834   4.626   3.340   5.806
  979SOL     OW 3835   0.279   2.341   1.070
  979SOL    HW1 3836   0.333   2.412   1.114
  979SOL    HW2 3837   0.253   2.371   0.978
  980SOL     OW 3838   4.416   2.417   3.772
  980SOL    HW1 3839   4.434   2.403   3.675
  980SOL    HW2 3840   4.406   2.329   3.817
  981SOL     OW 3841   0.107   1.640   4.581
  981SOL    HW1 3842   0.015   1.629   4.618
  981SOL    HW2 3843   0.165   1.565   4.613
  982SOL     OW 3844   2.083   1.995   4.902
  982SOL    HW1 3845   2.027   2.022   4.980
  982SOL    HW2 3846   2.149   1.925   4.931
  983SOL     OW 3847   6.247   2.967   4.481
  983SOL    HW1 3848   6.210   2.874   4.481
  983SOL    HW2 3849   6.313   2.976   4.406
  984SOL     OW 3850   2.414   2.020   4.934
  984SOL    HW1 3851   2.436   1.925   4.958
  984SOL    HW2 3852   2.406   2.028   4.834
  985SOL     OW 3853   5.495   4.031   5.192
  985SOL    HW1 3854   5.553   3.950   5.183
  985SOL    HW2 3855   5.474   4.046   5.289
  986SOL     OW 3856   6.038   4.881   1.187
  986SOL    HW1 3857   6.025   4.796   1.136
  986SOL    HW2 3858   5.976   4.951   1.152
  987SOL     OW 3859   4.478   6.930   2.146
  987SOL    HW1 3860   4.530   6.981   2.214
  987SOL    HW2 3861   4.381   6.954   2.153
  988SOL     OW 3862   3.592   3.164   2.068
  988SOL    HW1 3863   3.595   3.213   2.156
  988SOL    HW2 3864   3.507   3.111   2.062
  989SOL     OW 3865   5.937   1.170   6.217
  989SOL    HW1 3866   5.933   1.246   6.153
  989SOL    HW2 3867   5.847   1.125   6.221
  990SOL     OW 3868   4.684   1.616   2.105
  990SOL    HW1 3869   4.702   1.572   2.017
  990SOL    HW2 3870   4.742   1.698   2.114
  991SOL     OW 3871   0.856   3.517   5.216
  991SOL    HW1 3872   0.833   3.421   5.207
  991SOL    HW2 3873   0.855   3.560   5.125
  992SOL     OW 3874   0.027   2.853   2.215
  992SOL    HW1 3875   0.005   2.846   2.118
  992SOL    HW2 3876   0.120   2.889   2.226
  993SOL     OW 3877   0.242   4.665   1.300
  993SOL    HW1 3878   0.161   4.610   1.320
  993SOL    HW2 3879   0.258   4.665   1.201
  994SOL     OW 3880   4.203   4.666   0.990
  994SOL    HW1 3881   4.103   4.673   0.986
  994SOL    HW2 3882   4.234   4.598   0.924
  995SOL     OW 3883   3.653   2.936   5.206
  995SOL    HW1 3884   3.590   3.014   5.210
  995SOL    HW2 3885   3.708   2.942   5.123
  996SOL     OW 3886   3.193   5.160   4.736
  996SOL    HW1 3887   3.288   5.133   4.723
  996SOL    HW2 3888   3.177   5.248   4.691
  997SOL     OW 3889   1.194   6.980   3.493
  997SOL    HW1 3890   1.192   6.880   3.497
  997SOL    HW2 3891   1.105   7.016   3.519
  998SOL     OW 3892   5.144   0.779   4.931
  998SOL    HW1 3893   5.220   0.729   4.890
  998SOL    HW2 3894   5.138   0.870   4.889
  999SOL     OW 3895   4.949   4.465   2.677
  999SOL    HW1 3896   4.918   4.408   2.601
  999SOL    HW2 3897   4.985   4.551   2.640
 1000SOL     OW 3898   2.489   1.385   1.466
 1000SOL    HW1 3899   2.475   1.438   1.550
 1000SOL    HW2 3900   2.401   1.374   1.419
 1001SOL     OW 3901   4.769   5.652   0.618
 1001SOL    HW1 3902   4.742   5.613   0.706
 1001SOL    HW2 3903   4.687   5.676   0.566
 1002SOL     OW 3904   6.098   1.518   1.328
 1002SOL    HW1 3905   6.053   1.539   1.415
 1002SOL    HW2 3906   6.082   1.422   1.305
 1003SOL     OW 3907   2.239   6.539   2.603
 1003SOL    HW1 3908   2.236   6.533   2.504
 1003SOL    HW2 3909   2.303   6.470   2.639
 1004SOL     OW 3910   0.335   0.074   2.136
 1004SOL    HW1 3911   0.300   7.019   2.089
 1004SOL    HW2 3912   0.318   0.065   2.234
 1005SOL     OW 3913   2.179   3.117   4.126
 1005SOL    HW1 3914   2.118   3.173   4.070
 1005SOL    HW2 3915   2.219   3.045   4.069
 1006SOL     OW 3916   0.967   4.515   1.128
 1006SOL    HW1 3917   0.901   4.479   1.195
 1006SOL    HW2 3918   1.038   4.446   1.111
 1007SOL     OW 3919   4.665   0.370   5.505
 1007SOL    HW1 3920   4.599   0.377   5.580
 1007SOL    HW2 3921   4.616   0.355   5.420
 1008SOL     OW 3922   1.021   3.051   5.948
 1008SOL    HW1 3923   1.034   3.007   5.860
 1008SOL    HW2 3924   0.949   3.004   5.999
 1009SOL     OW 3925   0.628   5.293   4.706
 1009SOL    HW1 3926   0.616   5.198   4.734
 1009SOL    HW2 3927   0.624   5.352   4.787
 1010SOL     OW 3928   3.765   1.930   6.475
 1010SOL    HW1 3929   3.858   1.956   6.448
 1010SOL    HW2 3930   3.740   1.978   6.559
 1011SOL     OW 3931   2.180   4.504   2.423
 1011SOL    HW1 3932   2.204   4.601   2.421
 1011SOL    HW2 3933   2.154   4.477   2.516
 1012SOL     OW 3934   6.436   6.796   2.476
 1012SOL    HW1 3935   6.436   6.767   2.380
 1012SOL    HW2 3936   6.511   6.862   2.490
 1013SOL     OW 3937   1.059   1.204   5.873
 1013SOL    HW1 3938   1.102   1.272   5.814
 1013SOL    HW2 3939   0.960   1.208   5.864
 1014SOL     OW 3940   6.286   5.291   5.945
 1014SOL    HW1 3941   6.280   5.260   6.040
 1014SOL    HW2 3942   6.347   5.231   5.894
 1015SOL     OW 3943   2.430   6.805   5.886
 1015SOL    HW1 3944   2.349   6.759   5.921
 1015SOL    HW2 3945   2.412   6.836   5.792
 1016SOL     OW 3946   4.169   3.340   6.992
 1016SOL    HW1 3947   4.154   3.397   0.047
 1016SOL    HW2 3948   4.089   3.282   6.976
 1017SOL     OW 3949   4.019   3.259   1.189
 1017SOL    HW1 3950   4.063   3.257   1.279
 1017SOL    HW2 3951   4.054   3.184   1.133
 1018SOL     OW 3952   0.309   4.427   4.235
 1018SOL    HW1 3953   0.346   4.335   4.222
 1018SOL    HW2 3954   0.209   4.425   4.232
 1019SOL     OW 3955   6.945   6.724   0.828
 1019SOL    HW1 3956   6.974   6.629   0.829
 1019SOL    HW2 3957   6.951   6.760   0.735
 1020SOL     OW 3958   6.918   1.113   1.046
 1020SOL    HW1 3959   6.912   1.184   1.117
 1020SOL    HW2 3960   6.830   1.104   1.000
 1021SOL     OW 3961   5.734   0.106   1.713
 1021SOL    HW1 3962   5.722   0.186   1.773
 1021SOL    HW2 3963   5.660   0.041   1.731
 1022SOL     OW 3964   3.252   4.439   5.295
 1022SOL    HW1 3965   3.160   4.445   5.333
 1022SOL    HW2 3966   3.253   4.374   5.219
 1023SOL     OW 3967   0.770   0.219   3.115
 1023SOL    HW1 3968   0.686   0.272   3.128
 1023SOL    HW2 3969   0.839   0.276   3.070
 1024SOL     OW 3970   0.742   2.680   4.414
 1024SOL    HW1 3971   0.679   2.626   4.468
 1024SOL    HW2 3972   0.756   2.636   4.325
 1025SOL     OW 3973   3.583   3.790   1.536
 1025SOL    HW1 3974   3.567   3.815   1.631
 1025SOL    HW2 3975   3.495   3.783   1.488
 1026SOL     OW 3976   2.281   2.520   1.007
 1026SOL    HW1 3977   2.268   2.528   1.106
 1026SOL    HW2 3978   2.378   2.521   0.986
 1027SOL     OW 3979   3.439   6.197   1.725
 1027SOL    HW1 3980   3.390   6.260   1.665
 1027SOL    HW2 3981   3.463   6.244   1.810
 1028SOL     OW 3982   2.532   6.156   1.161
 1028SOL    HW1 3983   2.575   6.168   1.251
 1028SOL    HW2 3984   2.468   6.079   1.165
 1029SOL     OW 3985   1.671   0.029   6.762
 1029SOL    HW1 3986   1.760   0.070   6.782
 1029SOL    HW2 3987   1.653   0.033   6.664
 1030SOL     OW 3988   3.197   2.852   1.936
 1030SOL    HW1 3989   3.239   2.784   1.876
 1030SOL    HW2 3990   3.101   2.829   1.951
 1031SOL     OW 3991   5.150   4.157   1.183
 1031SOL    HW1 3992   5.229   4.128   1.237
 1031SOL    HW2 3993   5.181   4.187   1.092
 1032SOL     OW 3994   2.203   2.234   5.582
 1032SOL    HW1 3995   2.181   2.330   5.566
 1032SOL    HW2 3996   2.272   2.227   5.654
 1033SOL     OW 3997   1.457   6.534   1.956
 1033SOL    HW1 3998   1.361   6.524   1.982
 1033SOL    HW2 3999   1.478   6.472   1.881
 1034SOL     OW 4000   0.589   4.651   4.566
 1034SOL    HW1 4001   0.539   4.626   4.483
 1034SOL    HW2 4002   0.673   4.698   4.542
 1035SOL     OW 4003   0.264   1.004   5.151
 1035SOL    HW1 4004   0.296   0.918   5.190
 1035SOL    HW2 4005   0.334   1.074   5.161
 1036SOL     OW 4006   3.748   0.504   1.142
 1036SOL    HW1 4007   3.674   0.561   1.177
 1036SOL    HW2 4008   3.748   0.416   1.191
 1037SOL     OW 4009   1.625   1.003   2.162
 1037SOL    HW1 4010   1.608   0.904   2.165
 1037SOL    HW2 4011   1.557   1.047   2.103
 1038SOL     OW 4012   1.514   0.932   5.397
 1038SOL    HW1 4013   1.593   0.872   5.405
 1038SOL    HW2 4014   1.455   0.900   5.323
 1039SOL     OW 4015   3.675   3.845   4.687
 1039SOL    HW1 4016   3.694   3.942   4.696
 1039SOL    HW2 4017   3.579   3.832   4.662
 1040SOL     OW 4018   4.680   0.981   2.568
 1040SOL    HW1 4019   4.622   0.901   2.584
 1040SOL    HW2 4020   4.719   0.975   2.476
 1041SOL     OW 4021   6.915   6.131   3.935
 1041SOL    HW1 4022   6.834   6.142   3.877
 1041SOL    HW2 4023   6.973   6.212   3.926
 1042SOL     OW 4024   4.216   5.131   1.963
 1042SOL    HW1 4025   4.312   5.131   1.991
 1042SOL    HW2 4026   4.191   5.222   1.930
 1043SOL     OW 4027   3.095   1.915   4.872
 1043SOL    HW1 4028   3.070   2.009   4.852
 1043SOL    HW2 4029   3.023   1.853   4.840
 1044SOL     OW 4030   5.850   5.282   2.744
 1044SOL    HW1 4031   5.850   5.237   2.655
 1044SOL    HW2 4032   5.938   5.328   2.758
 1045SOL     OW 4033   4.193   0.235   2.390
 1045SOL    HW1 4034   4.157   0.169   2.324
 1045SOL    HW2 4035   4.141   0.320   2.383
 1046SOL     OW 4036   1.756   0.335   0.382
 1046SOL    HW1 4037   1.822   0.262   0.401
 1046SOL    HW2 4038   1.777   0.414   0.439
 1047SOL     OW 4039   1.835   0.852   3.737
 1047SOL    HW1 4040   1.903   0.800   3.686
 1047SOL    HW2 4041   1.747   0.804   3.733
 1048SOL     OW 4042   3.698   6.521   3.523
 1048SOL    HW1 4043   3.740   6.443   3.477
 1048SOL    HW2 4044   3.736   6.531   3.614
 1049SOL     OW 4045   6.646   6.205   3.781
 1049SOL    HW1 4046   6.616   6.268   3.853
 1049SOL    HW2 4047   6.621   6.242   3.691
 1050SOL     OW 4048   4.249   4.524   1.225
 1050SOL    HW1 4049   4.153   4.524   1.251
 1050SOL    HW2 4050   4.267   4.601   1.163
 1051SOL     OW 4051   1.479   5.786   0.764
 1051SOL    HW1 4052   1.498   5.740   0.677
 1051SOL    HW2 4053   1.459   5.883   0.748
 1052SOL     OW 4054   3.759   0.848   4.961
 1052SOL    HW1 4055   3.662   0.832   4.979
 1052SOL    HW2 4056   3.779   0.946   4.971
 1053SOL     OW 4057   6.497   5.362   2.670
 1053SOL    HW1 4058   6.441   5.279   2.665
 1053SOL    HW2 4059   6.562   5.363   2.593
 1054SOL     OW 4060   3.162   3.869   6.591
 1054SOL    HW1 4061   3.116   3.942   6.641
 1054SOL    HW2 4062   3.163   3.891   6.494
 1055SOL     OW 4063   3.614   6.202   4.509
 1055SOL    HW1 4064   3.538   6.187   4.447
 1055SOL    HW2 4065   3.640   6.299   4.508
 1056SOL     OW 4066   2.414   4.450   6.438
 1056SOL    HW1 4067   2.344   4.395   6.393
 1056SOL    HW2 4068   2.458   4.510   6.371
 1057SOL     OW 4069   2.868   3.116   1.803
 1057SOL    HW1 4070   2.858   3.207   1.844
 1057SOL    HW2 4071   2.952   3.114   1.748
 1058SOL     OW 4072   5.016   1.846   3.191
 1058SOL    HW1 4073   5.064   1.761   3.212
 1058SOL    HW2 4074   4.987   1.844   3.095
 1059SOL     OW 4075   3.032   0.599   1.807
 1059SOL    HW1 4076   2.940   0.618   1.772
 1059SOL    HW2 4077   3.070   0.683   1.846
 1060SOL     OW 4078   6.990   4.487   4.470
 1060SOL    HW1 4079   6.915   4.528   4.418
 1060SOL    HW2 4080   6.978   4.388   4.473
 1061SOL     OW 4081   6.320   2.998   0.368
 1061SOL    HW1 4082   6.411   2.957   0.373
 1061SOL    HW2 4083   6.285   2.993   0.275
 1062SOL     OW 4084   5.463   4.998   6.157
 1062SOL    HW1 4085   5.413   5.073   6.201
 1062SOL    HW2 4086   5.533   4.963   6.219
 1063SOL     OW 4087   1.186   4.779   1.308
 1063SOL    HW1 4088   1.225   4.775   1.216
 1063SOL    HW2 4089   1.257   4.762   1.375
 1064SOL     OW 4090   1.319   4.068   2.406
 1064SOL    HW1 4091   1.396   4.013   2.375
 1064SOL    HW2 4092   1.276   4.112   2.328
 1065SOL     OW 4093   3.957   0.369   3.397
 1065SOL    HW1 4094   3.969   0.297   3.466
 1065SOL    HW2 4095   3.859   0.385   3.384
 1066SOL     OW 4096   4.718   6.701   3.426
 1066SOL    HW1 4097   4.686   6.741   3.340
 1066SOL    HW2 4098   4.750   6.608   3.409
 1067SOL     OW 4099   0.563   3.467   0.777
 1067SOL    HW1 4100   0.602   3.382   0.742
 1067SOL    HW2 4101   0.635   3.536   0.787
 1068SOL     OW 4102   6.105   5.364   2.843
 1068SOL    HW1 4103   6.199   5.369   2.811
 1068SOL    HW2 4104   6.103   5.351   2.942
 1069SOL     OW 4105   4.313   5.148   0.976
 1069SOL    HW1 4106   4.265   5.114   1.056
 1069SOL    HW2 4107   4.246   5.167   0.903
 1070SOL     OW 4108   0.013   0.335   2.439
 1070SOL    HW1 4109   0.078   0.395   2.486
 1070SOL    HW2 4110   7.016   0.374   2.350
 1071SOL     OW 4111   1.118   0.275   4.326
 1071SOL    HW1 4112   1.087   0.342   4.393
 1071SOL    HW2 4113   1.169   0.322   4.253
 1072SOL     OW 4114   1.662   0.923   0.799
 1072SOL    HW1 4115   1.612   0.980   0.863
 1072SOL    HW2 4116   1.654   0.961   0.707
 1073SOL     OW 4117   5.270   6.940   2.372
 1073SOL    HW1 4118   5.237   6.963   2.280
 1073SOL    HW2 4119   5.216   6.989   2.440
 1074SOL     OW 4120   2.237   5.162   1.189
 1074SOL    HW1 4121   2.296   5.086   1.161
 1074SOL    HW2 4122   2.141   5.136   1.176
 1075SOL     OW 4123   4.932   0.420   3.801
 1075SOL    HW1 4124   4.883   0.355   3.743
 1075SOL    HW2 4125   5.014   0.451   3.754
 1076SOL     OW 4126   6.835   2.022   5.337
 1076SOL    HW1 4127   6.858   1.943   5.394
 1076SOL    HW2 4128   6.760   2.073   5.380
 1077SOL     OW 4129   5.821   0.618   1.212
 1077SOL    HW1 4130   5.855   0.596   1.120
 1077SOL    HW2 4131   5.727   0.651   1.206
 1078SOL     OW 4132   1.294   0.769   2.716
 1078SOL    HW1 4133   1.281   0.859   2.759
 1078SOL    HW2 4134   1.312   0.701   2.786
 1079SOL     OW 4135   1.615   6.578   2.193
 1079SOL    HW1 4136   1.556   6.568   2.113
 1079SOL    HW2 4137   1.639   6.674   2.206
 1080SOL     OW 4138   1.947   4.474   3.165
 1080SOL    HW1 4139   1.857   4.466   3.120
 1080SOL    HW2 4140   2.019   4.459   3.097
 1081SOL     OW 4141   0.433   5.632   5.443
 1081SOL    HW1 4142   0.418   5.538   5.410
 1081SOL    HW2 4143   0.355   5.660   5.499
 1082SOL     OW 4144   4.369   1.984   4.889
 1082SOL    HW1 4145   4.300   2.054   4.870
 1082SOL    HW2 4146   4.328   1.910   4.942
 1083SOL     OW 4147   3.976   3.920   0.678
 1083SOL    HW1 4148   3.924   3.882   0.602
 1083SOL    HW2 4149   4.021   4.004   0.648
 1084SOL     OW 4150   5.989   6.355   6.944
 1084SOL    HW1 4151   5.991   6.435   7.004
 1084SOL    HW2 4152   5.905   6.304   6.960
 1085SOL     OW 4153   1.699   3.412   4.099
 1085SOL    HW1 4154   1.665   3.318   4.099
 1085SOL    HW2 4155   1.671   3.458   4.015
 1086SOL     OW 4156   0.037   5.672   0.429
 1086SOL    HW1 4157   0.001   5.615   0.356
 1086SOL    HW2 4158   0.017   5.768   0.411
 1087SOL     OW 4159   5.915   1.723   4.790
 1087SOL    HW1 4160   5.889   1.759   4.880
 1087SOL    HW2 4161   5.960   1.794   4.737
 1088SOL     OW 4162   0.553   4.014   3.184
 1088SOL    HW1 4163   0.618   4.005   3.260
 1088SOL    HW2 4164   0.481   3.944   3.194
 1089SOL     OW 4165   0.686   6.368   4.268
 1089SOL    HW1 4166   0.688   6.309   4.349
 1089SOL    HW2 4167   0.643   6.319   4.192
 1090SOL     OW 4168   2.755   2.313   3.577
 1090SOL    HW1 4169   2.843   2.277   3.609
 1090SOL    HW2 4170   2.721   2.257   3.502
 1091SOL     OW 4171   3.357   2.081   5.005
 1091SOL    HW1 4172   3.309   1.994   4.992
 1091SOL    HW2 4173   3.290   2.155   5.016
 1092SOL     OW 4174   1.580   3.796   1.369
 1092SOL    HW1 4175   1.576   3.802   1.269
 1092SOL    HW2 4176   1.632   3.874   1.404
 1093SOL     OW 4177   2.124   1.150   2.393
 1093SOL    HW1 4178   2.047   1.134   2.332
 1093SOL    HW2 4179   2.100   1.219   2.461
 1094SOL     OW 4180   0.037   6.812   3.115
 1094SOL    HW1 4181   0.091   6.845   3.193
 1094SOL    HW2 4182   0.061   6.718   3.095
 1095SOL     OW 4183   1.148   2.593   6.328
 1095SOL    HW1 4184   1.233   2.582   6.379
 1095SOL    HW2 4185   1.115   2.687   6.339
 1096SOL     OW 4186   3.526   4.350   1.673
 1096SOL    HW1 4187   3.523   4.436   1.724
 1096SOL    HW2 4188   3.452   4.290   1.706
 1097SOL     OW 4189   2.118   4.520   4.204
 1097SOL    HW1 4190   2.205   4.492   4.243
 1097SOL    HW2 4191   2.070   4.579   4.268
 1098SOL     OW 4192   4.429   3.324   0.064
 1098SOL    HW1 4193   4.457   3.420   0.061
 1098SOL    HW2 4194   4.356   3.309   7.023
 1099SOL     OW 4195   3.882   1.106   5.513
 1099SOL    HW1 4196   3.879   1.171   5.437
 1099SOL    HW2 4197   3.946   1.138   5.583
 1100SOL     OW 4198   3.182   1.707   5.022
 1100SOL    HW1 4199   3.252   1.733   5.089
 1100SOL    HW2 4200   3.162   1.786   4.963
 1101SOL     OW 4201   6.135   2.842   6.562
 1101SOL    HW1 4202   6.079   2.924   6.579
 1101SOL    HW2 4203   6.191   2.857   6.481
 1102SOL     OW 4204   0.450   6.736   4.749
 1102SOL    HW1 4205   0.384   6.810   4.756
 1102SOL    HW2 4206   0.472   6.719   4.653
 1103SOL     OW 4207   4.264   1.735   0.140
 1103SOL    HW1 4208   4.324   1.655   0.141
 1103SOL    HW2 4209   4.198   1.728   0.215
 1104SOL     OW 4210   1.872   3.089   6.033
 1104SOL    HW1 4211   1.850   3.086   6.131
 1104SOL    HW2 4212   1.969   3.107   6.021
 1105SOL     OW 4213   6.493   3.701   5.107
 1105SOL    HW1 4214   6.537   3.674   5.021
 1105SOL    HW2 4215   6.401   3.736   5.087
 1106SOL     OW 4216   0.198   2.598   1.906
 1106SOL    HW1 4217   0.116   2.653   1.919
 1106SOL    HW2 4218   0.186   2.538   1.827
 1107SOL     OW 4219   0.393   0.626   6.713
 1107SOL    HW1 4220   0.492   0.616   6.721
 1107SOL    HW2 4221   0.363   0.707   6.764
 1108SOL     OW 4222   3.669   6.809   5.366
 1108SOL    HW1 4223   3.758   6.774   5.336
 1108SOL    HW2 4224   3.638   6.880   5.304
 1109SOL     OW 4225   4.963   1.519   4.415
 1109SOL    HW1 4226   5.039   1.454   4.422
 1109SOL    HW2 4227   4.937   1.529   4.319
 1110SOL     OW 4228   3.473   1.952   3.332
 1110SOL    HW1 4229   3.401   2.021   3.335
 1110SOL    HW2 4230   3.433   1.862   3.317
 1111SOL     OW 4231   4.683   5.254   6.222
 1111SOL    HW1 4232   4.588   5.280   6.204
 1111SOL    HW2 4233   4.744   5.320   6.179
 1112SOL     OW 4234   4.844   1.830   2.090
 1112SOL    HW1 4235   4.873   1.918   2.054
 1112SOL    HW2 4236   4.923   1.770   2.102
 1113SOL     OW 4237   5.884   4.572   2.179
 1113SOL    HW1 4238   5.833   4.511   2.239
 1113SOL    HW2 4239   5.981   4.568   2.201
 1114SOL     OW 4240   3.483   1.544   6.184
 1114SOL    HW1 4241   3.527   1.615   6.238
 1114SOL    HW2 4242   3.411   1.584   6.128
 1115SOL     OW 4243   4.254   3.084   6.219
 1115SOL    HW1 4244   4.275   3.158   6.283
 1115SOL    HW2 4245   4.155   3.075   6.209
 1116SOL     OW 4246   4.985   0.105   5.962
 1116SOL    HW1 4247   5.043   0.128   5.883
 1116SOL    HW2 4248   4.999   0.173   6.034
 1117SOL     OW 4249   2.445   2.330   2.718
 1117SOL    HW1 4250   2.349   2.354   2.701
 1117SOL    HW2 4251   2.504   2.389   2.663
 1118SOL     OW 4252   2.547   4.237   0.499
 1118SOL    HW1 4253   2.606   4.157   0.489
 1118SOL    HW2 4254   2.587   4.314   0.450
 1119SOL     OW 4255   3.985   4.686   1.452
 1119SOL    HW1 4256   3.959   4.603   1.403
 1119SOL    HW2 4257   4.032   4.662   1.537
 1120SOL     OW 4258   6.093   6.718   6.885
 1120SOL    HW1 4259   6.181   6.763   6.868
 1120SOL    HW2 4260   6.027   6.786   6.917
 1121SOL     OW 4261   5.974   4.630   4.693
 1121SOL    HW1 4262   6.032   4.594   4.620
 1121SOL    HW2 4263   6.031   4.664   4.767
 1122SOL     OW 4264   5.998   2.627   0.289
 1122SOL    HW1 4265   6.038   2.535   0.286
 1122SOL    HW2 4266   5.899   2.620   0.290
 1123SOL     OW 4267   4.833   1.630   3.053
 1123SOL    HW1 4268   4.839   1.646   2.954
 1123SOL    HW2 4269   4.872   1.540   3.075
 1124SOL     OW 4270   0.532   3.316   5.046
 1124SOL    HW1 4271   0.447   3.284   5.005
 1124SOL    HW2 4272   0.513   3.357   5.135
 1125SOL     OW 4273   2.832   2.320   3.954
 1125SOL    HW1 4274   2.813   2.306   4.051
 1125SOL    HW2 4275   2.845   2.417   3.935
 1126SOL     OW 4276   5.863   5.124   0.164
 1126SOL    HW1 4277   5.853   5.223   0.154
 1126SOL    HW2 4278   5.773   5.081   0.156
 1127SOL     OW 4279   5.358   5.616   5.049
 1127SOL    HW1 4280   5.312   5.571   4.973
 1127SOL    HW2 4281   5.320   5.708   5.063
 1128SOL     OW 4282   5.881   1.949   4.979
 1128SOL    HW1 4283   5.843   2.041   4.977
 1128SOL    HW2 4284   5.842   1.898   5.056
 1129SOL     OW 4285   1.552   0.264   0.232
 1129SOL    HW1 4286   1.627   0.277   0.298
 1129SOL    HW2 4287   1.587   0.215   0.152
 1130SOL     OW 4288   3.077   4.901   0.737
 1130SOL    HW1 4289   3.007   4.848   0.690
 1130SOL    HW2 4290   3.122   4.845   0.806
 1131SOL     OW 4291   0.894   5.581   5.379
 1131SOL    HW1 4292   0.987   5.545   5.375
 1131SOL    HW2 4293   0.879   5.625   5.467
 1132SOL     OW 4294   5.188   6.669   2.554
 1132SOL    HW1 4295   5.231   6.710   2.635
 1132SOL    HW2 4296   5.141   6.740   2.502
 1133SOL     OW 4297   1.467   0.661   1.160
 1133SOL    HW1 4298   1.457   0.619   1.250
 1133SOL    HW2 4299   1.505   0.753   1.169
 1134SOL     OW 4300   5.484   0.572   1.824
 1134SOL    HW1 4301   5.451   0.525   1.906
 1134SOL    HW2 4302   5.407   0.611   1.775
 1135SOL     OW 4303   2.689   0.229   2.474
 1135SOL    HW1 4304   2.666   0.254   2.568
 1135SOL    HW2 4305   2.636   0.285   2.411
 1136SOL     OW 4306   4.265   4.703   2.931
 1136SOL    HW1 4307   4.170   4.671   2.925
 1136SOL    HW2 4308   4.326   4.624   2.931
 1137SOL     OW 4309   0.867   0.064   6.639
 1137SOL    HW1 4310   0.778   0.107   6.622
 1137SOL    HW2 4311   0.856   6.991   6.638
 1138SOL     OW 4312   0.267   0.559   6.014
 1138SOL    HW1 4313   0.303   0.641   6.058
 1138SOL    HW2 4314   0.339   0.516   5.959
 1139SOL     OW 4315   3.095   4.860   2.221
 1139SOL    HW1 4316   3.087   4.858   2.321
 1139SOL    HW2 4317   3.190   4.844   2.195
 1140SOL     OW 4318   3.388   1.033   1.339
 1140SOL    HW1 4319   3.485   1.009   1.334
 1140SOL    HW2 4320   3.347   1.024   1.249
 1141SOL     OW 4321   0.102   6.303   6.599
 1141SOL    HW1 4322   0.015   6.289   6.551
 1141SOL    HW2 4323   0.093   6.271   6.694
 1142SOL     OW 4324   3.275   6.627   4.806
 1142SOL    HW1 4325   3.365   6.671   4.807
 1142SOL    HW2 4326   3.238   6.630   4.714
 1143SOL     OW 4327   1.869   3.314   3.526
 1143SOL    HW1 4328   1.784   3.273   3.559
 1143SOL    HW2 4329   1.849   3.400   3.479
 1144SOL     OW 4330   6.367   4.790   4.218
 1144SOL    HW1 4331   6.334   4.872   4.265
 1144SOL    HW2 4332   6.312   4.773   4.137
 1145SOL     OW 4333   6.504   3.433   2.280
 1145SOL    HW1 4334   6.513   3.497   2.203
 1145SOL    HW2 4335   6.540   3.344   2.253
 1146SOL     OW 4336   0.218   0.497   2.530
 1146SOL    HW1 4337   0.308   0.461   2.507
 1146SOL    HW2 4338   0.221   0.538   2.621
 1147SOL     OW 4339   2.748   5.353   1.554
 1147SOL    HW1 4340   2.649   5.369   1.555
 1147SOL    HW2 4341   2.766   5.256   1.564
 1148SOL     OW 4342   4.911   5.998   0.572
 1148SOL    HW1 4343   4.928   5.965   0.665
 1148SOL    HW2 4344   4.995   5.990   0.518
 1149SOL     OW 4345   6.777   3.893   2.928
 1149SOL    HW1 4346   6.736   3.809   2.892
 1149SOL    HW2 4347   6.733   3.917   3.014
 1150SOL     OW 4348   1.953   3.874   0.348
 1150SOL    HW1 4349   1.925   3.783   0.377
 1150SOL    HW2 4350   1.874   3.935   0.347
 1151SOL     OW 4351   5.162   4.603   0.056
 1151SOL    HW1 4352   5.102   4.551   7.021
 1151SOL    HW2 4353   5.197   4.543   0.128
 1152SOL     OW 4354   5.573   4.754   6.399
 1152SOL    HW1 4355   5.563   4.661   6.362
 1152SOL    HW2 4356   5.669   4.773   6.417
 1153SOL     OW 4357   1.271   0.363   1.732
 1153SOL    HW1 4358   1.287   0.452   1.776
 1153SOL    HW2 4359   1.226   0.377   1.644
 1154SOL     OW 4360   6.873   4.863   1.191
 1154SOL    HW1 4361   6.882   4.905   1.101
 1154SOL    HW2 4362   6.861   4.934   1.260
 1155SOL     OW 4363   2.746   5.394   6.292
 1155SOL    HW1 4364   2.686   5.346   6.227
 1155SOL    HW2 4365   2.805   5.457   6.242
 1156SOL     OW 4366   4.243   1.594   4.635
 1156SOL    HW1 4367   4.186   1.628   4.710
 1156SOL    HW2 4368   4.334   1.570   4.671
 1157SOL     OW 4369   5.882   2.041   5.906
 1157SOL    HW1 4370   5.812   1.976   5.936
 1157SOL    HW2 4371   5.839   2.124   5.871
 1158SOL     OW 4372   0.421   5.104   5.335
 1158SOL    HW1 4373   0.393   5.065   5.247
 1158SOL    HW2 4374   0.499   5.052   5.370
 1159SOL     OW 4375   6.289   6.729   3.576
 1159SOL    HW1 4376   6.326   6.641   3.543
 1159SOL    HW2 4377   6.324   6.803   3.519
 1160SOL     OW 4378   5.323   4.755   0.899
 1160SOL    HW1 4379   5.382   4.687   0.943
 1160SOL    HW2 4380   5.346   4.761   0.802
 1161SOL     OW 4381   5.947   0.336   5.880
 1161SOL    HW1 4382   5.995   0.256   5.846
 1161SOL    HW2 4383   5.966   0.347   5.978
 1162SOL     OW 4384   3.315   2.250   6.863
 1162SOL    HW1 4385   3.345   2.188   6.935
 1162SOL    HW2 4386   3.243   2.206   6.809
 1163SOL     OW 4387   6.770   3.962   1.877
 1163SOL    HW1 4388   6.788   3.937   1.972
 1163SOL    HW2 4389   6.855   3.958   1.825
 1164SOL     OW 4390   6.342   3.697   4.772
 1164SOL    HW1 4391   6.292   3.748   4.841
 1164SOL    HW2 4392   6.314   3.601   4.776
 1165SOL     OW 4393   3.477   5.033   3.599
 1165SOL    HW1 4394   3.433   4.967   3.660
 1165SOL    HW2 4395   3.426   5.119   3.601
 1166SOL     OW 4396   4.073   0.011   0.099
 1166SOL    HW1 4397   3.998   0.027   0.162
 1166SOL    HW2 4398   4.061   0.068   0.018
 1167SOL     OW 4399   4.302   6.369   0.067
 1167SOL    HW1 4400   4.372   6.342   0.134
 1167SOL    HW2 4401   4.311   6.312   7.011
 1168SOL     OW 4402   4.829   2.473   3.018
 1168SOL    HW1 4403   4.893   2.546   2.998
 1168SOL    HW2 4404   4.741   2.491   2.974
 1169SOL     OW 4405   4.990   2.344   6.298
 1169SOL    HW1 4406   4.894   2.349   6.270
 1169SOL    HW2 4407   5.039   2.279   6.239
 1170SOL     OW 4408   5.246   0.563   3.405
 1170SOL    HW1 4409   5.333   0.515   3.417
 1170SOL    HW2 4410   5.199   0.527   3.324
 1171SOL     OW 4411   2.437   5.684   6.928
 1171SOL    HW1 4412   2.369   5.741   6.974
 1171SOL    HW2 4413   2.393   5.634   6.853
 1172SOL     OW 4414   3.029   4.232   1.776
 1172SOL    HW1 4415   2.964   4.229   1.700
 1172SOL    HW2 4416   2.991   4.290   1.849
 1173SOL     OW 4417   2.788   0.834   0.102
 1173SOL    HW1 4418   2.819   0.882   0.019
 1173SOL    HW2 4419   2.774   0.900   0.175
 1174SOL     OW 4420   3.038   4.753   1.355
 1174SOL    HW1 4421   2.975   4.787   1.425
 1174SOL    HW2 4422   3.014   4.659   1.332
 1175SOL     OW 4423   4.215   4.122   6.788
 1175SOL    HW1 4424   4.283   4.050   6.777
 1175SOL    HW2 4425   4.258   4.211   6.770
 1176SOL     OW 4426   5.974   4.237   6.555
 1176SOL    HW1 4427   5.905   4.221   6.626
 1176SOL    HW2 4428   5.934   4.294   6.483
 1177SOL     OW 4429   0.499   3.032   4.816
 1177SOL    HW1 4430   0.553   3.057   4.736
 1177SOL    HW2 4431   0.559   3.017   4.894
 1178SOL     OW 4432   3.278   3.989   0.964
 1178SOL    HW1 4433   3.195   3.937   0.982
 1178SOL    HW2 4434   3.281   4.069   1.024
 1179SOL     OW 4435   2.522   5.965   0.826
 1179SOL    HW1 4436   2.493   5.923   0.912
 1179SOL    HW2 4437   2.604   5.918   0.792
 1180SOL     OW 4438   2.478   6.257   4.744
 1180SOL    HW1 4439   2.514   6.349   4.727
 1180SOL    HW2 4440   2.545   6.189   4.716
 1181SOL     OW 4441   6.841   4.079   6.376
 1181SOL    HW1 4442   6.923   4.114   6.331
 1181SOL    HW2 4443   6.833   3.981   6.359
 1182SOL     OW 4444   3.606   4.946   3.089
 1182SOL    HW1 4445   3.575   4.936   2.994
 1182SOL    HW2 4446   3.687   4.890   3.103
 1183SOL     OW 4447   3.192   5.108   1.406
 1183SOL    HW1 4448   3.136   5.185   1.437
 1183SOL    HW2 4449   3.175   5.029   1.466
 1184SOL     OW 4450   6.723   0.575   5.365
 1184SOL    HW1 4451   6.786   0.536   5.431
 1184SOL    HW2 4452   6.697   0.668   5.393
 1185SOL     OW 4453   1.157   0.917   0.353
 1185SOL    HW1 4454   1.067   0.941   0.388
 1185SOL    HW2 4455   1.158   0.820   0.326
 1186SOL     OW 4456   5.388   6.256   5.062
 1186SOL    HW1 4457   5.447   6.178   5.040
 1186SOL    HW2 4458   5.293   6.234   5.041
 1187SOL     OW 4459   5.557   6.774   5.318
 1187SOL    HW1 4460   5.545   6.699   5.253
 1187SOL    HW2 4461   5.543   6.739   5.411
 1188SOL     OW 4462   2.788   5.628   6.437
 1188SOL    HW1 4463   2.743   5.657   6.522
 1188SOL    HW2 4464   2.759   5.535   6.414
 1189SOL     OW 4465   6.075   0.967   1.483
 1189SOL    HW1 4466   6.125   0.918   1.555
 1189SOL    HW2 4467   6.046   0.902   1.412
 1190SOL     OW 4468   2.922   5.583   3.049
 1190SOL    HW1 4469   2.876   5.496   3.063
 1190SOL    HW2 4470   2.877   5.654   3.103
 1191SOL     OW 4471   3.154   6.356   4.179
 1191SOL    HW1 4472   3.086   6.377   4.250
 1191SOL    HW2 4473   3.107   6.325   4.096
 1192SOL     OW 4474   5.551   5.851   3.765
 1192SOL    HW1 4475   5.648   5.829   3.777
 1192SOL    HW2 4476   5.512   5.875   3.854
 1193SOL     OW 4477   6.892   1.414   5.433
 1193SOL    HW1 4478   6.859   1.364   5.352
 1193SOL    HW2 4479   6.930   1.502   5.404
 1194SOL     OW 4480   6.560   1.264   1.739
 1194SOL    HW1 4481   6.624   1.331   1.775
 1194SOL    HW2 4482   6.506   1.226   1.814
 1195SOL     OW 4483   0.324   3.384   0.355
 1195SOL    HW1 4484   0.334   3.288   0.330
 1195SOL    HW2 4485   0.295   3.392   0.450
 1196SOL     OW 4486   6.842   4.127   3.209
 1196SOL    HW1 4487   6.889   4.172   3.285
 1196SOL    HW2 4488   6.909   4.106   3.137
 1197SOL     OW 4489   4.332   6.186   4.004
 1197SOL    HW1 4490   4.354   6.176   4.101
 1197SOL    HW2 4491   4.241   6.150   3.986
 1198SOL     OW 4492   1.404   3.826   1.966
 1198SOL    HW1 4493   1.407   3.775   2.052
 1198SOL    HW2 4494   1.428   3.922   1.984
 1199SOL     OW 4495   3.253   3.798   3.402
 1199SOL    HW1 4496   3.312   3.747   3.339
 1199SOL    HW2 4497   3.163   3.754   3.406
 1200SOL     OW 4498   3.605   4.132   4.212
 1200SOL    HW1 4499   3.570   4.190   4.286
 1200SOL    HW2 4500   3.597   4.036   4.239
 1201SOL     OW 4501   7.004   1.276   4.710
 1201SOL    HW1 4502   6.961   1.253   4.797
 1201SOL    HW2 4503   6.948   1.343   4.661
 1202SOL     OW 4504   0.951   5.994   5.174
 1202SOL    HW1 4505   0.917   6.071   5.228
 1202SOL    HW2 4506   0.985   6.027   5.086
 1203SOL     OW 4507   0.817   5.430   0.559
 1203SOL    HW1 4508   0.785   5.512   0.513
 1203SOL    HW2 4509   0.899   5.396   0.513
 1204SOL     OW 4510   4.468   1.375   1.281
 1204SOL    HW1 4511   4.503   1.283   1.302
 1204SOL    HW2 4512   4.422   1.373   1.192
 1205SOL     OW 4513   3.383   3.501   0.283
 1205SOL    HW1 4514   3.302   3.454   0.248
 1205SOL    HW2 4515   3.357   3.591   0.318
 1206SOL     OW 4516   1.499   3.146   5.074
 1206SOL    HW1 4517   1.483   3.206   4.996
 1206SOL    HW2 4518   1.513   3.052   5.042
 1207SOL     OW 4519   0.423   0.193   0.871
 1207SOL    HW1 4520   0.473   0.238   0.945
 1207SOL    HW2 4521   0.335   0.159   0.907
 1208SOL     OW 4522   2.917   3.518   1.492
 1208SOL    HW1 4523   2.967   3.498   1.576
 1208SOL    HW2 4524   2.880   3.611   1.497
 1209SOL     OW 4525   5.261   0.697   4.167
 1209SOL    HW1 4526   5.353   0.701   4.130
 1209SOL    HW2 4527   5.222   0.607   4.150
 1210SOL     OW 4528   3.975   6.878   3.318
 1210SOL    HW1 4529   3.919   6.860   3.399
 1210SOL    HW2 4530   3.963   6.974   3.290
 1211SOL     OW 4531   0.971   2.931   3.258
 1211SOL    HW1 4532   0.962   2.940   3.358
 1211SOL    HW2 4533   1.061   2.963   3.229
 1212SOL     OW 4534   6.367   0.038   5.805
 1212SOL    HW1 4535   6.304   0.082   5.741
 1212SOL    HW2 4536   6.331   6.975   5.832
 1213SOL     OW 4537   6.257   2.568   1.585
 1213SOL    HW1 4538   6.185   2.610   1.640
 1213SOL    HW2 4539   6.300   2.637   1.527
 1214SOL     OW 4540   0.930   2.365   7.024
 1214SOL    HW1 4541   0.882   2.313   0.069
 1214SOL    HW2 4542   0.868   2.382   6.947
 1215SOL     OW 4543   1.142   4.753   3.330
 1215SOL    HW1 4544   1.204   4.678   3.307
 1215SOL    HW2 4545   1.051   4.716   3.350
 1216SOL     OW 4546   5.493   1.551   0.456
 1216SOL    HW1 4547   5.578   1.592   0.487
 1216SOL    HW2 4548   5.430   1.623   0.426
 1217SOL     OW 4549   2.853   4.786   0.602
 1217SOL    HW1 4550   2.810   4.866   0.561
 1217SOL    HW2 4551   2.783   4.724   0.635
 1218SOL     OW 4552   1.608   3.268   5.402
 1218SOL    HW1 4553   1.637   3.174   5.422
 1218SOL    HW2 4554   1.523   3.266   5.350
 1219SOL     OW 4555   6.067   5.800   2.112
 1219SOL    HW1 4556   6.115   5.813   2.025
 1219SOL    HW2 4557   6.077   5.882   2.168
 1220SOL     OW 4558   0.544   4.318   2.564
 1220SOL    HW1 4559   0.501   4.266   2.638
 1220SOL    HW2 4560   0.512   4.284   2.476
 1221SOL     OW 4561   4.779   3.066   6.513
 1221SOL    HW1 4562   4.722   3.108   6.584
 1221SOL    HW2 4563   4.827   3.137   6.462
 1222SOL     OW 4564   6.949   0.739   6.389
 1222SOL    HW1 4565   6.859   0.738   6.433
 1222SOL    HW2 4566   7.014   0.685   6.443
 1223SOL     OW 4567   3.794   1.382   0.509
 1223SOL    HW1 4568   3.696   1.372   0.520
 1223SOL    HW2 4569   3.814   1.469   0.464
 1224SOL     OW 4570   3.136   6.416   6.959
 1224SOL    HW1 4571   3.216   6.474   6.951
 1224SOL    HW2 4572   3.067   6.445   6.893
 1225SOL     OW 4573   3.286   2.589   6.491
 1225SOL    HW1 4574   3.194   2.577   6.454
 1225SOL    HW2 4575   3.311   2.686   6.484
 1226SOL     OW 4576   3.101   6.472   1.303
 1226SOL    HW1 4577   3.101   6.383   1.258
 1226SOL    HW2 4578   3.022   6.478   1.364
 1227SOL     OW 4579   4.961   4.817   5.709
 1227SOL    HW1 4580   4.964   4.866   5.795
 1227SOL    HW2 4581   5.049   4.773   5.692
 1228SOL     OW 4582   2.890   2.016   6.167
 1228SOL    HW1 4583   2.951   2.052   6.237
 1228SOL    HW2 4584   2.882   2.083   6.092
 1229SOL     OW 4585   3.232   5.366   6.748
 1229SOL    HW1 4586   3.204   5.279   6.708
 1229SOL    HW2 4587   3.332   5.372   6.750
 1230SOL     OW 4588   5.122   6.448   2.033
 1230SOL    HW1 4589   5.152   6.353   2.038
 1230SOL    HW2 4590   5.062   6.469   2.110
 1231SOL     OW 4591   1.825   2.363   5.828
 1231SOL    HW1 4592   1.738   2.314   5.819
 1231SOL    HW2 4593   1.820   2.448   5.776
 1232SOL     OW 4594   6.828   1.887   5.085
 1232SOL    HW1 4595   6.817   1.908   5.182
 1232SOL    HW2 4596   6.893   1.952   5.044
 1233SOL     OW 4597   0.635   5.349   4.979
 1233SOL    HW1 4598   0.702   5.327   5.050
 1233SOL    HW2 4599   0.562   5.406   5.017
 1234SOL     OW 4600   5.569   2.977   5.453
 1234SOL    HW1 4601   5.620   2.986   5.539
 1234SOL    HW2 4602   5.626   3.004   5.376
 1235SOL     OW 4603   5.941   5.749   2.560
 1235SOL    HW1 4604   5.960   5.794   2.647
 1235SOL    HW2 4605   5.984   5.800   2.486
 1236SOL     OW 4606   4.610   0.390   0.821
 1236SOL    HW1 4607   4.628   0.292   0.808
 1236SOL    HW2 4608   4.641   0.441   0.741
 1237SOL     OW 4609   1.712   4.541   6.300
 1237SOL    HW1 4610   1.777   4.477   6.340
 1237SOL    HW2 4611   1.664   4.497   6.223
 1238SOL     OW 4612   0.966   0.883   6.488
 1238SOL    HW1 4613   1.017   0.958   6.445
 1238SOL    HW2 4614   0.995   0.874   6.583
 1239SOL     OW 4615   6.354   6.789   6.813
 1239SOL    HW1 4616   6.380   6.867   6.870
 1239SOL    HW2 4617   6.435   6.731   6.798
 1240SOL     OW 4618   5.648   6.440   0.790
 1240SOL    HW1 4619   5.586   6.370   0.754
 1240SOL    HW2 4620   5.612   6.475   0.876
 1241SOL     OW 4621   5.268   4.537   4.792
 1241SOL    HW1 4622   5.194   4.470   4.798
 1241SOL    HW2 4623   5.353   4.496   4.827
 1242SOL     OW 4624   1.083   3.763   1.367
 1242SOL    HW1 4625   1.054   3.685   1.310
 1242SOL    HW2 4626   1.177   3.788   1.345
 1243SOL     OW 4627   0.590   0.549   5.106
 1243SOL    HW1 4628   0.599   0.458   5.065
 1243SOL    HW2 4629   0.533   0.607   5.048
 1244SOL     OW 4630   5.751   6.816   4.036
 1244SOL    HW1 4631   5.685   6.834   4.109
 1244SOL    HW2 4632   5.794   6.901   4.008
 1245SOL     OW 4633   6.219   4.257   0.565
 1245SOL    HW1 4634   6.242   4.226   0.473
 1245SOL    HW2 4635   6.147   4.199   0.603
 1246SOL     OW 4636   2.681   0.541   1.049
 1246SOL    HW1 4637   2.772   0.572   1.077
 1246SOL    HW2 4638   2.678   0.441   1.048
 1247SOL     OW 4639   0.284   6.497   6.252
 1247SOL    HW1 4640   0.299   6.594   6.271
 1247SOL    HW2 4641   0.297   6.480   6.154
 1248SOL     OW 4642   2.495   0.325   4.902
 1248SOL    HW1 4643   2.465   0.246   4.848
 1248SOL    HW2 4644   2.580   0.303   4.948
 1249SOL     OW 4645   6.879   2.192   2.417
 1249SOL    HW1 4646   6.877   2.275   2.472
 1249SOL    HW2 4647   6.785   2.162   2.398
 1250SOL     OW 4648   5.942   5.449   3.589
 1250SOL    HW1 4649   5.998   5.472   3.509
 1250SOL    HW2 4650   5.943   5.350   3.603
 1251SOL     OW 4651   2.845   0.620   3.446
 1251SOL    HW1 4652   2.849   0.702   3.503
 1251SOL    HW2 4653   2.903   0.549   3.486
 1252SOL     OW 4654   4.937   3.666   6.082
 1252SOL    HW1 4655   4.942   3.577   6.037
 1252SOL    HW2 4656   5.029   3.705   6.090
 1253SOL     OW 4657   2.959   5.948   1.874
 1253SOL    HW1 4658   2.880   5.886   1.863
 1253SOL    HW2 4659   3.013   5.947   1.789
 1254SOL     OW 4660   1.152   3.055   2.834
 1254SOL    HW1 4661   1.148   3.111   2.751
 1254SOL    HW2 4662   1.239   3.071   2.881
 1255SOL     OW 4663   5.963   1.403   6.606
 1255SOL    HW1 4664   5.895   1.333   6.628
 1255SOL    HW2 4665   6.038   1.399   6.672
 1256SOL     OW 4666   6.840   6.324   2.921
 1256SOL    HW1 4667   6.926   6.352   2.877
 1256SOL    HW2 4668   6.829   6.375   3.006
 1257SOL     OW 4669   6.635   5.961   4.815
 1257SOL    HW1 4670   6.606   5.899   4.741
 1257SOL    HW2 4671   6.683   5.909   4.885
 1258SOL     OW 4672   1.510   4.971   3.148
 1258SOL    HW1 4673   1.523   4.998   3.243
 1258SOL    HW2 4674   1.412   4.969   3.127
 1259SOL     OW 4675   3.473   0.649   4.079
 1259SOL    HW1 4676   3.506   0.664   3.986
 1259SOL    HW2 4677   3.374   0.638   4.078
 1260SOL     OW 4678   2.643   2.677   6.975
 1260SOL    HW1 4679   2.729   2.697   6.927
 1260SOL    HW2 4680   2.585   2.621   6.916
 1261SOL     OW 4681   0.222   5.826   6.711
 1261SOL    HW1 4682   0.241   5.896   6.642
 1261SOL    HW2 4683   0.162   5.865   6.782
 1262SOL     OW 4684   5.912   4.304   1.346
 1262SOL    HW1 4685   5.845   4.378   1.336
 1262SOL    HW2 4686   5.876   4.221   1.302
 1263SOL     OW 4687   7.024   2.258   1.738
 1263SOL    HW1 4688   7.006   2.353   1.765
 1263SOL    HW2 4689   0.075   2.222   1.792
 1264SOL     OW 4690   0.170   4.101   1.795
 1264SOL    HW1 4691   0.153   4.092   1.894
 1264SOL    HW2 4692   0.135   4.019   1.749
 1265SOL     OW 4693   5.144   5.318   3.931
 1265SOL    HW1 4694   5.064   5.374   3.951
 1265SOL    HW2 4695   5.119   5.221   3.935
 1266SOL     OW 4696   0.050   1.480   4.353
 1266SOL    HW1 4697   0.117   1.407   4.338
 1266SOL    HW2 4698   0.070   1.527   4.438
 1267SOL     OW 4699   4.714   6.769   1.049
 1267SOL    HW1 4700   4.657   6.846   1.018
 1267SOL    HW2 4701   4.661   6.684   1.043
 1268SOL     OW 4702   2.812   2.738   0.335
 1268SOL    HW1 4703   2.875   2.814   0.316
 1268SOL    HW2 4704   2.719   2.768   0.317
 1269SOL     OW 4705   6.043   5.180   4.968
 1269SOL    HW1 4706   6.018   5.108   5.032
 1269SOL    HW2 4707   6.016   5.155   4.876
 1270SOL     OW 4708   1.318   2.883   3.589
 1270SOL    HW1 4709   1.295   2.794   3.548
 1270SOL    HW2 4710   1.287   2.885   3.684
 1271SOL     OW 4711   2.651   2.191   3.819
 1271SOL    HW1 4712   2.637   2.246   3.737
 1271SOL    HW2 4713   2.715   2.238   3.880
 1272SOL     OW 4714   5.626   4.943   0.159
 1272SOL    HW1 4715   5.544   4.972   0.109
 1272SOL    HW2 4716   5.637   4.844   0.149
 1273SOL     OW 4717   0.646   3.129   0.085
 1273SOL    HW1 4718   0.706   3.209   0.083
 1273SOL    HW2 4719   0.680   3.064   0.153
 1274SOL     OW 4720   6.517   4.852   1.534
 1274SOL    HW1 4721   6.483   4.907   1.458
 1274SOL    HW2 4722   6.536   4.912   1.612
 1275SOL     OW 4723   3.714   1.854   4.302
 1275SOL    HW1 4724   3.803   1.820   4.334
 1275SOL    HW2 4725   3.716   1.954   4.297
 1276SOL     OW 4726   6.765   6.113   5.114
 1276SOL    HW1 4727   6.780   6.015   5.097
 1276SOL    HW2 4728   6.689   6.145   5.058
 1277SOL     OW 4729   0.858   5.721   6.065
 1277SOL    HW1 4730   0.904   5.642   6.024
 1277SOL    HW2 4731   0.892   5.735   6.158
 1278SOL     OW 4732   0.880   6.996   4.625
 1278SOL    HW1 4733   0.963   0.011   4.588
 1278SOL    HW2 4734   0.806   7.003   4.559
 1279SOL     OW 4735   1.888   5.282   0.700
 1279SOL    HW1 4736   1.800   5.236   0.693
 1279SOL    HW2 4737   1.959   5.224   0.660
 1280SOL     OW 4738   3.702   6.446   4.507
 1280SOL    HW1 4739   3.688   6.508   4.429
 1280SOL    HW2 4740   3.796   6.453   4.539
 1281SOL     OW 4741   2.036   6.116   3.409
 1281SOL    HW1 4742   2.058   6.083   3.501
 1281SOL    HW2 4743   1.938   6.105   3.392
 1282SOL     OW 4744   0.071   2.324   6.858
 1282SOL    HW1 4745   0.108   2.410   6.824
 1282SOL    HW2 4746   0.145   2.263   6.884
 1283SOL     OW 4747   0.264   3.568   5.928
 1283SOL    HW1 4748   0.246   3.470   5.942
 1283SOL    HW2 4749   0.335   3.579   5.858
 1284SOL     OW 4750   4.861   2.288   1.208
 1284SOL    HW1 4751   4.795   2.349   1.165
 1284SOL    HW2 4752   4.928   2.342   1.259
 1285SOL     OW 4753   4.312   2.435   6.356
 1285SOL    HW1 4754   4.320   2.344   6.316
 1285SOL    HW2 4755   4.371   2.441   6.437
 1286SOL     OW 4756   4.704   3.922   1.422
 1286SOL    HW1 4757   4.791   3.902   1.466
 1286SOL    HW2 4758   4.701   4.019   1.398
 1287SOL     OW 4759   6.080   5.482   5.176
 1287SOL    HW1 4760   5.986   5.451   5.183
 1287SOL    HW2 4761   6.116   5.463   5.085
 1288SOL     OW 4762   4.006   3.307   6.326
 1288SOL    HW1 4763   3.932   3.368   6.356
 1288SOL    HW2 4764   3.972   3.244   6.257
 1289SOL     OW 4765   6.885   6.863   1.059
 1289SOL    HW1 4766   6.828   6.815   1.125
 1289SOL    HW2 4767   6.906   6.802   0.983
 1290SOL     OW 4768   0.889   6.330   6.844
 1290SOL    HW1 4769   0.922   6.297   6.755
 1290SOL    HW2 4770   0.967   6.344   6.905
 1291SOL     OW 4771   6.961   4.200   4.394
 1291SOL    HW1 4772   6.902   4.228   4.318
 1291SOL    HW2 4773   7.000   4.110   4.374
 1292SOL     OW 4774   0.765   6.041   2.255
 1292SOL    HW1 4775   0.809   6.051   2.167
 1292SOL    HW2 4776   0.671   6.075   2.250
 1293SOL     OW 4777   0.875   1.687   6.657
 1293SOL    HW1 4778   0.915   1.599   6.630
 1293SOL    HW2 4779   0.940   1.761   6.637
 1294SOL     OW 4780   0.974   3.453   6.177
 1294SOL    HW1 4781   0.993   3.486   6.084
 1294SOL    HW2 4782   1.057   3.456   6.232
 1295SOL     OW 4783   0.391   3.604   1.572
 1295SOL    HW1 4784   0.485   3.637   1.569
 1295SOL    HW2 4785   0.379   3.533   1.502
 1296SOL     OW 4786   4.000   6.636   5.776
 1296SOL    HW1 4787   4.077   6.574   5.792
 1296SOL    HW2 4788   3.946   6.603   5.699
 1297SOL     OW 4789   0.045   0.612   1.287
 1297SOL    HW1 4790   0.076   0.645   1.198
 1297SOL    HW2 4791   0.019   0.516   1.280
 1298SOL     OW 4792   5.765   5.132   2.967
 1298SOL    HW1 4793   5.800   5.183   2.888
 1298SOL    HW2 4794   5.812   5.044   2.973
 1299SOL     OW 4795   1.806   3.576   3.293
 1299SOL    HW1 4796   1.790   3.629   3.210
 1299SOL    HW2 4797   1.737   3.503   3.300
 1300SOL     OW 4798   2.287   2.840   1.313
 1300SOL    HW1 4799   2.220   2.856   1.385
 1300SOL    HW2 4800   2.379   2.852   1.351
 1301SOL     OW 4801   0.106   6.988   1.137
 1301SOL    HW1 4802   0.013   6.961   1.112
 1301SOL    HW2 4803   0.123   6.964   1.232
 1302SOL     OW 4804   4.119   0.943   5.963
 1302SOL    HW1 4805   4.030   0.911   5.995
 1302SOL    HW2 4806   4.149   0.887   5.886
 1303SOL     OW 4807   3.914   2.069   1.536
 1303SOL    HW1 4808   3.863   2.117   1.607
 1303SOL    HW2 4809   3.972   2.134   1.487
 1304SOL     OW 4810   2.232   0.669   6.918
 1304SOL    HW1 4811   2.280   0.745   6.874
 1304SOL    HW2 4812   2.137   0.666   6.887
 1305SOL     OW 4813   5.775   3.674   0.974
 1305SOL    HW1 4814   5.703   3.608   0.996
 1305SOL    HW2 4815   5.785   3.681   0.875
 1306SOL     OW 4816   1.183   5.289   3.777
 1306SOL    HW1 4817   1.239   5.370   3.796
 1306SOL    HW2 4818   1.164   5.284   3.679
 1307SOL     OW 4819   1.323   4.091   3.821
 1307SOL    HW1 4820   1.251   4.145   3.778
 1307SOL    HW2 4821   1.406   4.147   3.826
 1308SOL     OW 4822   6.632   7.020   5.196
 1308SOL    HW1 4823   6.556   6.967   5.160
 1308SOL    HW2 4824   6.629   7.019   5.296
 1309SOL     OW 4825   5.332   4.546   5.466
 1309SOL    HW1 4826   5.426   4.581   5.471
 1309SOL    HW2 4827   5.333   4.448   5.483
 1310SOL     OW 4828   6.393   4.121   3.892
 1310SOL    HW1 4829   6.404   4.049   3.823
 1310SOL    HW2 4830   6.483   4.156   3.918
 1311SOL     OW 4831   0.632   6.287   5.243
 1311SOL    HW1 4832   0.580   6.212   5.203
 1311SOL    HW2 4833   0.695   6.325   5.175
 1312SOL     OW 4834   0.666   6.512   6.764
 1312SOL    HW1 4835   0.642   6.586   6.827
 1312SOL    HW2 4836   0.717   6.441   6.814
 1313SOL     OW 4837   0.682   4.817   2.834
 1313SOL    HW1 4838   0.732   4.761   2.768
 1313SOL    HW2 4839   0.688   4.913   2.807
 1314SOL     OW 4840   4.341   1.279   5.699
 1314SOL    HW1 4841   4.267   1.277   5.766
 1314SOL    HW2 4842   4.376   1.373   5.692
 1315SOL     OW 4843   0.760   1.195   2.295
 1315SOL    HW1 4844   0.782   1.143   2.377
 1315SOL    HW2 4845   0.779   1.292   2.310
 1316SOL     OW 4846   2.589   5.828   5.453
 1316SOL    HW1 4847   2.624   5.767   5.381
 1316SOL    HW2 4848   2.536   5.902   5.411
 1317SOL     OW 4849   2.207   4.181   6.127
 1317SOL    HW1 4850   2.181   4.086   6.143
 1317SOL    HW2 4851   2.158   4.215   6.046
 1318SOL     OW 4852   0.736   1.754   1.144
 1318SOL    HW1 4853   0.709   1.675   1.090
 1318SOL    HW2 4854   0.802   1.725   1.214
 1319SOL     OW 4855   6.460   6.656   0.048
 1319SOL    HW1 4856   6.451   6.575   7.017
 1319SOL    HW2 4857   6.551   6.657   0.090
 1320SOL     OW 4858   4.027   4.563   7.014
 1320SOL    HW1 4859   4.007   4.467   6.993
 1320SOL    HW2 4860   4.115   4.569   0.035
 1321SOL     OW 4861   5.810   1.950   6.791
 1321SOL    HW1 4862   5.865   1.891   6.732
 1321SOL    HW2 4863   5.723   1.905   6.811
 1322SOL     OW 4864   4.008   0.720   3.123
 1322SOL    HW1 4865   4.065   0.800   3.106
 1322SOL    HW2 4866   3.975   0.721   3.217
 1323SOL     OW 4867   4.222   0.368   5.833
 1323SOL    HW1 4868   4.165   0.353   5.914
 1323SOL    HW2 4869   4.192   0.450   5.785
 1324SOL     OW 4870   0.650   4.038   6.679
 1324SOL    HW1 4871   0.702   3.961   6.643
 1324SOL    HW2 4872   0.602   4.010   6.762
 1325SOL     OW 4873   2.322   0.252   3.367
 1325SOL    HW1 4874   2.413   0.282   3.396
 1325SOL    HW2 4875   2.257   0.265   3.442
 1326SOL     OW 4876   4.632   3.989   5.361
 1326SOL    HW1 4877   4.643   4.089   5.355
 1326SOL    HW2 4878   4.709   3.945   5.316
 1327SOL     OW 4879   0.933   6.062   1.777
 1327SOL    HW1 4880   0.923   6.156   1.812
 1327SOL    HW2 4881   1.031   6.040   1.772
 1328SOL     OW 4882   1.933   2.987   1.015
 1328SOL    HW1 4883   1.890   3.069   1.053
 1328SOL    HW2 4884   1.937   2.915   1.085
 1329SOL     OW 4885   0.631   2.275   1.968
 1329SOL    HW1 4886   0.652   2.372   1.978
 1329SOL    HW2 4887   0.534   2.260   1.982
 1330SOL     OW 4888   0.718   1.134   2.020
 1330SOL    HW1 4889   0.658   1.059   2.047
 1330SOL    HW2 4890   0.773   1.163   2.099
 1331SOL     OW 4891   4.865   3.134   2.426
 1331SOL    HW1 4892   4.794   3.064   2.434
 1331SOL    HW2 4893   4.886   3.149   2.329
 1332SOL     OW 4894   2.846   0.327   0.044
 1332SOL    HW1 4895   2.813   0.420   0.026
 1332SOL    HW2 4896   2.768   0.267   0.059
 1333SOL     OW 4897   2.953   3.463   4.389
 1333SOL    HW1 4898   3.002   3.378   4.372
 1333SOL    HW2 4899   2.990   3.535   4.331
 1334SOL     OW 4900   6.118   1.892   4.072
 1334SOL    HW1 4901   6.091   1.821   4.007
 1334SOL    HW2 4902   6.194   1.946   4.034
 1335SOL     OW 4903   1.993   1.866   2.516
 1335SOL    HW1 4904   1.932   1.917   2.455
 1335SOL    HW2 4905   2.088   1.883   2.490
 1336SOL     OW 4906   1.902   2.671   5.271
 1336SOL    HW1 4907   1.895   2.645   5.175
 1336SOL    HW2 4908   1.986   2.722   5.286
 1337SOL     OW 4909   1.447   2.310   4.677
 1337SOL    HW1 4910   1.424   2.236   4.615
 1337SOL    HW2 4911   1.366   2.368   4.691
 1338SOL     OW 4912   5.314   2.255   4.587
 1338SOL    HW1 4913   5.244   2.184   4.576
 1338SOL    HW2 4914   5.314   2.314   4.507
 1339SOL     OW 4915   6.556   1.901   6.642
 1339SOL    HW1 4916   6.522   1.908   6.548
 1339SOL    HW2 4917   6.591   1.810   6.659
 1340SOL     OW 4918   6.342   1.704   2.246
 1340SOL    HW1 4919   6.242   1.705   2.247
 1340SOL    HW2 4920   6.377   1.795   2.223
 1341SOL     OW 4921   5.156   6.718   6.531
 1341SOL    HW1 4922   5.239   6.664   6.545
 1341SOL    HW2 4923   5.137   6.725   6.433
 1342SOL     OW 4924   3.032   5.875   5.993
 1342SOL    HW1 4925   2.953   5.869   6.054
 1342SOL    HW2 4926   3.099   5.805   6.018
 1343SOL     OW 4927   5.178   5.424   2.477
 1343SOL    HW1 4928   5.173   5.455   2.571
 1343SOL    HW2 4929   5.270   5.441   2.440
 1344SOL     OW 4930   6.625   5.811   4.567
 1344SOL    HW1 4931   6.677   5.796   4.483
 1344SOL    HW2 4932   6.605   5.723   4.610
 1345SOL     OW 4933   1.300   6.912   2.950
 1345SOL    HW1 4934   1.330   6.817   2.946
 1345SOL    HW2 4935   1.381   6.972   2.957
 1346SOL     OW 4936   0.947   5.371   4.782
 1346SOL    HW1 4937   0.917   5.309   4.710
 1346SOL    HW2 4938   0.908   5.341   4.869
 1347SOL     OW 4939   0.115   6.384   5.209
 1347SOL    HW1 4940   0.018   6.395   5.234
 1347SOL    HW2 4941   0.148   6.469   5.167
 1348SOL     OW 4942   5.338   5.950   3.364
 1348SOL    HW1 4943   5.302   5.954   3.270
 1348SOL    HW2 4944   5.403   5.875   3.371
 1349SOL     OW 4945   4.556   2.477   5.570
 1349SOL    HW1 4946   4.599   2.465   5.481
 1349SOL    HW2 4947   4.626   2.485   5.640
 1350SOL     OW 4948   5.409   5.152   5.379
 1350SOL    HW1 4949   5.330   5.100   5.413
 1350SOL    HW2 4950   5.410   5.242   5.422
 1351SOL     OW 4951   5.890   2.012   3.000
 1351SOL    HW1 4952   5.850   2.025   3.091
 1351SOL    HW2 4953   5.937   1.923   2.997
 1352SOL     OW 4954   0.021   6.256   2.437
 1352SOL    HW1 4955   6.996   6.325   2.386
 1352SOL    HW2 4956   0.026   6.172   2.384
 1353SOL     OW 4957   0.325   2.273   0.518
 1353SOL    HW1 4958   0.304   2.265   0.615
 1353SOL    HW2 4959   0.249   2.319   0.471
 1354SOL     OW 4960   0.887   4.244   1.855
 1354SOL    HW1 4961   0.883   4.151   1.891
 1354SOL    HW2 4962   0.982   4.271   1.842
 1355SOL     OW 4963   6.243   2.700   4.384
 1355SOL    HW1 4964   6.239   2.614   4.333
 1355SOL    HW2 4965   6.319   2.755   4.351
 1356SOL     OW 4966   3.162   3.277   2.466
 1356SOL    HW1 4967   3.153   3.202   2.401
 1356SOL    HW2 4968   3.129   3.248   2.556
 1357SOL     OW 4969   0.714   3.392   6.207
 1357SOL    HW1 4970   0.695   3.330   6.130
 1357SOL    HW2 4971   0.809   3.421   6.202
 1358SOL     OW 4972   4.236   6.997   5.942
 1358SOL    HW1 4973   4.139   7.014   5.959
 1358SOL    HW2 4974   4.250   6.971   5.846
 1359SOL     OW 4975   6.116   5.211   2.173
 1359SOL    HW1 4976   6.039   5.176   2.226
 1359SOL    HW2 4977   6.083   5.246   2.085
 1360SOL     OW 4978   3.257   3.003   6.998
 1360SOL    HW1 4979   3.274   3.087   0.024
 1360SOL    HW2 4980   3.180   2.954   0.013
 1361SOL     OW 4981   0.163   5.502   5.218
 1361SOL    HW1 4982   0.260   5.484   5.199
 1361SOL    HW2 4983   0.137   5.458   5.304
 1362SOL     OW 4984   3.396   4.152   3.847
 1362SOL    HW1 4985   3.364   4.066   3.807
 1362SOL    HW2 4986   3.354   4.229   3.800
 1363SOL     OW 4987   0.188   5.560   2.774
 1363SOL    HW1 4988   0.277   5.605   2.774
 1363SOL    HW2 4989   0.199   5.463   2.755
 1364SOL     OW 4990   6.409   3.253   1.185
 1364SOL    HW1 4991   6.493   3.303   1.163
 1364SOL    HW2 4992   6.336   3.318   1.207
 1365SOL     OW 4993   0.416   3.282   6.729
 1365SOL    HW1 4994   0.400   3.300   6.826
 1365SOL    HW2 4995   0.335   3.239   6.690
 1366SOL     OW 4996   0.852   4.709   0.268
 1366SOL    HW1 4997   0.824   4.776   0.199
 1366SOL    HW2 4998   0.950   4.690   0.258
 1367SOL     OW 4999   1.995   0.091   3.316
 1367SOL    HW1 5000   1.976   0.127   3.407
 1367SOL    HW2 5001   1.968   0.158   3.247
 1368SOL     OW 5002   6.158   0.477   3.450
 1368SOL    HW1 5003   6.083   0.463   3.385
 1368SOL    HW2 5004   6.139   0.557   3.507
 1369SOL     OW 5005   2.680   6.835   1.321
 1369SOL    HW1 5006   2.736   6.763   1.278
 1369SOL    HW2 5007   2.713   6.925   1.290
 1370SOL     OW 5008   4.084   1.087   0.844
 1370SOL    HW1 5009   4.165   1.091   0.786
 1370SOL    HW2 5010   4.007   1.130   0.797
 1371SOL     OW 5011   6.053   1.906   4.608
 1371SOL    HW1 5012   6.034   2.004   4.606
 1371SOL    HW2 5013   6.058   1.870   4.515
 1372SOL     OW 5014   1.387   2.901   0.447
 1372SOL    HW1 5015   1.293   2.899   0.481
 1372SOL    HW2 5016   1.395   2.970   0.376
 1373SOL     OW 5017   5.164   2.934   0.546
 1373SOL    HW1 5018   5.078   2.884   0.536
 1373SOL    HW2 5019   5.170   3.005   0.476
 1374SOL     OW 5020   5.243   1.724   0.011
 1374SOL    HW1 5021   5.254   1.698   0.106
 1374SOL    HW2 5022   5.331   1.716   6.989
 1375SOL     OW 5023   0.222   3.999   6.509
 1375SOL    HW1 5024   0.220   3.915   6.454
 1375SOL    HW2 5025   0.314   4.038   6.507
 1376SOL     OW 5026   4.365   4.651   4.587
 1376SOL    HW1 5027   4.390   4.612   4.675
 1376SOL    HW2 5028   4.269   4.681   4.591
 1377SOL     OW 5029   6.831   4.067   5.798
 1377SOL    HW1 5030   6.799   3.975   5.824
 1377SOL    HW2 5031   6.891   4.103   5.869
 1378SOL     OW 5032   6.075   1.160   4.741
 1378SOL    HW1 5033   6.079   1.065   4.771
 1378SOL    HW2 5034   6.123   1.218   4.806
 1379SOL     OW 5035   3.493   6.783   2.436
 1379SOL    HW1 5036   3.397   6.769   2.414
 1379SOL    HW2 5037   3.505   6.777   2.535
 1380SOL     OW 5038   0.061   0.088   2.512
 1380SOL    HW1 5039   0.033   0.183   2.508
 1380SOL    HW2 5040   0.077   0.062   2.607
 1381SOL     OW 5041   6.461   2.609   0.376
 1381SOL    HW1 5042   6.366   2.620   0.347
 1381SOL    HW2 5043   6.518   2.586   0.296
 1382SOL     OW 5044   4.695   4.399   0.526
 1382SOL    HW1 5045   4.667   4.364   0.615
 1382SOL    HW2 5046   4.675   4.330   0.456
 1383SOL     OW 5047   1.212   0.383   1.447
 1383SOL    HW1 5048   1.285   0.330   1.403
 1383SOL    HW2 5049   1.129   0.374   1.392
 1384SOL     OW 5050   4.199   0.144   1.666
 1384SOL    HW1 5051   4.205   0.051   1.702
 1384SOL    HW2 5052   4.238   0.208   1.732
 1385SOL     OW 5053   1.037   3.542   3.936
 1385SOL    HW1 5054   1.040   3.630   3.984
 1385SOL    HW2 5055   0.943   3.524   3.907
 1386SOL     OW 5056   2.923   0.947   4.895
 1386SOL    HW1 5057   2.874   1.034   4.884
 1386SOL    HW2 5058   2.995   0.940   4.826
 1387SOL     OW 5059   3.940   5.822   2.402
 1387SOL    HW1 5060   3.923   5.881   2.324
 1387SOL    HW2 5061   3.858   5.768   2.422
 1388SOL     OW 5062   0.374   6.666   3.218
 1388SOL    HW1 5063   0.301   6.602   3.243
 1388SOL    HW2 5064   0.463   6.626   3.238
 1389SOL     OW 5065   0.358   1.108   3.603
 1389SOL    HW1 5066   0.344   1.084   3.699
 1389SOL    HW2 5067   0.270   1.113   3.556
 1390SOL     OW 5068   5.504   2.508   5.986
 1390SOL    HW1 5069   5.585   2.482   6.038
 1390SOL    HW2 5070   5.422   2.497   6.043
 1391SOL     OW 5071   6.435   0.740   5.109
 1391SOL    HW1 5072   6.440   0.702   5.016
 1391SOL    HW2 5073   6.342   0.771   5.126
 1392SOL     OW 5074   5.250   6.080   6.880
 1392SOL    HW1 5075   5.303   6.116   6.957
 1392SOL    HW2 5076   5.285   6.120   6.795
 1393SOL     OW 5077   5.948   3.643   5.800
 1393SOL    HW1 5078   5.993   3.727   5.831
 1393SOL    HW2 5079   5.852   3.663   5.780
 1394SOL     OW 5080   3.927   6.378   4.099
 1394SOL    HW1 5081   3.910   6.324   4.182
 1394SOL    HW2 5082   3.840   6.415   4.065
 1395SOL     OW 5083   1.156   4.577   3.999
 1395SOL    HW1 5084   1.149   4.505   3.930
 1395SOL    HW2 5085   1.225   4.643   3.971
 1396SOL     OW 5086   1.644   0.405   3.694
 1396SOL    HW1 5087   1.690   0.399   3.606
 1396SOL    HW2 5088   1.545   0.404   3.680
 1397SOL     OW 5089   0.595   5.971   4.248
 1397SOL    HW1 5090   0.567   6.060   4.212
 1397SOL    HW2 5091   0.550   5.955   4.336
 1398SOL     OW 5092   1.420   1.654   6.545
 1398SOL    HW1 5093   1.501   1.595   6.543
 1398SOL    HW2 5094   1.373   1.650   6.457
 1399SOL     OW 5095   3.944   0.305   6.874
 1399SOL    HW1 5096   3.867   0.360   6.840
 1399SOL    HW2 5097   3.932   0.210   6.845
 1400SOL     OW 5098   6.942   1.963   4.428
 1400SOL    HW1 5099   6.886   1.906   4.489
 1400SOL    HW2 5100   6.981   2.038   4.481
 1401SOL     OW 5101   5.984   6.623   4.322
 1401SOL    HW1 5102   5.950   6.692   4.386
 1401SOL    HW2 5103   5.956   6.647   4.229
 1402SOL     OW 5104   5.805   4.445   6.906
 1402SOL    HW1 5105   5.714   4.418   6.874
 1402SOL    HW2 5106   5.848   4.504   6.839
 1403SOL     OW 5107   1.567   2.225   1.400
 1403SOL    HW1 5108   1.664   2.213   1.420
 1403SOL    HW2 5109   1.557   2.267   1.310
 1404SOL     OW 5110   5.752   0.019   0.132
 1404SOL    HW1 5111   5.725   6.949   0.140
 1404SOL    HW2 5112   5.808   0.044   0.211
 1405SOL     OW 5113   2.674   3.400   0.618
 1405SOL    HW1 5114   2.659   3.330   0.549
 1405SOL    HW2 5115   2.616   3.479   0.599
 1406SOL     OW 5116   2.784   4.745   0.935
 1406SOL    HW1 5117   2.738   4.729   0.848
 1406SOL    HW2 5118   2.849   4.821   0.925
 1407SOL     OW 5119   1.715   4.075   3.457
 1407SOL    HW1 5120   1.699   3.977   3.473
 1407SOL    HW2 5121   1.669   4.103   3.372
 1408SOL     OW 5122   5.225   6.449   6.624
 1408SOL    HW1 5123   5.300   6.406   6.676
 1408SOL    HW2 5124   5.239   6.433   6.526
 1409SOL     OW 5125   6.856   0.714   4.964
 1409SOL    HW1 5126   6.816   0.627   4.992
 1409SOL    HW2 5127   6.884   0.766   5.045
 1410SOL     OW 5128   2.957   4.162   0.211
 1410SOL    HW1 5129   2.995   4.071   0.229
 1410SOL    HW2 5130   2.892   4.158   0.135
 1411SOL     OW 5131   3.455   5.719   6.421
 1411SOL    HW1 5132   3.375   5.722   6.481
 1411SOL    HW2 5133   3.538   5.717   6.476
 1412SOL     OW 5134   0.784   4.123   1.485
 1412SOL    HW1 5135   0.690   4.152   1.502
 1412SOL    HW2 5136   0.847   4.194   1.516
 1413SOL     OW 5137   1.719   1.621   4.219
 1413SOL    HW1 5138   1.728   1.523   4.237
 1413SOL    HW2 5139   1.754   1.672   4.298
 1414SOL     OW 5140   1.702   2.122   1.960
 1414SOL    HW1 5141   1.627   2.164   1.909
 1414SOL    HW2 5142   1.719   2.175   2.043
 1415SOL     OW 5143   2.941   1.746   4.697
 1415SOL    HW1 5144   2.933   1.648   4.710
 1415SOL    HW2 5145   2.982   1.765   4.607
 1416SOL     OW 5146   3.662   0.584   4.314
 1416SOL    HW1 5147   3.635   0.651   4.382
 1416SOL    HW2 5148   3.592   0.579   4.242
 1417SOL     OW 5149   2.954   2.972   6.076
 1417SOL    HW1 5150   2.973   2.997   6.170
 1417SOL    HW2 5151   2.973   2.874   6.063
 1418SOL     OW 5152   2.712   3.544   0.024
 1418SOL    HW1 5153   2.760   3.632   0.025
 1418SOL    HW2 5154   2.647   3.542   6.975
 1419SOL     OW 5155   2.906   5.475   4.029
 1419SOL    HW1 5156   2.907   5.497   4.126
 1419SOL    HW2 5157   2.812   5.456   3.999
 1420SOL     OW 5158   3.808   5.529   2.785
 1420SOL    HW1 5159   3.763   5.445   2.818
 1420SOL    HW2 5160   3.744   5.580   2.728
 1421SOL     OW 5161   1.048   4.231   4.039
 1421SOL    HW1 5162   1.071   4.297   4.110
 1421SOL    HW2 5163   1.051   4.139   4.077
 1422SOL     OW 5164   3.456   4.373   6.121
 1422SOL    HW1 5165   3.507   4.393   6.037
 1422SOL    HW2 5166   3.516   4.382   6.200
 1423SOL     OW 5167   3.179   0.971   4.796
 1423SOL    HW1 5168   3.270   0.993   4.832
 1423SOL    HW2 5169   3.181   0.878   4.758
 1424SOL     OW 5170   6.519   3.428   6.835
 1424SOL    HW1 5171   6.467   3.510   6.811
 1424SOL    HW2 5172   6.494   3.353   6.774
 1425SOL     OW 5173   2.133   5.424   5.620
 1425SOL    HW1 5174   2.226   5.446   5.648
 1425SOL    HW2 5175   2.128   5.420   5.520
 1426SOL     OW 5176   2.230   2.064   5.878
 1426SOL    HW1 5177   2.299   2.126   5.840
 1426SOL    HW2 5178   2.147   2.116   5.900
 1427SOL     OW 5179   0.091   7.007   3.872
 1427SOL    HW1 5180   0.050   6.995   3.782
 1427SOL    HW2 5181   0.064   0.070   3.909
 1428SOL     OW 5182   0.057   1.974   1.941
 1428SOL    HW1 5183   0.032   2.019   2.027
 1428SOL    HW2 5184   0.117   2.035   1.888
 1429SOL     OW 5185   6.327   1.565   0.076
 1429SOL    HW1 5186   6.332   1.571   0.176
 1429SOL    HW2 5187   6.256   1.500   0.050
 1430SOL     OW 5188   2.199   4.638   3.970
 1430SOL    HW1 5189   2.194   4.608   4.065
 1430SOL    HW2 5190   2.252   4.572   3.917
 1431SOL     OW 5191   2.574   2.185   6.211
 1431SOL    HW1 5192   2.642   2.234   6.156
 1431SOL    HW2 5193   2.490   2.240   6.217
 1432SOL     OW 5194   2.230   0.969   1.407
 1432SOL    HW1 5195   2.253   1.048   1.349
 1432SOL    HW2 5196   2.269   0.982   1.498
 1433SOL     OW 5197   4.287   0.227   4.610
 1433SOL    HW1 5198   4.231   0.148   4.637
 1433SOL    HW2 5199   4.341   0.205   4.529
 1434SOL     OW 5200   6.810   0.813   6.135
 1434SOL    HW1 5201   6.894   0.822   6.081
 1434SOL    HW2 5202   6.832   0.785   6.228
 1435SOL     OW 5203   6.831   0.693   3.346
 1435SOL    HW1 5204   6.877   0.615   3.305
 1435SOL    HW2 5205   6.856   0.700   3.443
 1436SOL     OW 5206   6.168   3.880   0.222
 1436SOL    HW1 5207   6.241   3.823   0.184
 1436SOL    HW2 5208   6.108   3.911   0.147
 1437SOL     OW 5209   3.351   0.484   5.625
 1437SOL    HW1 5210   3.390   0.507   5.536
 1437SOL    HW2 5211   3.409   0.521   5.698
 1438SOL     OW 5212   2.736   0.241   1.841
 1438SOL    HW1 5213   2.771   0.244   1.747
 1438SOL    HW2 5214   2.777   0.316   1.894
 1439SOL     OW 5215   0.456   4.978   1.062
 1439SOL    HW1 5216   0.414   4.937   1.143
 1439SOL    HW2 5217   0.517   5.052   1.090
 1440SOL     OW 5218   3.478   3.433   5.238
 1440SOL    HW1 5219   3.553   3.454   5.176
 1440SOL    HW2 5220   3.457   3.513   5.295
 1441SOL     OW 5221   6.036   3.578   4.543
 1441SOL    HW1 5222   5.948   3.532   4.532
 1441SOL    HW2 5223   6.097   3.550   4.469
 1442SOL     OW 5224   0.242   4.920   0.292
 1442SOL    HW1 5225   0.258   4.824   0.313
 1442SOL    HW2 5226   0.263   4.937   0.196
 1443SOL     OW 5227   0.833   2.454   4.822
 1443SOL    HW1 5228   0.775   2.372   4.818
 1443SOL    HW2 5229   0.801   2.515   4.894
 1444SOL     OW 5230   4.471   5.943   1.502
 1444SOL    HW1 5231   4.390   5.987   1.540
 1444SOL    HW2 5232   4.444   5.856   1.460
 1445SOL     OW 5233   0.253   2.669   2.708
 1445SOL    HW1 5234   0.275   2.734   2.636
 1445SOL    HW2 5235   0.294   2.699   2.794
 1446SOL     OW 5236   5.087   2.383   6.772
 1446SOL    HW1 5237   5.126   2.319   6.705
 1446SOL    HW2 5238   5.149   2.461   6.784
 1447SOL     OW 5239   6.585   6.701   5.189
 1447SOL    HW1 5240   6.535   6.753   5.258
 1447SOL    HW2 5241   6.681   6.694   5.215
 1448SOL     OW 5242   6.853   2.224   0.280
 1448SOL    HW1 5243   6.867   2.283   0.201
 1448SOL    HW2 5244   6.899   2.136   0.265
 1449SOL     OW 5245   6.085   0.748   6.761
 1449SOL    HW1 5246   6.104   0.727   6.665
 1449SOL    HW2 5247   5.991   0.780   6.770
 1450SOL     OW 5248   0.752   2.323   2.675
 1450SOL    HW1 5249   0.728   2.305   2.770
 1450SOL    HW2 5250   0.679   2.376   2.631
 1451SOL     OW 5251   3.377   1.049   2.094
 1451SOL    HW1 5252   3.313   1.017   2.024
 1451SOL    HW2 5253   3.420   1.134   2.064
 1452SOL     OW 5254   4.052   1.536   4.437
 1452SOL    HW1 5255   3.977   1.481   4.473
 1452SOL    HW2 5256   4.119   1.552   4.510
 1453SOL     OW 5257   0.018   3.421   5.238
 1453SOL    HW1 5258   0.077   3.456   5.166
 1453SOL    HW2 5259   0.067   3.352   5.291
 1454SOL     OW 5260   6.358   2.463   2.688
 1454SOL    HW1 5261   6.376   2.551   2.645
 1454SOL    HW2 5262   6.335   2.476   2.784
 1455SOL     OW 5263   1.803   6.990   2.456
 1455SOL    HW1 5264   1.759   0.054   2.463
 1455SOL    HW2 5265   1.895   7.001   2.420
 1456SOL     OW 5266   6.375   0.200   5.311
 1456SOL    HW1 5267   6.307   0.273   5.300
 1456SOL    HW2 5268   6.456   0.236   5.356
 1457SOL     OW 5269   1.534   6.861   1.171
 1457SOL    HW1 5270   1.606   6.792   1.158
 1457SOL    HW2 5271   1.575   6.944   1.208
 1458SOL     OW 5272   5.215   6.360   3.930
 1458SOL    HW1 5273   5.149   6.435   3.928
 1458SOL    HW2 5274   5.283   6.374   3.857
 1459SOL     OW 5275   3.032   4.786   6.073
 1459SOL    HW1 5276   2.967   4.710   6.070
 1459SOL    HW2 5277   3.041   4.825   5.981
 1460SOL     OW 5278   0.505   5.232   5.957
 1460SOL    HW1 5279   0.573   5.305   5.946
 1460SOL    HW2 5280   0.467   5.208   5.867
 1461SOL     OW 5281   0.545   5.375   3.059
 1461SOL    HW1 5282   0.546   5.380   2.959
 1461SOL    HW2 5283   0.471   5.314   3.088
 1462SOL     OW 5284   0.445   0.914   5.871
 1462SOL    HW1 5285   0.479   0.821   5.853
 1462SOL    HW2 5286   0.417   0.921   5.967
 1463SOL     OW 5287   0.215   5.836   6.113
 1463SOL    HW1 5288   0.310   5.846   6.085
 1463SOL    HW2 5289   0.197   5.741   6.140
 1464SOL     OW 5290   6.512   0.035   0.882
 1464SOL    HW1 5291   6.495   0.130   0.853
 1464SOL    HW2 5292   6.601   0.006   0.846
 1465SOL     OW 5293   1.914   1.738   3.528
 1465SOL    HW1 5294   2.003   1.695   3.539
 1465SOL    HW2 5295   1.848   1.693   3.588
 1466SOL     OW 5296   1.563   0.658   2.914
 1466SOL    HW1 5297   1.468   0.632   2.897
 1466SOL    HW2 5298   1.611   0.669   2.827
 1467SOL     OW 5299   2.647   1.204   2.130
 1467SOL    HW1 5300   2.680   1.110   2.115
 1467SOL    HW2 5301   2.650   1.224   2.228
 1468SOL     OW 5302   5.326   5.718   3.084
 1468SOL    HW1 5303   5.307   5.692   3.179
 1468SOL    HW2 5304   5.367   5.809   3.082
 1469SOL     OW 5305   0.876   0.757   2.407
 1469SOL    HW1 5306   0.862   0.751   2.308
 1469SOL    HW2 5307   0.947   0.823   2.427
 1470SOL     OW 5308   1.919   0.889   3.109
 1470SOL    HW1 5309   1.931   0.960   3.040
 1470SOL    HW2 5310   1.821   0.867   3.116
 1471SOL     OW 5311   0.562   0.465   0.760
 1471SOL    HW1 5312   0.492   0.402   0.725
 1471SOL    HW2 5313   0.521   0.554   0.780
 1472SOL     OW 5314   4.581   6.051   5.096
 1472SOL    HW1 5315   4.552   6.146   5.080
 1472SOL    HW2 5316   4.680   6.047   5.099
 1473SOL     OW 5317   5.974   5.607   3.804
 1473SOL    HW1 5318   5.987   5.556   3.719
 1473SOL    HW2 5319   6.057   5.602   3.859
 1474SOL     OW 5320   6.007   5.882   3.580
 1474SOL    HW1 5321   6.015   5.981   3.569
 1474SOL    HW2 5322   6.048   5.836   3.501
 1475SOL     OW 5323   6.649   0.301   1.595
 1475SOL    HW1 5324   6.567   0.313   1.538
 1475SOL    HW2 5325   6.682   0.207   1.586
 1476SOL     OW 5326   1.735   1.526   1.660
 1476SOL    HW1 5327   1.798   1.523   1.738
 1476SOL    HW2 5328   1.755   1.606   1.604
 1477SOL     OW 5329   2.320   0.310   6.775
 1477SOL    HW1 5330   2.308   0.252   6.856
 1477SOL    HW2 5331   2.360   0.257   6.701
 1478SOL     OW 5332   5.266   4.399   0.235
 1478SOL    HW1 5333   5.226   4.433   0.320
 1478SOL    HW2 5334   5.322   4.318   0.253
 1479SOL     OW 5335   1.552   3.410   6.938
 1479SOL    HW1 5336   1.624   3.354   6.898
 1479SOL    HW2 5337   1.592   3.477   7.001
 1480SOL     OW 5338   2.693   6.963   6.222
 1480SOL    HW1 5339   2.605   6.987   6.263
 1480SOL    HW2 5340   2.763   0.001   6.253
 1481SOL     OW 5341   0.224   1.785   5.453
 1481SOL    HW1 5342   0.304   1.733   5.423
 1481SOL    HW2 5343   0.188   1.746   5.538
 1482SOL     OW 5344   5.209   2.339   1.066
 1482SOL    HW1 5345   5.201   2.436   1.085
 1482SOL    HW2 5346   5.169   2.319   0.976
 1483SOL     OW 5347   6.344   2.371   6.286
 1483SOL    HW1 5348   6.310   2.458   6.251
 1483SOL    HW2 5349   6.375   2.382   6.380
 1484SOL     OW 5350   6.256   4.482   4.246
 1484SOL    HW1 5351   6.298   4.401   4.205
 1484SOL    HW2 5352   6.168   4.500   4.202
 1485SOL     OW 5353   4.136   1.958   2.395
 1485SOL    HW1 5354   4.167   1.863   2.387
 1485SOL    HW2 5355   4.086   1.970   2.481
 1486SOL     OW 5356   5.189   2.199   2.650
 1486SOL    HW1 5357   5.209   2.292   2.618
 1486SOL    HW2 5358   5.093   2.194   2.679
 1487SOL     OW 5359   0.149   2.573   6.716
 1487SOL    HW1 5360   0.218   2.632   6.673
 1487SOL    HW2 5361   0.060   2.587   6.672
 1488SOL     OW 5362   5.503   2.333   3.129
 1488SOL    HW1 5363   5.562   2.360   3.204
 1488SOL    HW2 5364   5.470   2.415   3.081
 1489SOL     OW 5365   4.114   5.091   4.028
 1489SOL    HW1 5366   4.118   5.002   3.984
 1489SOL    HW2 5367   4.111   5.163   3.958
 1490SOL     OW 5368   1.363   3.262   1.583
 1490SOL    HW1 5369   1.319   3.255   1.672
 1490SOL    HW2 5370   1.437   3.329   1.589
 1491SOL     OW 5371   5.856   3.573   4.216
 1491SOL    HW1 5372   5.923   3.647   4.227
 1491SOL    HW2 5373   5.808   3.559   4.303
 1492SOL     OW 5374   5.517   1.974   2.606
 1492SOL    HW1 5375   5.450   1.900   2.606
 1492SOL    HW2 5376   5.545   1.992   2.700
 1493SOL     OW 5377   4.926   6.957   3.858
 1493SOL    HW1 5378   5.025   6.949   3.850
 1493SOL    HW2 5379   4.904   0.013   3.912
 1494SOL     OW 5380   5.309   2.019   5.843
 1494SOL    HW1 5381   5.360   2.084   5.786
 1494SOL    HW2 5382   5.370   1.979   5.911
 1495SOL     OW 5383   6.635   2.758   4.315
 1495SOL    HW1 5384   6.624   2.699   4.395
 1495SOL    HW2 5385   6.732   2.763   4.291
 1496SOL     OW 5386   1.200   1.459   2.477
 1496SOL    HW1 5387   1.252   1.502   2.551
 1496SOL    HW2 5388   1.122   1.516   2.453
 1497SOL     OW 5389   0.335   3.273   3.045
 1497SOL    HW1 5390   0.254   3.268   2.986
 1497SOL    HW2 5391   0.410   3.221   3.004
 1498SOL     OW 5392   1.903   4.373   6.445
 1498SOL    HW1 5393   1.882   4.448   6.507
 1498SOL    HW2 5394   1.987   4.393   6.395
 1499SOL     OW 5395   1.108   3.891   5.721
 1499SOL    HW1 5396   1.156   3.830   5.658
 1499SOL    HW2 5397   1.118   3.858   5.815
 1500SOL     OW 5398   6.197   6.694   0.111
 1500SOL    HW1 5399   6.267   6.693   0.039
 1500SOL    HW2 5400   6.111   6.659   0.074
 1501SOL     OW 5401   5.044   1.192   6.451
 1501SOL    HW1 5402   5.081   1.254   6.519
 1501SOL    HW2 5403   4.951   1.220   6.427
 1502SOL     OW 5404   5.807   6.749   1.386
 1502SOL    HW1 5405   5.848   6.670   1.434
 1502SOL    HW2 5406   5.828   6.743   1.289
 1503SOL     OW 5407   2.732   1.306   2.391
 1503SOL    HW1 5408   2.672   1.381   2.417
 1503SOL    HW2 5409   2.827   1.333   2.404
 1504SOL     OW 5410   0.964   1.421   4.816
 1504SOL    HW1 5411   0.926   1.328   4.819
 1504SOL    HW2 5412   0.938   1.465   4.731
 1505SOL     OW 5413   5.833   0.699   6.422
 1505SOL    HW1 5414   5.735   0.706   6.409
 1505SOL    HW2 5415   5.881   0.739   6.344
 1506SOL     OW 5416   1.502   4.981   1.766
 1506SOL    HW1 5417   1.533   5.067   1.726
 1506SOL    HW2 5418   1.507   4.986   1.866
 1507SOL     OW 5419   0.555   2.224   5.656
 1507SOL    HW1 5420   0.600   2.141   5.623
 1507SOL    HW2 5421   0.457   2.208   5.664
 1508SOL     OW 5422   6.600   0.545   1.983
 1508SOL    HW1 5423   6.634   0.630   1.943
 1508SOL    HW2 5424   6.521   0.566   2.041
 1509SOL     OW 5425   4.644   2.366   6.310
 1509SOL    HW1 5426   4.644   2.435   6.237
 1509SOL    HW2 5427   4.602   2.404   6.392
 1510SOL     OW 5428   6.241   2.458   4.250
 1510SOL    HW1 5429   6.149   2.438   4.215
 1510SOL    HW2 5430   6.275   2.380   4.302
 1511SOL     OW 5431   3.437   2.447   1.341
 1511SOL    HW1 5432   3.413   2.420   1.434
 1511SOL    HW2 5433   3.395   2.535   1.320
 1512SOL     OW 5434   0.137   6.609   2.044
 1512SOL    HW1 5435   0.087   6.532   2.005
 1512SOL    HW2 5436   0.085   6.647   2.120
 1513SOL     OW 5437   4.293   0.587   3.997
 1513SOL    HW1 5438   4.373   0.542   3.957
 1513SOL    HW2 5439   4.240   0.521   4.050
 1514SOL     OW 5440   4.773   2.738   5.778
 1514SOL    HW1 5441   4.779   2.642   5.749
 1514SOL    HW2 5442   4.852   2.760   5.836
 1515SOL     OW 5443   6.591   3.510   5.317
 1515SOL    HW1 5444   6.578   3.595   5.266
 1515SOL    HW2 5445   6.666   3.458   5.276
 1516SOL     OW 5446   0.574   0.419   1.256
 1516SOL    HW1 5447   0.480   0.453   1.262
 1516SOL    HW2 5448   0.636   0.494   1.236
 1517SOL     OW 5449   3.764   5.887   3.282
 1517SOL    HW1 5450   3.841   5.948   3.264
 1517SOL    HW2 5451   3.733   5.847   3.195
 1518SOL     OW 5452   0.592   2.824   0.429
 1518SOL    HW1 5453   0.622   2.832   0.524
 1518SOL    HW2 5454   0.605   2.730   0.398
 1519SOL     OW 5455   0.058   4.766   2.110
 1519SOL    HW1 5456   0.111   4.818   2.176
 1519SOL    HW2 5457   0.051   4.818   2.024
 1520SOL     OW 5458   1.015   3.409   2.788
 1520SOL    HW1 5459   1.006   3.442   2.882
 1520SOL    HW2 5460   0.967   3.471   2.726
 1521SOL     OW 5461   2.855   3.788   0.048
 1521SOL    HW1 5462   2.809   3.874   0.071
 1521SOL    HW2 5463   2.915   3.802   6.994
 1522SOL     OW 5464   6.486   0.558   4.871
 1522SOL    HW1 5465   6.422   0.523   4.802
 1522SOL    HW2 5466   6.575   0.517   4.857
 1523SOL     OW 5467   4.932   3.929   0.313
 1523SOL    HW1 5468   4.991   3.870   0.369
 1523SOL    HW2 5469   4.962   3.926   0.218
 1524SOL     OW 5470   1.062   2.056   2.159
 1524SOL    HW1 5471   1.135   2.056   2.227
 1524SOL    HW2 5472   1.100   2.033   2.069
 1525SOL     OW 5473   6.377   2.425   6.915
 1525SOL    HW1 5474   6.333   2.398   7.000
 1525SOL    HW2 5475   6.394   2.524   6.916
 1526SOL     OW 5476   1.194   0.430   6.348
 1526SOL    HW1 5477   1.251   0.498   6.302
 1526SOL    HW2 5478   1.145   0.473   6.424
 1527SOL     OW 5479   3.681   1.032   5.795
 1527SOL    HW1 5480   3.681   0.933   5.788
 1527SOL    HW2 5481   3.775   1.066   5.798
 1528SOL     OW 5482   5.190   5.812   1.712
 1528SOL    HW1 5483   5.181   5.909   1.737
 1528SOL    HW2 5484   5.216   5.805   1.616
 1529SOL     OW 5485   3.412   0.877   6.956
 1529SOL    HW1 5486   3.452   0.889   0.021
 1529SOL    HW2 5487   3.318   0.846   6.964
 1530SOL     OW 5488   2.802   0.929   2.054
 1530SOL    HW1 5489   2.844   0.992   2.120
 1530SOL    HW2 5490   2.779   0.843   2.100
 1531SOL     OW 5491   5.784   1.141   4.740
 1531SOL    HW1 5492   5.747   1.101   4.656
 1531SOL    HW2 5493   5.881   1.162   4.728
 1532SOL     OW 5494   2.693   3.260   5.868
 1532SOL    HW1 5495   2.777   3.208   5.884
 1532SOL    HW2 5496   2.714   3.342   5.816
 1533SOL     OW 5497   0.377   3.046   0.046
 1533SOL    HW1 5498   0.349   2.987   6.997
 1533SOL    HW2 5499   0.476   3.056   0.046
 1534SOL     OW 5500   1.023   4.838   6.655
 1534SOL    HW1 5501   1.018   4.938   6.654
 1534SOL    HW2 5502   1.013   4.803   6.562
 1535SOL     OW 5503   4.858   5.957   4.581
 1535SOL    HW1 5504   4.773   6.010   4.581
 1535SOL    HW2 5505   4.837   5.859   4.582
 1536SOL     OW 5506   3.873   4.580   5.310
 1536SOL    HW1 5507   3.774   4.584   5.317
 1536SOL    HW2 5508   3.905   4.647   5.243
 1537SOL     OW 5509   3.730   6.036   3.000
 1537SOL    HW1 5510   3.801   6.106   3.005
 1537SOL    HW2 5511   3.743   5.981   2.918
 1538SOL     OW 5512   3.544   5.586   6.200
 1538SOL    HW1 5513   3.508   5.619   6.288
 1538SOL    HW2 5514   3.562   5.664   6.141
 1539SOL     OW 5515   4.243   4.289   1.379
 1539SOL    HW1 5516   4.287   4.276   1.467
 1539SOL    HW2 5517   4.259   4.382   1.347
 1540SOL     OW 5518   1.246   0.341   5.044
 1540SOL    HW1 5519   1.335   0.371   5.077
 1540SOL    HW2 5520   1.255   0.253   4.998
 1541SOL     OW 5521   3.408   3.024   1.894
 1541SOL    HW1 5522   3.470   3.000   1.820
 1541SOL    HW2 5523   3.345   2.948   1.911
 1542SOL     OW 5524   0.329   6.166   1.033
 1542SOL    HW1 5525   0.237   6.133   1.054
 1542SOL    HW2 5526   0.333   6.200   0.939
 1543SOL     OW 5527   2.926   3.631   4.009
 1543SOL    HW1 5528   2.839   3.674   4.032
 1543SOL    HW2 5529   2.994   3.654   4.078
 1544SOL     OW 5530   3.076   3.818   1.973
 1544SOL    HW1 5531   3.054   3.869   2.056
 1544SOL    HW2 5532   3.051   3.722   1.985
 1545SOL     OW 5533   5.391   0.960   4.686
 1545SOL    HW1 5534   5.418   0.894   4.617
 1545SOL    HW2 5535   5.467   0.978   4.748
 1546SOL     OW 5536   5.431   0.469   6.156
 1546SOL    HW1 5537   5.503   0.532   6.184
 1546SOL    HW2 5538   5.433   0.458   6.057
 1547SOL     OW 5539   2.578   4.661   2.504
 1547SOL    HW1 5540   2.658   4.721   2.505
 1547SOL    HW2 5541   2.589   4.590   2.574
 1548SOL     OW 5542   4.874   3.587   5.767
 1548SOL    HW1 5543   4.793   3.539   5.800
 1548SOL    HW2 5544   4.853   3.685   5.761
 1549SOL     OW 5545   5.003   1.785   2.622
 1549SOL    HW1 5546   4.967   1.819   2.535
 1549SOL    HW2 5547   5.103   1.791   2.621
 1550SOL     OW 5548   3.207   5.665   6.076
 1550SOL    HW1 5549   3.221   5.595   6.006
 1550SOL    HW2 5550   3.194   5.621   6.165
 1551SOL     OW 5551   2.233   3.518   0.155
 1551SOL    HW1 5552   2.258   3.492   0.062
 1551SOL    HW2 5553   2.295   3.590   0.187
 1552SOL     OW 5554   0.435   0.399   1.563
 1552SOL    HW1 5555   0.406   0.386   1.468
 1552SOL    HW2 5556   0.514   0.459   1.566
 1553SOL     OW 5557   6.244   0.989   5.580
 1553SOL    HW1 5558   6.234   0.896   5.616
 1553SOL    HW2 5559   6.257   1.053   5.656
 1554SOL     OW 5560   3.592   2.119   2.966
 1554SOL    HW1 5561   3.530   2.130   3.043
 1554SOL    HW2 5562   3.672   2.065   2.995
 1555SOL     OW 5563   5.121   1.820   5.736
 1555SOL    HW1 5564   5.145   1.731   5.698
 1555SOL    HW2 5565   5.204   1.875   5.747
 1556SOL     OW 5566   3.641   0.849   0.419
 1556SOL    HW1 5567   3.719   0.786   0.425
 1556SOL    HW2 5568   3.572   0.822   0.487
 1557SOL     OW 5569   2.391   1.495   6.930
 1557SOL    HW1 5570   2.343   1.580   6.950
 1557SOL    HW2 5571   2.406   1.444   7.015
 1558SOL     OW 5572   5.655   1.618   4.257
 1558SOL    HW1 5573   5.680   1.644   4.164
 1558SOL    HW2 5574   5.564   1.653   4.279
 1559SOL     OW 5575   0.160   2.544   0.817
 1559SOL    HW1 5576   0.123   2.637   0.812
 1559SOL    HW2 5577   0.255   2.544   0.786
 1560SOL     OW 5578   2.547   1.127   6.573
 1560SOL    HW1 5579   2.570   1.202   6.511
 1560SOL    HW2 5580   2.488   1.161   6.646
 1561SOL     OW 5581   5.754   6.299   3.012
 1561SOL    HW1 5582   5.809   6.218   3.034
 1561SOL    HW2 5583   5.723   6.294   2.917
 1562SOL     OW 5584   3.597   6.214   0.944
 1562SOL    HW1 5585   3.580   6.215   1.043
 1562SOL    HW2 5586   3.679   6.267   0.924
 1563SOL     OW 5587   2.163   1.813   5.905
 1563SOL    HW1 5588   2.197   1.907   5.918
 1563SOL    HW2 5589   2.240   1.752   5.886
 1564SOL     OW 5590   1.500   2.256   2.932
 1564SOL    HW1 5591   1.494   2.355   2.941
 1564SOL    HW2 5592   1.496   2.231   2.835
 1565SOL     OW 5593   3.746   5.323   4.308
 1565SOL    HW1 5594   3.843   5.314   4.285
 1565SOL    HW2 5595   3.710   5.407   4.268
 1566SOL     OW 5596   6.762   5.452   4.794
 1566SOL    HW1 5597   6.810   5.539   4.793
 1566SOL    HW2 5598   6.667   5.466   4.763
 1567SOL     OW 5599   5.829   6.125   0.151
 1567SOL    HW1 5600   5.765   6.148   0.078
 1567SOL    HW2 5601   5.822   6.194   0.223
 1568SOL     OW 5602   2.103   6.292   2.878
 1568SOL    HW1 5603   2.181   6.290   2.941
 1568SOL    HW2 5604   2.098   6.381   2.833
 1569SOL     OW 5605   3.845   6.829   3.565
 1569SOL    HW1 5606   3.889   6.747   3.601
 1569SOL    HW2 5607   3.747   6.827   3.587
 1570SOL     OW 5608   1.786   6.110   0.559
 1570SOL    HW1 5609   1.785   6.022   0.606
 1570SOL    HW2 5610   1.831   6.100   0.470
 1571SOL     OW 5611   6.572   1.858   2.948
 1571SOL    HW1 5612   6.500   1.790   2.934
 1571SOL    HW2 5613   6.539   1.948   2.921
 1572SOL     OW 5614   1.899   5.550   0.611
 1572SOL    HW1 5615   1.858   5.475   0.662
 1572SOL    HW2 5616   1.972   5.592   0.665
 1573SOL     OW 5617   6.591   4.984   1.775
 1573SOL    HW1 5618   6.620   4.894   1.807
 1573SOL    HW2 5619   6.612   5.053   1.845
 1574SOL     OW 5620   6.168   2.321   3.515
 1574SOL    HW1 5621   6.237   2.392   3.503
 1574SOL    HW2 5622   6.085   2.346   3.464
 1575SOL     OW 5623   2.389   2.003   1.697
 1575SOL    HW1 5624   2.339   1.916   1.693
 1575SOL    HW2 5625   2.480   1.987   1.735
 1576SOL     OW 5626   0.780   6.952   3.653
 1576SOL    HW1 5627   0.856   7.002   3.611
 1576SOL    HW2 5628   0.732   7.013   3.717
 1577SOL     OW 5629   2.692   0.548   5.979
 1577SOL    HW1 5630   2.674   0.518   6.072
 1577SOL    HW2 5631   2.641   0.491   5.915
 1578SOL     OW 5632   5.212   1.827   5.214
 1578SOL    HW1 5633   5.144   1.784   5.155
 1578SOL    HW2 5634   5.186   1.815   5.309
 1579SOL     OW 5635   0.258   1.821   2.419
 1579SOL    HW1 5636   0.264   1.724   2.395
 1579SOL    HW2 5637   0.161   1.847   2.426
 1580SOL     OW 5638   3.664   4.137   3.916
 1580SOL    HW1 5639   3.684   4.174   4.007
 1580SOL    HW2 5640   3.565   4.129   3.904
 1581SOL     OW 5641   6.369   5.003   5.226
 1581SOL    HW1 5642   6.396   5.067   5.154
 1581SOL    HW2 5643   6.309   5.050   5.290
 1582SOL     OW 5644   2.378   6.602   4.657
 1582SOL    HW1 5645   2.318   6.534   4.699
 1582SOL    HW2 5646   2.472   6.569   4.658
 1583SOL     OW 5647   0.611   5.660   3.611
 1583SOL    HW1 5648   0.530   5.713   3.586
 1583SOL    HW2 5649   0.657   5.702   3.689
 1584SOL     OW 5650   0.712   5.369   5.578
 1584SOL    HW1 5651   0.789   5.321   5.620
 1584SOL    HW2 5652   0.729   5.380   5.480
 1585SOL     OW 5653   4.701   2.335   3.221
 1585SOL    HW1 5654   4.759   2.368   3.146
 1585SOL    HW2 5655   4.722   2.240   3.241
 1586SOL     OW 5656   2.980   5.116   2.167
 1586SOL    HW1 5657   2.893   5.092   2.123
 1586SOL    HW2 5658   3.026   5.032   2.196
 1587SOL     OW 5659   2.612   5.525   5.963
 1587SOL    HW1 5660   2.576   5.610   6.003
 1587SOL    HW2 5661   2.686   5.548   5.899
 1588SOL     OW 5662   4.781   1.273   1.843
 1588SOL    HW1 5663   4.728   1.264   1.928
 1588SOL    HW2 5664   4.804   1.182   1.809
 1589SOL     OW 5665   6.843   3.453   2.399
 1589SOL    HW1 5666   6.889   3.517   2.461
 1589SOL    HW2 5667   6.807   3.376   2.452
 1590SOL     OW 5668   4.880   0.185   3.966
 1590SOL    HW1 5669   4.892   0.220   4.059
 1590SOL    HW2 5670   4.869   0.263   3.903
 1591SOL     OW 5671   0.066   5.555   0.952
 1591SOL    HW1 5672   0.029   5.647   0.948
 1591SOL    HW2 5673   0.075   5.518   0.859
 1592SOL     OW 5674   2.224   3.521   6.165
 1592SOL    HW1 5675   2.208   3.462   6.085
 1592SOL    HW2 5676   2.231   3.616   6.135
 1593SOL     OW 5677   1.157   0.115   4.822
 1593SOL    HW1 5678   1.110   0.132   4.735
 1593SOL    HW2 5679   1.254   0.097   4.804
 1594SOL     OW 5680   0.518   6.308   2.014
 1594SOL    HW1 5681   0.536   6.225   2.066
 1594SOL    HW2 5682   0.543   6.388   2.069
 1595SOL     OW 5683   0.889   5.070   0.636
 1595SOL    HW1 5684   0.860   5.132   0.710
 1595SOL    HW2 5685   0.812   5.055   0.574
 1596SOL     OW 5686   6.886   3.517   3.780
 1596SOL    HW1 5687   6.799   3.489   3.822
 1596SOL    HW2 5688   6.909   3.610   3.811
 1597SOL     OW 5689   1.262   5.771   1.434
 1597SOL    HW1 5690   1.164   5.783   1.451
 1597SOL    HW2 5691   1.277   5.740   1.340
 1598SOL     OW 5692   0.260   4.378   6.258
 1598SOL    HW1 5693   0.280   4.427   6.173
 1598SOL    HW2 5694   0.317   4.296   6.263
 1599SOL     OW 5695   5.668   5.278   4.805
 1599SOL    HW1 5696   5.670   5.218   4.885
 1599SOL    HW2 5697   5.574   5.294   4.778
 1600SOL     OW 5698   3.169   1.534   3.539
 1600SOL    HW1 5699   3.265   1.533   3.511
 1600SOL    HW2 5700   3.163   1.561   3.635
 1601SOL     OW 5701   6.234   6.542   4.225
 1601SOL    HW1 5702   6.227   6.506   4.132
 1601SOL    HW2 5703   6.145   6.575   4.255
 1602SOL     OW 5704   4.431   4.829   3.939
 1602SOL    HW1 5705   4.508   4.770   3.965
 1602SOL    HW2 5706   4.458   4.886   3.861
 1603SOL     OW 5707   2.019   5.702   3.260
 1603SOL    HW1 5708   1.929   5.742   3.273
 1603SOL    HW2 5709   2.086   5.748   3.318
 1604SOL     OW 5710   5.116   4.432   1.416
 1604SOL    HW1 5711   5.213   4.437   1.391
 1604SOL    HW2 5712   5.084   4.338   1.404
 1605SOL     OW 5713   6.230   5.516   2.112
 1605SOL    HW1 5714   6.254   5.592   2.053
 1605SOL    HW2 5715   6.311   5.460   2.130
 1606SOL     OW 5716   4.230   6.224   6.003
 1606SOL    HW1 5717   4.196   6.246   6.095
 1606SOL    HW2 5718   4.327   6.199   6.008
 1607SOL     OW 5719   3.821   6.901   0.549
 1607SOL    HW1 5720   3.920   6.886   0.554
 1607SOL    HW2 5721   3.788   6.933   0.638
 1608SOL     OW 5722   0.677   1.004   3.430
 1608SOL    HW1 5723   0.716   1.043   3.514
 1608SOL    HW2 5724   0.622   1.074   3.384
 1609SOL     OW 5725   4.384   0.028   0.465
 1609SOL    HW1 5726   4.475   0.029   0.424
 1609SOL    HW2 5727   4.358   0.120   0.492
 1610SOL     OW 5728   5.927   5.555   0.561
 1610SOL    HW1 5729   5.964   5.646   0.577
 1610SOL    HW2 5730   5.832   5.562   0.529
 1611SOL     OW 5731   2.544   3.079   0.213
 1611SOL    HW1 5732   2.555   2.986   0.249
 1611SOL    HW2 5733   2.454   3.088   0.171
 1612SOL     OW 5734   3.012   0.184   0.472
 1612SOL    HW1 5735   2.969   0.111   0.420
 1612SOL    HW2 5736   3.010   0.162   0.569
 1613SOL     OW 5737   1.369   5.279   2.176
 1613SOL    HW1 5738   1.394   5.375   2.161
 1613SOL    HW2 5739   1.279   5.261   2.136
 1614SOL     OW 5740   5.403   1.730   6.614
 1614SOL    HW1 5741   5.316   1.776   6.631
 1614SOL    HW2 5742   5.435   1.750   6.522
 1615SOL     OW 5743   6.491   5.551   0.413
 1615SOL    HW1 5744   6.419   5.564   0.480
 1615SOL    HW2 5745   6.492   5.456   0.381
 1616SOL     OW 5746   3.638   0.964   4.682
 1616SOL    HW1 5747   3.663   1.019   4.602
 1616SOL    HW2 5748   3.715   0.963   4.746
 1617SOL     OW 5749   5.599   6.358   3.241
 1617SOL    HW1 5750   5.651   6.318   3.165
 1617SOL    HW2 5751   5.615   6.456   3.245
 1618SOL     OW 5752   1.774   6.643   3.362
 1618SOL    HW1 5753   1.773   6.552   3.405
 1618SOL    HW2 5754   1.849   6.697   3.401
 1619SOL     OW 5755   0.534   4.226   1.545
 1619SOL    HW1 5756   0.503   4.225   1.640
 1619SOL    HW2 5757   0.456   4.248   1.486
 1620SOL     OW 5758   3.287   4.820   1.419
 1620SOL    HW1 5759   3.194   4.797   1.393
 1620SOL    HW2 5760   3.324   4.749   1.479
 1621SOL     OW 5761   6.320   1.035   0.695
 1621SOL    HW1 5762   6.229   1.048   0.735
 1621SOL    HW2 5763   6.335   1.103   0.624
 1622SOL     OW 5764   0.212   3.299   5.367
 1622SOL    HW1 5765   0.249   3.346   5.446
 1622SOL    HW2 5766   0.179   3.209   5.394
 1623SOL     OW 5767   0.940   2.974   5.196
 1623SOL    HW1 5768   0.995   2.907   5.145
 1623SOL    HW2 5769   0.980   3.065   5.184
 1624SOL     OW 5770   3.791   1.445   5.167
 1624SOL    HW1 5771   3.787   1.507   5.089
 1624SOL    HW2 5772   3.733   1.481   5.240
 1625SOL     OW 5773   1.336   4.983   0.435
 1625SOL    HW1 5774   1.423   5.025   0.461
 1625SOL    HW2 5775   1.353   4.901   0.380
 1626SOL     OW 5776   3.470   0.955   0.774
 1626SOL    HW1 5777   3.391   0.921   0.723
 1626SOL    HW2 5778   3.524   1.017   0.716
 1627SOL     OW 5779   5.868   3.330   4.099
 1627SOL    HW1 5780   5.945   3.288   4.147
 1627SOL    HW2 5781   5.867   3.428   4.115
 1628SOL     OW 5782   4.552   5.058   7.006
 1628SOL    HW1 5783   4.568   5.093   0.072
 1628SOL    HW2 5784   4.614   5.103   6.941
 1629SOL     OW 5785   3.065   1.249   3.774
 1629SOL    HW1 5786   3.114   1.309   3.837
 1629SOL    HW2 5787   3.129   1.186   3.731
 1630SOL     OW 5788   0.477   5.013   6.348
 1630SOL    HW1 5789   0.481   5.011   6.448
 1630SOL    HW2 5790   0.382   5.015   6.318
 1631SOL     OW 5791   1.041   2.576   0.915
 1631SOL    HW1 5792   1.108   2.549   0.846
 1631SOL    HW2 5793   1.008   2.494   0.963
 1632SOL     OW 5794   5.778   2.925   1.558
 1632SOL    HW1 5795   5.859   2.882   1.517
 1632SOL    HW2 5796   5.734   2.859   1.619
 1633SOL     OW 5797   4.829   4.009   4.776
 1633SOL    HW1 5798   4.821   4.077   4.704
 1633SOL    HW2 5799   4.859   3.922   4.738
 1634SOL     OW 5800   5.315   5.912   4.969
 1634SOL    HW1 5801   5.288   5.916   5.065
 1634SOL    HW2 5802   5.234   5.903   4.911
 1635SOL     OW 5803   0.606   5.333   6.806
 1635SOL    HW1 5804   0.701   5.315   6.833
 1635SOL    HW2 5805   0.561   5.389   6.875
 1636SOL     OW 5806   3.126   4.711   0.932
 1636SOL    HW1 5807   3.075   4.672   1.009
 1636SOL    HW2 5808   3.218   4.673   0.931
 1637SOL     OW 5809   6.750   0.102   3.523
 1637SOL    HW1 5810   6.701   0.148   3.597
 1637SOL    HW2 5811   6.685   0.049   3.468
 1638SOL     OW 5812   0.086   3.668   2.782
 1638SOL    HW1 5813   0.056   3.613   2.860
 1638SOL    HW2 5814   0.128   3.752   2.816
 1639SOL     OW 5815   5.537   5.501   1.172
 1639SOL    HW1 5816   5.550   5.599   1.158
 1639SOL    HW2 5817   5.446   5.474   1.140
 1640SOL     OW 5818   5.566   0.114   6.980
 1640SOL    HW1 5819   5.475   0.084   7.007
 1640SOL    HW2 5820   5.632   0.091   0.026
 1641SOL     OW 5821   4.943   2.200   2.781
 1641SOL    HW1 5822   4.930   2.102   2.771
 1641SOL    HW2 5823   4.855   2.246   2.778
 1642SOL     OW 5824   7.013   3.542   0.212
 1642SOL    HW1 5825   0.069   3.534   0.155
 1642SOL    HW2 5826   6.942   3.593   0.163
 1643SOL     OW 5827   2.939   4.902   4.418
 1643SOL    HW1 5828   3.010   4.904   4.488
 1643SOL    HW2 5829   2.864   4.843   4.449
 1644SOL     OW 5830   5.697   3.995   6.922
 1644SOL    HW1 5831   5.621   4.037   6.972
 1644SOL    HW2 5832   5.750   3.937   6.984
 1645SOL     OW 5833   3.108   5.504   6.353
 1645SOL    HW1 5834   3.063   5.502   6.442
 1645SOL    HW2 5835   3.039   5.511   6.280
 1646SOL     OW 5836   1.884   6.584   0.901
 1646SOL    HW1 5837   1.786   6.566   0.908
 1646SOL    HW2 5838   1.931   6.540   0.978
 1647SOL     OW 5839   5.916   3.338   4.792
 1647SOL    HW1 5840   5.838   3.399   4.804
 1647SOL    HW2 5841   5.921   3.307   4.697
 1648SOL     OW 5842   5.147   5.610   0.495
 1648SOL    HW1 5843   5.107   5.566   0.576
 1648SOL    HW2 5844   5.084   5.600   0.418
 1649SOL     OW 5845   3.557   1.446   4.359
 1649SOL    HW1 5846   3.588   1.408   4.272
 1649SOL    HW2 5847   3.585   1.542   4.365
 1650SOL     OW 5848   0.704   5.823   4.733
 1650SOL    HW1 5849   0.748   5.890   4.673
 1650SOL    HW2 5850   0.773   5.764   4.774
 1651SOL     OW 5851   0.248   2.174   1.856
 1651SOL    HW1 5852   0.276   2.197   1.949
 1651SOL    HW2 5853   0.317   2.114   1.815
 1652SOL     OW 5854   1.393   3.230   2.813
 1652SOL    HW1 5855   1.378   3.232   2.912
 1652SOL    HW2 5856   1.473   3.173   2.793
 1653SOL     OW 5857   0.640   6.167   0.041
 1653SOL    HW1 5858   0.674   6.177   0.135
 1653SOL    HW2 5859   0.718   6.149   7.006
 1654SOL     OW 5860   7.015   3.885   1.705
 1654SOL    HW1 5861   6.936   3.841   1.662
 1654SOL    HW2 5862   0.067   3.822   1.704
 1655SOL     OW 5863   0.254   2.176   4.682
 1655SOL    HW1 5864   0.252   2.090   4.732
 1655SOL    HW2 5865   0.321   2.237   4.724
 1656SOL     OW 5866   2.425   4.763   3.186
 1656SOL    HW1 5867   2.420   4.671   3.148
 1656SOL    HW2 5868   2.504   4.769   3.246
 1657SOL     OW 5869   5.915   1.326   4.516
 1657SOL    HW1 5870   5.880   1.279   4.435
 1657SOL    HW2 5871   5.994   1.276   4.552
 1658SOL     OW 5872   5.603   0.985   1.334
 1658SOL    HW1 5873   5.548   0.906   1.363
 1658SOL    HW2 5874   5.621   1.044   1.413
 1659SOL     OW 5875   3.055   0.370   6.696
 1659SOL    HW1 5876   3.034   0.448   6.756
 1659SOL    HW2 5877   3.008   0.382   6.608
 1660SOL     OW 5878   1.732   5.911   2.966
 1660SOL    HW1 5879   1.729   5.822   2.920
 1660SOL    HW2 5880   1.787   5.975   2.912
 1661SOL     OW 5881   2.433   6.389   1.085
 1661SOL    HW1 5882   2.489   6.457   1.039
 1661SOL    HW2 5883   2.485   6.303   1.092
 1662SOL     OW 5884   0.313   1.362   3.914
 1662SOL    HW1 5885   0.256   1.404   3.984
 1662SOL    HW2 5886   0.258   1.345   3.832
 1663SOL     OW 5887   4.012   5.932   2.897
 1663SOL    HW1 5888   4.039   6.027   2.886
 1663SOL    HW2 5889   4.049   5.878   2.821
 1664SOL     OW 5890   2.578   6.374   5.091
 1664SOL    HW1 5891   2.517   6.453   5.100
 1664SOL    HW2 5892   2.621   6.355   5.180
 1665SOL     OW 5893   6.375   2.742   2.371
 1665SOL    HW1 5894   6.409   2.756   2.278
 1665SOL    HW2 5895   6.275   2.749   2.371
 1666SOL     OW 5896   5.110   1.403   6.632
 1666SOL    HW1 5897   5.029   1.415   6.689
 1666SOL    HW2 5898   5.116   1.479   6.567
 1667SOL     OW 5899   0.324   6.826   1.052
 1667SOL    HW1 5900   0.254   6.890   1.083
 1667SOL    HW2 5901   0.411   6.873   1.043
 1668SOL     OW 5902   5.178   5.718   4.048
 1668SOL    HW1 5903   5.160   5.792   4.112
 1668SOL    HW2 5904   5.188   5.755   3.955
 1669SOL     OW 5905   6.405   4.562   5.876
 1669SOL    HW1 5906   6.454   4.649   5.887
 1669SOL    HW2 5907   6.306   4.579   5.873
 1670SOL     OW 5908   6.958   4.080   5.289
 1670SOL    HW1 5909   6.914   3.995   5.261
 1670SOL    HW2 5910   6.962   4.084   5.389
 1671SOL     OW 5911   5.215   2.044   2.915
 1671SOL    HW1 5912   5.132   1.991   2.904
 1671SOL    HW2 5913   5.258   2.058   2.825
 1672SOL     OW 5914   1.401   3.630   1.502
 1672SOL    HW1 5915   1.469   3.691   1.461
 1672SOL    HW2 5916   1.385   3.552   1.443
 1673SOL     OW 5917   1.043   1.638   5.088
 1673SOL    HW1 5918   1.088   1.670   5.171
 1673SOL    HW2 5919   0.983   1.561   5.111
 1674SOL     OW 5920   0.683   2.924   2.545
 1674SOL    HW1 5921   0.647   2.892   2.457
 1674SOL    HW2 5922   0.776   2.890   2.557
 1675SOL     OW 5923   5.013   0.095   0.136
 1675SOL    HW1 5924   4.980   0.070   0.227
 1675SOL    HW2 5925   4.971   0.035   0.068
 1676SOL     OW 5926   2.439   2.394   1.548
 1676SOL    HW1 5927   2.497   2.325   1.505
 1676SOL    HW2 5928   2.379   2.350   1.614
 1677SOL     OW 5929   3.155   3.045   3.798
 1677SOL    HW1 5930   3.095   3.118   3.764
 1677SOL    HW2 5931   3.126   3.017   3.889
 1678SOL     OW 5932   6.325   4.219   3.041
 1678SOL    HW1 5933   6.346   4.168   3.124
 1678SOL    HW2 5934   6.335   4.317   3.059
 1679SOL     OW 5935   2.169   2.140   4.687
 1679SOL    HW1 5936   2.141   2.105   4.777
 1679SOL    HW2 5937   2.094   2.128   4.622
 1680SOL     OW 5938   0.422   2.700   5.641
 1680SOL    HW1 5939   0.499   2.653   5.684
 1680SOL    HW2 5940   0.374   2.637   5.580
 1681SOL     OW 5941   0.337   4.889   0.019
 1681SOL    HW1 5942   0.423   4.923   7.008
 1681SOL    HW2 5943   0.327   4.792   7.022
 1682SOL     OW 5944   1.540   0.781   5.675
 1682SOL    HW1 5945   1.441   0.796   5.674
 1682SOL    HW2 5946   1.569   0.745   5.586
 1683SOL     OW 5947   5.630   5.033   2.575
 1683SOL    HW1 5948   5.687   4.987   2.506
 1683SOL    HW2 5949   5.567   5.095   2.529
 1684SOL     OW 5950   0.950   6.259   2.170
 1684SOL    HW1 5951   0.914   6.352   2.173
 1684SOL    HW2 5952   0.993   6.237   2.257
 1685SOL     OW 5953   1.766   0.954   5.627
 1685SOL    HW1 5954   1.785   0.984   5.534
 1685SOL    HW2 5955   1.667   0.940   5.638
 1686SOL     OW 5956   2.450   6.374   4.222
 1686SOL    HW1 5957   2.375   6.439   4.218
 1686SOL    HW2 5958   2.443   6.310   4.145
 1687SOL     OW 5959   1.538   2.894   2.025
 1687SOL    HW1 5960   1.607   2.960   2.055
 1687SOL    HW2 5961   1.560   2.804   2.062
 1688SOL     OW 5962   2.297   1.969   3.710
 1688SOL    HW1 5963   2.337   1.934   3.625
 1688SOL    HW2 5964   2.364   1.965   3.783
 1689SOL     OW 5965   6.333   0.523   3.023
 1689SOL    HW1 5966   6.252   0.569   3.060
 1689SOL    HW2 5967   6.409   0.532   3.088
 1690SOL     OW 5968   1.281   2.448   4.338
 1690SOL    HW1 5969   1.373   2.472   4.305
 1690SOL    HW2 5970   1.241   2.527   4.385
 1691SOL     OW 5971   5.146   3.134   3.434
 1691SOL    HW1 5972   5.163   3.037   3.454
 1691SOL    HW2 5973   5.057   3.160   3.472
 1692SOL     OW 5974   5.233   6.313   1.029
 1692SOL    HW1 5975   5.258   6.400   0.987
 1692SOL    HW2 5976   5.223   6.324   1.128
 1693SOL     OW 5977   6.114   1.841   2.593
 1693SOL    HW1 5978   6.029   1.788   2.593
 1693SOL    HW2 5979   6.188   1.786   2.555
 1694SOL     OW 5980   5.504   1.652   3.289
 1694SOL    HW1 5981   5.506   1.727   3.354
 1694SOL    HW2 5982   5.597   1.617   3.276
 1695SOL     OW 5983   4.161   0.764   6.248
 1695SOL    HW1 5984   4.080   0.798   6.295
 1695SOL    HW2 5985   4.242   0.812   6.282
 1696SOL     OW 5986   4.279   6.197   0.973
 1696SOL    HW1 5987   4.329   6.248   1.042
 1696SOL    HW2 5988   4.293   6.239   0.883
 1697SOL     OW 5989   6.266   1.244   0.485
 1697SOL    HW1 5990   6.166   1.248   0.480
 1697SOL    HW2 5991   6.302   1.329   0.521
 1698SOL     OW 5992   3.437   0.053   0.372
 1698SOL    HW1 5993   3.431   0.149   0.343
 1698SOL    HW2 5994   3.492   0.046   0.455
 1699SOL     OW 5995   2.247   1.221   6.962
 1699SOL    HW1 5996   2.209   1.134   6.994
 1699SOL    HW2 5997   2.272   1.277   0.015
 1700SOL     OW 5998   6.722   4.514   3.444
 1700SOL    HW1 5999   6.726   4.591   3.507
 1700SOL    HW2 6000   6.813   4.473   3.436
 1701SOL     OW 6001   5.848   4.896   5.945
 1701SOL    HW1 6002   5.752   4.909   5.920
 1701SOL    HW2 6003   5.900   4.978   5.919
 1702SOL     OW 6004   6.321   1.250   1.090
 1702SOL    HW1 6005   6.267   1.182   1.138
 1702SOL    HW2 6006   6.415   1.248   1.125
 1703SOL     OW 6007   3.470   1.762   0.420
 1703SOL    HW1 6008   3.517   1.711   0.492
 1703SOL    HW2 6009   3.433   1.847   0.457
 1704SOL     OW 6010   0.748   1.506   0.698
 1704SOL    HW1 6011   0.721   1.507   0.794
 1704SOL    HW2 6012   0.785   1.596   0.673
 1705SOL     OW 6013   2.955   2.244   2.481
 1705SOL    HW1 6014   2.996   2.217   2.394
 1705SOL    HW2 6015   2.929   2.341   2.478
 1706SOL     OW 6016   4.985   1.408   1.755
 1706SOL    HW1 6017   4.898   1.368   1.785
 1706SOL    HW2 6018   4.970   1.460   1.670
 1707SOL     OW 6019   4.160   2.223   2.076
 1707SOL    HW1 6020   4.086   2.194   2.138
 1707SOL    HW2 6021   4.120   2.251   1.989
 1708SOL     OW 6022   4.983   5.796   1.894
 1708SOL    HW1 6023   5.072   5.793   1.848
 1708SOL    HW2 6024   4.942   5.886   1.880
 1709SOL     OW 6025   3.295   6.633   2.803
 1709SOL    HW1 6026   3.220   6.574   2.773
 1709SOL    HW2 6027   3.269   6.681   2.886
 1710SOL     OW 6028   4.805   4.855   3.682
 1710SOL    HW1 6029   4.870   4.895   3.617
 1710SOL    HW2 6030   4.815   4.900   3.771
 1711SOL     OW 6031   1.779   4.934   4.705
 1711SOL    HW1 6032   1.796   4.961   4.800
 1711SOL    HW2 6033   1.697   4.980   4.672
 1712SOL     OW 6034   6.498   2.980   4.341
 1712SOL    HW1 6035   6.555   2.904   4.310
 1712SOL    HW2 6036   6.537   3.019   4.424
 1713SOL     OW 6037   4.600   2.572   1.912
 1713SOL    HW1 6038   4.698   2.580   1.894
 1713SOL    HW2 6039   4.569   2.480   1.887
 1714SOL     OW 6040   3.564   1.256   6.488
 1714SOL    HW1 6041   3.490   1.278   6.424
 1714SOL    HW2 6042   3.643   1.313   6.468
 1715SOL     OW 6043   1.952   5.230   2.934
 1715SOL    HW1 6044   1.981   5.233   3.029
 1715SOL    HW2 6045   1.854   5.211   2.929
 1716SOL     OW 6046   4.560   6.858   2.708
 1716SOL    HW1 6047   4.547   6.786   2.776
 1716SOL    HW2 6048   4.480   6.917   2.708
 1717SOL     OW 6049   2.956   5.717   5.101
 1717SOL    HW1 6050   2.992   5.810   5.099
 1717SOL    HW2 6051   3.030   5.653   5.121
 1718SOL     OW 6052   3.210   1.044   1.822
 1718SOL    HW1 6053   3.268   1.007   1.748
 1718SOL    HW2 6054   3.162   1.126   1.789
 1719SOL     OW 6055   1.941   2.798   1.191
 1719SOL    HW1 6056   1.875   2.724   1.186
 1719SOL    HW2 6057   1.992   2.792   1.277
 1720SOL     OW 6058   0.180   3.156   0.581
 1720SOL    HW1 6059   0.258   3.215   0.605
 1720SOL    HW2 6060   0.200   3.062   0.607
 1721SOL     OW 6061   1.924   6.451   1.785
 1721SOL    HW1 6062   1.925   6.500   1.872
 1721SOL    HW2 6063   2.018   6.443   1.751
 1722SOL     OW 6064   2.974   1.679   3.960
 1722SOL    HW1 6065   3.024   1.746   3.905
 1722SOL    HW2 6066   3.016   1.671   4.050
 1723SOL     OW 6067   6.318   2.289   0.124
 1723SOL    HW1 6068   6.238   2.303   0.182
 1723SOL    HW2 6069   6.399   2.277   0.180
 1724SOL     OW 6070   0.276   2.983   2.239
 1724SOL    HW1 6071   0.338   2.981   2.161
 1724SOL    HW2 6072   0.316   3.038   2.313
 1725SOL     OW 6073   2.054   4.663   6.239
 1725SOL    HW1 6074   1.992   4.633   6.167
 1725SOL    HW2 6075   2.130   4.714   6.198
 1726SOL     OW 6076   5.686   4.489   5.261
 1726SOL    HW1 6077   5.623   4.424   5.221
 1726SOL    HW2 6078   5.778   4.450   5.262
 1727SOL     OW 6079   3.682   2.930   3.623
 1727SOL    HW1 6080   3.662   2.896   3.714
 1727SOL    HW2 6081   3.618   3.004   3.599
 1728SOL     OW 6082   5.781   5.914   5.329
 1728SOL    HW1 6083   5.790   6.004   5.285
 1728SOL    HW2 6084   5.694   5.872   5.301
 1729SOL     OW 6085   2.206   4.095   3.442
 1729SOL    HW1 6086   2.123   4.142   3.470
 1729SOL    HW2 6087   2.186   3.998   3.430
 1730SOL     OW 6088   1.883   0.231   5.138
 1730SOL    HW1 6089   1.975   0.193   5.133
 1730SOL    HW2 6090   1.841   0.229   5.047
 1731SOL     OW 6091   0.755   4.443   4.169
 1731SOL    HW1 6092   0.673   4.496   4.147
 1731SOL    HW2 6093   0.798   4.482   4.251
 1732SOL     OW 6094   2.088   4.997   5.928
 1732SOL    HW1 6095   2.067   4.988   6.025
 1732SOL    HW2 6096   2.012   4.960   5.874
 1733SOL     OW 6097   1.711   4.242   1.545
 1733SOL    HW1 6098   1.643   4.310   1.574
 1733SOL    HW2 6099   1.721   4.244   1.446
 1734SOL     OW 6100   4.370   2.958   1.212
 1734SOL    HW1 6101   4.408   2.933   1.301
 1734SOL    HW2 6102   4.427   3.028   1.170
 1735SOL     OW 6103   4.261   5.376   6.426
 1735SOL    HW1 6104   4.354   5.338   6.424
 1735SOL    HW2 6105   4.195   5.301   6.424
 1736SOL     OW 6106   3.706   3.787   1.194
 1736SOL    HW1 6107   3.667   3.754   1.108
 1736SOL    HW2 6108   3.661   3.872   1.221
 1737SOL     OW 6109   4.503   0.901   4.652
 1737SOL    HW1 6110   4.404   0.891   4.644
 1737SOL    HW2 6111   4.536   0.969   4.587
 1738SOL     OW 6112   1.720   2.822   4.798
 1738SOL    HW1 6113   1.718   2.922   4.790
 1738SOL    HW2 6114   1.791   2.786   4.737
 1739SOL     OW 6115   6.965   1.612   5.278
 1739SOL    HW1 6116   6.955   1.686   5.345
 1739SOL    HW2 6117   7.004   1.650   5.194
 1740SOL     OW 6118   6.921   2.229   5.168
 1740SOL    HW1 6119   7.003   2.190   5.126
 1740SOL    HW2 6120   6.883   2.163   5.233
 1741SOL     OW 6121   2.463   0.248   4.475
 1741SOL    HW1 6122   2.387   0.256   4.410
 1741SOL    HW2 6123   2.500   0.339   4.494
 1742SOL     OW 6124   6.164   0.740   5.712
 1742SOL    HW1 6125   6.232   0.768   5.780
 1742SOL    HW2 6126   6.077   0.721   5.757
 1743SOL     OW 6127   0.753   2.079   2.458
 1743SOL    HW1 6128   0.780   2.174   2.475
 1743SOL    HW2 6129   0.692   2.076   2.378
 1744SOL     OW 6130   6.196   3.304   3.338
 1744SOL    HW1 6131   6.120   3.368   3.324
 1744SOL    HW2 6132   6.211   3.292   3.437
 1745SOL     OW 6133   5.396   5.617   2.395
 1745SOL    HW1 6134   5.451   5.662   2.465
 1745SOL    HW2 6135   5.352   5.685   2.338
 1746SOL     OW 6136   1.416   4.327   4.394
 1746SOL    HW1 6137   1.405   4.233   4.361
 1746SOL    HW2 6138   1.438   4.387   4.317
 1747SOL     OW 6139   4.138   1.457   2.545
 1747SOL    HW1 6140   4.065   1.409   2.495
 1747SOL    HW2 6141   4.123   1.446   2.643
 1748SOL     OW 6142   0.001   2.042   4.982
 1748SOL    HW1 6143   0.092   2.077   5.007
 1748SOL    HW2 6144   0.003   2.007   4.888
 1749SOL     OW 6145   2.211   6.873   5.505
 1749SOL    HW1 6146   2.184   6.835   5.594
 1749SOL    HW2 6147   2.263   6.805   5.454
 1750SOL     OW 6148   5.060   6.095   3.772
 1750SOL    HW1 6149   4.979   6.143   3.739
 1750SOL    HW2 6150   5.138   6.157   3.774
 1751SOL     OW 6151   3.931   1.287   4.062
 1751SOL    HW1 6152   3.940   1.235   3.977
 1751SOL    HW2 6153   3.901   1.380   4.041
 1752SOL     OW 6154   6.379   1.257   2.474
 1752SOL    HW1 6155   6.432   1.230   2.393
 1752SOL    HW2 6156   6.301   1.313   2.445
 1753SOL     OW 6157   0.094   0.956   1.369
 1753SOL    HW1 6158   0.031   0.986   1.440
 1753SOL    HW2 6159   0.143   0.874   1.399
 1754SOL     OW 6160   1.416   4.637   6.950
 1754SOL    HW1 6161   1.469   4.720   6.928
 1754SOL    HW2 6162   1.334   4.635   6.894
 1755SOL     OW 6163   6.983   6.015   0.421
 1755SOL    HW1 6164   0.017   6.002   0.342
 1755SOL    HW2 6165   6.888   5.997   0.394
 1756SOL     OW 6166   4.164   4.890   5.395
 1756SOL    HW1 6167   4.091   4.944   5.354
 1756SOL    HW2 6168   4.229   4.950   5.441
 1757SOL     OW 6169   2.585   5.510   4.839
 1757SOL    HW1 6170   2.550   5.455   4.915
 1757SOL    HW2 6171   2.670   5.554   4.867
 1758SOL     OW 6172   2.022   1.112   4.465
 1758SOL    HW1 6173   1.992   1.192   4.413
 1758SOL    HW2 6174   2.009   1.129   4.562
 1759SOL     OW 6175   2.563   5.884   5.813
 1759SOL    HW1 6176   2.510   5.923   5.738
 1759SOL    HW2 6177   2.660   5.884   5.790
 1760SOL     OW 6178   5.855   0.786   3.566
 1760SOL    HW1 6179   5.877   0.866   3.510
 1760SOL    HW2 6180   5.799   0.723   3.512
 1761SOL     OW 6181   0.184   0.716   1.733
 1761SOL    HW1 6182   0.096   0.738   1.690
 1761SOL    HW2 6183   0.223   0.799   1.772
 1762SOL     OW 6184   0.528   0.947   4.295
 1762SOL    HW1 6185   0.544   0.878   4.224
 1762SOL    HW2 6186   0.461   0.912   4.360
 1763SOL     OW 6187   0.875   4.538   4.403
 1763SOL    HW1 6188   0.814   4.468   4.438
 1763SOL    HW2 6189   0.879   4.614   4.468
 1764SOL     OW 6190   2.160   3.172   2.433
 1764SOL    HW1 6191   2.187   3.211   2.345
 1764SOL    HW2 6192   2.091   3.230   2.476
 1765SOL     OW 6193   4.345   0.531   1.575
 1765SOL    HW1 6194   4.247   0.543   1.561
 1765SOL    HW2 6195   4.395   0.605   1.530
 1766SOL     OW 6196   5.364   4.988   3.656
 1766SOL    HW1 6197   5.399   5.030   3.572
 1766SOL    HW2 6198   5.412   5.026   3.735
 1767SOL     OW 6199   0.893   4.088   2.984
 1767SOL    HW1 6200   0.965   4.155   2.965
 1767SOL    HW2 6201   0.808   4.119   2.942
 1768SOL     OW 6202   3.323   0.761   6.713
 1768SOL    HW1 6203   3.348   0.811   6.796
 1768SOL    HW2 6204   3.399   0.703   6.685
 1769SOL     OW 6205   5.254   1.218   0.029
 1769SOL    HW1 6206   5.163   1.186   0.004
 1769SOL    HW2 6207   5.295   1.265   6.978
 1770SOL     OW 6208   6.352   4.792   4.948
 1770SOL    HW1 6209   6.413   4.770   4.872
 1770SOL    HW2 6210   6.386   4.873   4.995
 1771SOL     OW 6211   1.480   5.118   0.724
 1771SOL    HW1 6212   1.478   5.180   0.645
 1771SOL    HW2 6213   1.452   5.169   0.806
 1772SOL     OW 6214   3.631   5.941   3.512
 1772SOL    HW1 6215   3.678   5.952   3.425
 1772SOL    HW2 6216   3.641   5.847   3.544
 1773SOL     OW 6217   2.767   2.644   5.667
 1773SOL    HW1 6218   2.674   2.640   5.704
 1773SOL    HW2 6219   2.786   2.561   5.614
 1774SOL     OW 6220   5.221   6.071   1.830
 1774SOL    HW1 6221   5.142   6.129   1.846
 1774SOL    HW2 6222   5.259   6.041   1.918
 1775SOL     OW 6223   1.798   5.036   5.760
 1775SOL    HW1 6224   1.726   5.104   5.772
 1775SOL    HW2 6225   1.881   5.082   5.726
 1776SOL     OW 6226   4.813   0.551   6.662
 1776SOL    HW1 6227   4.758   0.469   6.646
 1776SOL    HW2 6228   4.811   0.609   6.581
 1777SOL     OW 6229   3.007   6.541   6.438
 1777SOL    HW1 6230   3.062   6.621   6.414
 1777SOL    HW2 6231   2.910   6.567   6.441
 1778SOL     OW 6232   4.886   1.937   4.140
 1778SOL    HW1 6233   4.928   1.856   4.100
 1778SOL    HW2 6234   4.928   2.019   4.101
 1779SOL     OW 6235   5.283   1.232   5.309
 1779SOL    HW1 6236   5.294   1.168   5.234
 1779SOL    HW2 6237   5.187   1.239   5.333
 1780SOL     OW 6238   1.850   3.945   5.727
 1780SOL    HW1 6239   1.893   3.874   5.670
 1780SOL    HW2 6240   1.914   4.022   5.736
 1781SOL     OW 6241   6.125   6.123   4.225
 1781SOL    HW1 6242   6.053   6.171   4.175
 1781SOL    HW2 6243   6.169   6.186   4.289
 1782SOL     OW 6244   3.079   1.189   2.639
 1782SOL    HW1 6245   3.175   1.200   2.664
 1782SOL    HW2 6246   3.056   1.252   2.566
 1783SOL     OW 6247   2.650   3.021   6.179
 1783SOL    HW1 6248   2.683   2.983   6.265
 1783SOL    HW2 6249   2.724   3.016   6.111
 1784SOL     OW 6250   2.176   1.522   1.394
 1784SOL    HW1 6251   2.153   1.503   1.299
 1784SOL    HW2 6252   2.097   1.565   1.439
 1785SOL     OW 6253   5.768   6.384   3.664
 1785SOL    HW1 6254   5.717   6.354   3.744
 1785SOL    HW2 6255   5.755   6.319   3.589
 1786SOL     OW 6256   1.774   4.211   0.445
 1786SOL    HW1 6257   1.745   4.307   0.440
 1786SOL    HW2 6258   1.765   4.169   0.354
 1787SOL     OW 6259   2.537   2.073   5.652
 1787SOL    HW1 6260   2.488   2.055   5.567
 1787SOL    HW2 6261   2.625   2.027   5.650
 1788SOL     OW 6262   4.109   3.875   0.337
 1788SOL    HW1 6263   4.012   3.869   0.361
 1788SOL    HW2 6264   4.164   3.889   0.420
 1789SOL     OW 6265   5.644   2.780   2.347
 1789SOL    HW1 6266   5.624   2.878   2.336
 1789SOL    HW2 6267   5.680   2.744   2.261
 1790SOL     OW 6268   2.948   0.847   4.349
 1790SOL    HW1 6269   2.947   0.815   4.444
 1790SOL    HW2 6270   2.939   0.946   4.347
 1791SOL     OW 6271   6.415   1.858   3.983
 1791SOL    HW1 6272   6.355   1.787   4.020
 1791SOL    HW2 6273   6.501   1.816   3.953
 1792SOL     OW 6274   0.134   1.041   4.391
 1792SOL    HW1 6275   0.135   1.036   4.491
 1792SOL    HW2 6276   0.186   1.121   4.362
 1793SOL     OW 6277   6.250   1.590   4.311
 1793SOL    HW1 6278   6.178   1.657   4.326
 1793SOL    HW2 6279   6.246   1.520   4.383
 1794SOL     OW 6280   5.146   6.739   5.475
 1794SOL    HW1 6281   5.091   6.708   5.553
 1794SOL    HW2 6282   5.166   6.836   5.485
 1795SOL     OW 6283   6.736   5.562   1.951
 1795SOL    HW1 6284   6.836   5.567   1.947
 1795SOL    HW2 6285   6.699   5.651   1.979
 1796SOL     OW 6286   2.381   1.461   5.253
 1796SOL    HW1 6287   2.372   1.472   5.154
 1796SOL    HW2 6288   2.419   1.544   5.292
 1797SOL     OW 6289   1.428   0.122   5.576
 1797SOL    HW1 6290   1.508   0.075   5.541
 1797SOL    HW2 6291   1.432   0.219   5.551
 1798SOL     OW 6292   3.845   2.932   5.028
 1798SOL    HW1 6293   3.865   3.028   5.045
 1798SOL    HW2 6294   3.929   2.885   5.000
 1799SOL     OW 6295   5.758   3.129   6.269
 1799SOL    HW1 6296   5.820   3.206   6.269
 1799SOL    HW2 6297   5.803   3.049   6.228
 1800SOL     OW 6298   5.125   5.044   3.254
 1800SOL    HW1 6299   5.153   5.139   3.239
 1800SOL    HW2 6300   5.196   4.983   3.218
 1801SOL     OW 6301   1.593   1.191   2.915
 1801SOL    HW1 6302   1.613   1.254   2.990
 1801SOL    HW2 6303   1.662   1.202   2.843
 1802SOL     OW 6304   6.739   6.055   3.246
 1802SOL    HW1 6305   6.702   6.012   3.164
 1802SOL    HW2 6306   6.720   5.998   3.326
 1803SOL     OW 6307   6.873   6.866   1.959
 1803SOL    HW1 6308   6.912   6.929   2.025
 1803SOL    HW2 6309   6.775   6.882   1.950
 1804SOL     OW 6310   4.153   3.762   5.664
 1804SOL    HW1 6311   4.107   3.683   5.707
 1804SOL    HW2 6312   4.252   3.748   5.665
 1805SOL     OW 6313   0.702   5.403   5.893
 1805SOL    HW1 6314   0.666   5.464   5.822
 1805SOL    HW2 6315   0.794   5.431   5.918
 1806SOL     OW 6316   0.671   2.544   2.055
 1806SOL    HW1 6317   0.735   2.514   2.126
 1806SOL    HW2 6318   0.676   2.643   2.046
 1807SOL     OW 6319   6.669   2.466   6.560
 1807SOL    HW1 6320   6.676   2.397   6.488
 1807SOL    HW2 6321   6.573   2.492   6.571
 1808SOL     OW 6322   5.754   4.316   4.640
 1808SOL    HW1 6323   5.732   4.224   4.672
 1808SOL    HW2 6324   5.755   4.379   4.717
 1809SOL     OW 6325   2.684   2.343   5.076
 1809SOL    HW1 6326   2.702   2.341   4.978
 1809SOL    HW2 6327   2.765   2.311   5.125
 1810SOL     OW 6328   0.897   0.643   4.801
 1810SOL    HW1 6329   0.968   0.579   4.831
 1810SOL    HW2 6330   0.939   0.718   4.750
 1811SOL     OW 6331   5.097   4.885   2.828
 1811SOL    HW1 6332   5.023   4.951   2.830
 1811SOL    HW2 6333   5.178   4.924   2.872
 1812SOL     OW 6334   4.680   6.872   6.785
 1812SOL    HW1 6335   4.627   6.870   6.870
 1812SOL    HW2 6336   4.651   6.950   6.730
 1813SOL     OW 6337   4.823   5.448   2.182
 1813SOL    HW1 6338   4.871   5.532   2.157
 1813SOL    HW2 6339   4.826   5.437   2.282
 1814SOL     OW 6340   6.289   0.634   0.836
 1814SOL    HW1 6341   6.366   0.651   0.774
 1814SOL    HW2 6342   6.203   0.641   0.784
 1815SOL     OW 6343   6.577   0.294   3.106
 1815SOL    HW1 6344   6.606   0.353   3.030
 1815SOL    HW2 6345   6.478   0.284   3.104
 1816SOL     OW 6346   3.421   4.719   0.047
 1816SOL    HW1 6347   3.482   4.640   0.039
 1816SOL    HW2 6348   3.438   4.764   0.134
 1817SOL     OW 6349   3.666   0.480   2.568
 1817SOL    HW1 6350   3.690   0.435   2.482
 1817SOL    HW2 6351   3.656   0.578   2.552
 1818SOL     OW 6352   1.529   6.649   0.613
 1818SOL    HW1 6353   1.536   6.746   0.639
 1818SOL    HW2 6354   1.619   6.616   0.585
 1819SOL     OW 6355   1.192   5.928   1.865
 1819SOL    HW1 6356   1.203   5.831   1.845
 1819SOL    HW2 6357   1.166   5.940   1.961
 1820SOL     OW 6358   3.313   0.094   2.024
 1820SOL    HW1 6359   3.222   0.078   1.986
 1820SOL    HW2 6360   3.305   0.110   2.123
 1821SOL     OW 6361   2.732   0.870   1.782
 1821SOL    HW1 6362   2.781   0.909   1.859
 1821SOL    HW2 6363   2.793   0.864   1.702
 1822SOL     OW 6364   0.840   2.635   1.786
 1822SOL    HW1 6365   0.862   2.625   1.689
 1822SOL    HW2 6366   0.743   2.619   1.800
 1823SOL     OW 6367   2.845   6.168   3.042
 1823SOL    HW1 6368   2.935   6.212   3.035
 1823SOL    HW2 6369   2.857   6.071   3.063
 1824SOL     OW 6370   3.643   4.053   0.640
 1824SOL    HW1 6371   3.598   4.141   0.658
 1824SOL    HW2 6372   3.728   4.069   0.589
 1825SOL     OW 6373   0.546   2.457   4.501
 1825SOL    HW1 6374   0.453   2.433   4.473
 1825SOL    HW2 6375   0.611   2.395   4.456
 1826SOL     OW 6376   2.684   1.098   1.192
 1826SOL    HW1 6377   2.740   1.056   1.120
 1826SOL    HW2 6378   2.608   1.036   1.215
 1827SOL     OW 6379   6.221   5.249   1.100
 1827SOL    HW1 6380   6.229   5.153   1.072
 1827SOL    HW2 6381   6.271   5.262   1.186
 1828SOL     OW 6382   1.593   2.813   6.623
 1828SOL    HW1 6383   1.534   2.747   6.668
 1828SOL    HW2 6384   1.560   2.829   6.530
 1829SOL     OW 6385   3.650   0.192   2.773
 1829SOL    HW1 6386   3.731   0.164   2.722
 1829SOL    HW2 6387   3.594   0.111   2.793
 1830SOL     OW 6388   5.706   6.434   4.331
 1830SOL    HW1 6389   5.661   6.398   4.412
 1830SOL    HW2 6390   5.769   6.365   4.295
 1831SOL     OW 6391   5.471   6.629   2.849
 1831SOL    HW1 6392   5.499   6.655   2.757
 1831SOL    HW2 6393   5.475   6.530   2.858
 1832SOL     OW 6394   3.553   1.701   0.671
 1832SOL    HW1 6395   3.472   1.678   0.725
 1832SOL    HW2 6396   3.619   1.750   0.729
 1833SOL     OW 6397   5.804   0.630   2.099
 1833SOL    HW1 6398   5.894   0.665   2.123
 1833SOL    HW2 6399   5.745   0.705   2.070
 1834SOL     OW 6400   2.044   3.933   1.029
 1834SOL    HW1 6401   2.096   4.004   1.076
 1834SOL    HW2 6402   2.088   3.844   1.045
 1835SOL     OW 6403   1.025   4.606   1.909
 1835SOL    HW1 6404   1.035   4.621   1.810
 1835SOL    HW2 6405   0.931   4.577   1.929
 1836SOL     OW 6406   5.621   2.361   1.986
 1836SOL    HW1 6407   5.599   2.404   1.898
 1836SOL    HW2 6408   5.704   2.307   1.977
 1837SOL     OW 6409   1.306   6.999   5.812
 1837SOL    HW1 6410   1.310   0.041   5.885
 1837SOL    HW2 6411   1.353   0.008   5.731
 1838SOL     OW 6412   5.790   0.963   6.043
 1838SOL    HW1 6413   5.707   0.910   6.062
 1838SOL    HW2 6414   5.776   1.018   5.961
 1839SOL     OW 6415   6.906   1.142   5.739
 1839SOL    HW1 6416   6.988   1.174   5.691
 1839SOL    HW2 6417   6.833   1.209   5.729
 1840SOL     OW 6418   4.062   0.077   2.180
 1840SOL    HW1 6419   3.975   0.031   2.159
 1840SOL    HW2 6420   4.084   0.143   2.109
 1841SOL     OW 6421   2.263   0.352   2.912
 1841SOL    HW1 6422   2.266   0.370   3.010
 1841SOL    HW2 6423   2.284   0.435   2.862
 1842SOL     OW 6424   0.951   5.936   1.441
 1842SOL    HW1 6425   0.991   6.021   1.473
 1842SOL    HW2 6426   0.858   5.952   1.408
 1843SOL     OW 6427   5.560   0.511   4.484
 1843SOL    HW1 6428   5.636   0.512   4.418
 1843SOL    HW2 6429   5.577   0.441   4.553
 1844SOL     OW 6430   4.344   0.241   5.290
 1844SOL    HW1 6431   4.276   0.253   5.217
 1844SOL    HW2 6432   4.314   0.289   5.372
 1845SOL     OW 6433   2.958   6.763   4.499
 1845SOL    HW1 6434   2.972   6.789   4.594
 1845SOL    HW2 6435   2.955   6.845   4.442
 1846SOL     OW 6436   4.553   0.760   2.661
 1846SOL    HW1 6437   4.464   0.780   2.621
 1846SOL    HW2 6438   4.559   0.802   2.752
 1847SOL     OW 6439   1.650   0.113   5.838
 1847SOL    HW1 6440   1.689   0.022   5.845
 1847SOL    HW2 6441   1.687   0.159   5.757
 1848SOL     OW 6442   2.067   6.386   3.915
 1848SOL    HW1 6443   2.147   6.329   3.933
 1848SOL    HW2 6444   2.046   6.386   3.817
 1849SOL     OW 6445   4.228   2.718   1.155
 1849SOL    HW1 6446   4.267   2.809   1.170
 1849SOL    HW2 6447   4.252   2.686   1.063
 1850SOL     OW 6448   6.558   2.427   2.281
 1850SOL    HW1 6449   6.626   2.359   2.254
 1850SOL    HW2 6450   6.503   2.390   2.356
 1851SOL     OW 6451   1.067   3.308   0.055
 1851SOL    HW1 6452   1.040   3.212   0.050
 1851SOL    HW2 6453   1.163   3.315   0.084
 1852SOL     OW 6454   0.429   4.792   2.714
 1852SOL    HW1 6455   0.424   4.853   2.635
 1852SOL    HW2 6456   0.520   4.796   2.755
 1853SOL     OW 6457   0.051   2.544   3.306
 1853SOL    HW1 6458   0.031   2.569   3.211
 1853SOL    HW2 6459   0.019   2.616   3.367
 1854SOL     OW 6460   1.961   4.837   2.808
 1854SOL    HW1 6461   1.905   4.915   2.780
 1854SOL    HW2 6462   2.040   4.829   2.747
 1855SOL     OW 6463   5.094   3.488   5.488
 1855SOL    HW1 6464   5.000   3.503   5.459
 1855SOL    HW2 6465   5.095   3.433   5.572
 1856SOL     OW 6466   4.923   3.213   6.333
 1856SOL    HW1 6467   4.881   3.250   6.249
 1856SOL    HW2 6468   5.002   3.156   6.308
 1857SOL     OW 6469   4.227   1.304   0.345
 1857SOL    HW1 6470   4.128   1.319   0.345
 1857SOL    HW2 6471   4.250   1.234   0.413
 1858SOL     OW 6472   5.264   2.550   3.151
 1858SOL    HW1 6473   5.199   2.625   3.163
 1858SOL    HW2 6474   5.233   2.471   3.206
 1859SOL     OW 6475   4.478   1.511   3.558
 1859SOL    HW1 6476   4.513   1.454   3.484
 1859SOL    HW2 6477   4.505   1.473   3.646
 1860SOL     OW 6478   0.133   1.627   5.727
 1860SOL    HW1 6479   0.041   1.614   5.689
 1860SOL    HW2 6480   0.126   1.645   5.825
 1861SOL     OW 6481   4.626   0.608   2.462
 1861SOL    HW1 6482   4.630   0.657   2.549
 1861SOL    HW2 6483   4.631   0.673   2.387
 1862SOL     OW 6484   2.194   6.614   0.018
 1862SOL    HW1 6485   2.273   6.616   0.078
 1862SOL    HW2 6486   2.115   6.655   0.065
 1863SOL     OW 6487   0.046   2.660   2.401
 1863SOL    HW1 6488   7.018   2.585   2.363
 1863SOL    HW2 6489   0.042   2.738   2.338
 1864SOL     OW 6490   3.406   5.911   4.474
 1864SOL    HW1 6491   3.408   6.008   4.450
 1864SOL    HW2 6492   3.339   5.864   4.416
 1865SOL     OW 6493   3.263   0.838   0.644
 1865SOL    HW1 6494   3.170   0.835   0.608
 1865SOL    HW2 6495   3.318   0.765   0.601
 1866SOL     OW 6496   6.956   4.794   3.612
 1866SOL    HW1 6497   0.007   4.858   3.604
 1866SOL    HW2 6498   6.889   4.813   3.540
 1867SOL     OW 6499   2.001   3.430   1.825
 1867SOL    HW1 6500   1.960   3.341   1.846
 1867SOL    HW2 6501   2.076   3.448   1.889
 1868SOL     OW 6502   5.498   3.592   6.849
 1868SOL    HW1 6503   5.501   3.590   6.749
 1868SOL    HW2 6504   5.520   3.501   6.884
 1869SOL     OW 6505   6.237   3.410   4.719
 1869SOL    HW1 6506   6.250   3.311   4.712
 1869SOL    HW2 6507   6.157   3.437   4.667
 1870SOL     OW 6508   1.063   3.209   5.148
 1870SOL    HW1 6509   1.012   3.258   5.219
 1870SOL    HW2 6510   1.091   3.273   5.077
 1871SOL     OW 6511   6.421   0.279   0.781
 1871SOL    HW1 6512   6.488   0.351   0.800
 1871SOL    HW2 6513   6.330   0.311   0.805
 1872SOL     OW 6514   4.505   2.077   6.920
 1872SOL    HW1 6515   4.413   2.038   6.930
 1872SOL    HW2 6516   4.570   2.023   6.973
 1873SOL     OW 6517   6.863   0.255   5.382
 1873SOL    HW1 6518   6.948   0.261   5.433
 1873SOL    HW2 6519   6.878   0.282   5.287
 1874SOL     OW 6520   1.231   1.117   6.080
 1874SOL    HW1 6521   1.147   1.130   6.027
 1874SOL    HW2 6522   1.309   1.110   6.019
 1875SOL     OW 6523   6.564   0.232   0.532
 1875SOL    HW1 6524   6.498   0.251   0.605
 1875SOL    HW2 6525   6.568   0.134   0.515
 1876SOL     OW 6526   3.859   5.917   6.212
 1876SOL    HW1 6527   3.867   6.010   6.248
 1876SOL    HW2 6528   3.937   5.863   6.243
 1877SOL     OW 6529   0.908   1.879   3.155
 1877SOL    HW1 6530   0.974   1.906   3.084
 1877SOL    HW2 6531   0.944   1.901   3.245
 1878SOL     OW 6532   6.972   4.116   3.625
 1878SOL    HW1 6533   6.880   4.126   3.663
 1878SOL    HW2 6534   7.017   4.038   3.667
 1879SOL     OW 6535   2.682   5.983   3.996
 1879SOL    HW1 6536   2.696   6.082   3.994
 1879SOL    HW2 6537   2.601   5.960   3.943
 1880SOL     OW 6538   0.564   1.896   2.855
 1880SOL    HW1 6539   0.510   1.908   2.938
 1880SOL    HW2 6540   0.648   1.950   2.862
 1881SOL     OW 6541   1.459   1.799   3.728
 1881SOL    HW1 6542   1.360   1.792   3.727
 1881SOL    HW2 6543   1.494   1.766   3.815
 1882SOL     OW 6544   0.575   4.947   6.877
 1882SOL    HW1 6545   0.667   4.912   6.858
 1882SOL    HW2 6546   0.577   5.001   6.961
 1883SOL     OW 6547   0.885   3.543   4.231
 1883SOL    HW1 6548   0.879   3.523   4.329
 1883SOL    HW2 6549   0.948   3.619   4.217
 1884SOL     OW 6550   5.802   2.448   1.239
 1884SOL    HW1 6551   5.789   2.416   1.333
 1884SOL    HW2 6552   5.851   2.378   1.187
 1885SOL     OW 6553   0.116   1.994   1.372
 1885SOL    HW1 6554   0.086   1.930   1.301
 1885SOL    HW2 6555   0.166   2.070   1.330
 1886SOL     OW 6556   2.197   2.169   0.199
 1886SOL    HW1 6557   2.191   2.212   0.289
 1886SOL    HW2 6558   2.278   2.111   0.194
 1887SOL     OW 6559   0.192   4.546   5.663
 1887SOL    HW1 6560   0.239   4.485   5.726
 1887SOL    HW2 6561   0.243   4.632   5.654
 1888SOL     OW 6562   2.452   2.299   5.735
 1888SOL    HW1 6563   2.517   2.341   5.799
 1888SOL    HW2 6564   2.491   2.214   5.699
 1889SOL     OW 6565   5.379   3.138   6.408
 1889SOL    HW1 6566   5.388   3.050   6.455
 1889SOL    HW2 6567   5.355   3.209   6.475
 1890SOL     OW 6568   1.734   5.984   5.546
 1890SOL    HW1 6569   1.811   6.038   5.579
 1890SOL    HW2 6570   1.660   5.988   5.613
 1891SOL     OW 6571   5.294   3.785   3.902
 1891SOL    HW1 6572   5.298   3.692   3.868
 1891SOL    HW2 6573   5.240   3.788   3.986
 1892SOL     OW 6574   3.568   6.616   1.086
 1892SOL    HW1 6575   3.513   6.604   1.003
 1892SOL    HW2 6576   3.516   6.584   1.165
 1893SOL     OW 6577   3.532   1.873   5.570
 1893SOL    HW1 6578   3.481   1.922   5.640
 1893SOL    HW2 6579   3.493   1.782   5.558
 1894SOL     OW 6580   4.167   3.810   1.583
 1894SOL    HW1 6581   4.238   3.881   1.587
 1894SOL    HW2 6582   4.174   3.761   1.496
 1895SOL     OW 6583   5.501   0.840   2.937
 1895SOL    HW1 6584   5.403   0.843   2.960
 1895SOL    HW2 6585   5.539   0.932   2.938
 1896SOL     OW 6586   0.493   0.622   3.400
 1896SOL    HW1 6587   0.518   0.685   3.472
 1896SOL    HW2 6588   0.526   0.530   3.422
 1897SOL     OW 6589   0.030   4.877   2.818
 1897SOL    HW1 6590   0.002   4.959   2.868
 1897SOL    HW2 6591   6.977   4.818   2.804
 1898SOL     OW 6592   3.207   5.517   1.547
 1898SOL    HW1 6593   3.170   5.602   1.586
 1898SOL    HW2 6594   3.131   5.456   1.523
 1899SOL     OW 6595   1.241   2.694   2.998
 1899SOL    HW1 6596   1.295   2.701   3.082
 1899SOL    HW2 6597   1.146   2.671   3.021
 1900SOL     OW 6598   0.954   0.464   5.476
 1900SOL    HW1 6599   0.968   0.454   5.377
 1900SOL    HW2 6600   0.960   0.374   5.519
 1901SOL     OW 6601   2.248   1.747   1.630
 1901SOL    HW1 6602   2.174   1.814   1.633
 1901SOL    HW2 6603   2.220   1.668   1.575
 1902SOL     OW 6604   2.511   2.490   4.923
 1902SOL    HW1 6605   2.575   2.431   4.973
 1902SOL    HW2 6606   2.454   2.434   4.863
 1903SOL     OW 6607   7.017   4.244   3.403
 1903SOL    HW1 6608   7.012   4.341   3.427
 1903SOL    HW2 6609   7.004   4.189   3.486
 1904SOL     OW 6610   6.073   6.953   3.825
 1904SOL    HW1 6611   6.115   0.016   3.806
 1904SOL    HW2 6612   6.135   6.898   3.881
 1905SOL     OW 6613   1.010   1.964   4.210
 1905SOL    HW1 6614   1.050   1.872   4.211
 1905SOL    HW2 6615   1.043   2.015   4.289
 1906SOL     OW 6616   3.069   6.977   5.348
 1906SOL    HW1 6617   3.020   6.892   5.333
 1906SOL    HW2 6618   3.011   0.015   5.399
 1907SOL     OW 6619   2.938   6.558   3.213
 1907SOL    HW1 6620   2.877   6.624   3.257
 1907SOL    HW2 6621   3.001   6.521   3.281
 1908SOL     OW 6622   4.602   0.841   4.924
 1908SOL    HW1 6623   4.696   0.811   4.937
 1908SOL    HW2 6624   4.593   0.883   4.834
 1909SOL     OW 6625   1.367   3.663   3.125
 1909SOL    HW1 6626   1.267   3.665   3.114
 1909SOL    HW2 6627   1.391   3.611   3.207
 1910SOL     OW 6628   6.592   2.175   6.933
 1910SOL    HW1 6629   6.578   2.162   6.835
 1910SOL    HW2 6630   6.541   2.254   6.964
 1911SOL     OW 6631   6.110   2.217   5.733
 1911SOL    HW1 6632   6.041   2.224   5.660
 1911SOL    HW2 6633   6.098   2.130   5.781
 1912SOL     OW 6634   3.792   6.687   1.503
 1912SOL    HW1 6635   3.746   6.643   1.425
 1912SOL    HW2 6636   3.783   6.628   1.583
 1913SOL     OW 6637   2.049   6.036   5.497
 1913SOL    HW1 6638   2.095   6.038   5.408
 1913SOL    HW2 6639   2.088   5.964   5.553
 1914SOL     OW 6640   3.181   2.675   6.743
 1914SOL    HW1 6641   3.147   2.759   6.701
 1914SOL    HW2 6642   3.239   2.626   6.678
 1915SOL     OW 6643   4.155   1.179   5.194
 1915SOL    HW1 6644   4.211   1.134   5.124
 1915SOL    HW2 6645   4.196   1.163   5.284
 1916SOL     OW 6646   3.496   5.635   0.898
 1916SOL    HW1 6647   3.485   5.713   0.960
 1916SOL    HW2 6648   3.584   5.642   0.852
 1917SOL     OW 6649   3.879   3.057   4.719
 1917SOL    HW1 6650   3.911   3.076   4.811
 1917SOL    HW2 6651   3.791   3.009   4.723
 1918SOL     OW 6652   6.962   0.169   6.599
 1918SOL    HW1 6653   6.894   0.243   6.590
 1918SOL    HW2 6654   0.006   0.179   6.528
 1919SOL     OW 6655   2.160   6.477   1.546
 1919SOL    HW1 6656   2.227   6.476   1.472
 1919SOL    HW2 6657   2.077   6.429   1.517
 1920SOL     OW 6658   0.700   5.127   2.785
 1920SOL    HW1 6659   0.678   5.128   2.882
 1920SOL    HW2 6660   0.694   5.220   2.749
 1921SOL     OW 6661   1.186   4.274   6.969
 1921SOL    HW1 6662   1.231   4.221   0.015
 1921SOL    HW2 6663   1.248   4.285   6.891
 1922SOL     OW 6664   3.568   4.143   0.971
 1922SOL    HW1 6665   3.607   4.186   0.890
 1922SOL    HW2 6666   3.637   4.084   1.014
 1923SOL     OW 6667   3.198   0.984   6.236
 1923SOL    HW1 6668   3.183   0.946   6.327
 1923SOL    HW2 6669   3.282   1.039   6.236
 1924SOL     OW 6670   5.890   5.584   2.161
 1924SOL    HW1 6671   5.963   5.652   2.168
 1924SOL    HW2 6672   5.802   5.626   2.183
 1925SOL     OW 6673   2.983   3.881   2.236
 1925SOL    HW1 6674   2.966   3.839   2.325
 1925SOL    HW2 6675   2.936   3.969   2.232
 1926SOL     OW 6676   0.898   6.907   4.029
 1926SOL    HW1 6677   0.988   6.912   3.987
 1926SOL    HW2 6678   0.847   6.831   3.989
 1927SOL     OW 6679   3.424   5.043   5.922
 1927SOL    HW1 6680   3.492   5.094   5.975
 1927SOL    HW2 6681   3.467   4.961   5.884
 1928SOL     OW 6682   6.849   3.829   6.268
 1928SOL    HW1 6683   6.755   3.798   6.255
 1928SOL    HW2 6684   6.908   3.786   6.200
 1929SOL     OW 6685   0.956   6.014   1.007
 1929SOL    HW1 6686   0.924   5.930   1.050
 1929SOL    HW2 6687   1.048   6.035   1.041
 1930SOL     OW 6688   4.051   3.770   0.047
 1930SOL    HW1 6689   4.045   3.867   0.072
 1930SOL    HW2 6690   4.096   3.761   6.984
 1931SOL     OW 6691   6.959   2.323   3.421
 1931SOL    HW1 6692   7.000   2.397   3.368
 1931SOL    HW2 6693   6.946   2.354   3.515
 1932SOL     OW 6694   5.031   3.728   2.678
 1932SOL    HW1 6695   5.010   3.636   2.713
 1932SOL    HW2 6696   5.065   3.721   2.584
 1933SOL     OW 6697   2.838   4.415   0.710
 1933SOL    HW1 6698   2.907   4.433   0.640
 1933SOL    HW2 6699   2.879   4.362   0.785
 1934SOL     OW 6700   0.405   0.387   4.460
 1934SOL    HW1 6701   0.323   0.336   4.435
 1934SOL    HW2 6702   0.393   0.483   4.435
 1935SOL     OW 6703   3.438   0.390   4.681
 1935SOL    HW1 6704   3.426   0.446   4.763
 1935SOL    HW2 6705   3.532   0.401   4.647
 1936SOL     OW 6706   6.362   4.241   4.152
 1936SOL    HW1 6707   6.364   4.205   4.059
 1936SOL    HW2 6708   6.395   4.170   4.215
 1937SOL     OW 6709   5.165   0.033   0.681
 1937SOL    HW1 6710   5.131   0.107   0.622
 1937SOL    HW2 6711   5.214   6.991   0.625
 1938SOL     OW 6712   3.691   0.709   1.810
 1938SOL    HW1 6713   3.753   0.720   1.888
 1938SOL    HW2 6714   3.723   0.634   1.753
 1939SOL     OW 6715   0.918   6.838   4.863
 1939SOL    HW1 6716   0.896   6.906   4.793
 1939SOL    HW2 6717   1.016   6.819   4.863
 1940SOL     OW 6718   4.455   4.841   6.402
 1940SOL    HW1 6719   4.498   4.919   6.357
 1940SOL    HW2 6720   4.367   4.868   6.440
 1941SOL     OW 6721   0.279   3.900   3.147
 1941SOL    HW1 6722   0.262   3.975   3.212
 1941SOL    HW2 6723   0.306   3.818   3.196
 1942SOL     OW 6724   5.585   0.526   2.249
 1942SOL    HW1 6725   5.604   0.480   2.335
 1942SOL    HW2 6726   5.663   0.516   2.187
 1943SOL     OW 6727   2.670   6.028   2.132
 1943SOL    HW1 6728   2.754   6.073   2.103
 1943SOL    HW2 6729   2.684   5.929   2.133
 1944SOL     OW 6730   5.570   2.196   0.474
 1944SOL    HW1 6731   5.653   2.140   0.474
 1944SOL    HW2 6732   5.579   2.269   0.406
 1945SOL     OW 6733   3.628   5.685   2.629
 1945SOL    HW1 6734   3.647   5.772   2.676
 1945SOL    HW2 6735   3.529   5.674   2.619
 1946SOL     OW 6736   6.287   0.783   1.057
 1946SOL    HW1 6737   6.296   0.728   0.974
 1946SOL    HW2 6738   6.287   0.723   1.137
 1947SOL     OW 6739   4.666   6.502   4.193
 1947SOL    HW1 6740   4.692   6.453   4.110
 1947SOL    HW2 6741   4.748   6.533   4.241
 1948SOL     OW 6742   5.688   6.279   3.901
 1948SOL    HW1 6743   5.644   6.301   3.989
 1948SOL    HW2 6744   5.748   6.200   3.913
 1949SOL     OW 6745   4.195   4.648   6.502
 1949SOL    HW1 6746   4.285   4.616   6.472
 1949SOL    HW2 6747   4.187   4.637   6.601
 1950SOL     OW 6748   3.651   4.625   1.176
 1950SOL    HW1 6749   3.659   4.526   1.160
 1950SOL    HW2 6750   3.555   4.651   1.177
 1951SOL     OW 6751   5.763   4.074   0.333
 1951SOL    HW1 6752   5.709   4.105   0.412
 1951SOL    HW2 6753   5.776   4.150   0.270
 1952SOL     OW 6754   4.177   2.226   6.691
 1952SOL    HW1 6755   4.192   2.322   6.718
 1952SOL    HW2 6756   4.101   2.222   6.626
 1953SOL     OW 6757   6.007   3.179   6.993
 1953SOL    HW1 6758   5.960   3.091   6.989
 1953SOL    HW2 6759   6.070   3.179   0.044
 1954SOL     OW 6760   5.629   1.371   4.014
 1954SOL    HW1 6761   5.536   1.408   4.013
 1954SOL    HW2 6762   5.694   1.447   4.009
 1955SOL     OW 6763   1.655   0.753   2.635
 1955SOL    HW1 6764   1.603   0.828   2.594
 1955SOL    HW2 6765   1.748   0.753   2.597
 1956SOL     OW 6766   4.854   6.662   1.967
 1956SOL    HW1 6767   4.890   6.616   1.886
 1956SOL    HW2 6768   4.775   6.718   1.941
 1957SOL     OW 6769   6.458   6.048   4.998
 1957SOL    HW1 6770   6.521   6.018   4.927
 1957SOL    HW2 6771   6.391   5.977   5.016
 1958SOL     OW 6772   5.519   2.366   2.693
 1958SOL    HW1 6773   5.495   2.310   2.614
 1958SOL    HW2 6774   5.583   2.437   2.666
 1959SOL     OW 6775   0.984   1.297   5.185
 1959SOL    HW1 6776   1.032   1.273   5.270
 1959SOL    HW2 6777   0.910   1.360   5.206
 1960SOL     OW 6778   6.884   4.835   1.695
 1960SOL    HW1 6779   6.814   4.777   1.737
 1960SOL    HW2 6780   6.851   4.868   1.606
 1961SOL     OW 6781   5.731   4.724   4.494
 1961SOL    HW1 6782   5.823   4.702   4.529
 1961SOL    HW2 6783   5.667   4.726   4.570
 1962SOL     OW 6784   2.514   7.018   3.658
 1962SOL    HW1 6785   2.445   6.947   3.644
 1962SOL    HW2 6786   2.579   7.016   3.582
 1963SOL     OW 6787   1.034   1.259   1.880
 1963SOL    HW1 6788   1.112   1.233   1.824
 1963SOL    HW2 6789   1.051   1.235   1.976
 1964SOL     OW 6790   5.048   3.909   1.175
 1964SOL    HW1 6791   5.114   3.984   1.182
 1964SOL    HW2 6792   4.994   3.920   1.091
 1965SOL     OW 6793   1.103   3.514   4.441
 1965SOL    HW1 6794   1.109   3.612   4.460
 1965SOL    HW2 6795   1.011   3.482   4.462
 1966SOL     OW 6796   6.837   6.136   6.892
 1966SOL    HW1 6797   6.779   6.212   6.921
 1966SOL    HW2 6798   6.780   6.061   6.861
 1967SOL     OW 6799   4.749   2.352   4.551
 1967SOL    HW1 6800   4.693   2.407   4.614
 1967SOL    HW2 6801   4.808   2.413   4.497
 1968SOL     OW 6802   3.409   6.836   0.258
 1968SOL    HW1 6803   3.421   6.925   0.301
 1968SOL    HW2 6804   3.323   6.795   0.289
 1969SOL     OW 6805   0.879   1.511   1.860
 1969SOL    HW1 6806   0.933   1.428   1.848
 1969SOL    HW2 6807   0.846   1.542   1.771
 1970SOL     OW 6808   2.335   0.286   6.281
 1970SOL    HW1 6809   2.348   0.293   6.183
 1970SOL    HW2 6810   2.397   0.349   6.328
 1971SOL     OW 6811   0.216   0.043   5.901
 1971SOL    HW1 6812   0.296   7.014   5.875
 1971SOL    HW2 6813   0.156   0.054   5.821
 1972SOL     OW 6814   5.960   2.618   2.777
 1972SOL    HW1 6815   5.869   2.612   2.817
 1972SOL    HW2 6816   5.959   2.681   2.700
 1973SOL     OW 6817   2.541   2.711   0.631
 1973SOL    HW1 6818   2.512   2.789   0.686
 1973SOL    HW2 6819   2.565   2.742   0.539
 1974SOL     OW 6820   5.785   6.194   4.200
 1974SOL    HW1 6821   5.765   6.108   4.154
 1974SOL    HW2 6822   5.865   6.237   4.157
 1975SOL     OW 6823   2.153   1.662   3.588
 1975SOL    HW1 6824   2.221   1.703   3.529
 1975SOL    HW2 6825   2.187   1.661   3.682
 1976SOL     OW 6826   0.716   5.913   0.306
 1976SOL    HW1 6827   0.646   5.979   0.333
 1976SOL    HW2 6828   0.803   5.961   0.290
 1977SOL     OW 6829   0.749   3.385   4.044
 1977SOL    HW1 6830   0.828   3.406   4.101
 1977SOL    HW2 6831   0.683   3.332   4.097
 1978SOL     OW 6832   0.937   0.635   3.249
 1978SOL    HW1 6833   0.996   0.656   3.327
 1978SOL    HW2 6834   0.845   0.672   3.267
 1979SOL     OW 6835   5.952   4.499   5.647
 1979SOL    HW1 6836   5.976   4.560   5.571
 1979SOL    HW2 6837   6.001   4.413   5.637
 1980SOL     OW 6838   2.732   0.625   5.529
 1980SOL    HW1 6839   2.744   0.623   5.429
 1980SOL    HW2 6840   2.809   0.674   5.570
 1981SOL     OW 6841   6.581   2.155   2.399
 1981SOL    HW1 6842   6.530   2.200   2.472
 1981SOL    HW2 6843   6.562   2.057   2.399
 1982SOL     OW 6844   0.453   4.035   5.037
 1982SOL    HW1 6845   0.428   4.042   5.133
 1982SOL    HW2 6846   0.459   4.126   4.997
 1983SOL     OW 6847   0.945   1.320   2.543
 1983SOL    HW1 6848   0.908   1.408   2.573
 1983SOL    HW2 6849   1.036   1.334   2.505
 1984SOL     OW 6850   6.414   2.447   5.116
 1984SOL    HW1 6851   6.461   2.359   5.112
 1984SOL    HW2 6852   6.425   2.487   5.207
 1985SOL     OW 6853   1.375   6.303   2.772
 1985SOL    HW1 6854   1.323   6.355   2.704
 1985SOL    HW2 6855   1.469   6.338   2.775
 1986SOL     OW 6856   1.425   0.710   0.174
 1986SOL    HW1 6857   1.406   0.716   0.272
 1986SOL    HW2 6858   1.494   0.778   0.149
 1987SOL     OW 6859   1.473   2.714   1.765
 1987SOL    HW1 6860   1.408   2.790   1.762
 1987SOL    HW2 6861   1.458   2.660   1.848
 1988SOL     OW 6862   5.990   4.408   1.006
 1988SOL    HW1 6863   6.002   4.309   1.009
 1988SOL    HW2 6864   5.901   4.432   1.044
 1989SOL     OW 6865   2.521   6.747   4.390
 1989SOL    HW1 6866   2.457   6.700   4.449
 1989SOL    HW2 6867   2.488   6.746   4.296
 1990SOL     OW 6868   3.094   6.388   0.197
 1990SOL    HW1 6869   3.167   6.335   0.239
 1990SOL    HW2 6870   3.115   6.404   0.101
 1991SOL     OW 6871   4.251   4.324   6.399
 1991SOL    HW1 6872   4.172   4.323   6.337
 1991SOL    HW2 6873   4.312   4.400   6.373
 1992SOL     OW 6874   0.701   0.456   6.965
 1992SOL    HW1 6875   0.663   0.373   6.925
 1992SOL    HW2 6876   0.765   0.433   0.011
 1993SOL     OW 6877   4.055   3.241   4.621
 1993SOL    HW1 6878   3.999   3.171   4.664
 1993SOL    HW2 6879   4.088   3.305   4.691
 1994SOL     OW 6880   0.893   1.020   0.184
 1994SOL    HW1 6881   0.920   1.090   0.117
 1994SOL    HW2 6882   0.888   1.061   0.275
 1995SOL     OW 6883   5.440   2.618   2.945
 1995SOL    HW1 6884   5.419   2.544   2.882
 1995SOL    HW2 6885   5.385   2.608   3.028
 1996SOL     OW 6886   2.151   3.413   0.577
 1996SOL    HW1 6887   2.145   3.481   0.650
 1996SOL    HW2 6888   2.131   3.456   0.489
 1997SOL     OW 6889   4.152   0.929   4.770
 1997SOL    HW1 6890   4.167   0.839   4.812
 1997SOL    HW2 6891   4.126   0.916   4.674
 1998SOL     OW 6892   3.112   3.981   6.266
 1998SOL    HW1 6893   3.046   3.948   6.199
 1998SOL    HW2 6894   3.193   4.016   6.219
 1999SOL     OW 6895   3.279   6.332   1.479
 1999SOL    HW1 6896   3.370   6.374   1.487
 1999SOL    HW2 6897   3.218   6.394   1.429
 2000SOL     OW 6898   4.513   2.191   5.164
 2000SOL    HW1 6899   4.596   2.236   5.131
 2000SOL    HW2 6900   4.510   2.097   5.130
 2001SOL     OW 6901   2.812   1.096   1.513
 2001SOL    HW1 6902   2.909   1.108   1.536
 2001SOL    HW2 6903   2.785   1.167   1.448
 2002SOL     OW 6904   0.851   4.423   6.475
 2002SOL    HW1 6905   0.859   4.385   6.383
 2002SOL    HW2 6906   0.826   4.351   6.539
 2003SOL     OW 6907   5.989   6.277   3.284
 2003SOL    HW1 6908   6.038   6.361   3.264
 2003SOL    HW2 6909   5.984   6.220   3.201
 2004SOL     OW 6910   4.827   1.364   5.483
 2004SOL    HW1 6911   4.813   1.391   5.578
 2004SOL    HW2 6912   4.746   1.389   5.430
 2005SOL     OW 6913   0.809   4.916   0.076
 2005SOL    HW1 6914   0.821   4.843   0.009
 2005SOL    HW2 6915   0.714   4.916   0.109
 2006SOL     OW 6916   4.990   5.515   4.066
 2006SOL    HW1 6917   4.987   5.463   4.152
 2006SOL    HW2 6918   5.066   5.579   4.069
 2007SOL     OW 6919   4.466   4.918   1.002
 2007SOL    HW1 6920   4.423   5.007   0.986
 2007SOL    HW2 6921   4.413   4.847   0.956
 2008SOL     OW 6922   2.170   5.068   2.930
 2008SOL    HW1 6923   2.225   5.105   3.005
 2008SOL    HW2 6924   2.094   5.131   2.910
 2009SOL     OW 6925   6.029   0.265   2.518
 2009SOL    HW1 6926   6.004   0.207   2.440
 2009SOL    HW2 6927   6.015   0.214   2.603
 2010SOL     OW 6928   1.902   1.673   1.052
 2010SOL    HW1 6929   1.991   1.634   1.028
 2010SOL    HW2 6930   1.897   1.767   1.019
 2011SOL     OW 6931   6.777   1.391   4.589
 2011SOL    HW1 6932   6.740   1.299   4.571
 2011SOL    HW2 6933   6.703   1.458   4.580
 2012SOL     OW 6934   1.783   3.037   2.041
 2012SOL    HW1 6935   1.838   2.953   2.050
 2012SOL    HW2 6936   1.816   3.091   1.964
 2013SOL     OW 6937   6.347   2.032   3.354
 2013SOL    HW1 6938   6.277   2.048   3.424
 2013SOL    HW2 6939   6.327   2.088   3.273
 2014SOL     OW 6940   2.032   4.869   3.118
 2014SOL    HW1 6941   2.045   4.780   3.073
 2014SOL    HW2 6942   2.038   4.942   3.049
 2015SOL     OW 6943   1.748   1.445   0.323
 2015SOL    HW1 6944   1.673   1.382   0.343
 2015SOL    HW2 6945   1.798   1.464   0.408
 2016SOL     OW 6946   0.811   5.994   4.541
 2016SOL    HW1 6947   0.834   5.936   4.463
 2016SOL    HW2 6948   0.886   5.991   4.608
 2017SOL     OW 6949   2.723   7.024   4.772
 2017SOL    HW1 6950   2.751   6.946   4.829
 2017SOL    HW2 6951   2.792   0.070   4.779
 2018SOL     OW 6952   5.570   6.895   5.714
 2018SOL    HW1 6953   5.610   6.872   5.802
 2018SOL    HW2 6954   5.478   6.932   5.727
 2019SOL     OW 6955   5.424   2.260   1.607
 2019SOL    HW1 6956   5.334   2.242   1.648
 2019SOL    HW2 6957   5.411   2.302   1.517
 2020SOL     OW 6958   0.968   6.170   4.941
 2020SOL    HW1 6959   0.875   6.200   4.921
 2020SOL    HW2 6960   1.018   6.243   4.987
 2021SOL     OW 6961   2.125   5.439   3.246
 2021SOL    HW1 6962   2.170   5.425   3.334
 2021SOL    HW2 6963   2.083   5.530   3.244
 2022SOL     OW 6964   1.869   3.720   3.520
 2022SOL    HW1 6965   1.883   3.676   3.432
 2022SOL    HW2 6966   1.776   3.758   3.524
 2023SOL     OW 6967   6.293   0.775   6.236
 2023SOL    HW1 6968   6.261   0.698   6.181
 2023SOL    HW2 6969   6.265   0.762   6.331
 2024SOL     OW 6970   0.156   6.891   3.368
 2024SOL    HW1 6971   0.236   6.879   3.428
 2024SOL    HW2 6972   0.139   6.988   3.353
 2025SOL     OW 6973   2.786   2.293   2.889
 2025SOL    HW1 6974   2.779   2.228   2.965
 2025SOL    HW2 6975   2.773   2.386   2.924
 2026SOL     OW 6976   0.182   3.063   6.267
 2026SOL    HW1 6977   0.144   3.148   6.305
 2026SOL    HW2 6978   0.124   3.030   6.193
 2027SOL     OW 6979   0.585   0.443   0.415
 2027SOL    HW1 6980   0.626   0.355   0.391
 2027SOL    HW2 6981   0.491   0.428   0.446
 2028SOL     OW 6982   2.819   0.627   5.264
 2028SOL    HW1 6983   2.881   0.688   5.216
 2028SOL    HW2 6984   2.750   0.592   5.200
 2029SOL     OW 6985   6.425   0.390   1.429
 2029SOL    HW1 6986   6.350   0.327   1.409
 2029SOL    HW2 6987   6.465   0.423   1.344
 2030SOL     OW 6988   2.644   0.667   2.936
 2030SOL    HW1 6989   2.655   0.748   2.993
 2030SOL    HW2 6990   2.693   0.590   2.977
 2031SOL     OW 6991   6.446   6.278   2.025
 2031SOL    HW1 6992   6.519   6.243   1.967
 2031SOL    HW2 6993   6.469   6.264   2.121
 2032SOL     OW 6994   5.034   6.269   1.754
 2032SOL    HW1 6995   5.047   6.368   1.753
 2032SOL    HW2 6996   5.042   6.233   1.661
 2033SOL     OW 6997   3.929   3.968   6.864
 2033SOL    HW1 6998   3.940   3.884   6.811
 2033SOL    HW2 6999   4.020   4.007   6.883
 2034SOL     OW 7000   3.024   6.733   5.235
 2034SOL    HW1 7001   3.074   6.734   5.149
 2034SOL    HW2 7002   2.947   6.669   5.228
 2035SOL     OW 7003   6.977   0.436   2.143
 2035SOL    HW1 7004   6.990   0.535   2.154
 2035SOL    HW2 7005   7.016   0.408   2.055
 2036SOL     OW 7006   1.376   5.273   2.635
 2036SOL    HW1 7007   1.359   5.215   2.715
 2036SOL    HW2 7008   1.462   5.246   2.592
 2037SOL     OW 7009   6.801   3.097   5.447
 2037SOL    HW1 7010   6.819   3.051   5.360
 2037SOL    HW2 7011   6.830   3.192   5.441
 2038SOL     OW 7012   1.041   1.896   6.538
 2038SOL    HW1 7013   1.034   1.983   6.587
 2038SOL    HW2 7014   1.016   1.910   6.442
 2039SOL     OW 7015   1.352   5.846   3.203
 2039SOL    HW1 7016   1.311   5.863   3.113
 2039SOL    HW2 7017   1.351   5.930   3.257
 2040SOL     OW 7018   3.505   2.932   4.540
 2040SOL    HW1 7019   3.417   2.949   4.586
 2040SOL    HW2 7020   3.572   2.902   4.607
 2041SOL     OW 7021   0.478   5.929   5.456
 2041SOL    HW1 7022   0.430   5.858   5.508
 2041SOL    HW2 7023   0.575   5.930   5.482
 2042SOL     OW 7024   5.072   4.614   6.634
 2042SOL    HW1 7025   5.167   4.609   6.603
 2042SOL    HW2 7026   5.043   4.710   6.637
 2043SOL     OW 7027   6.088   3.624   3.477
 2043SOL    HW1 7028   6.154   3.655   3.545
 2043SOL    HW2 7029   6.114   3.660   3.387
 2044SOL     OW 7030   5.101   6.854   1.687
 2044SOL    HW1 7031   5.196   6.878   1.666
 2044SOL    HW2 7032   5.048   6.851   1.603
 2045SOL     OW 7033   3.315   4.888   3.791
 2045SOL    HW1 7034   3.359   4.810   3.835
 2045SOL    HW2 7035   3.299   4.960   3.859
 2046SOL     OW 7036   6.464   1.798   3.677
 2046SOL    HW1 7037   6.518   1.879   3.701
 2046SOL    HW2 7038   6.443   1.799   3.580
 2047SOL     OW 7039   5.986   2.555   6.924
 2047SOL    HW1 7040   6.081   2.581   6.907
 2047SOL    HW2 7041   5.926   2.608   6.864
 2048SOL     OW 7042   1.585   6.230   0.153
 2048SOL    HW1 7043   1.644   6.282   0.215
 2048SOL    HW2 7044   1.525   6.171   0.206
 2049SOL     OW 7045   5.423   1.923   6.080
 2049SOL    HW1 7046   5.512   1.879   6.069
 2049SOL    HW2 7047   5.435   2.010   6.129
 2050SOL     OW 7048   0.666   3.107   3.109
 2050SOL    HW1 7049   0.686   3.186   3.167
 2050SOL    HW2 7050   0.638   3.029   3.165
 2051SOL     OW 7051   1.225   5.797   1.120
 2051SOL    HW1 7052   1.248   5.879   1.173
 2051SOL    HW2 7053   1.130   5.773   1.135
 2052SOL     OW 7054   1.310   3.786   0.837
 2052SOL    HW1 7055   1.276   3.715   0.776
 2052SOL    HW2 7056   1.255   3.869   0.826
 2053SOL     OW 7057   6.095   6.606   4.762
 2053SOL    HW1 7058   6.058   6.699   4.764
 2053SOL    HW2 7059   6.019   6.541   4.760
 2054SOL     OW 7060   3.461   3.487   2.488
 2054SOL    HW1 7061   3.440   3.538   2.571
 2054SOL    HW2 7062   3.431   3.393   2.498
 2055SOL     OW 7063   5.750   3.556   3.407
 2055SOL    HW1 7064   5.791   3.603   3.485
 2055SOL    HW2 7065   5.730   3.623   3.335
 2056SOL     OW 7066   2.825   6.631   2.563
 2056SOL    HW1 7067   2.770   6.704   2.523
 2056SOL    HW2 7068   2.856   6.569   2.491
 2057SOL     OW 7069   5.421   3.635   5.017
 2057SOL    HW1 7070   5.331   3.640   5.059
 2057SOL    HW2 7071   5.456   3.541   5.025
 2058SOL     OW 7072   0.794   1.366   3.375
 2058SOL    HW1 7073   0.751   1.447   3.415
 2058SOL    HW2 7074   0.723   1.299   3.351
 2059SOL     OW 7075   2.363   5.890   6.639
 2059SOL    HW1 7076   2.441   5.837   6.606
 2059SOL    HW2 7077   2.393   5.952   6.711
 2060SOL     OW 7078   0.005   3.811   0.836
 2060SOL    HW1 7079   0.034   3.811   0.740
 2060SOL    HW2 7080   6.933   3.789   0.841
 2061SOL     OW 7081   0.125   1.590   3.581
 2061SOL    HW1 7082   0.142   1.629   3.671
 2061SOL    HW2 7083   0.027   1.570   3.571
 2062SOL     OW 7084   6.347   0.286   3.873
 2062SOL    HW1 7085   6.307   0.228   3.944
 2062SOL    HW2 7086   6.280   0.302   3.801
 2063SOL     OW 7087   2.026   6.895   6.150
 2063SOL    HW1 7088   2.001   6.813   6.200
 2063SOL    HW2 7089   2.048   6.969   6.215
 2064SOL     OW 7090   0.656   2.394   5.439
 2064SOL    HW1 7091   0.598   2.379   5.359
 2064SOL    HW2 7092   0.624   2.337   5.515
 2065SOL     OW 7093   0.050   2.592   5.007
 2065SOL    HW1 7094   6.980   2.612   5.025
 2065SOL    HW2 7095   0.056   2.527   4.930
 2066SOL     OW 7096   0.864   4.936   3.497
 2066SOL    HW1 7097   0.903   4.999   3.429
 2066SOL    HW2 7098   0.765   4.946   3.498
 2067SOL     OW 7099   6.496   5.409   1.038
 2067SOL    HW1 7100   6.588   5.434   1.068
 2067SOL    HW2 7101   6.436   5.399   1.118
 2068SOL     OW 7102   1.890   1.193   4.908
 2068SOL    HW1 7103   1.988   1.176   4.900
 2068SOL    HW2 7104   1.840   1.114   4.872
 2069SOL     OW 7105   0.571   2.905   3.265
 2069SOL    HW1 7106   0.631   2.842   3.314
 2069SOL    HW2 7107   0.496   2.854   3.223
 2070SOL     OW 7108   1.260   0.825   2.239
 2070SOL    HW1 7109   1.291   0.818   2.333
 2070SOL    HW2 7110   1.279   0.740   2.190
 2071SOL     OW 7111   6.495   6.297   5.894
 2071SOL    HW1 7112   6.577   6.295   5.952
 2071SOL    HW2 7113   6.429   6.229   5.926
 2072SOL     OW 7114   4.089   6.281   3.743
 2072SOL    HW1 7115   4.014   6.218   3.725
 2072SOL    HW2 7116   4.054   6.362   3.792
 2073SOL     OW 7117   4.081   0.392   4.500
 2073SOL    HW1 7118   4.000   0.344   4.535
 2073SOL    HW2 7119   4.163   0.353   4.541
 2074SOL     OW 7120   1.480   2.390   0.439
 2074SOL    HW1 7121   1.501   2.482   0.473
 2074SOL    HW2 7122   1.520   2.379   0.347
 2075SOL     OW 7123   5.860   3.073   1.970
 2075SOL    HW1 7124   5.930   3.081   1.899
 2075SOL    HW2 7125   5.902   3.089   2.060
 2076SOL     OW 7126   5.915   0.309   0.114
 2076SOL    HW1 7127   5.980   0.371   0.158
 2076SOL    HW2 7128   5.884   0.241   0.181
 2077SOL     OW 7129   5.236   2.979   2.716
 2077SOL    HW1 7130   5.314   2.918   2.702
 2077SOL    HW2 7131   5.199   2.965   2.808
 2078SOL     OW 7132   1.137   5.784   5.477
 2078SOL    HW1 7133   1.199   5.806   5.403
 2078SOL    HW2 7134   1.103   5.868   5.519
 2079SOL     OW 7135   5.525   1.971   3.755
 2079SOL    HW1 7136   5.430   1.943   3.739
 2079SOL    HW2 7137   5.529   2.069   3.771
 2080SOL     OW 7138   1.633   0.330   4.951
 2080SOL    HW1 7139   1.679   0.277   4.879
 2080SOL    HW2 7140   1.598   0.268   5.021
 2081SOL     OW 7141   1.762   5.352   4.504
 2081SOL    HW1 7142   1.699   5.325   4.431
 2081SOL    HW2 7143   1.842   5.397   4.465
 2082SOL     OW 7144   0.790   0.436   2.924
 2082SOL    HW1 7145   0.881   0.473   2.942
 2082SOL    HW2 7146   0.730   0.456   3.001
 2083SOL     OW 7147   6.548   5.310   6.205
 2083SOL    HW1 7148   6.583   5.311   6.299
 2083SOL    HW2 7149   6.623   5.285   6.143
 2084SOL     OW 7150   1.388   3.848   3.674
 2084SOL    HW1 7151   1.352   3.923   3.729
 2084SOL    HW2 7152   1.312   3.795   3.636
 2085SOL     OW 7153   4.479   0.508   6.974
 2085SOL    HW1 7154   4.535   0.573   6.922
 2085SOL    HW2 7155   4.383   0.536   6.970
 2086SOL     OW 7156   4.358   6.745   5.644
 2086SOL    HW1 7157   4.305   6.830   5.638
 2086SOL    HW2 7158   4.303   6.669   5.611
 2087SOL     OW 7159   5.296   0.280   0.839
 2087SOL    HW1 7160   5.197   0.293   0.843
 2087SOL    HW2 7161   5.323   0.255   0.746
 2088SOL     OW 7162   1.551   5.775   0.026
 2088SOL    HW1 7163   1.575   5.726   6.968
 2088SOL    HW2 7164   1.573   5.718   0.106
 2089SOL     OW 7165   5.328   2.041   6.734
 2089SOL    HW1 7166   5.336   1.944   6.755
 2089SOL    HW2 7167   5.242   2.058   6.686
 2090SOL     OW 7168   3.901   2.387   5.908
 2090SOL    HW1 7169   3.954   2.438   5.976
 2090SOL    HW2 7170   3.810   2.368   5.945
 2091SOL     OW 7171   0.051   5.535   0.005
 2091SOL    HW1 7172   0.089   5.458   0.058
 2091SOL    HW2 7173   0.064   5.518   6.933
 2092SOL     OW 7174   5.450   3.730   0.217
 2092SOL    HW1 7175   5.516   3.787   0.170
 2092SOL    HW2 7176   5.381   3.787   0.262
 2093SOL     OW 7177   2.343   2.117   1.354
 2093SOL    HW1 7178   2.441   2.120   1.374
 2093SOL    HW2 7179   2.293   2.091   1.436
 2094SOL     OW 7180   5.699   1.743   1.756
 2094SOL    HW1 7181   5.772   1.677   1.738
 2094SOL    HW2 7182   5.737   1.835   1.760
 2095SOL     OW 7183   5.866   0.177   5.176
 2095SOL    HW1 7184   5.908   0.229   5.250
 2095SOL    HW2 7185   5.782   0.223   5.146
 2096SOL     OW 7186   4.827   3.864   2.796
 2096SOL    HW1 7187   4.901   3.812   2.753
 2096SOL    HW2 7188   4.817   3.836   2.892
 2097SOL     OW 7189   2.981   3.633   6.538
 2097SOL    HW1 7190   3.003   3.728   6.561
 2097SOL    HW2 7191   3.019   3.611   6.448
 2098SOL     OW 7192   3.894   5.618   1.812
 2098SOL    HW1 7193   3.841   5.684   1.866
 2098SOL    HW2 7194   3.860   5.526   1.830
 2099SOL     OW 7195   3.088   2.694   6.117
 2099SOL    HW1 7196   3.132   2.641   6.044
 2099SOL    HW2 7197   3.156   2.749   6.164
 2100SOL     OW 7198   4.836   2.350   6.682
 2100SOL    HW1 7199   4.927   2.347   6.724
 2100SOL    HW2 7200   4.811   2.258   6.651
 2101SOL     OW 7201   1.179   6.483   2.021
 2101SOL    HW1 7202   1.194   6.391   2.055
 2101SOL    HW2 7203   1.102   6.525   2.070
 2102SOL     OW 7204   5.934   4.443   3.200
 2102SOL    HW1 7205   5.958   4.346   3.202
 2102SOL    HW2 7206   5.838   4.453   3.176
 2103SOL     OW 7207   4.184   4.270   5.838
 2103SOL    HW1 7208   4.176   4.187   5.783
 2103SOL    HW2 7209   4.152   4.251   5.932
 2104SOL     OW 7210   2.062   4.383   1.376
 2104SOL    HW1 7211   2.029   4.294   1.407
 2104SOL    HW2 7212   2.150   4.371   1.329
 2105SOL     OW 7213   5.085   6.327   5.330
 2105SOL    HW1 7214   5.145   6.398   5.369
 2105SOL    HW2 7215   5.130   6.285   5.251
 2106SOL     OW 7216   4.958   4.180   1.370
 2106SOL    HW1 7217   5.007   4.178   1.283
 2106SOL    HW2 7218   4.941   4.086   1.400
 2107SOL     OW 7219   4.656   2.912   5.588
 2107SOL    HW1 7220   4.684   3.007   5.600
 2107SOL    HW2 7221   4.653   2.867   5.677
 2108SOL     OW 7222   6.034   5.739   5.224
 2108SOL    HW1 7223   6.069   5.646   5.207
 2108SOL    HW2 7224   5.956   5.735   5.286
 2109SOL     OW 7225   4.235   6.223   2.325
 2109SOL    HW1 7226   4.144   6.237   2.287
 2109SOL    HW2 7227   4.244   6.272   2.411
 2110SOL     OW 7228   1.906   1.520   0.564
 2110SOL    HW1 7229   1.833   1.581   0.592
 2110SOL    HW2 7230   1.988   1.539   0.618
 2111SOL     OW 7231   1.881   2.720   6.587
 2111SOL    HW1 7232   1.790   2.754   6.564
 2111SOL    HW2 7233   1.886   2.700   6.685
 2112SOL     OW 7234   5.670   3.405   0.740
 2112SOL    HW1 7235   5.741   3.371   0.802
 2112SOL    HW2 7236   5.677   3.505   0.733
 2113SOL     OW 7237   2.569   2.101   5.152
 2113SOL    HW1 7238   2.600   2.196   5.162
 2113SOL    HW2 7239   2.515   2.093   5.068
 2114SOL     OW 7240   1.791   2.111   6.612
 2114SOL    HW1 7241   1.824   2.073   6.698
 2114SOL    HW2 7242   1.868   2.145   6.559
 2115SOL     OW 7243   2.163   3.608   3.033
 2115SOL    HW1 7244   2.145   3.593   3.130
 2115SOL    HW2 7245   2.151   3.522   2.983
 2116SOL     OW 7246   0.954   5.377   2.803
 2116SOL    HW1 7247   0.968   5.285   2.765
 2116SOL    HW2 7248   0.924   5.369   2.899
 2117SOL     OW 7249   6.938   5.147   1.740
 2117SOL    HW1 7250   6.882   5.069   1.768
 2117SOL    HW2 7251   7.012   5.160   1.806
 2118SOL     OW 7252   6.502   3.168   2.491
 2118SOL    HW1 7253   6.577   3.234   2.496
 2118SOL    HW2 7254   6.535   3.083   2.451
 2119SOL     OW 7255   1.580   0.112   1.217
 2119SOL    HW1 7256   1.578   0.180   1.144
 2119SOL    HW2 7257   1.652   0.135   1.282
 2120SOL     OW 7258   6.912   5.107   3.442
 2120SOL    HW1 7259   6.865   5.036   3.391
 2120SOL    HW2 7260   6.979   5.066   3.504
 2121SOL     OW 7261   1.259   4.130   5.736
 2121SOL    HW1 7262   1.351   4.105   5.766
 2121SOL    HW2 7263   1.195   4.057   5.761
 2122SOL     OW 7264   5.774   4.193   5.727
 2122SOL    HW1 7265   5.693   4.251   5.716
 2122SOL    HW2 7266   5.764   4.136   5.808
 2123SOL     OW 7267   6.919   5.877   2.177
 2123SOL    HW1 7268   6.926   5.799   2.238
 2123SOL    HW2 7269   6.826   5.915   2.182
 2124SOL     OW 7270   3.236   2.194   1.053
 2124SOL    HW1 7271   3.283   2.202   0.965
 2124SOL    HW2 7272   3.303   2.198   1.127
 2125SOL     OW 7273   2.174   0.303   2.075
 2125SOL    HW1 7274   2.158   0.322   2.172
 2125SOL    HW2 7275   2.237   0.372   2.038
 2126SOL     OW 7276   3.512   1.844   6.096
 2126SOL    HW1 7277   3.571   1.821   6.173
 2126SOL    HW2 7278   3.558   1.818   6.011
 2127SOL     OW 7279   0.658   3.088   5.403
 2127SOL    HW1 7280   0.561   3.099   5.423
 2127SOL    HW2 7281   0.712   3.145   5.466
 2128SOL     OW 7282   6.136   3.611   4.115
 2128SOL    HW1 7283   6.168   3.702   4.091
 2128SOL    HW2 7284   6.054   3.589   4.061
 2129SOL     OW 7285   4.435   3.143   5.401
 2129SOL    HW1 7286   4.346   3.102   5.383
 2129SOL    HW2 7287   4.426   3.209   5.477
 2130SOL     OW 7288   3.477   0.015   2.549
 2130SOL    HW1 7289   3.502   7.004   2.639
 2130SOL    HW2 7290   3.381   0.045   2.551
 2131SOL     OW 7291   5.070   1.364   0.537
 2131SOL    HW1 7292   5.060   1.370   0.438
 2131SOL    HW2 7293   5.167   1.367   0.561
 2132SOL     OW 7294   3.397   0.174   1.499
 2132SOL    HW1 7295   3.345   0.234   1.439
 2132SOL    HW2 7296   3.338   0.100   1.531
 2133SOL     OW 7297   3.303   2.709   0.249
 2133SOL    HW1 7298   3.228   2.774   0.241
 2133SOL    HW2 7299   3.382   2.742   0.197
 2134SOL     OW 7300   0.318   0.845   6.121
 2134SOL    HW1 7301   0.361   0.799   6.199
 2134SOL    HW2 7302   0.280   0.933   6.152
 2135SOL     OW 7303   1.248   3.641   5.294
 2135SOL    HW1 7304   1.215   3.549   5.273
 2135SOL    HW2 7305   1.338   3.655   5.251
 2136SOL     OW 7306   0.707   3.964   3.774
 2136SOL    HW1 7307   0.632   3.973   3.839
 2136SOL    HW2 7308   0.771   4.040   3.786
 2137SOL     OW 7309   2.479   5.340   4.640
 2137SOL    HW1 7310   2.447   5.264   4.697
 2137SOL    HW2 7311   2.512   5.414   4.699
 2138SOL     OW 7312   6.627   0.378   2.858
 2138SOL    HW1 7313   6.559   0.370   2.785
 2138SOL    HW2 7314   6.675   0.465   2.849
 2139SOL     OW 7315   3.597   0.700   3.258
 2139SOL    HW1 7316   3.542   0.730   3.335
 2139SOL    HW2 7317   3.637   0.779   3.213
 2140SOL     OW 7318   4.110   6.797   4.032
 2140SOL    HW1 7319   4.042   6.853   4.078
 2140SOL    HW2 7320   4.156   6.852   3.961
 2141SOL     OW 7321   6.238   3.867   2.531
 2141SOL    HW1 7322   6.273   3.818   2.452
 2141SOL    HW2 7323   6.172   3.809   2.579
 2142SOL     OW 7324   1.901   2.617   3.171
 2142SOL    HW1 7325   1.864   2.562   3.096
 2142SOL    HW2 7326   1.889   2.714   3.150
 2143SOL     OW 7327   2.684   4.468   1.343
 2143SOL    HW1 7328   2.600   4.442   1.390
 2143SOL    HW2 7329   2.668   4.469   1.244
 2144SOL     OW 7330   1.508   5.432   4.580
 2144SOL    HW1 7331   1.448   5.362   4.619
 2144SOL    HW2 7332   1.603   5.402   4.588
 2145SOL     OW 7333   4.503   6.290   4.295
 2145SOL    HW1 7334   4.534   6.363   4.234
 2145SOL    HW2 7335   4.580   6.228   4.315
 2146SOL     OW 7336   2.616   3.490   1.766
 2146SOL    HW1 7337   2.682   3.467   1.837
 2146SOL    HW2 7338   2.523   3.486   1.804
 2147SOL     OW 7339   6.277   1.791   6.106
 2147SOL    HW1 7340   6.318   1.714   6.154
 2147SOL    HW2 7341   6.184   1.767   6.078
 2148SOL     OW 7342   5.678   2.666   5.353
 2148SOL    HW1 7343   5.590   2.702   5.384
 2148SOL    HW2 7344   5.670   2.568   5.336
 2149SOL     OW 7345   3.747   2.292   1.146
 2149SOL    HW1 7346   3.750   2.236   1.229
 2149SOL    HW2 7347   3.709   2.382   1.168
 2150SOL     OW 7348   2.643   2.131   2.710
 2150SOL    HW1 7349   2.544   2.141   2.702
 2150SOL    HW2 7350   2.682   2.213   2.751
 2151SOL     OW 7351   1.449   0.133   4.846
 2151SOL    HW1 7352   1.497   0.084   4.919
 2151SOL    HW2 7353   1.488   0.107   4.758
 2152SOL     OW 7354   3.493   5.860   1.424
 2152SOL    HW1 7355   3.471   5.799   1.501
 2152SOL    HW2 7356   3.527   5.806   1.347
 2153SOL     OW 7357   3.662   0.756   2.875
 2153SOL    HW1 7358   3.574   0.751   2.828
 2153SOL    HW2 7359   3.678   0.849   2.908
 2154SOL     OW 7360   5.059   0.343   5.248
 2154SOL    HW1 7361   5.012   0.386   5.171
 2154SOL    HW2 7362   4.996   0.335   5.326
 2155SOL     OW 7363   2.682   5.664   0.023
 2155SOL    HW1 7364   2.586   5.680   7.024
 2155SOL    HW2 7365   2.710   5.573   7.018
 2156SOL     OW 7366   2.042   1.574   5.114
 2156SOL    HW1 7367   1.980   1.496   5.117
 2156SOL    HW2 7368   2.032   1.629   5.197
 2157SOL     OW 7369   6.266   0.822   3.241
 2157SOL    HW1 7370   6.290   0.894   3.176
 2157SOL    HW2 7371   6.193   0.854   3.300
 2158SOL     OW 7372   3.874   5.948   1.200
 2158SOL    HW1 7373   3.929   5.958   1.118
 2158SOL    HW2 7374   3.792   5.895   1.180
 2159SOL     OW 7375   1.600   6.454   4.979
 2159SOL    HW1 7376   1.665   6.439   4.904
 2159SOL    HW2 7377   1.599   6.374   5.039
 2160SOL     OW 7378   3.863   3.887   0.422
 2160SOL    HW1 7379   3.848   3.983   0.396
 2160SOL    HW2 7380   3.784   3.832   0.394
 2161SOL     OW 7381   5.205   5.198   2.853
 2161SOL    HW1 7382   5.271   5.273   2.853
 2161SOL    HW2 7383   5.116   5.232   2.882
 2162SOL     OW 7384   2.195   1.146   1.900
 2162SOL    HW1 7385   2.257   1.191   1.965
 2162SOL    HW2 7386   2.106   1.190   1.904
 2163SOL     OW 7387   1.031   4.786   6.163
 2163SOL    HW1 7388   1.109   4.836   6.127
 2163SOL    HW2 7389   1.052   4.753   6.256
 2164SOL     OW 7390   1.618   2.810   0.094
 2164SOL    HW1 7391   1.541   2.842   0.038
 2164SOL    HW2 7392   1.659   2.888   0.142
 2165SOL     OW 7393   0.806   2.010   2.847
 2165SOL    HW1 7394   0.857   1.979   2.928
 2165SOL    HW2 7395   0.802   1.936   2.780
 2166SOL     OW 7396   1.658   2.452   5.247
 2166SOL    HW1 7397   1.651   2.466   5.148
 2166SOL    HW2 7398   1.643   2.539   5.294
 2167SOL     OW 7399   2.034   1.432   4.000
 2167SOL    HW1 7400   1.962   1.492   3.964
 2167SOL    HW2 7401   2.005   1.337   3.992
 2168SOL     OW 7402   0.599   2.046   3.836
 2168SOL    HW1 7403   0.564   2.011   3.923
 2168SOL    HW2 7404   0.699   2.036   3.834
 2169SOL     OW 7405   5.251   0.976   6.826
 2169SOL    HW1 7406   5.256   0.939   6.918
 2169SOL    HW2 7407   5.270   1.074   6.829
 2170SOL     OW 7408   6.884   5.098   5.611
 2170SOL    HW1 7409   6.922   5.006   5.599
 2170SOL    HW2 7410   6.867   5.139   5.521
 2171SOL     OW 7411   0.303   4.687   1.613
 2171SOL    HW1 7412   0.230   4.620   1.598
 2171SOL    HW2 7413   0.383   4.661   1.559
 2172SOL     OW 7414   2.277   2.645   0.439
 2172SOL    HW1 7415   2.262   2.684   0.348
 2172SOL    HW2 7416   2.298   2.548   0.431
 2173SOL     OW 7417   3.812   0.788   5.656
 2173SOL    HW1 7418   3.759   0.765   5.575
 2173SOL    HW2 7419   3.901   0.825   5.628
 2174SOL     OW 7420   5.559   6.462   5.156
 2174SOL    HW1 7421   5.492   6.388   5.145
 2174SOL    HW2 7422   5.651   6.425   5.144
 2175SOL     OW 7423   2.339   2.750   4.356
 2175SOL    HW1 7424   2.381   2.840   4.343
 2175SOL    HW2 7425   2.267   2.757   4.425
 2176SOL     OW 7426   6.945   1.967   0.541
 2176SOL    HW1 7427   6.879   1.896   0.515
 2176SOL    HW2 7428   6.907   2.057   0.521
 2177SOL     OW 7429   6.042   1.926   3.245
 2177SOL    HW1 7430   6.108   1.853   3.259
 2177SOL    HW2 7431   5.951   1.887   3.227
 2178SOL     OW 7432   1.709   2.172   0.891
 2178SOL    HW1 7433   1.698   2.187   0.793
 2178SOL    HW2 7434   1.643   2.103   0.922
 2179SOL     OW 7435   2.181   5.249   5.158
 2179SOL    HW1 7436   2.169   5.150   5.149
 2179SOL    HW2 7437   2.134   5.295   5.083
 2180SOL     OW 7438   1.838   2.742   2.072
 2180SOL    HW1 7439   1.810   2.676   2.003
 2180SOL    HW2 7440   1.936   2.733   2.089
 2181SOL     OW 7441   4.182   4.894   4.543
 2181SOL    HW1 7442   4.193   4.843   4.458
 2181SOL    HW2 7443   4.267   4.942   4.565
 2182SOL     OW 7444   1.239   3.444   4.228
 2182SOL    HW1 7445   1.307   3.516   4.243
 2182SOL    HW2 7446   1.163   3.455   4.292
 2183SOL     OW 7447   2.655   3.914   6.027
 2183SOL    HW1 7448   2.661   3.964   5.941
 2183SOL    HW2 7449   2.623   3.976   6.099
 2184SOL     OW 7450   4.706   1.863   6.801
 2184SOL    HW1 7451   4.690   1.840   6.897
 2184SOL    HW2 7452   4.760   1.791   6.758
 2185SOL     OW 7453   0.881   1.657   0.903
 2185SOL    HW1 7454   0.861   1.624   0.996
 2185SOL    HW2 7455   0.972   1.627   0.875
 2186SOL     OW 7456   0.438   5.947   1.732
 2186SOL    HW1 7457   0.502   5.914   1.663
 2186SOL    HW2 7458   0.488   5.981   1.812
 2187SOL     OW 7459   6.790   0.594   2.892
 2187SOL    HW1 7460   6.757   0.668   2.950
 2187SOL    HW2 7461   6.888   0.582   2.906
 2188SOL     OW 7462   6.910   6.739   5.139
 2188SOL    HW1 7463   6.926   6.750   5.237
 2188SOL    HW2 7464   6.996   6.750   5.090
 2189SOL     OW 7465   1.719   0.015   0.827
 2189SOL    HW1 7466   1.693   0.090   0.888
 2189SOL    HW2 7467   1.747   6.962   0.882
 2190SOL     OW 7468   0.314   2.839   1.828
 2190SOL    HW1 7469   0.268   2.860   1.742
 2190SOL    HW2 7470   0.275   2.756   1.867
 2191SOL     OW 7471   3.092   2.210   6.702
 2191SOL    HW1 7472   3.126   2.276   6.635
 2191SOL    HW2 7473   3.052   2.259   6.780
 2192SOL     OW 7474   4.187   0.955   2.302
 2192SOL    HW1 7475   4.145   0.870   2.334
 2192SOL    HW2 7476   4.188   1.022   2.377
 2193SOL     OW 7477   6.248   6.201   6.437
 2193SOL    HW1 7478   6.216   6.199   6.531
 2193SOL    HW2 7479   6.297   6.116   6.417
 2194SOL     OW 7480   2.479   4.263   5.619
 2194SOL    HW1 7481   2.491   4.224   5.527
 2194SOL    HW2 7482   2.480   4.190   5.687
 2195SOL     OW 7483   0.319   0.631   4.392
 2195SOL    HW1 7484   0.228   0.591   4.390
 2195SOL    HW2 7485   0.322   0.703   4.461
 2196SOL     OW 7486   3.224   0.133   5.054
 2196SOL    HW1 7487   3.196   0.184   4.972
 2196SOL    HW2 7488   3.285   0.059   5.028
 2197SOL     OW 7489   3.326   3.624   0.872
 2197SOL    HW1 7490   3.320   3.525   0.878
 2197SOL    HW2 7491   3.260   3.658   0.804
 2198SOL     OW 7492   5.779   1.580   0.299
 2198SOL    HW1 7493   5.733   1.493   0.282
 2198SOL    HW2 7494   5.722   1.655   0.264
 2199SOL     OW 7495   5.369   1.210   3.163
 2199SOL    HW1 7496   5.443   1.237   3.224
 2199SOL    HW2 7497   5.285   1.256   3.190
 2200SOL     OW 7498   2.470   0.801   5.452
 2200SOL    HW1 7499   2.561   0.828   5.485
 2200SOL    HW2 7500   2.403   0.813   5.526
 2201SOL     OW 7501   6.767   2.845   3.470
 2201SOL    HW1 7502   6.695   2.815   3.408
 2201SOL    HW2 7503   6.765   2.944   3.478
 2202SOL     OW 7504   2.505   5.274   1.890
 2202SOL    HW1 7505   2.584   5.267   1.950
 2202SOL    HW2 7506   2.491   5.370   1.864
 2203SOL     OW 7507   1.791   2.320   1.591
 2203SOL    HW1 7508   1.801   2.222   1.574
 2203SOL    HW2 7509   1.845   2.346   1.671
 2204SOL     OW 7510   3.766   0.995   0.991
 2204SOL    HW1 7511   3.749   1.065   1.061
 2204SOL    HW2 7512   3.712   1.015   0.910
 2205SOL     OW 7513   1.007   0.169   6.019
 2205SOL    HW1 7514   0.912   0.150   5.993
 2205SOL    HW2 7515   1.046   0.088   6.062
 2206SOL     OW 7516   3.182   4.365   6.209
 2206SOL    HW1 7517   3.258   4.404   6.157
 2206SOL    HW2 7518   3.209   4.358   6.305
 2207SOL     OW 7519   3.141   4.280   6.621
 2207SOL    HW1 7520   3.093   4.364   6.646
 2207SOL    HW2 7521   3.217   4.302   6.560
 2208SOL     OW 7522   1.706   6.365   3.201
 2208SOL    HW1 7523   1.655   6.406   3.126
 2208SOL    HW2 7524   1.777   6.305   3.165
 2209SOL     OW 7525   1.706   6.381   5.627
 2209SOL    HW1 7526   1.637   6.324   5.581
 2209SOL    HW2 7527   1.668   6.415   5.713
 2210SOL     OW 7528   6.272   4.935   3.527
 2210SOL    HW1 7529   6.272   5.035   3.525
 2210SOL    HW2 7530   6.178   4.902   3.516
 2211SOL     OW 7531   5.559   0.731   0.401
 2211SOL    HW1 7532   5.571   0.830   0.391
 2211SOL    HW2 7533   5.649   0.687   0.402
 2212SOL     OW 7534   1.698   5.973   6.730
 2212SOL    HW1 7535   1.724   5.969   6.826
 2212SOL    HW2 7536   1.713   6.065   6.695
 2213SOL     OW 7537   3.606   2.671   5.308
 2213SOL    HW1 7538   3.625   2.754   5.255
 2213SOL    HW2 7539   3.508   2.657   5.315
 2214SOL     OW 7540   3.294   2.910   5.155
 2214SOL    HW1 7541   3.337   2.824   5.183
 2214SOL    HW2 7542   3.198   2.910   5.183
 2215SOL     OW 7543   5.967   1.354   0.342
 2215SOL    HW1 7544   5.980   1.284   0.412
 2215SOL    HW2 7545   5.869   1.369   0.329
 2216SOL     OW 7546   1.714   0.394   5.971
 2216SOL    HW1 7547   1.752   0.303   5.952
 2216SOL    HW2 7548   1.632   0.385   6.027
 2217SOL     OW 7549   4.113   6.672   1.272
 2217SOL    HW1 7550   4.105   6.771   1.261
 2217SOL    HW2 7551   4.032   6.637   1.319
 2218SOL     OW 7552   0.339   6.408   6.690
 2218SOL    HW1 7553   0.370   6.380   6.599
 2218SOL    HW2 7554   0.239   6.412   6.690
 2219SOL     OW 7555   5.437   1.673   1.739
 2219SOL    HW1 7556   5.536   1.685   1.749
 2219SOL    HW2 7557   5.405   1.724   1.659
 2220SOL     OW 7558   1.128   0.453   4.570
 2220SOL    HW1 7559   1.217   0.407   4.570
 2220SOL    HW2 7560   1.098   0.467   4.664
 2221SOL     OW 7561   5.879   0.918   5.276
 2221SOL    HW1 7562   5.977   0.937   5.273
 2221SOL    HW2 7563   5.834   0.962   5.199
 2222SOL     OW 7564   4.964   0.404   0.734
 2222SOL    HW1 7565   4.952   0.500   0.713
 2222SOL    HW2 7566   4.934   0.348   0.657
 2223SOL     OW 7567   5.923   1.426   4.802
 2223SOL    HW1 7568   5.945   1.389   4.712
 2223SOL    HW2 7569   5.926   1.526   4.798
 2224SOL     OW 7570   1.509   3.743   0.640
 2224SOL    HW1 7571   1.459   3.763   0.725
 2224SOL    HW2 7572   1.567   3.821   0.616
 2225SOL     OW 7573   6.655   6.561   3.077
 2225SOL    HW1 7574   6.618   6.638   3.129
 2225SOL    HW2 7575   6.636   6.476   3.124
 2226SOL     OW 7576   3.864   4.438   0.719
 2226SOL    HW1 7577   3.880   4.518   0.777
 2226SOL    HW2 7578   3.851   4.357   0.777
 2227SOL     OW 7579   5.498   3.195   0.701
 2227SOL    HW1 7580   5.554   3.276   0.717
 2227SOL    HW2 7581   5.430   3.215   0.630
 2228SOL     OW 7582   2.541   4.909   0.854
 2228SOL    HW1 7583   2.481   4.879   0.779
 2228SOL    HW2 7584   2.555   4.834   0.918
 2229SOL     OW 7585   4.224   1.634   4.090
 2229SOL    HW1 7586   4.180   1.722   4.073
 2229SOL    HW2 7587   4.179   1.589   4.168
 2230SOL     OW 7588   5.814   5.752   6.693
 2230SOL    HW1 7589   5.802   5.729   6.790
 2230SOL    HW2 7590   5.777   5.844   6.677
 2231SOL     OW 7591   0.581   0.426   2.297
 2231SOL    HW1 7592   0.510   0.430   2.227
 2231SOL    HW2 7593   0.542   0.385   2.380
 2232SOL     OW 7594   0.340   3.640   5.036
 2232SOL    HW1 7595   0.323   3.560   4.979
 2232SOL    HW2 7596   0.426   3.683   5.008
 2233SOL     OW 7597   2.412   3.609   0.858
 2233SOL    HW1 7598   2.401   3.708   0.865
 2233SOL    HW2 7599   2.332   3.570   0.814
 2234SOL     OW 7600   3.799   1.710   1.910
 2234SOL    HW1 7601   3.780   1.802   1.873
 2234SOL    HW2 7602   3.795   1.713   2.010
 2235SOL     OW 7603   2.746   0.076   1.599
 2235SOL    HW1 7604   2.648   0.093   1.603
 2235SOL    HW2 7605   2.769   7.023   1.656
 2236SOL     OW 7606   1.020   4.669   6.414
 2236SOL    HW1 7607   0.922   4.655   6.426
 2236SOL    HW2 7608   1.068   4.583   6.431
 2237SOL     OW 7609   6.072   4.820   4.431
 2237SOL    HW1 7610   6.068   4.785   4.337
 2237SOL    HW2 7611   6.082   4.743   4.494
 2238SOL     OW 7612   5.528   4.405   0.827
 2238SOL    HW1 7613   5.433   4.434   0.820
 2238SOL    HW2 7614   5.533   4.306   0.830
 2239SOL     OW 7615   3.867   4.939   3.231
 2239SOL    HW1 7616   3.813   4.949   3.315
 2239SOL    HW2 7617   3.882   5.029   3.190
 2240SOL     OW 7618   5.156   5.818   3.787
 2240SOL    HW1 7619   5.206   5.803   3.703
 2240SOL    HW2 7620   5.121   5.912   3.789
 2241SOL     OW 7621   0.352   6.719   2.888
 2241SOL    HW1 7622   0.359   6.688   2.793
 2241SOL    HW2 7623   0.377   6.643   2.949
 2242SOL     OW 7624   5.005   1.890   2.865
 2242SOL    HW1 7625   5.029   1.840   2.782
 2242SOL    HW2 7626   4.909   1.873   2.887
 2243SOL     OW 7627   2.620   6.350   5.964
 2243SOL    HW1 7628   2.703   6.316   5.920
 2243SOL    HW2 7629   2.635   6.444   5.994
 2244SOL     OW 7630   2.269   6.449   1.834
 2244SOL    HW1 7631   2.262   6.446   1.734
 2244SOL    HW2 7632   2.266   6.356   1.870
 2245SOL     OW 7633   0.349   1.858   1.754
 2245SOL    HW1 7634   0.416   1.929   1.729
 2245SOL    HW2 7635   0.381   1.809   1.835
 2246SOL     OW 7636   0.587   1.973   5.462
 2246SOL    HW1 7637   0.663   1.910   5.470
 2246SOL    HW2 7638   0.594   2.024   5.376
 2247SOL     OW 7639   3.309   3.272   4.585
 2247SOL    HW1 7640   3.293   3.178   4.615
 2247SOL    HW2 7641   3.263   3.335   4.647
 2248SOL     OW 7642   4.451   4.299   5.911
 2248SOL    HW1 7643   4.353   4.300   5.894
 2248SOL    HW2 7644   4.498   4.351   5.839
 2249SOL     OW 7645   6.218   6.035   3.088
 2249SOL    HW1 7646   6.261   6.125   3.098
 2249SOL    HW2 7647   6.282   5.971   3.048
 2250SOL     OW 7648   4.130   3.570   6.513
 2250SOL    HW1 7649   4.149   3.522   6.599
 2250SOL    HW2 7650   4.200   3.641   6.498
 2251SOL     OW 7651   5.019   0.769   0.073
 2251SOL    HW1 7652   4.977   0.695   0.021
 2251SOL    HW2 7653   5.046   0.843   0.011
 2252SOL     OW 7654   5.074   2.723   2.493
 2252SOL    HW1 7655   4.996   2.707   2.433
 2252SOL    HW2 7656   5.117   2.810   2.470
 2253SOL     OW 7657   1.040   3.157   6.601
 2253SOL    HW1 7658   1.068   3.188   6.510
 2253SOL    HW2 7659   1.072   3.222   6.670
 2254SOL     OW 7660   3.916   3.177   4.954
 2254SOL    HW1 7661   3.841   3.216   4.901
 2254SOL    HW2 7662   3.975   3.251   4.988
 2255SOL     OW 7663   4.772   2.545   6.926
 2255SOL    HW1 7664   4.865   2.538   6.889
 2255SOL    HW2 7665   4.708   2.500   6.863
 2256SOL     OW 7666   5.199   5.857   1.445
 2256SOL    HW1 7667   5.252   5.795   1.387
 2256SOL    HW2 7668   5.156   5.927   1.388
 2257SOL     OW 7669   0.314   2.290   3.905
 2257SOL    HW1 7670   0.373   2.272   3.826
 2257SOL    HW2 7671   0.233   2.340   3.876
 2258SOL     OW 7672   1.294   5.563   5.522
 2258SOL    HW1 7673   1.228   5.620   5.473
 2258SOL    HW2 7674   1.377   5.616   5.540
 2259SOL     OW 7675   5.512   3.343   6.988
 2259SOL    HW1 7676   5.434   3.287   7.014
 2259SOL    HW2 7677   5.575   3.288   6.933
 2260SOL     OW 7678   6.090   4.524   2.547
 2260SOL    HW1 7679   6.083   4.545   2.644
 2260SOL    HW2 7680   6.050   4.434   2.529
 2261SOL     OW 7681   6.698   5.922   6.738
 2261SOL    HW1 7682   6.709   5.855   6.665
 2261SOL    HW2 7683   6.604   5.956   6.738
 2262SOL     OW 7684   5.528   1.680   2.047
 2262SOL    HW1 7685   5.554   1.692   1.951
 2262SOL    HW2 7686   5.520   1.583   2.068
 2263SOL     OW 7687   3.332   6.130   6.765
 2263SOL    HW1 7688   3.245   6.096   6.731
 2263SOL    HW2 7689   3.331   6.130   6.865
 2264SOL     OW 7690   3.593   3.624   0.639
 2264SOL    HW1 7691   3.676   3.630   0.695
 2264SOL    HW2 7692   3.562   3.529   0.637
 2265SOL     OW 7693   0.545   1.340   4.558
 2265SOL    HW1 7694   0.602   1.297   4.628
 2265SOL    HW2 7695   0.583   1.320   4.467
 2266SOL     OW 7696   5.778   2.236   0.767
 2266SOL    HW1 7697   5.851   2.188   0.816
 2266SOL    HW2 7698   5.695   2.181   0.769
 2267SOL     OW 7699   4.922   2.568   4.484
 2267SOL    HW1 7700   4.995   2.552   4.550
 2267SOL    HW2 7701   4.940   2.514   4.401
 2268SOL     OW 7702   6.593   3.835   6.608
 2268SOL    HW1 7703   6.546   3.864   6.525
 2268SOL    HW2 7704   6.673   3.779   6.584
 2269SOL     OW 7705   5.972   5.841   4.602
 2269SOL    HW1 7706   5.947   5.859   4.697
 2269SOL    HW2 7707   5.956   5.923   4.547
 2270SOL     OW 7708   3.408   2.107   6.267
 2270SOL    HW1 7709   3.376   2.201   6.249
 2270SOL    HW2 7710   3.497   2.094   6.225
 2271SOL     OW 7711   6.148   4.320   0.206
 2271SOL    HW1 7712   6.101   4.305   0.119
 2271SOL    HW2 7713   6.183   4.233   0.241
 2272SOL     OW 7714   6.247   2.122   6.322
 2272SOL    HW1 7715   6.233   2.100   6.226
 2272SOL    HW2 7716   6.271   2.219   6.331
 2273SOL     OW 7717   2.042   0.105   2.355
 2273SOL    HW1 7718   2.065   0.192   2.312
 2273SOL    HW2 7719   2.029   0.119   2.454
 2274SOL     OW 7720   0.223   3.130   6.637
 2274SOL    HW1 7721   0.128   3.128   6.607
 2274SOL    HW2 7722   0.231   3.084   6.725
 2275SOL     OW 7723   6.037   0.677   4.031
 2275SOL    HW1 7724   6.093   0.747   3.986
 2275SOL    HW2 7725   6.026   0.598   3.970
 2276SOL     OW 7726   2.295   5.408   0.837
 2276SOL    HW1 7727   2.237   5.330   0.816
 2276SOL    HW2 7728   2.381   5.400   0.787
 2277SOL     OW 7729   4.149   3.432   5.326
 2277SOL    HW1 7730   4.187   3.341   5.342
 2277SOL    HW2 7731   4.222   3.494   5.296
 2278SOL     OW 7732   6.414   4.866   3.740
 2278SOL    HW1 7733   6.362   4.869   3.654
 2278SOL    HW2 7734   6.430   4.959   3.772
 2279SOL     OW 7735   5.041   5.967   4.855
 2279SOL    HW1 7736   4.969   6.031   4.828
 2279SOL    HW2 7737   5.000   5.879   4.877
 2280SOL     OW 7738   0.021   6.381   4.045
 2280SOL    HW1 7739   0.077   6.435   3.982
 2280SOL    HW2 7740   0.022   6.423   4.135
 2281SOL     OW 7741   3.064   1.335   1.674
 2281SOL    HW1 7742   3.149   1.387   1.678
 2281SOL    HW2 7743   3.071   1.265   1.603
 2282SOL     OW 7744   4.682   6.710   5.136
 2282SOL    HW1 7745   4.735   6.663   5.066
 2282SOL    HW2 7746   4.594   6.663   5.149
 2283SOL     OW 7747   0.255   4.500   2.122
 2283SOL    HW1 7748   0.257   4.511   2.023
 2283SOL    HW2 7749   0.237   4.589   2.165
 2284SOL     OW 7750   1.685   2.179   0.381
 2284SOL    HW1 7751   1.773   2.226   0.372
 2284SOL    HW2 7752   1.695   2.102   0.445
 2285SOL     OW 7753   2.011   2.158   1.116
 2285SOL    HW1 7754   2.030   2.240   1.062
 2285SOL    HW2 7755   2.093   2.102   1.121
 2286SOL     OW 7756   6.759   0.737   4.144
 2286SOL    HW1 7757   6.723   0.824   4.111
 2286SOL    HW2 7758   6.720   0.663   4.090
 2287SOL     OW 7759   1.797   1.347   3.659
 2287SOL    HW1 7760   1.869   1.393   3.606
 2287SOL    HW2 7761   1.709   1.359   3.612
 2288SOL     OW 7762   6.534   5.542   4.641
 2288SOL    HW1 7763   6.588   5.500   4.568
 2288SOL    HW2 7764   6.457   5.592   4.600
 2289SOL     OW 7765   0.185   4.422   2.890
 2289SOL    HW1 7766   0.206   4.518   2.875
 2289SOL    HW2 7767   0.188   4.373   2.802
 2290SOL     OW 7768   1.389   4.092   1.940
 2290SOL    HW1 7769   1.437   4.105   1.853
 2290SOL    HW2 7770   1.441   4.138   2.013
 2291SOL     OW 7771   2.366   2.323   6.408
 2291SOL    HW1 7772   2.402   2.296   6.497
 2291SOL    HW2 7773   2.270   2.294   6.402
 2292SOL     OW 7774   5.804   2.648   4.196
 2292SOL    HW1 7775   5.715   2.608   4.175
 2292SOL    HW2 7776   5.849   2.596   4.268
 2293SOL     OW 7777   5.284   0.042   1.212
 2293SOL    HW1 7778   5.354   0.066   1.278
 2293SOL    HW2 7779   5.303   0.086   1.124
 2294SOL     OW 7780   3.261   0.950   6.520
 2294SOL    HW1 7781   3.258   0.874   6.585
 2294SOL    HW2 7782   3.317   1.024   6.557
 2295SOL     OW 7783   0.656   1.284   2.741
 2295SOL    HW1 7784   0.708   1.364   2.711
 2295SOL    HW2 7785   0.637   1.290   2.839
 2296SOL     OW 7786   3.733   5.853   1.862
 2296SOL    HW1 7787   3.769   5.935   1.818
 2296SOL    HW2 7788   3.727   5.868   1.961
 2297SOL     OW 7789   4.604   4.526   5.410
 2297SOL    HW1 7790   4.612   4.526   5.310
 2297SOL    HW2 7791   4.509   4.507   5.435
 2298SOL     OW 7792   4.309   3.422   1.782
 2298SOL    HW1 7793   4.364   3.345   1.750
 2298SOL    HW2 7794   4.226   3.387   1.825
 2299SOL     OW 7795   5.053   4.996   4.864
 2299SOL    HW1 7796   5.145   5.036   4.861
 2299SOL    HW2 7797   5.051   4.916   4.803
 2300SOL     OW 7798   2.379   5.821   1.579
 2300SOL    HW1 7799   2.464   5.768   1.568
 2300SOL    HW2 7800   2.393   5.895   1.644
 2301SOL     OW 7801   3.470   2.908   2.851
 2301SOL    HW1 7802   3.487   2.921   2.948
 2301SOL    HW2 7803   3.550   2.937   2.798
 2302SOL     OW 7804   3.352   6.881   1.136
 2302SOL    HW1 7805   3.373   6.959   1.195
 2302SOL    HW2 7806   3.382   6.901   1.042
 2303SOL     OW 7807   2.025   3.355   6.605
 2303SOL    HW1 7808   1.933   3.370   6.568
 2303SOL    HW2 7809   2.021   3.287   6.679
 2304SOL     OW 7810   5.292   6.685   4.180
 2304SOL    HW1 7811   5.368   6.626   4.209
 2304SOL    HW2 7812   5.205   6.641   4.200
 2305SOL     OW 7813   2.664   6.810   2.508
 2305SOL    HW1 7814   2.674   6.864   2.592
 2305SOL    HW2 7815   2.676   6.870   2.429
 2306SOL     OW 7816   2.226   5.020   1.663
 2306SOL    HW1 7817   2.196   4.931   1.627
 2306SOL    HW2 7818   2.226   5.018   1.763
 2307SOL     OW 7819   6.653   3.519   3.926
 2307SOL    HW1 7820   6.676   3.497   4.021
 2307SOL    HW2 7821   6.609   3.440   3.884
 2308SOL     OW 7822   1.544   4.771   1.514
 2308SOL    HW1 7823   1.590   4.690   1.548
 2308SOL    HW2 7824   1.611   4.844   1.500
 2309SOL     OW 7825   1.300   0.857   6.060
 2309SOL    HW1 7826   1.263   0.932   6.114
 2309SOL    HW2 7827   1.309   0.886   5.964
 2310SOL     OW 7828   5.365   5.896   0.387
 2310SOL    HW1 7829   5.283   5.946   0.416
 2310SOL    HW2 7830   5.377   5.816   0.446
 2311SOL     OW 7831   2.194   6.775   1.596
 2311SOL    HW1 7832   2.186   6.678   1.573
 2311SOL    HW2 7833   2.125   6.827   1.547
 2312SOL     OW 7834   4.119   5.955   2.574
 2312SOL    HW1 7835   4.073   6.041   2.596
 2312SOL    HW2 7836   4.066   5.906   2.505
 2313SOL     OW 7837   5.987   5.872   1.421
 2313SOL    HW1 7838   6.063   5.819   1.459
 2313SOL    HW2 7839   5.977   5.851   1.324
 2314SOL     OW 7840   5.348   6.573   3.511
 2314SOL    HW1 7841   5.356   6.640   3.585
 2314SOL    HW2 7842   5.437   6.530   3.494
 2315SOL     OW 7843   5.300   3.377   6.181
 2315SOL    HW1 7844   5.262   3.318   6.110
 2315SOL    HW2 7845   5.370   3.327   6.232
 2316SOL     OW 7846   3.824   1.210   3.719
 2316SOL    HW1 7847   3.897   1.279   3.725
 2316SOL    HW2 7848   3.757   1.239   3.651
 2317SOL     OW 7849   0.709   6.788   2.935
 2317SOL    HW1 7850   0.762   6.871   2.917
 2317SOL    HW2 7851   0.611   6.810   2.934
 2318SOL     OW 7852   1.659   2.612   3.932
 2318SOL    HW1 7853   1.566   2.647   3.930
 2318SOL    HW2 7854   1.699   2.631   4.022
 2319SOL     OW 7855   2.028   4.860   3.750
 2319SOL    HW1 7856   2.128   4.863   3.756
 2319SOL    HW2 7857   1.995   4.770   3.778
 2320SOL     OW 7858   0.765   2.185   5.023
 2320SOL    HW1 7859   0.819   2.257   5.065
 2320SOL    HW2 7860   0.824   2.126   4.968
 2321SOL     OW 7861   2.765   0.584   7.014
 2321SOL    HW1 7862   2.788   0.660   0.049
 2321SOL    HW2 7863   2.709   0.618   6.938
 2322SOL     OW 7864   3.385   1.514   4.929
 2322SOL    HW1 7865   3.329   1.573   4.986
 2322SOL    HW2 7866   3.327   1.469   4.861
 2323SOL     OW 7867   2.765   5.080   1.621
 2323SOL    HW1 7868   2.770   5.029   1.535
 2323SOL    HW2 7869   2.695   5.039   1.680
 2324SOL     OW 7870   6.211   6.186   1.458
 2324SOL    HW1 7871   6.234   6.255   1.390
 2324SOL    HW2 7872   6.146   6.225   1.524
 2325SOL     OW 7873   1.120   4.644   2.560
 2325SOL    HW1 7874   1.128   4.626   2.658
 2325SOL    HW2 7875   1.139   4.561   2.509
 2326SOL     OW 7876   3.633   5.899   5.869
 2326SOL    HW1 7877   3.573   5.974   5.899
 2326SOL    HW2 7878   3.657   5.842   5.947
 2327SOL     OW 7879   6.264   3.144   4.674
 2327SOL    HW1 7880   6.242   3.089   4.594
 2327SOL    HW2 7881   6.327   3.094   4.733
 2328SOL     OW 7882   3.128   1.863   2.665
 2328SOL    HW1 7883   3.199   1.919   2.621
 2328SOL    HW2 7884   3.042   1.914   2.667
 2329SOL     OW 7885   1.715   3.911   5.107
 2329SOL    HW1 7886   1.773   3.943   5.181
 2329SOL    HW2 7887   1.767   3.847   5.050
 2330SOL     OW 7888   1.021   3.787   2.206
 2330SOL    HW1 7889   0.986   3.722   2.139
 2330SOL    HW2 7890   1.075   3.857   2.159
 2331SOL     OW 7891   5.961   4.660   1.468
 2331SOL    HW1 7892   5.917   4.575   1.438
 2331SOL    HW2 7893   6.022   4.693   1.396
 2332SOL     OW 7894   4.282   1.636   5.450
 2332SOL    HW1 7895   4.296   1.724   5.403
 2332SOL    HW2 7896   4.336   1.565   5.405
 2333SOL     OW 7897   0.454   5.672   2.779
 2333SOL    HW1 7898   0.509   5.703   2.856
 2333SOL    HW2 7899   0.455   5.741   2.706
 2334SOL     OW 7900   2.288   0.238   0.112
 2334SOL    HW1 7901   2.320   0.233   0.207
 2334SOL    HW2 7902   2.275   0.146   0.076
 2335SOL     OW 7903   5.963   1.291   3.068
 2335SOL    HW1 7904   5.948   1.364   3.135
 2335SOL    HW2 7905   5.983   1.333   2.979
 2336SOL     OW 7906   4.477   1.531   4.998
 2336SOL    HW1 7907   4.485   1.611   5.057
 2336SOL    HW2 7908   4.381   1.517   4.974
 2337SOL     OW 7909   4.607   0.990   3.410
 2337SOL    HW1 7910   4.669   1.047   3.463
 2337SOL    HW2 7911   4.640   0.895   3.411
 2338SOL     OW 7912   1.455   1.411   5.884
 2338SOL    HW1 7913   1.428   1.506   5.894
 2338SOL    HW2 7914   1.476   1.373   5.974
 2339SOL     OW 7915   3.961   3.945   4.730
 2339SOL    HW1 7916   3.895   3.963   4.803
 2339SOL    HW2 7917   4.025   4.023   4.724
 2340SOL     OW 7918   5.194   4.823   6.892
 2340SOL    HW1 7919   5.283   4.847   6.853
 2340SOL    HW2 7920   5.205   4.748   6.957
 2341SOL     OW 7921   5.788   4.138   1.169
 2341SOL    HW1 7922   5.782   4.043   1.200
 2341SOL    HW2 7923   5.807   4.139   1.071
 2342SOL     OW 7924   0.485   6.411   5.444
 2342SOL    HW1 7925   0.557   6.364   5.393
 2342SOL    HW2 7926   0.396   6.390   5.404
 2343SOL     OW 7927   1.507   6.246   2.335
 2343SOL    HW1 7928   1.586   6.190   2.311
 2343SOL    HW2 7929   1.435   6.234   2.266
 2344SOL     OW 7930   1.806   0.824   1.206
 2344SOL    HW1 7931   1.859   0.817   1.291
 2344SOL    HW2 7932   1.865   0.804   1.128
 2345SOL     OW 7933   2.833   5.340   5.679
 2345SOL    HW1 7934   2.907   5.309   5.737
 2345SOL    HW2 7935   2.745   5.319   5.722
 2346SOL     OW 7936   4.810   2.965   4.431
 2346SOL    HW1 7937   4.890   2.913   4.402
 2346SOL    HW2 7938   4.816   2.987   4.528
 2347SOL     OW 7939   2.344   3.213   1.726
 2347SOL    HW1 7940   2.335   3.311   1.744
 2347SOL    HW2 7941   2.441   3.188   1.723
 2348SOL     OW 7942   3.565   6.200   3.580
 2348SOL    HW1 7943   3.588   6.106   3.557
 2348SOL    HW2 7944   3.626   6.262   3.529
 2349SOL     OW 7945   0.589   5.030   6.091
 2349SOL    HW1 7946   0.546   5.022   6.181
 2349SOL    HW2 7947   0.550   5.107   6.041
 2350SOL     OW 7948   5.220   0.024   6.505
 2350SOL    HW1 7949   5.138   0.078   6.489
 2350SOL    HW2 7950   5.199   6.953   6.493
 2351SOL     OW 7951   3.457   5.078   1.952
 2351SOL    HW1 7952   3.483   5.174   1.950
 2351SOL    HW2 7953   3.474   5.036   1.862
 2352SOL     OW 7954   1.104   3.477   2.473
 2352SOL    HW1 7955   1.158   3.505   2.552
 2352SOL    HW2 7956   1.163   3.431   2.407
 2353SOL     OW 7957   3.146   4.763   5.248
 2353SOL    HW1 7958   3.097   4.697   5.192
 2353SOL    HW2 7959   3.129   4.744   5.344
 2354SOL     OW 7960   2.905   1.639   5.919
 2354SOL    HW1 7961   2.980   1.677   5.865
 2354SOL    HW2 7962   2.831   1.611   5.858
 2355SOL     OW 7963   1.466   5.694   6.553
 2355SOL    HW1 7964   1.563   5.702   6.580
 2355SOL    HW2 7965   1.452   5.607   6.507
 2356SOL     OW 7966   2.196   4.124   0.066
 2356SOL    HW1 7967   2.159   4.033   0.051
 2356SOL    HW2 7968   2.228   4.132   0.161
 2357SOL     OW 7969   4.405   5.252   3.499
 2357SOL    HW1 7970   4.363   5.220   3.414
 2357SOL    HW2 7971   4.452   5.176   3.544
 2358SOL     OW 7972   2.558   5.198   5.331
 2358SOL    HW1 7973   2.653   5.213   5.360
 2358SOL    HW2 7974   2.548   5.106   5.295
 2359SOL     OW 7975   0.128   0.833   5.759
 2359SOL    HW1 7976   0.084   0.879   5.682
 2359SOL    HW2 7977   0.216   0.795   5.730
 2360SOL     OW 7978   5.143   5.996   5.892
 2360SOL    HW1 7979   5.127   6.093   5.876
 2360SOL    HW2 7980   5.110   5.972   5.983
 2361SOL     OW 7981   2.984   0.466   4.860
 2361SOL    HW1 7982   2.952   0.496   4.771
 2361SOL    HW2 7983   2.907   0.432   4.915
 2362SOL     OW 7984   3.043   0.451   5.318
 2362SOL    HW1 7985   2.959   0.503   5.330
 2362SOL    HW2 7986   3.082   0.428   5.407
 2363SOL     OW 7987   3.897   2.604   5.680
 2363SOL    HW1 7988   3.942   2.571   5.598
 2363SOL    HW2 7989   3.888   2.528   5.746
 2364SOL     OW 7990   0.280   2.395   3.201
 2364SOL    HW1 7991   0.219   2.321   3.173
 2364SOL    HW2 7992   0.229   2.461   3.256
 2365SOL     OW 7993   6.386   2.357   6.578
 2365SOL    HW1 7994   6.437   2.273   6.595
 2365SOL    HW2 7995   6.307   2.362   6.639
 2366SOL     OW 7996   1.284   4.820   5.780
 2366SOL    HW1 7997   1.232   4.845   5.861
 2366SOL    HW2 7998   1.277   4.892   5.711
 2367SOL     OW 7999   3.447   3.632   0.011
 2367SOL    HW1 8000   3.527   3.692   0.014
 2367SOL    HW2 8001   3.461   3.554   0.073
 2368SOL     OW 8002   4.594   0.087   3.504
 2368SOL    HW1 8003   4.533   0.008   3.507
 2368SOL    HW2 8004   4.609   0.114   3.408
 2369SOL     OW 8005   1.813   2.363   4.792
 2369SOL    HW1 8006   1.897   2.351   4.846
 2369SOL    HW2 8007   1.752   2.427   4.838
 2370SOL     OW 8008   5.011   3.821   6.706
 2370SOL    HW1 8009   5.030   3.799   6.611
 2370SOL    HW2 8010   5.029   3.741   6.763
 2371SOL     OW 8011   1.370   6.106   1.754
 2371SOL    HW1 8012   1.287   6.067   1.794
 2371SOL    HW2 8013   1.401   6.048   1.678
 2372SOL     OW 8014   0.472   2.242   1.485
 2372SOL    HW1 8015   0.384   2.259   1.439
 2372SOL    HW2 8016   0.537   2.205   1.419
 2373SOL     OW 8017   6.520   0.047   0.181
 2373SOL    HW1 8018   6.428   0.081   0.197
 2373SOL    HW2 8019   6.557   0.011   0.267
 2374SOL     OW 8020   6.246   1.011   4.026
 2374SOL    HW1 8021   6.203   0.972   3.944
 2374SOL    HW2 8022   6.321   0.953   4.055
 2375SOL     OW 8023   1.869   6.604   4.436
 2375SOL    HW1 8024   1.828   6.513   4.443
 2375SOL    HW2 8025   1.957   6.604   4.483
 2376SOL     OW 8026   5.931   2.891   4.200
 2376SOL    HW1 8027   6.008   2.851   4.150
 2376SOL    HW2 8028   5.865   2.819   4.222
 2377SOL     OW 8029   3.489   3.974   3.516
 2377SOL    HW1 8030   3.479   3.875   3.512
 2377SOL    HW2 8031   3.400   4.018   3.507
 2378SOL     OW 8032   5.472   2.296   6.439
 2378SOL    HW1 8033   5.454   2.376   6.382
 2378SOL    HW2 8034   5.534   2.320   6.513
 2379SOL     OW 8035   6.652   1.628   6.724
 2379SOL    HW1 8036   6.658   1.541   6.675
 2379SOL    HW2 8037   6.639   1.609   6.822
 2380SOL     OW 8038   6.466   6.347   6.311
 2380SOL    HW1 8039   6.445   6.443   6.289
 2380SOL    HW2 8040   6.382   6.299   6.334
 2381SOL     OW 8041   2.285   4.155   4.162
 2381SOL    HW1 8042   2.343   4.200   4.094
 2381SOL    HW2 8043   2.195   4.138   4.123
 2382SOL     OW 8044   2.697   4.956   2.966
 2382SOL    HW1 8045   2.668   5.038   3.017
 2382SOL    HW2 8046   2.686   4.972   2.868
 2383SOL     OW 8047   5.199   5.742   0.015
 2383SOL    HW1 8048   5.295   5.764   0.002
 2383SOL    HW2 8049   5.156   5.726   6.952
 2384SOL     OW 8050   0.989   6.948   2.329
 2384SOL    HW1 8051   0.982   6.993   2.418
 2384SOL    HW2 8052   0.933   6.996   2.262
 2385SOL     OW 8053   6.208   6.910   1.136
 2385SOL    HW1 8054   6.240   6.907   1.230
 2385SOL    HW2 8055   6.127   6.967   1.130
 2386SOL     OW 8056   5.110   5.059   3.985
 2386SOL    HW1 8057   5.150   5.088   4.072
 2386SOL    HW2 8058   5.032   4.999   4.003
 2387SOL     OW 8059   0.062   1.941   3.515
 2387SOL    HW1 8060   0.112   1.874   3.461
 2387SOL    HW2 8061   0.126   1.989   3.576
 2388SOL     OW 8062   1.089   1.567   4.403
 2388SOL    HW1 8063   1.152   1.511   4.456
 2388SOL    HW2 8064   1.133   1.595   4.318
 2389SOL     OW 8065   5.308   4.043   3.856
 2389SOL    HW1 8066   5.317   3.943   3.849
 2389SOL    HW2 8067   5.350   4.075   3.940
 2390SOL     OW 8068   3.473   3.539   4.649
 2390SOL    HW1 8069   3.445   3.446   4.625
 2390SOL    HW2 8070   3.557   3.535   4.704
 2391SOL     OW 8071   4.708   4.723   5.607
 2391SOL    HW1 8072   4.798   4.693   5.640
 2391SOL    HW2 8073   4.680   4.664   5.531
 2392SOL     OW 8074   3.951   6.158   5.417
 2392SOL    HW1 8075   4.030   6.219   5.428
 2392SOL    HW2 8076   3.869   6.203   5.453
 2393SOL     OW 8077   3.813   5.274   0.584
 2393SOL    HW1 8078   3.735   5.213   0.568
 2393SOL    HW2 8079   3.887   5.252   0.520
 2394SOL     OW 8080   1.787   3.419   5.247
 2394SOL    HW1 8081   1.884   3.396   5.245
 2394SOL    HW2 8082   1.739   3.357   5.309
 2395SOL     OW 8083   6.467   2.673   6.925
 2395SOL    HW1 8084   6.531   2.713   6.860
 2395SOL    HW2 8085   6.517   2.625   6.997
 2396SOL     OW 8086   4.610   6.224   0.014
 2396SOL    HW1 8087   4.532   6.182   6.993
 2396SOL    HW2 8088   4.589   6.234   0.111
 2397SOL     OW 8089   0.080   3.866   0.585
 2397SOL    HW1 8090   0.062   3.786   0.529
 2397SOL    HW2 8091   0.088   3.947   0.526
 2398SOL     OW 8092   2.848   4.569   6.053
 2398SOL    HW1 8093   2.829   4.548   5.958
 2398SOL    HW2 8094   2.892   4.491   6.098
 2399SOL     OW 8095   4.622   1.383   2.408
 2399SOL    HW1 8096   4.712   1.417   2.379
 2399SOL    HW2 8097   4.599   1.301   2.356
 2400SOL     OW 8098   4.063   4.904   0.432
 2400SOL    HW1 8099   4.077   4.852   0.516
 2400SOL    HW2 8100   4.023   4.993   0.454
 2401SOL     OW 8101   3.911   0.644   6.073
 2401SOL    HW1 8102   3.852   0.724   6.076
 2401SOL    HW2 8103   3.999   0.665   6.115
 2402SOL     OW 8104   0.374   2.665   4.189
 2402SOL    HW1 8105   0.423   2.687   4.273
 2402SOL    HW2 8106   0.281   2.637   4.210
 2403SOL     OW 8107   2.807   3.003   0.087
 2403SOL    HW1 8108   2.729   2.960   0.041
 2403SOL    HW2 8109   2.785   3.098   0.108
 2404SOL     OW 8110   5.592   1.534   2.677
 2404SOL    HW1 8111   5.655   1.558   2.604
 2404SOL    HW2 8112   5.573   1.436   2.675
 2405SOL     OW 8113   3.255   3.631   3.936
 2405SOL    HW1 8114   3.192   3.640   3.859
 2405SOL    HW2 8115   3.231   3.551   3.990
 2406SOL     OW 8116   1.715   0.398   3.953
 2406SOL    HW1 8117   1.687   0.403   3.857
 2406SOL    HW2 8118   1.692   0.307   3.990
 2407SOL     OW 8119   4.842   3.046   2.847
 2407SOL    HW1 8120   4.753   3.005   2.870
 2407SOL    HW2 8121   4.862   3.027   2.751
 2408SOL     OW 8122   3.159   5.327   2.133
 2408SOL    HW1 8123   3.254   5.306   2.158
 2408SOL    HW2 8124   3.101   5.248   2.154
 2409SOL     OW 8125   1.581   2.697   2.186
 2409SOL    HW1 8126   1.582   2.761   2.262
 2409SOL    HW2 8127   1.674   2.660   2.173
 2410SOL     OW 8128   5.875   2.907   6.140
 2410SOL    HW1 8129   5.818   2.896   6.059
 2410SOL    HW2 8130   5.971   2.918   6.111
 2411SOL     OW 8131   4.434   5.145   5.305
 2411SOL    HW1 8132   4.403   5.204   5.380
 2411SOL    HW2 8133   4.516   5.096   5.334
 2412SOL     OW 8134   2.914   4.343   6.926
 2412SOL    HW1 8135   2.895   4.429   6.878
 2412SOL    HW2 8136   2.883   4.266   6.869
 2413SOL     OW 8137   6.905   2.754   6.844
 2413SOL    HW1 8138   6.822   2.699   6.858
 2413SOL    HW2 8139   6.982   2.711   6.892
 2414SOL     OW 8140   5.812   4.166   2.036
 2414SOL    HW1 8141   5.905   4.180   2.004
 2414SOL    HW2 8142   5.792   4.231   2.110
 2415SOL     OW 8143   0.542   6.972   0.975
 2415SOL    HW1 8144   0.605   6.995   1.049
 2415SOL    HW2 8145   0.503   0.030   0.937
 2416SOL     OW 8146   3.057   1.926   5.501
 2416SOL    HW1 8147   2.998   1.939   5.422
 2416SOL    HW2 8148   3.026   1.847   5.554
 2417SOL     OW 8149   4.275   2.609   0.085
 2417SOL    HW1 8150   4.294   2.690   0.141
 2417SOL    HW2 8151   4.357   2.552   0.081
 2418SOL     OW 8152   3.017   3.678   3.743
 2418SOL    HW1 8153   3.012   3.776   3.728
 2418SOL    HW2 8154   2.987   3.657   3.836
 2419SOL     OW 8155   0.679   6.404   3.653
 2419SOL    HW1 8156   0.680   6.503   3.638
 2419SOL    HW2 8157   0.630   6.360   3.578
 2420SOL     OW 8158   4.061   0.454   2.307
 2420SOL    HW1 8159   3.973   0.501   2.305
 2420SOL    HW2 8160   4.135   0.522   2.304
 2421SOL     OW 8161   2.678   0.910   5.010
 2421SOL    HW1 8162   2.776   0.911   4.989
 2421SOL    HW2 8163   2.629   0.862   4.938
 2422SOL     OW 8164   5.905   0.147   1.385
 2422SOL    HW1 8165   5.808   0.158   1.408
 2422SOL    HW2 8166   5.960   0.159   1.468
 2423SOL     OW 8167   1.648   5.959   3.779
 2423SOL    HW1 8168   1.722   5.900   3.810
 2423SOL    HW2 8169   1.567   5.944   3.835
 2424SOL     OW 8170   5.573   6.009   5.756
 2424SOL    HW1 8171   5.617   6.085   5.804
 2424SOL    HW2 8172   5.643   5.951   5.714
 2425SOL     OW 8173   6.046   0.292   4.578
 2425SOL    HW1 8174   6.140   0.273   4.551
 2425SOL    HW2 8175   6.011   0.369   4.525
 2426SOL     OW 8176   1.007   4.772   4.153
 2426SOL    HW1 8177   1.037   4.800   4.244
 2426SOL    HW2 8178   1.069   4.702   4.118
 2427SOL     OW 8179   5.967   5.520   6.689
 2427SOL    HW1 8180   5.990   5.535   6.785
 2427SOL    HW2 8181   5.946   5.608   6.646
 2428SOL     OW 8182   0.426   6.966   3.231
 2428SOL    HW1 8183   0.395   6.881   3.273
 2428SOL    HW2 8184   0.516   6.991   3.267
 2429SOL     OW 8185   6.454   5.796   4.237
 2429SOL    HW1 8186   6.361   5.761   4.242
 2429SOL    HW2 8187   6.472   5.855   4.316
 2430SOL     OW 8188   6.020   2.431   1.792
 2430SOL    HW1 8189   5.958   2.463   1.721
 2430SOL    HW2 8190   6.023   2.498   1.867
 2431SOL     OW 8191   3.931   6.891   1.602
 2431SOL    HW1 8192   3.913   6.984   1.571
 2431SOL    HW2 8193   3.870   6.827   1.555
 2432SOL     OW 8194   4.222   6.422   2.807
 2432SOL    HW1 8195   4.196   6.391   2.899
 2432SOL    HW2 8196   4.303   6.372   2.777
 2433SOL     OW 8197   3.003   6.565   0.958
 2433SOL    HW1 8198   3.050   6.626   1.021
 2433SOL    HW2 8199   2.992   6.611   0.870
 2434SOL     OW 8200   4.237   1.586   3.433
 2434SOL    HW1 8201   4.311   1.542   3.484
 2434SOL    HW2 8202   4.276   1.645   3.362
 2435SOL     OW 8203   4.739   5.606   5.817
 2435SOL    HW1 8204   4.772   5.650   5.734
 2435SOL    HW2 8205   4.668   5.663   5.858
 2436SOL     OW 8206   1.555   6.938   0.634
 2436SOL    HW1 8207   1.599   6.980   0.713
 2436SOL    HW2 8208   1.469   6.985   0.615
 2437SOL     OW 8209   4.284   5.244   0.490
 2437SOL    HW1 8210   4.360   5.182   0.471
 2437SOL    HW2 8211   4.310   5.337   0.466
 2438SOL     OW 8212   3.779   1.557   5.633
 2438SOL    HW1 8213   3.742   1.465   5.621
 2438SOL    HW2 8214   3.878   1.555   5.623
 2439SOL     OW 8215   1.458   4.332   0.317
 2439SOL    HW1 8216   1.500   4.364   0.232
 2439SOL    HW2 8217   1.460   4.232   0.319
 2440SOL     OW 8218   3.713   6.354   4.978
 2440SOL    HW1 8219   3.633   6.337   5.035
 2440SOL    HW2 8220   3.685   6.362   4.882
 2441SOL     OW 8221   6.056   0.897   0.027
 2441SOL    HW1 8222   6.106   0.811   0.016
 2441SOL    HW2 8223   6.067   0.953   6.971
 2442SOL     OW 8224   6.815   5.740   3.794
 2442SOL    HW1 8225   6.772   5.793   3.867
 2442SOL    HW2 8226   6.883   5.795   3.748
 2443SOL     OW 8227   3.324   0.026   6.226
 2443SOL    HW1 8228   3.249   0.042   6.290
 2443SOL    HW2 8229   3.288   7.021   6.138
 2444SOL     OW 8230   3.818   4.187   6.366
 2444SOL    HW1 8231   3.850   4.249   6.438
 2444SOL    HW2 8232   3.720   4.201   6.352
 2445SOL     OW 8233   6.941   1.190   2.611
 2445SOL    HW1 8234   0.014   1.208   2.618
 2445SOL    HW2 8235   6.925   1.092   2.606
 2446SOL     OW 8236   0.628   2.884   4.563
 2446SOL    HW1 8237   0.684   2.966   4.580
 2446SOL    HW2 8238   0.673   2.826   4.496
 2447SOL     OW 8239   2.136   1.079   0.617
 2447SOL    HW1 8240   2.164   0.995   0.571
 2447SOL    HW2 8241   2.143   1.067   0.716
 2448SOL     OW 8242   0.524   0.474   4.171
 2448SOL    HW1 8243   0.530   0.375   4.165
 2448SOL    HW2 8244   0.453   0.500   4.236
 2449SOL     OW 8245   0.008   4.039   2.769
 2449SOL    HW1 8246   0.025   3.994   2.681
 2449SOL    HW2 8247   6.936   4.053   2.782
 2450SOL     OW 8248   2.826   5.060   5.066
 2450SOL    HW1 8249   2.827   4.988   5.135
 2450SOL    HW2 8250   2.739   5.108   5.069
 2451SOL     OW 8251   0.563   0.035   3.806
 2451SOL    HW1 8252   0.528   0.125   3.781
 2451SOL    HW2 8253   0.489   6.994   3.805
 2452SOL     OW 8254   2.804   2.086   3.374
 2452SOL    HW1 8255   2.709   2.075   3.343
 2452SOL    HW2 8256   2.814   2.046   3.466
 2453SOL     OW 8257   6.577   3.462   0.642
 2453SOL    HW1 8258   6.525   3.476   0.726
 2453SOL    HW2 8259   6.675   3.457   0.664
 2454SOL     OW 8260   2.961   0.875   6.911
 2454SOL    HW1 8261   2.977   0.853   6.815
 2454SOL    HW2 8262   3.045   0.860   6.963
 2455SOL     OW 8263   5.283   0.765   1.041
 2455SOL    HW1 8264   5.233   0.680   1.055
 2455SOL    HW2 8265   5.377   0.754   1.073
 2456SOL     OW 8266   5.900   1.330   6.941
 2456SOL    HW1 8267   5.882   1.428   6.949
 2456SOL    HW2 8268   5.816   1.279   6.958
 2457SOL     OW 8269   6.245   6.079   6.739
 2457SOL    HW1 8270   6.174   6.011   6.722
 2457SOL    HW2 8271   6.330   6.051   6.693
 2458SOL     OW 8272   2.254   5.973   3.883
 2458SOL    HW1 8273   2.315   5.908   3.928
 2458SOL    HW2 8274   2.304   6.020   3.810
 2459SOL     OW 8275   2.633   6.545   6.875
 2459SOL    HW1 8276   2.671   6.468   6.824
 2459SOL    HW2 8277   2.633   6.524   6.973
 2460SOL     OW 8278   1.619   1.699   1.855
 2460SOL    HW1 8279   1.717   1.684   1.837
 2460SOL    HW2 8280   1.601   1.688   1.953
 2461SOL     OW 8281   4.683   0.178   2.866
 2461SOL    HW1 8282   4.761   0.136   2.821
 2461SOL    HW2 8283   4.600   0.129   2.841
 2462SOL     OW 8284   2.585   5.156   0.342
 2462SOL    HW1 8285   2.642   5.238   0.338
 2462SOL    HW2 8286   2.608   5.096   0.266
 2463SOL     OW 8287   6.448   2.638   4.672
 2463SOL    HW1 8288   6.523   2.621   4.609
 2463SOL    HW2 8289   6.367   2.589   4.642
 2464SOL     OW 8290   1.745   4.031   2.196
 2464SOL    HW1 8291   1.793   4.066   2.276
 2464SOL    HW2 8292   1.665   3.979   2.226
 2465SOL     OW 8293   1.227   0.031   2.052
 2465SOL    HW1 8294   1.186   0.043   2.142
 2465SOL    HW2 8295   1.327   0.035   2.061
 2466SOL     OW 8296   2.767   1.685   1.799
 2466SOL    HW1 8297   2.846   1.699   1.740
 2466SOL    HW2 8298   2.708   1.766   1.795
 2467SOL     OW 8299   5.657   1.680   4.675
 2467SOL    HW1 8300   5.660   1.595   4.624
 2467SOL    HW2 8301   5.739   1.689   4.731
 2468SOL     OW 8302   5.783   6.102   2.360
 2468SOL    HW1 8303   5.870   6.093   2.407
 2468SOL    HW2 8304   5.730   6.175   2.402
 2469SOL     OW 8305   4.016   4.348   5.321
 2469SOL    HW1 8306   3.947   4.420   5.313
 2469SOL    HW2 8307   4.094   4.369   5.262
 2470SOL     OW 8308   3.732   4.700   5.591
 2470SOL    HW1 8309   3.786   4.622   5.559
 2470SOL    HW2 8310   3.778   4.742   5.670
 2471SOL     OW 8311   2.612   6.392   0.631
 2471SOL    HW1 8312   2.562   6.470   0.593
 2471SOL    HW2 8313   2.548   6.320   0.656
 2472SOL     OW 8314   4.364   1.978   4.085
 2472SOL    HW1 8315   4.359   2.064   4.035
 2472SOL    HW2 8316   4.453   1.969   4.128
 2473SOL     OW 8317   2.040   4.085   5.079
 2473SOL    HW1 8318   2.139   4.083   5.097
 2473SOL    HW2 8319   2.021   4.037   4.994
 2474SOL     OW 8320   0.794   5.681   0.200
 2474SOL    HW1 8321   0.776   5.773   0.234
 2474SOL    HW2 8322   0.880   5.680   0.150
 2475SOL     OW 8323   5.048   0.897   1.173
 2475SOL    HW1 8324   5.127   0.877   1.115
 2475SOL    HW2 8325   4.965   0.899   1.117
 2476SOL     OW 8326   0.537   2.466   3.824
 2476SOL    HW1 8327   0.520   2.447   3.921
 2476SOL    HW2 8328   0.496   2.554   3.799
 2477SOL     OW 8329   5.394   1.054   2.289
 2477SOL    HW1 8330   5.370   1.083   2.196
 2477SOL    HW2 8331   5.376   0.956   2.298
 2478SOL     OW 8332   6.089   0.668   2.171
 2478SOL    HW1 8333   6.047   0.703   2.254
 2478SOL    HW2 8334   6.129   0.743   2.119
 2479SOL     OW 8335   1.373   3.914   1.685
 2479SOL    HW1 8336   1.455   3.969   1.701
 2479SOL    HW2 8337   1.383   3.826   1.732
 2480SOL     OW 8338   6.156   4.447   1.219
 2480SOL    HW1 8339   6.113   4.435   1.130
 2480SOL    HW2 8340   6.103   4.399   1.289
 2481SOL     OW 8341   2.640   0.232   0.448
 2481SOL    HW1 8342   2.668   0.175   0.370
 2481SOL    HW2 8343   2.696   0.315   0.450
 2482SOL     OW 8344   4.789   3.060   5.946
 2482SOL    HW1 8345   4.789   2.967   5.983
 2482SOL    HW2 8346   4.701   3.079   5.904
 2483SOL     OW 8347   2.372   1.834   6.830
 2483SOL    HW1 8348   2.304   1.796   6.893
 2483SOL    HW2 8349   2.453   1.862   6.882
 2484SOL     OW 8350   2.140   0.382   0.326
 2484SOL    HW1 8351   2.211   0.385   0.256
 2484SOL    HW2 8352   2.098   0.291   0.327
 2485SOL     OW 8353   4.914   4.409   2.089
 2485SOL    HW1 8354   4.820   4.391   2.118
 2485SOL    HW2 8355   4.971   4.329   2.110
 2486SOL     OW 8356   2.922   5.086   3.774
 2486SOL    HW1 8357   2.967   5.089   3.685
 2486SOL    HW2 8358   2.945   5.001   3.821
 2487SOL     OW 8359   3.861   5.798   0.027
 2487SOL    HW1 8360   3.778   5.813   6.999
 2487SOL    HW2 8361   3.843   5.823   0.122
 2488SOL     OW 8362   1.888   4.561   2.524
 2488SOL    HW1 8363   1.940   4.478   2.505
 2488SOL    HW2 8364   1.868   4.566   2.622
 2489SOL     OW 8365   2.367   6.137   3.690
 2489SOL    HW1 8366   2.460   6.103   3.675
 2489SOL    HW2 8367   2.345   6.206   3.621
 2490SOL     OW 8368   6.491   5.840   1.229
 2490SOL    HW1 8369   6.396   5.854   1.258
 2490SOL    HW2 8370   6.494   5.829   1.130
 2491SOL     OW 8371   2.558   5.686   1.180
 2491SOL    HW1 8372   2.645   5.734   1.176
 2491SOL    HW2 8373   2.555   5.617   1.108
 2492SOL     OW 8374   4.450   2.968   6.807
 2492SOL    HW1 8375   4.475   2.969   6.710
 2492SOL    HW2 8376   4.359   3.008   6.818
 2493SOL     OW 8377   5.854   0.478   3.019
 2493SOL    HW1 8378   5.917   0.544   3.061
 2493SOL    HW2 8379   5.765   0.521   3.004
 2494SOL     OW 8380   5.830   3.836   2.416
 2494SOL    HW1 8381   5.794   3.743   2.415
 2494SOL    HW2 8382   5.763   3.898   2.458
 2495SOL     OW 8383   5.396   0.428   4.946
 2495SOL    HW1 8384   5.479   0.472   4.983
 2495SOL    HW2 8385   5.363   0.481   4.868
 2496SOL     OW 8386   0.316   4.509   6.034
 2496SOL    HW1 8387   0.348   4.602   6.015
 2496SOL    HW2 8388   0.331   4.451   5.954
 2497SOL     OW 8389   0.175   1.255   1.315
 2497SOL    HW1 8390   0.195   1.260   1.413
 2497SOL    HW2 8391   0.162   1.159   1.289
 2498SOL     OW 8392   3.542   2.127   3.732
 2498SOL    HW1 8393   3.634   2.145   3.766
 2498SOL    HW2 8394   3.475   2.146   3.804
 2499SOL     OW 8395   4.599   2.010   4.192
 2499SOL    HW1 8396   4.570   2.079   4.258
 2499SOL    HW2 8397   4.699   2.001   4.196
 2500SOL     OW 8398   4.279   2.921   6.014
 2500SOL    HW1 8399   4.279   2.956   5.920
 2500SOL    HW2 8400   4.282   2.997   6.079
 2501SOL     OW 8401   0.001   5.910   6.862
 2501SOL    HW1 8402   6.999   5.875   6.952
 2501SOL    HW2 8403   6.981   5.997   6.845
 2502SOL     OW 8404   2.190   6.015   3.192
 2502SOL    HW1 8405   2.284   5.994   3.219
 2502SOL    HW2 8406   2.136   6.036   3.273
 2503SOL     OW 8407   3.559   5.550   5.845
 2503SOL    HW1 8408   3.583   5.466   5.795
 2503SOL    HW2 8409   3.515   5.526   5.931
 2504SOL     OW 8410   3.101   5.122   5.567
 2504SOL    HW1 8411   3.065   5.137   5.659
 2504SOL    HW2 8412   3.036   5.068   5.513
 2505SOL     OW 8413   1.768   6.355   4.410
 2505SOL    HW1 8414   1.837   6.323   4.345
 2505SOL    HW2 8415   1.687   6.296   4.405
 2506SOL     OW 8416   5.866   3.632   6.160
 2506SOL    HW1 8417   5.908   3.551   6.119
 2506SOL    HW2 8418   5.913   3.714   6.127
 2507SOL     OW 8419   0.261   3.941   0.828
 2507SOL    HW1 8420   0.175   3.909   0.787
 2507SOL    HW2 8421   0.276   4.036   0.803
 2508SOL     OW 8422   2.556   1.524   2.433
 2508SOL    HW1 8423   2.619   1.595   2.464
 2508SOL    HW2 8424   2.531   1.541   2.338
 2509SOL     OW 8425   6.235   2.642   2.850
 2509SOL    HW1 8426   6.270   2.711   2.786
 2509SOL    HW2 8427   6.146   2.609   2.817
 2510SOL     OW 8428   3.365   4.289   1.061
 2510SOL    HW1 8429   3.452   4.243   1.046
 2510SOL    HW2 8430   3.319   4.249   1.140
 2511SOL     OW 8431   2.486   2.239   4.257
 2511SOL    HW1 8432   2.412   2.305   4.241
 2511SOL    HW2 8433   2.458   2.149   4.224
 2512SOL     OW 8434   5.059   5.534   5.438
 2512SOL    HW1 8435   5.141   5.578   5.475
 2512SOL    HW2 8436   5.072   5.435   5.436
 2513SOL     OW 8437   0.829   3.223   5.621
 2513SOL    HW1 8438   0.822   3.261   5.714
 2513SOL    HW2 8439   0.851   3.296   5.557
 2514SOL     OW 8440   6.473   4.054   4.343
 2514SOL    HW1 8441   6.519   4.138   4.373
 2514SOL    HW2 8442   6.479   3.986   4.415
 2515SOL     OW 8443   1.300   7.021   0.604
 2515SOL    HW1 8444   1.232   0.068   0.603
 2515SOL    HW2 8445   1.284   6.958   0.528
 2516SOL     OW 8446   5.756   0.111   2.817
 2516SOL    HW1 8447   5.840   0.165   2.810
 2516SOL    HW2 8448   5.677   0.172   2.811
 2517SOL     OW 8449   1.922   5.714   5.224
 2517SOL    HW1 8450   2.017   5.726   5.252
 2517SOL    HW2 8451   1.901   5.776   5.149
 2518SOL     OW 8452   2.515   3.170   6.824
 2518SOL    HW1 8453   2.484   3.217   6.742
 2518SOL    HW2 8454   2.530   3.073   6.804
 2519SOL     OW 8455   5.144   5.409   4.445
 2519SOL    HW1 8456   5.165   5.387   4.540
 2519SOL    HW2 8457   5.225   5.393   4.388
 2520SOL     OW 8458   1.113   2.663   1.173
 2520SOL    HW1 8459   1.130   2.762   1.177
 2520SOL    HW2 8460   1.105   2.635   1.078
 2521SOL     OW 8461   0.802   6.452   5.510
 2521SOL    HW1 8462   0.868   6.478   5.581
 2521SOL    HW2 8463   0.762   6.363   5.533
 2522SOL     OW 8464   0.438   3.244   5.697
 2522SOL    HW1 8465   0.419   3.153   5.661
 2522SOL    HW2 8466   0.377   3.311   5.655
 2523SOL     OW 8467   0.325   3.286   1.118
 2523SOL    HW1 8468   0.242   3.329   1.082
 2523SOL    HW2 8469   0.404   3.343   1.096
 2524SOL     OW 8470   0.799   5.891   4.071
 2524SOL    HW1 8471   0.746   5.919   3.991
 2524SOL    HW2 8472   0.747   5.910   4.154
 2525SOL     OW 8473   1.073   2.408   4.940
 2525SOL    HW1 8474   1.045   2.384   5.033
 2525SOL    HW2 8475   0.992   2.413   4.881
 2526SOL     OW 8476   1.459   3.854   6.076
 2526SOL    HW1 8477   1.457   3.947   6.040
 2526SOL    HW2 8478   1.388   3.800   6.032
 2527SOL     OW 8479   4.995   0.140   4.828
 2527SOL    HW1 8480   4.969   0.061   4.883
 2527SOL    HW2 8481   5.076   0.184   4.868
 2528SOL     OW 8482   6.397   4.557   1.178
 2528SOL    HW1 8483   6.301   4.568   1.205
 2528SOL    HW2 8484   6.402   4.498   1.097
 2529SOL     OW 8485   6.352   5.573   6.251
 2529SOL    HW1 8486   6.347   5.566   6.350
 2529SOL    HW2 8487   6.357   5.481   6.211
 2530SOL     OW 8488   1.061   6.276   4.653
 2530SOL    HW1 8489   1.010   6.206   4.703
 2530SOL    HW2 8490   1.075   6.245   4.559
 2531SOL     OW 8491   5.620   5.745   4.192
 2531SOL    HW1 8492   5.551   5.709   4.254
 2531SOL    HW2 8493   5.645   5.838   4.221
 2532SOL     OW 8494   0.924   6.154   0.783
 2532SOL    HW1 8495   0.867   6.124   0.706
 2532SOL    HW2 8496   0.917   6.088   0.857
 2533SOL     OW 8497   4.566   6.348   3.618
 2533SOL    HW1 8498   4.610   6.391   3.696
 2533SOL    HW2 8499   4.483   6.302   3.647
 2534SOL     OW 8500   2.292   6.988   3.314
 2534SOL    HW1 8501   2.242   6.976   3.229
 2534SOL    HW2 8502   2.272   0.053   3.352
 2535SOL     OW 8503   2.258   2.671   6.511
 2535SOL    HW1 8504   2.214   2.586   6.482
 2535SOL    HW2 8505   2.259   2.676   6.610
 2536SOL     OW 8506   0.596   2.017   3.340
 2536SOL    HW1 8507   0.638   1.967   3.416
 2536SOL    HW2 8508   0.577   2.111   3.369
 2537SOL     OW 8509   5.395   6.169   6.673
 2537SOL    HW1 8510   5.450   6.252   6.668
 2537SOL    HW2 8511   5.388   6.128   6.582
 2538SOL     OW 8512   1.483   4.330   4.661
 2538SOL    HW1 8513   1.485   4.413   4.717
 2538SOL    HW2 8514   1.478   4.355   4.564
 2539SOL     OW 8515   4.435   0.200   5.717
 2539SOL    HW1 8516   4.473   0.151   5.796
 2539SOL    HW2 8517   4.401   0.289   5.747
 2540SOL     OW 8518   4.991   1.200   1.341
 2540SOL    HW1 8519   4.949   1.159   1.422
 2540SOL    HW2 8520   4.920   1.222   1.274
 2541SOL     OW 8521   1.531   0.483   5.756
 2541SOL    HW1 8522   1.495   0.566   5.800
 2541SOL    HW2 8523   1.566   0.421   5.826
 2542SOL     OW 8524   4.532   1.532   5.672
 2542SOL    HW1 8525   4.534   1.596   5.596
 2542SOL    HW2 8526   4.524   1.583   5.758
 2543SOL     OW 8527   2.119   0.909   3.280
 2543SOL    HW1 8528   2.048   0.896   3.211
 2543SOL    HW2 8529   2.163   0.821   3.299
 2544SOL     OW 8530   0.435   5.275   2.442
 2544SOL    HW1 8531   0.449   5.373   2.452
 2544SOL    HW2 8532   0.380   5.257   2.361
 2545SOL     OW 8533   1.733   0.505   1.208
 2545SOL    HW1 8534   1.725   0.600   1.178
 2545SOL    HW2 8535   1.706   0.498   1.304
 2546SOL     OW 8536   6.951   2.690   2.006
 2546SOL    HW1 8537   6.907   2.620   2.063
 2546SOL    HW2 8538   6.884   2.728   1.943
 2547SOL     OW 8539   5.624   5.341   6.824
 2547SOL    HW1 8540   5.606   5.439   6.816
 2547SOL    HW2 8541   5.704   5.317   6.769
 2548SOL     OW 8542   2.995   0.260   5.141
 2548SOL    HW1 8543   3.075   0.200   5.136
 2548SOL    HW2 8544   2.997   0.311   5.227
 2549SOL     OW 8545   1.966   1.955   1.874
 2549SOL    HW1 8546   1.874   1.960   1.833
 2549SOL    HW2 8547   1.977   2.027   1.942
 2550SOL     OW 8548   6.516   0.575   6.715
 2550SOL    HW1 8549   6.430   0.565   6.766
 2550SOL    HW2 8550   6.565   0.655   6.749
 2551SOL     OW 8551   3.142   5.069   0.028
 2551SOL    HW1 8552   3.175   5.070   0.123
 2551SOL    HW2 8553   3.207   5.020   6.996
 2552SOL     OW 8554   1.521   5.697   5.590
 2552SOL    HW1 8555   1.605   5.701   5.536
 2552SOL    HW2 8556   1.544   5.699   5.687
 2553SOL     OW 8557   2.554   3.569   6.825
 2553SOL    HW1 8558   2.630   3.539   6.767
 2553SOL    HW2 8559   2.469   3.531   6.789
 2554SOL     OW 8560   1.373   5.800   6.305
 2554SOL    HW1 8561   1.276   5.824   6.310
 2554SOL    HW2 8562   1.402   5.760   6.392
 2555SOL     OW 8563   6.018   6.340   6.303
 2555SOL    HW1 8564   6.088   6.277   6.336
 2555SOL    HW2 8565   6.058   6.430   6.286
 2556SOL     OW 8566   3.916   5.943   0.722
 2556SOL    HW1 8567   3.979   5.982   0.655
 2556SOL    HW2 8568   3.825   5.983   0.710
 2557SOL     OW 8569   2.263   1.954   6.359
 2557SOL    HW1 8570   2.318   1.926   6.281
 2557SOL    HW2 8571   2.245   2.052   6.354
 2558SOL     OW 8572   3.647   3.277   6.215
 2558SOL    HW1 8573   3.612   3.303   6.125
 2558SOL    HW2 8574   3.714   3.203   6.205
 2559SOL     OW 8575   6.596   3.260   4.269
 2559SOL    HW1 8576   6.610   3.288   4.364
 2559SOL    HW2 8577   6.500   3.238   4.254
 2560SOL     OW 8578   4.937   3.305   4.065
 2560SOL    HW1 8579   4.974   3.214   4.051
 2560SOL    HW2 8580   4.928   3.323   4.163
 2561SOL     OW 8581   3.727   0.385   3.103
 2561SOL    HW1 8582   3.734   0.429   3.013
 2561SOL    HW2 8583   3.721   0.455   3.174
 2562SOL     OW 8584   2.371   5.330   2.293
 2562SOL    HW1 8585   2.363   5.380   2.380
 2562SOL    HW2 8586   2.467   5.322   2.268
 2563SOL     OW 8587   3.835   1.791   7.009
 2563SOL    HW1 8588   3.802   1.727   0.052
 2563SOL    HW2 8589   3.831   1.748   6.919
 2564SOL     OW 8590   1.222   6.819   6.222
 2564SOL    HW1 8591   1.214   6.919   6.220
 2564SOL    HW2 8592   1.250   6.786   6.132
 2565SOL     OW 8593   0.163   0.670   1.066
 2565SOL    HW1 8594   0.132   0.765   1.076
 2565SOL    HW2 8595   0.259   0.670   1.037
 2566SOL     OW 8596   1.355   6.404   0.359
 2566SOL    HW1 8597   1.275   6.452   0.321
 2566SOL    HW2 8598   1.372   6.321   0.305
 2567SOL     OW 8599   1.458   1.173   2.619
 2567SOL    HW1 8600   1.554   1.185   2.643
 2567SOL    HW2 8601   1.420   1.097   2.671
 2568SOL     OW 8602   2.596   0.755   0.448
 2568SOL    HW1 8603   2.641   0.834   0.407
 2568SOL    HW2 8604   2.519   0.727   0.391
 2569SOL     OW 8605   2.378   1.558   2.841
 2569SOL    HW1 8606   2.385   1.503   2.757
 2569SOL    HW2 8607   2.372   1.655   2.816
 2570SOL     OW 8608   5.735   0.249   6.501
 2570SOL    HW1 8609   5.701   0.181   6.566
 2570SOL    HW2 8610   5.729   0.340   6.540
 2571SOL     OW 8611   2.848   3.619   4.597
 2571SOL    HW1 8612   2.887   3.573   4.517
 2571SOL    HW2 8613   2.766   3.569   4.627
 2572SOL     OW 8614   1.786   6.618   1.613
 2572SOL    HW1 8615   1.700   6.579   1.578
 2572SOL    HW2 8616   1.828   6.553   1.676
 2573SOL     OW 8617   6.769   1.445   2.653
 2573SOL    HW1 8618   6.826   1.452   2.572
 2573SOL    HW2 8619   6.770   1.532   2.703
 2574SOL     OW 8620   0.200   2.643   0.441
 2574SOL    HW1 8621   0.188   2.544   0.449
 2574SOL    HW2 8622   0.142   2.678   0.368
 2575SOL     OW 8623   4.985   4.179   0.401
 2575SOL    HW1 8624   4.979   4.088   0.361
 2575SOL    HW2 8625   5.025   4.242   0.334
 2576SOL     OW 8626   3.865   0.157   3.563
 2576SOL    HW1 8627   3.840   0.164   3.467
 2576SOL    HW2 8628   3.956   0.117   3.571
 2577SOL     OW 8629   4.455   6.632   2.814
 2577SOL    HW1 8630   4.363   6.599   2.790
 2577SOL    HW2 8631   4.488   6.582   2.895
 2578SOL     OW 8632   4.658   2.808   4.831
 2578SOL    HW1 8633   4.668   2.825   4.929
 2578SOL    HW2 8634   4.575   2.854   4.798
 2579SOL     OW 8635   1.224   1.279   3.875
 2579SOL    HW1 8636   1.288   1.355   3.864
 2579SOL    HW2 8637   1.264   1.211   3.937
 2580SOL     OW 8638   1.855   3.040   6.460
 2580SOL    HW1 8639   1.852   3.030   6.559
 2580SOL    HW2 8640   1.938   2.998   6.424
 2581SOL     OW 8641   6.166   4.784   1.865
 2581SOL    HW1 8642   6.133   4.797   1.771
 2581SOL    HW2 8643   6.222   4.862   1.892
 2582SOL     OW 8644   1.465   4.273   2.560
 2582SOL    HW1 8645   1.417   4.189   2.536
 2582SOL    HW2 8646   1.468   4.283   2.659
 2583SOL     OW 8647   0.688   1.485   1.091
 2583SOL    HW1 8648   0.599   1.445   1.070
 2583SOL    HW2 8649   0.703   1.483   1.190
 2584SOL     OW 8650   3.690   5.719   0.473
 2584SOL    HW1 8651   3.682   5.702   0.571
 2584SOL    HW2 8652   3.697   5.817   0.456
 2585SOL     OW 8653   3.444   0.936   0.238
 2585SOL    HW1 8654   3.530   0.928   0.288
 2585SOL    HW2 8655   3.369   0.949   0.303
 2586SOL     OW 8656   4.670   1.906   3.641
 2586SOL    HW1 8657   4.635   1.859   3.721
 2586SOL    HW2 8658   4.664   2.005   3.655
 2587SOL     OW 8659   6.611   1.029   4.343
 2587SOL    HW1 8660   6.699   0.988   4.321
 2587SOL    HW2 8661   6.565   1.057   4.259
 2588SOL     OW 8662   4.989   7.025   0.393
 2588SOL    HW1 8663   5.028   6.940   0.355
 2588SOL    HW2 8664   4.911   7.002   0.451
 2589SOL     OW 8665   0.435   5.937   4.868
 2589SOL    HW1 8666   0.459   5.999   4.943
 2589SOL    HW2 8667   0.519   5.902   4.825
 2590SOL     OW 8668   3.350   6.156   2.318
 2590SOL    HW1 8669   3.253   6.143   2.339
 2590SOL    HW2 8670   3.364   6.146   2.220
 2591SOL     OW 8671   6.258   6.097   2.724
 2591SOL    HW1 8672   6.331   6.153   2.761
 2591SOL    HW2 8673   6.170   6.145   2.734
 2592SOL     OW 8674   2.422   6.743   1.362
 2592SOL    HW1 8675   2.513   6.766   1.328
 2592SOL    HW2 8676   2.382   6.822   1.409
 2593SOL     OW 8677   2.890   6.302   1.539
 2593SOL    HW1 8678   2.817   6.236   1.553
 2593SOL    HW2 8679   2.852   6.394   1.534
 2594SOL     OW 8680   0.200   6.327   5.810
 2594SOL    HW1 8681   0.179   6.355   5.717
 2594SOL    HW2 8682   0.119   6.284   5.851
 2595SOL     OW 8683   6.564   1.422   5.577
 2595SOL    HW1 8684   6.520   1.388   5.494
 2595SOL    HW2 8685   6.543   1.361   5.653
 2596SOL     OW 8686   3.862   2.276   1.731
 2596SOL    HW1 8687   3.860   2.208   1.803
 2596SOL    HW2 8688   3.775   2.325   1.727
 2597SOL     OW 8689   1.724   3.917   6.877
 2597SOL    HW1 8690   1.822   3.905   6.861
 2597SOL    HW2 8691   1.701   3.884   6.968
 2598SOL     OW 8692   6.347   0.997   4.473
 2598SOL    HW1 8693   6.342   1.092   4.505
 2598SOL    HW2 8694   6.425   0.987   4.411
 2599SOL     OW 8695   2.873   0.342   0.731
 2599SOL    HW1 8696   2.782   0.370   0.702
 2599SOL    HW2 8697   2.882   0.243   0.722
 2600SOL     OW 8698   5.037   3.479   4.522
 2600SOL    HW1 8699   5.001   3.449   4.610
 2600SOL    HW2 8700   5.002   3.419   4.450
 2601SOL     OW 8701   2.795   1.550   6.661
 2601SOL    HW1 8702   2.740   1.495   6.724
 2601SOL    HW2 8703   2.735   1.597   6.597
 2602SOL     OW 8704   6.938   4.794   3.901
 2602SOL    HW1 8705   6.973   4.881   3.936
 2602SOL    HW2 8706   6.956   4.788   3.803
 2603SOL     OW 8707   2.013   1.804   2.113
 2603SOL    HW1 8708   1.996   1.864   2.035
 2603SOL    HW2 8709   2.112   1.792   2.125
 2604SOL     OW 8710   4.669   1.469   2.816
 2604SOL    HW1 8711   4.765   1.485   2.836
 2604SOL    HW2 8712   4.658   1.379   2.773
 2605SOL     OW 8713   2.988   4.823   3.296
 2605SOL    HW1 8714   2.962   4.809   3.391
 2605SOL    HW2 8715   3.088   4.831   3.290
 2606SOL     OW 8716   0.385   4.571   0.782
 2606SOL    HW1 8717   0.286   4.583   0.786
 2606SOL    HW2 8718   0.426   4.610   0.865
 2607SOL     OW 8719   0.875   1.043   5.497
 2607SOL    HW1 8720   0.871   0.987   5.415
 2607SOL    HW2 8721   0.847   1.137   5.475
 2608SOL     OW 8722   3.977   5.211   2.175
 2608SOL    HW1 8723   4.043   5.245   2.241
 2608SOL    HW2 8724   4.024   5.158   2.104
 2609SOL     OW 8725   0.344   1.945   2.166
 2609SOL    HW1 8726   0.291   1.916   2.245
 2609SOL    HW2 8727   0.344   1.873   2.096
 2610SOL     OW 8728   0.088   4.968   4.230
 2610SOL    HW1 8729   0.127   4.885   4.190
 2610SOL    HW2 8730   0.145   4.998   4.307
 2611SOL     OW 8731   5.107   6.504   1.453
 2611SOL    HW1 8732   5.077   6.411   1.471
 2611SOL    HW2 8733   5.027   6.565   1.447
 2612SOL     OW 8734   6.416   6.587   6.170
 2612SOL    HW1 8735   6.511   6.582   6.138
 2612SOL    HW2 8736   6.398   6.679   6.206
 2613SOL     OW 8737   2.772   6.595   1.182
 2613SOL    HW1 8738   2.709   6.547   1.121
 2613SOL    HW2 8739   2.862   6.601   1.140
 2614SOL     OW 8740   6.398   0.272   6.080
 2614SOL    HW1 8741   6.341   0.282   5.998
 2614SOL    HW2 8742   6.494   0.266   6.053
 2615SOL     OW 8743   6.087   3.642   2.683
 2615SOL    HW1 8744   6.123   3.650   2.776
 2615SOL    HW2 8745   6.140   3.573   2.633
 2616SOL     OW 8746   4.026   3.184   4.040
 2616SOL    HW1 8747   4.047   3.196   4.137
 2616SOL    HW2 8748   4.049   3.267   3.991
 2617SOL     OW 8749   3.859   6.278   1.093
 2617SOL    HW1 8750   3.902   6.195   1.058
 2617SOL    HW2 8751   3.870   6.282   1.192
 2618SOL     OW 8752   6.981   6.949   4.244
 2618SOL    HW1 8753   6.957   6.855   4.268
 2618SOL    HW2 8754   6.995   7.002   4.328
 2619SOL     OW 8755   3.810   1.023   2.923
 2619SOL    HW1 8756   3.742   1.030   2.850
 2619SOL    HW2 8757   3.880   1.094   2.910
 2620SOL     OW 8758   0.772   6.550   3.038
 2620SOL    HW1 8759   0.865   6.522   3.016
 2620SOL    HW2 8760   0.755   6.641   2.999
 2621SOL     OW 8761   1.784   5.697   2.534
 2621SOL    HW1 8762   1.789   5.786   2.488
 2621SOL    HW2 8763   1.689   5.668   2.541
 2622SOL     OW 8764   2.274   2.443   6.096
 2622SOL    HW1 8765   2.180   2.451   6.128
 2622SOL    HW2 8766   2.284   2.358   6.042
 2623SOL     OW 8767   3.440   1.601   5.567
 2623SOL    HW1 8768   3.408   1.537   5.497
 2623SOL    HW2 8769   3.411   1.569   5.657
 2624SOL     OW 8770   6.144   2.691   5.091
 2624SOL    HW1 8771   6.233   2.732   5.112
 2624SOL    HW2 8772   6.084   2.698   5.172
 2625SOL     OW 8773   3.336   1.998   5.718
 2625SOL    HW1 8774   3.300   1.912   5.754
 2625SOL    HW2 8775   3.261   2.061   5.700
 2626SOL     OW 8776   0.250   0.533   5.275
 2626SOL    HW1 8777   0.151   0.546   5.278
 2626SOL    HW2 8778   0.295   0.620   5.295
 2627SOL     OW 8779   1.134   0.970   5.024
 2627SOL    HW1 8780   1.134   1.070   5.032
 2627SOL    HW2 8781   1.077   0.932   5.097
 2628SOL     OW 8782   1.843   4.571   6.629
 2628SOL    HW1 8783   1.782   4.650   6.639
 2628SOL    HW2 8784   1.856   4.528   6.718
 2629SOL     OW 8785   3.307   4.155   1.786
 2629SOL    HW1 8786   3.214   4.192   1.788
 2629SOL    HW2 8787   3.313   4.076   1.848
 2630SOL     OW 8788   3.228   1.642   3.795
 2630SOL    HW1 8789   3.317   1.633   3.839
 2630SOL    HW2 8790   3.216   1.736   3.761
 2631SOL     OW 8791   5.089   0.292   4.241
 2631SOL    HW1 8792   5.116   0.345   4.160
 2631SOL    HW2 8793   5.149   0.314   4.317
 2632SOL     OW 8794   3.004   2.142   6.395
 2632SOL    HW1 8795   2.916   2.151   6.442
 2632SOL    HW2 8796   3.072   2.197   6.444
 2633SOL     OW 8797   6.640   1.518   5.208
 2633SOL    HW1 8798   6.653   1.600   5.264
 2633SOL    HW2 8799   6.543   1.508   5.186
 2634SOL     OW 8800   1.357   4.084   2.952
 2634SOL    HW1 8801   1.288   4.025   2.993
 2634SOL    HW2 8802   1.380   4.049   2.860
 2635SOL     OW 8803   6.425   5.993   5.370
 2635SOL    HW1 8804   6.459   6.087   5.368
 2635SOL    HW2 8805   6.396   5.967   5.278
 2636SOL     OW 8806   4.855   0.540   5.591
 2636SOL    HW1 8807   4.807   0.545   5.678
 2636SOL    HW2 8808   4.795   0.500   5.522
 2637SOL     OW 8809   5.687   1.836   3.923
 2637SOL    HW1 8810   5.636   1.880   3.850
 2637SOL    HW2 8811   5.740   1.905   3.973
 2638SOL     OW 8812   6.823   6.866   2.797
 2638SOL    HW1 8813   6.790   6.924   2.722
 2638SOL    HW2 8814   6.763   6.786   2.806
 2639SOL     OW 8815   0.937   0.664   1.754
 2639SOL    HW1 8816   0.880   0.601   1.807
 2639SOL    HW2 8817   0.981   0.613   1.679
 2640SOL     OW 8818   0.244   6.495   4.504
 2640SOL    HW1 8819   0.268   6.408   4.544
 2640SOL    HW2 8820   0.298   6.510   4.421
 2641SOL     OW 8821   4.908   2.928   1.817
 2641SOL    HW1 8822   4.834   2.947   1.882
 2641SOL    HW2 8823   4.874   2.943   1.724
 2642SOL     OW 8824   4.199   6.920   4.408
 2642SOL    HW1 8825   4.256   6.865   4.470
 2642SOL    HW2 8826   4.137   6.861   4.357
 2643SOL     OW 8827   0.868   3.633   2.700
 2643SOL    HW1 8828   0.834   3.684   2.621
 2643SOL    HW2 8829   0.888   3.696   2.774
 2644SOL     OW 8830   6.371   5.810   6.112
 2644SOL    HW1 8831   6.357   5.734   6.175
 2644SOL    HW2 8832   6.345   5.782   6.020
 2645SOL     OW 8833   4.700   5.787   4.378
 2645SOL    HW1 8834   4.737   5.723   4.445
 2645SOL    HW2 8835   4.772   5.813   4.314
 2646SOL     OW 8836   5.800   0.264   6.891
 2646SOL    HW1 8837   5.712   0.226   6.917
 2646SOL    HW2 8838   5.849   0.293   6.974
 2647SOL     OW 8839   6.790   0.957   2.263
 2647SOL    HW1 8840   6.797   1.057   2.258
 2647SOL    HW2 8841   6.843   0.925   2.342
 2648SOL     OW 8842   0.365   6.887   3.536
 2648SOL    HW1 8843   0.449   6.843   3.503
 2648SOL    HW2 8844   0.352   6.865   3.632
 2649SOL     OW 8845   6.064   3.524   6.433
 2649SOL    HW1 8846   6.060   3.548   6.530
 2649SOL    HW2 8847   6.066   3.607   6.377
 2650SOL     OW 8848   0.407   3.808   4.257
 2650SOL    HW1 8849   0.332   3.743   4.262
 2650SOL    HW2 8850   0.493   3.759   4.240
 2651SOL     OW 8851   0.449   1.920   0.158
 2651SOL    HW1 8852   0.481   1.832   0.123
 2651SOL    HW2 8853   0.389   1.904   0.236
 2652SOL     OW 8854   3.407   3.843   3.973
 2652SOL    HW1 8855   3.344   3.771   3.942
 2652SOL    HW2 8856   3.356   3.909   4.029
 2653SOL     OW 8857   5.503   0.198   5.437
 2653SOL    HW1 8858   5.416   0.221   5.479
 2653SOL    HW2 8859   5.516   0.253   5.354
 2654SOL     OW 8860   5.401   4.979   1.118
 2654SOL    HW1 8861   5.372   4.886   1.095
 2654SOL    HW2 8862   5.398   4.992   1.217
 2655SOL     OW 8863   4.836   5.077   4.132
 2655SOL    HW1 8864   4.819   5.174   4.151
 2655SOL    HW2 8865   4.787   5.021   4.199
 2656SOL     OW 8866   3.785   5.160   3.946
 2656SOL    HW1 8867   3.746   5.105   3.872
 2656SOL    HW2 8868   3.866   5.113   3.983
 2657SOL     OW 8869   1.838   4.230   6.656
 2657SOL    HW1 8870   1.912   4.174   6.692
 2657SOL    HW2 8871   1.870   4.282   6.577
 2658SOL     OW 8872   4.836   4.700   0.224
 2658SOL    HW1 8873   4.870   4.609   0.245
 2658SOL    HW2 8874   4.755   4.694   0.167
 2659SOL     OW 8875   5.956   2.993   5.292
 2659SOL    HW1 8876   6.005   3.032   5.214
 2659SOL    HW2 8877   5.859   3.017   5.286
 2660SOL     OW 8878   0.848   1.230   0.753
 2660SOL    HW1 8879   0.806   1.311   0.713
 2660SOL    HW2 8880   0.899   1.180   0.682
 2661SOL     OW 8881   2.228   6.369   0.851
 2661SOL    HW1 8882   2.248   6.363   0.948
 2661SOL    HW2 8883   2.296   6.317   0.799
 2662SOL     OW 8884   4.431   0.051   5.492
 2662SOL    HW1 8885   4.434   0.100   5.579
 2662SOL    HW2 8886   4.413   0.115   5.417
 2663SOL     OW 8887   2.431   3.870   0.902
 2663SOL    HW1 8888   2.455   3.967   0.893
 2663SOL    HW2 8889   2.425   3.847   1.000
 2664SOL     OW 8890   4.273   3.661   5.245
 2664SOL    HW1 8891   4.241   3.718   5.170
 2664SOL    HW2 8892   4.367   3.686   5.267
 2665SOL     OW 8893   2.420   2.746   5.271
 2665SOL    HW1 8894   2.454   2.836   5.242
 2665SOL    HW2 8895   2.491   2.678   5.255
 2666SOL     OW 8896   5.564   4.038   1.527
 2666SOL    HW1 8897   5.496   4.074   1.590
 2666SOL    HW2 8898   5.628   3.979   1.577
 2667SOL     OW 8899   1.622   5.964   4.204
 2667SOL    HW1 8900   1.630   5.867   4.228
 2667SOL    HW2 8901   1.570   6.012   4.275
 2668SOL     OW 8902   5.783   3.526   4.479
 2668SOL    HW1 8903   5.712   3.465   4.516
 2668SOL    HW2 8904   5.758   3.621   4.498
 2669SOL     OW 8905   2.824   4.630   5.413
 2669SOL    HW1 8906   2.751   4.565   5.434
 2669SOL    HW2 8907   2.867   4.604   5.326
 2670SOL     OW 8908   5.647   2.413   6.597
 2670SOL    HW1 8909   5.683   2.368   6.678
 2670SOL    HW2 8910   5.716   2.412   6.525
 2671SOL     OW 8911   3.973   4.876   6.369
 2671SOL    HW1 8912   4.035   4.814   6.418
 2671SOL    HW2 8913   3.901   4.907   6.432
 2672SOL     OW 8914   0.344   5.253   0.572
 2672SOL    HW1 8915   0.427   5.290   0.613
 2672SOL    HW2 8916   0.319   5.309   0.493
 2673SOL     OW 8917   6.204   1.358   4.455
 2673SOL    HW1 8918   6.250   1.309   4.529
 2673SOL    HW2 8919   6.209   1.304   4.371
 2674SOL     OW 8920   1.245   4.309   3.603
 2674SOL    HW1 8921   1.268   4.260   3.519
 2674SOL    HW2 8922   1.146   4.326   3.605
 2675SOL     OW 8923   6.232   5.591   3.956
 2675SOL    HW1 8924   6.254   5.593   4.054
 2675SOL    HW2 8925   6.313   5.617   3.904
 2676SOL     OW 8926   4.039   1.549   0.951
 2676SOL    HW1 8927   4.120   1.498   0.979
 2676SOL    HW2 8928   4.063   1.614   0.880
 2677SOL     OW 8929   3.028   3.954   0.433
 2677SOL    HW1 8930   2.943   3.902   0.431
 2677SOL    HW2 8931   3.068   3.951   0.525
 2678SOL     OW 8932   6.913   3.428   1.468
 2678SOL    HW1 8933   6.847   3.382   1.527
 2678SOL    HW2 8934   7.001   3.379   1.472
 2679SOL     OW 8935   3.553   4.974   0.911
 2679SOL    HW1 8936   3.458   4.982   0.939
 2679SOL    HW2 8937   3.573   4.878   0.891
 2680SOL     OW 8938   0.690   1.307   0.517
 2680SOL    HW1 8939   0.699   1.400   0.552
 2680SOL    HW2 8940   0.610   1.300   0.458
 2681SOL     OW 8941   1.223   2.456   4.724
 2681SOL    HW1 8942   1.155   2.473   4.795
 2681SOL    HW2 8943   1.212   2.522   4.650
 2682SOL     OW 8944   5.444   4.133   2.459
 2682SOL    HW1 8945   5.470   4.224   2.492
 2682SOL    HW2 8946   5.388   4.143   2.377
 2683SOL     OW 8947   2.522   3.652   0.604
 2683SOL    HW1 8948   2.516   3.676   0.701
 2683SOL    HW2 8949   2.436   3.676   0.558
 2684SOL     OW 8950   4.760   5.693   1.193
 2684SOL    HW1 8951   4.683   5.630   1.192
 2684SOL    HW2 8952   4.739   5.774   1.138
 2685SOL     OW 8953   6.230   6.240   6.957
 2685SOL    HW1 8954   6.151   6.300   6.946
 2685SOL    HW2 8955   6.243   6.185   6.875
 2686SOL     OW 8956   1.818   1.617   5.988
 2686SOL    HW1 8957   1.827   1.637   5.890
 2686SOL    HW2 8958   1.756   1.684   6.030
 2687SOL     OW 8959   4.655   4.389   2.153
 2687SOL    HW1 8960   4.668   4.486   2.132
 2687SOL    HW2 8961   4.586   4.350   2.092
 2688SOL     OW 8962   4.628   4.595   0.048
 2688SOL    HW1 8963   4.553   4.579   0.112
 2688SOL    HW2 8964   4.675   4.509   0.028
 2689SOL     OW 8965   1.284   3.399   3.880
 2689SOL    HW1 8966   1.327   3.330   3.938
 2689SOL    HW2 8967   1.200   3.432   3.925
 2690SOL     OW 8968   3.332   3.661   4.215
 2690SOL    HW1 8969   3.419   3.618   4.238
 2690SOL    HW2 8970   3.334   3.692   4.119
 2691SOL     OW 8971   1.500   5.511   2.235
 2691SOL    HW1 8972   1.517   5.609   2.239
 2691SOL    HW2 8973   1.587   5.463   2.223
 2692SOL     OW 8974   3.436   5.118   3.192
 2692SOL    HW1 8975   3.505   5.069   3.138
 2692SOL    HW2 8976   3.347   5.075   3.178
 2693SOL     OW 8977   1.050   4.274   2.793
 2693SOL    HW1 8978   1.088   4.365   2.804
 2693SOL    HW2 8979   1.018   4.262   2.699
 2694SOL     OW 8980   4.659   6.762   3.032
 2694SOL    HW1 8981   4.621   6.836   3.088
 2694SOL    HW2 8982   4.614   6.676   3.056
 2695SOL     OW 8983   4.409   0.496   2.579
 2695SOL    HW1 8984   4.497   0.533   2.547
 2695SOL    HW2 8985   4.403   0.506   2.678
 2696SOL     OW 8986   4.075   3.413   5.661
 2696SOL    HW1 8987   4.063   3.480   5.734
 2696SOL    HW2 8988   4.092   3.461   5.574
 2697SOL     OW 8989   3.356   1.802   2.959
 2697SOL    HW1 8990   3.286   1.847   3.015
 2697SOL    HW2 8991   3.362   1.849   2.870
 2698SOL     OW 8992   1.860   6.041   0.309
 2698SOL    HW1 8993   1.935   5.987   0.269
 2698SOL    HW2 8994   1.773   5.996   0.287
 2699SOL     OW 8995   3.170   6.684   0.321
 2699SOL    HW1 8996   3.106   6.708   0.395
 2699SOL    HW2 8997   3.147   6.594   0.285
 2700SOL     OW 8998   1.910   3.805   0.645
 2700SOL    HW1 8999   1.903   3.889   0.699
 2700SOL    HW2 9000   1.896   3.726   0.704
 2701SOL     OW 9001   4.375   0.899   6.382
 2701SOL    HW1 9002   4.464   0.859   6.403
 2701SOL    HW2 9003   4.385   0.998   6.373
 2702SOL     OW 9004   0.511   3.009   4.161
 2702SOL    HW1 9005   0.577   2.933   4.159
 2702SOL    HW2 9006   0.480   3.028   4.068
 2703SOL     OW 9007   2.107   0.402   2.328
 2703SOL    HW1 9008   2.008   0.390   2.336
 2703SOL    HW2 9009   2.132   0.495   2.354
 2704SOL     OW 9010   6.833   6.564   1.098
 2704SOL    HW1 9011   6.910   6.590   1.156
 2704SOL    HW2 9012   6.864   6.556   1.003
 2705SOL     OW 9013   0.834   5.057   4.156
 2705SOL    HW1 9014   0.892   5.011   4.089
 2705SOL    HW2 9015   0.889   5.083   4.236
 2706SOL     OW 9016   0.655   0.581   1.521
 2706SOL    HW1 9017   0.723   0.517   1.558
 2706SOL    HW2 9018   0.644   0.564   1.423
 2707SOL     OW 9019   2.791   0.439   4.632
 2707SOL    HW1 9020   2.709   0.445   4.688
 2707SOL    HW2 9021   2.770   0.467   4.538
 2708SOL     OW 9022   0.892   2.642   0.160
 2708SOL    HW1 9023   0.949   2.595   0.227
 2708SOL    HW2 9024   0.841   2.576   0.107
 2709SOL     OW 9025   5.973   6.501   0.169
 2709SOL    HW1 9026   6.056   6.504   0.225
 2709SOL    HW2 9027   5.905   6.443   0.214
 2710SOL     OW 9028   0.893   2.790   3.760
 2710SOL    HW1 9029   0.941   2.718   3.810
 2710SOL    HW2 9030   0.822   2.829   3.818
 2711SOL     OW 9031   2.679   1.544   4.140
 2711SOL    HW1 9032   2.611   1.496   4.085
 2711SOL    HW2 9033   2.703   1.630   4.095
 2712SOL     OW 9034   3.200   4.505   0.634
 2712SOL    HW1 9035   3.130   4.526   0.566
 2712SOL    HW2 9036   3.232   4.411   0.621
 2713SOL     OW 9037   2.039   2.103   5.204
 2713SOL    HW1 9038   2.126   2.142   5.173
 2713SOL    HW2 9039   1.987   2.173   5.254
 2714SOL     OW 9040   4.532   2.221   0.284
 2714SOL    HW1 9041   4.435   2.230   0.307
 2714SOL    HW2 9042   4.580   2.305   0.310
 2715SOL     OW 9043   4.966   1.627   0.620
 2715SOL    HW1 9044   5.005   1.536   0.609
 2715SOL    HW2 9045   4.869   1.620   0.641
 2716SOL     OW 9046   5.075   4.696   2.604
 2716SOL    HW1 9047   5.166   4.664   2.580
 2716SOL    HW2 9048   5.081   4.764   2.678
 2717SOL     OW 9049   2.173   4.735   2.149
 2717SOL    HW1 9050   2.131   4.649   2.121
 2717SOL    HW2 9051   2.240   4.718   2.222
 2718SOL     OW 9052   1.668   2.904   5.898
 2718SOL    HW1 9053   1.611   2.845   5.956
 2718SOL    HW2 9054   1.753   2.924   5.945
 2719SOL     OW 9055   6.783   5.956   1.042
 2719SOL    HW1 9056   6.788   5.873   1.098
 2719SOL    HW2 9057   6.744   5.934   0.952
 2720SOL     OW 9058   1.872   6.006   2.575
 2720SOL    HW1 9059   1.902   6.023   2.481
 2720SOL    HW2 9060   1.948   5.967   2.627
 2721SOL     OW 9061   3.311   0.403   3.891
 2721SOL    HW1 9062   3.284   0.461   3.969
 2721SOL    HW2 9063   3.305   0.457   3.807
 2722SOL     OW 9064   6.544   5.846   1.709
 2722SOL    HW1 9065   6.609   5.858   1.634
 2722SOL    HW2 9066   6.455   5.882   1.682
 2723SOL     OW 9067   0.712   6.882   5.829
 2723SOL    HW1 9068   0.732   6.830   5.746
 2723SOL    HW2 9069   0.764   6.844   5.906
 2724SOL     OW 9070   2.585   6.965   6.668
 2724SOL    HW1 9071   2.667   6.957   6.612
 2724SOL    HW2 9072   2.545   6.875   6.681
 2725SOL     OW 9073   5.639   4.883   4.298
 2725SOL    HW1 9074   5.657   4.824   4.378
 2725SOL    HW2 9075   5.726   4.903   4.252
 2726SOL     OW 9076   0.015   3.190   0.844
 2726SOL    HW1 9077   0.077   3.204   0.767
 2726SOL    HW2 9078   6.963   3.136   0.815
 2727SOL     OW 9079   0.413   5.111   3.936
 2727SOL    HW1 9080   0.444   5.025   3.976
 2727SOL    HW2 9081   0.491   5.173   3.926
 2728SOL     OW 9082   3.849   6.575   5.559
 2728SOL    HW1 9083   3.762   6.561   5.606
 2728SOL    HW2 9084   3.837   6.566   5.461
 2729SOL     OW 9085   6.755   5.785   1.254
 2729SOL    HW1 9086   6.779   5.708   1.195
 2729SOL    HW2 9087   6.657   5.800   1.250
 2730SOL     OW 9088   1.994   5.184   1.020
 2730SOL    HW1 9089   1.914   5.243   1.010
 2730SOL    HW2 9090   2.054   5.195   0.941
 2731SOL     OW 9091   3.749   3.706   2.125
 2731SOL    HW1 9092   3.792   3.672   2.041
 2731SOL    HW2 9093   3.817   3.755   2.178
 2732SOL     OW 9094   5.525   2.485   1.767
 2732SOL    HW1 9095   5.443   2.535   1.739
 2732SOL    HW2 9096   5.535   2.403   1.711
 2733SOL     OW 9097   0.423   0.042   4.663
 2733SOL    HW1 9098   0.484   0.121   4.667
 2733SOL    HW2 9099   0.472   6.990   4.624
 2734SOL     OW 9100   2.054   5.363   1.531
 2734SOL    HW1 9101   2.139   5.328   1.493
 2734SOL    HW2 9102   2.039   5.325   1.622
 2735SOL     OW 9103   1.047   3.299   3.127
 2735SOL    HW1 9104   1.030   3.389   3.086
 2735SOL    HW2 9105   0.995   3.230   3.077
 2736SOL     OW 9106   4.321   6.868   4.802
 2736SOL    HW1 9107   4.228   6.836   4.816
 2736SOL    HW2 9108   4.351   6.846   4.710
 2737SOL     OW 9109   3.642   3.690   5.777
 2737SOL    HW1 9110   3.620   3.614   5.838
 2737SOL    HW2 9111   3.666   3.654   5.687
 2738SOL     OW 9112   5.640   4.976   3.890
 2738SOL    HW1 9113   5.623   5.034   3.970
 2738SOL    HW2 9114   5.677   4.888   3.920
 2739SOL     OW 9115   0.004   4.691   1.030
 2739SOL    HW1 9116   6.969   4.732   1.099
 2739SOL    HW2 9117   7.010   4.731   0.941
 2740SOL     OW 9118   6.174   3.381   2.498
 2740SOL    HW1 9119   6.203   3.293   2.459
 2740SOL    HW2 9120   6.121   3.431   2.430
 2741SOL     OW 9121   6.359   0.365   5.803
 2741SOL    HW1 9122   6.453   0.334   5.788
 2741SOL    HW2 9123   6.335   0.433   5.733
 2742SOL     OW 9124   2.237   5.297   6.727
 2742SOL    HW1 9125   2.326   5.338   6.705
 2742SOL    HW2 9126   2.166   5.337   6.669
 2743SOL     OW 9127   0.126   5.379   2.428
 2743SOL    HW1 9128   0.199   5.340   2.484
 2743SOL    HW2 9129   0.087   5.308   2.369
 2744SOL     OW 9130   5.024   1.546   0.034
 2744SOL    HW1 9131   5.100   1.610   0.028
 2744SOL    HW2 9132   5.022   1.488   6.978
 2745SOL     OW 9133   0.633   7.001   6.333
 2745SOL    HW1 9134   0.623   6.911   6.375
 2745SOL    HW2 9135   0.576   0.041   6.381
 2746SOL     OW 9136   1.988   2.292   4.135
 2746SOL    HW1 9137   1.957   2.296   4.040
 2746SOL    HW2 9138   2.087   2.309   4.138
 2747SOL     OW 9139   6.087   3.494   5.595
 2747SOL    HW1 9140   6.033   3.524   5.673
 2747SOL    HW2 9141   6.102   3.571   5.533
 2748SOL     OW 9142   4.459   2.080   0.909
 2748SOL    HW1 9143   4.487   2.000   0.857
 2748SOL    HW2 9144   4.420   2.051   0.996
 2749SOL     OW 9145   6.232   4.632   3.253
 2749SOL    HW1 9146   6.262   4.722   3.220
 2749SOL    HW2 9147   6.134   4.636   3.273
 2750SOL     OW 9148   0.822   4.807   1.238
 2750SOL    HW1 9149   0.744   4.791   1.177
 2750SOL    HW2 9150   0.901   4.835   1.184
 2751SOL     OW 9151   0.537   6.446   0.806
 2751SOL    HW1 9152   0.459   6.384   0.794
 2751SOL    HW2 9153   0.585   6.456   0.719
 2752SOL     OW 9154   4.613   4.998   5.645
 2752SOL    HW1 9155   4.689   4.934   5.638
 2752SOL    HW2 9156   4.527   4.951   5.623
 2753SOL     OW 9157   0.721   0.122   5.862
 2753SOL    HW1 9158   0.653   0.146   5.932
 2753SOL    HW2 9159   0.732   0.023   5.858
 2754SOL     OW 9160   6.868   0.636   3.630
 2754SOL    HW1 9161   6.783   0.637   3.682
 2754SOL    HW2 9162   6.917   0.723   3.643
 2755SOL     OW 9163   2.641   0.159   3.969
 2755SOL    HW1 9164   2.710   0.099   4.011
 2755SOL    HW2 9165   2.617   0.231   4.033
 2756SOL     OW 9166   5.557   4.319   5.665
 2756SOL    HW1 9167   5.512   4.322   5.576
 2756SOL    HW2 9168   5.613   4.401   5.678
 2757SOL     OW 9169   2.312   1.523   6.181
 2757SOL    HW1 9170   2.371   1.585   6.234
 2757SOL    HW2 9171   2.216   1.548   6.196
 2758SOL     OW 9172   4.860   6.419   2.992
 2758SOL    HW1 9173   4.851   6.361   2.910
 2758SOL    HW2 9174   4.798   6.498   2.983
 2759SOL     OW 9175   4.688   5.607   5.201
 2759SOL    HW1 9176   4.668   5.565   5.112
 2759SOL    HW2 9177   4.620   5.678   5.220
 2760SOL     OW 9178   0.488   5.817   2.538
 2760SOL    HW1 9179   0.582   5.848   2.525
 2760SOL    HW2 9180   0.430   5.857   2.466
 2761SOL     OW 9181   1.928   4.612   4.881
 2761SOL    HW1 9182   1.960   4.644   4.792
 2761SOL    HW2 9183   2.006   4.579   4.935
 2762SOL     OW 9184   2.213   1.554   6.585
 2762SOL    HW1 9185   2.211   1.579   6.682
 2762SOL    HW2 9186   2.164   1.623   6.532
 2763SOL     OW 9187   4.572   1.936   5.080
 2763SOL    HW1 9188   4.658   1.949   5.031
 2763SOL    HW2 9189   4.497   1.973   5.026
 2764SOL     OW 9190   0.410   0.436   2.086
 2764SOL    HW1 9191   0.364   0.359   2.042
 2764SOL    HW2 9192   0.350   0.516   2.084
 2765SOL     OW 9193   6.712   6.807   1.280
 2765SOL    HW1 9194   6.681   6.731   1.337
 2765SOL    HW2 9195   6.634   6.845   1.230
 2766SOL     OW 9196   4.442   2.381   0.016
 2766SOL    HW1 9197   4.529   2.414   0.053
 2766SOL    HW2 9198   4.455   2.291   7.000
 2767SOL     OW 9199   6.691   5.484   6.994
 2767SOL    HW1 9200   6.715   5.566   6.942
 2767SOL    HW2 9201   6.633   5.510   0.045
 2768SOL     OW 9202   4.814   0.687   1.635
 2768SOL    HW1 9203   4.736   0.671   1.696
 2768SOL    HW2 9204   4.794   0.764   1.575
 2769SOL     OW 9205   2.198   3.971   6.505
 2769SOL    HW1 9206   2.281   3.948   6.454
 2769SOL    HW2 9207   2.123   3.989   6.441
 2770SOL     OW 9208   4.594   5.770   5.460
 2770SOL    HW1 9209   4.594   5.676   5.492
 2770SOL    HW2 9210   4.526   5.781   5.388
 2771SOL     OW 9211   5.423   1.288   4.633
 2771SOL    HW1 9212   5.392   1.274   4.727
 2771SOL    HW2 9213   5.516   1.325   4.634
 2772SOL     OW 9214   3.051   1.195   1.025
 2772SOL    HW1 9215   3.051   1.274   0.964
 2772SOL    HW2 9216   2.963   1.147   1.016
 2773SOL     OW 9217   6.460   2.753   4.080
 2773SOL    HW1 9218   6.505   2.755   4.169
 2773SOL    HW2 9219   6.469   2.661   4.041
 2774SOL     OW 9220   5.444   3.298   3.011
 2774SOL    HW1 9221   5.460   3.208   3.052
 2774SOL    HW2 9222   5.511   3.363   3.045
 2775SOL     OW 9223   6.425   3.581   5.658
 2775SOL    HW1 9224   6.472   3.655   5.609
 2775SOL    HW2 9225   6.408   3.505   5.595
 2776SOL     OW 9226   4.883   4.002   5.877
 2776SOL    HW1 9227   4.903   4.016   5.780
 2776SOL    HW2 9228   4.957   4.040   5.932
 2777SOL     OW 9229   2.958   1.994   1.327
 2777SOL    HW1 9230   3.015   2.074   1.346
 2777SOL    HW2 9231   2.928   1.996   1.232
 2778SOL     OW 9232   1.144   6.535   5.932
 2778SOL    HW1 9233   1.242   6.546   5.948
 2778SOL    HW2 9234   1.097   6.527   6.020
 2779SOL     OW 9235   5.596   6.720   2.083
 2779SOL    HW1 9236   5.607   6.810   2.040
 2779SOL    HW2 9237   5.499   6.696   2.085
 2780SOL     OW 9238   0.441   6.939   5.811
 2780SOL    HW1 9239   0.530   6.911   5.847
 2780SOL    HW2 9240   0.399   6.863   5.761
 2781SOL     OW 9241   5.779   0.611   2.531
 2781SOL    HW1 9242   5.763   0.513   2.515
 2781SOL    HW2 9243   5.696   0.653   2.568
 2782SOL     OW 9244   4.365   1.422   5.300
 2782SOL    HW1 9245   4.464   1.438   5.304
 2782SOL    HW2 9246   4.346   1.327   5.325
 2783SOL     OW 9247   6.333   4.319   2.389
 2783SOL    HW1 9248   6.260   4.259   2.421
 2783SOL    HW2 9249   6.420   4.292   2.431
 2784SOL     OW 9250   3.160   1.450   2.224
 2784SOL    HW1 9251   3.254   1.482   2.227
 2784SOL    HW2 9252   3.150   1.383   2.150
 2785SOL     OW 9253   5.401   2.520   0.704
 2785SOL    HW1 9254   5.427   2.617   0.705
 2785SOL    HW2 9255   5.352   2.500   0.620
 2786SOL     OW 9256   5.993   6.940   1.983
 2786SOL    HW1 9257   5.934   6.921   1.904
 2786SOL    HW2 9258   5.967   0.002   2.023
 2787SOL     OW 9259   5.769   6.653   5.669
 2787SOL    HW1 9260   5.838   6.673   5.739
 2787SOL    HW2 9261   5.736   6.738   5.629
 2788SOL     OW 9262   2.965   6.670   5.590
 2788SOL    HW1 9263   2.995   6.699   5.499
 2788SOL    HW2 9264   2.903   6.739   5.629
 2789SOL     OW 9265   1.875   2.029   3.881
 2789SOL    HW1 9266   1.919   1.955   3.931
 2789SOL    HW2 9267   1.895   2.020   3.783
 2790SOL     OW 9268   3.393   5.422   1.339
 2790SOL    HW1 9269   3.321   5.435   1.407
 2790SOL    HW2 9270   3.409   5.324   1.327
 2791SOL     OW 9271   0.695   3.215   2.329
 2791SOL    HW1 9272   0.702   3.115   2.340
 2791SOL    HW2 9273   0.638   3.252   2.402
 2792SOL     OW 9274   2.602   0.576   4.109
 2792SOL    HW1 9275   2.640   0.662   4.143
 2792SOL    HW2 9276   2.533   0.596   4.039
 2793SOL     OW 9277   4.826   3.532   1.494
 2793SOL    HW1 9278   4.905   3.557   1.439
 2793SOL    HW2 9279   4.846   3.449   1.546
 2794SOL     OW 9280   6.432   2.020   6.041
 2794SOL    HW1 9281   6.497   1.994   5.969
 2794SOL    HW2 9282   6.371   1.943   6.060
 2795SOL     OW 9283   1.412   3.428   1.301
 2795SOL    HW1 9284   1.405   3.343   1.249
 2795SOL    HW2 9285   1.458   3.497   1.246
 2796SOL     OW 9286   0.267   6.302   3.253
 2796SOL    HW1 9287   0.194   6.308   3.184
 2796SOL    HW2 9288   0.240   6.237   3.324
 2797SOL     OW 9289   5.235   5.856   5.227
 2797SOL    HW1 9290   5.143   5.818   5.238
 2797SOL    HW2 9291   5.250   5.928   5.294
 2798SOL     OW 9292   6.410   5.826   2.713
 2798SOL    HW1 9293   6.348   5.883   2.660
 2798SOL    HW2 9294   6.372   5.733   2.718
 2799SOL     OW 9295   5.766   5.919   5.593
 2799SOL    HW1 9296   5.757   5.912   5.494
 2799SOL    HW2 9297   5.814   6.004   5.616
 2800SOL     OW 9298   5.501   6.442   5.904
 2800SOL    HW1 9299   5.540   6.353   5.929
 2800SOL    HW2 9300   5.478   6.442   5.806
 2801SOL     OW 9301   0.563   5.617   5.732
 2801SOL    HW1 9302   0.546   5.578   5.642
 2801SOL    HW2 9303   0.511   5.702   5.742
 2802SOL     OW 9304   5.456   6.688   5.562
 2802SOL    HW1 9305   5.366   6.718   5.529
 2802SOL    HW2 9306   5.504   6.766   5.604
 2803SOL     OW 9307   4.021   5.207   5.567
 2803SOL    HW1 9308   4.108   5.249   5.541
 2803SOL    HW2 9309   3.946   5.253   5.520
 2804SOL     OW 9310   1.014   4.064   5.128
 2804SOL    HW1 9311   0.929   4.081   5.078
 2804SOL    HW2 9312   1.086   4.124   5.094
 2805SOL     OW 9313   5.969   3.244   2.884
 2805SOL    HW1 9314   5.886   3.189   2.891
 2805SOL    HW2 9315   6.048   3.185   2.869
 2806SOL     OW 9316   2.074   3.967   5.993
 2806SOL    HW1 9317   2.090   3.976   5.894
 2806SOL    HW2 9318   2.144   3.907   6.032
 2807SOL     OW 9319   4.857   0.024   3.592
 2807SOL    HW1 9320   4.826   0.006   3.686
 2807SOL    HW2 9321   4.784   0.072   3.542
 2808SOL     OW 9322   6.345   5.299   1.713
 2808SOL    HW1 9323   6.414   5.267   1.648
 2808SOL    HW2 9324   6.388   5.321   1.800
 2809SOL     OW 9325   4.984   2.886   1.095
 2809SOL    HW1 9326   4.923   2.962   1.074
 2809SOL    HW2 9327   5.060   2.884   1.030
 2810SOL     OW 9328   2.408   5.881   2.742
 2810SOL    HW1 9329   2.344   5.932   2.800
 2810SOL    HW2 9330   2.498   5.877   2.786
 2811SOL     OW 9331   1.694   1.630   3.656
 2811SOL    HW1 9332   1.680   1.555   3.592
 2811SOL    HW2 9333   1.613   1.688   3.657
 2812SOL     OW 9334   6.092   3.503   0.683
 2812SOL    HW1 9335   6.173   3.487   0.627
 2812SOL    HW2 9336   6.035   3.421   0.684
 2813SOL     OW 9337   0.637   1.677   0.083
 2813SOL    HW1 9338   0.578   1.681   0.003
 2813SOL    HW2 9339   0.707   1.607   0.068
 2814SOL     OW 9340   3.068   4.027   5.548
 2814SOL    HW1 9341   3.010   4.079   5.610
 2814SOL    HW2 9342   3.132   4.090   5.503
 2815SOL     OW 9343   6.815   4.928   6.607
 2815SOL    HW1 9344   6.749   4.867   6.563
 2815SOL    HW2 9345   6.768   4.983   6.676
 2816SOL     OW 9346   6.599   6.146   4.190
 2816SOL    HW1 9347   6.697   6.132   4.205
 2816SOL    HW2 9348   6.547   6.086   4.251
 2817SOL     OW 9349   3.037   0.314   2.188
 2817SOL    HW1 9350   3.023   0.403   2.232
 2817SOL    HW2 9351   3.102   0.324   2.112
 2818SOL     OW 9352   0.178   1.167   2.206
 2818SOL    HW1 9353   0.134   1.231   2.269
 2818SOL    HW2 9354   0.246   1.216   2.151
 2819SOL     OW 9355   1.878   6.822   2.071
 2819SOL    HW1 9356   1.951   6.843   2.136
 2819SOL    HW2 9357   1.789   6.828   2.117
 2820SOL     OW 9358   1.849   2.007   3.213
 2820SOL    HW1 9359   1.768   1.972   3.259
 2820SOL    HW2 9360   1.822   2.070   3.140
 2821SOL     OW 9361   3.067   4.846   5.828
 2821SOL    HW1 9362   2.980   4.843   5.778
 2821SOL    HW2 9363   3.131   4.782   5.786
 2822SOL     OW 9364   4.432   1.971   0.557
 2822SOL    HW1 9365   4.433   1.910   0.478
 2822SOL    HW2 9366   4.491   1.934   0.629
 2823SOL     OW 9367   5.685   1.324   0.268
 2823SOL    HW1 9368   5.587   1.328   0.246
 2823SOL    HW2 9369   5.731   1.264   0.202
 2824SOL     OW 9370   1.670   1.984   5.525
 2824SOL    HW1 9371   1.604   2.046   5.482
 2824SOL    HW2 9372   1.758   1.992   5.479
 2825SOL     OW 9373   5.458   0.179   5.921
 2825SOL    HW1 9374   5.551   0.213   5.906
 2825SOL    HW2 9375   5.451   0.143   6.015
 2826SOL     OW 9376   4.008   2.793   6.626
 2826SOL    HW1 9377   3.953   2.796   6.543
 2826SOL    HW2 9378   4.103   2.814   6.605
 2827SOL     OW 9379   0.029   0.490   6.603
 2827SOL    HW1 9380   7.017   0.446   6.522
 2827SOL    HW2 9381   6.995   0.474   6.681
 2828SOL     OW 9382   1.953   2.468   0.750
 2828SOL    HW1 9383   1.969   2.472   0.848
 2828SOL    HW2 9384   2.039   2.482   0.701
 2829SOL     OW 9385   3.417   3.448   3.631
 2829SOL    HW1 9386   3.397   3.360   3.676
 2829SOL    HW2 9387   3.465   3.431   3.545
 2830SOL     OW 9388   3.047   4.053   5.074
 2830SOL    HW1 9389   3.111   4.124   5.104
 2830SOL    HW2 9390   3.090   3.997   5.003
 2831SOL     OW 9391   1.045   3.498   3.393
 2831SOL    HW1 9392   1.086   3.407   3.399
 2831SOL    HW2 9393   0.946   3.491   3.402
 2832SOL     OW 9394   0.833   2.942   1.824
 2832SOL    HW1 9395   0.840   3.019   1.761
 2832SOL    HW2 9396   0.813   2.859   1.773
 2833SOL     OW 9397   3.003   1.395   2.464
 2833SOL    HW1 9398   3.066   1.405   2.386
 2833SOL    HW2 9399   2.995   1.483   2.512
 2834SOL     OW 9400   3.723   6.290   5.494
 2834SOL    HW1 9401   3.684   6.311   5.584
 2834SOL    HW2 9402   3.694   6.361   5.429
 2835SOL     OW 9403   0.761   6.898   1.147
 2835SOL    HW1 9404   0.826   6.822   1.144
 2835SOL    HW2 9405   0.792   6.966   1.214
 2836SOL     OW 9406   1.343   6.785   1.398
 2836SOL    HW1 9407   1.248   6.789   1.366
 2836SOL    HW2 9408   1.400   6.838   1.335
 2837SOL     OW 9409   5.283   4.509   2.528
 2837SOL    HW1 9410   5.337   4.593   2.525
 2837SOL    HW2 9411   5.339   4.434   2.560
 2838SOL     OW 9412   4.225   3.731   1.012
 2838SOL    HW1 9413   4.324   3.721   1.000
 2838SOL    HW2 9414   4.182   3.641   1.003
 2839SOL     OW 9415   7.006   2.668   2.693
 2839SOL    HW1 9416   0.080   2.662   2.693
 2839SOL    HW2 9417   6.979   2.763   2.682
 2840SOL     OW 9418   1.591   5.907   1.994
 2840SOL    HW1 9419   1.626   5.870   1.908
 2840SOL    HW2 9420   1.493   5.926   1.985
 2841SOL     OW 9421   5.966   2.292   6.314
 2841SOL    HW1 9422   6.024   2.238   6.253
 2841SOL    HW2 9423   5.987   2.269   6.409
 2842SOL     OW 9424   0.508   5.285   4.323
 2842SOL    HW1 9425   0.470   5.302   4.414
 2842SOL    HW2 9426   0.478   5.357   4.260
 2843SOL     OW 9427   2.812   1.916   2.747
 2843SOL    HW1 9428   2.845   1.915   2.841
 2843SOL    HW2 9429   2.743   1.987   2.737
 2844SOL     OW 9430   6.345   5.325   0.626
 2844SOL    HW1 9431   6.373   5.274   0.545
 2844SOL    HW2 9432   6.323   5.419   0.601
 2845SOL     OW 9433   5.170   3.033   2.214
 2845SOL    HW1 9434   5.236   2.968   2.178
 2845SOL    HW2 9435   5.165   3.025   2.313
 2846SOL     OW 9436   3.922   0.233   0.550
 2846SOL    HW1 9437   3.914   0.247   0.452
 2846SOL    HW2 9438   3.832   0.236   0.592
 2847SOL     OW 9439   5.113   3.945   3.622
 2847SOL    HW1 9440   5.160   3.989   3.546
 2847SOL    HW2 9441   5.151   3.980   3.708
 2848SOL     OW 9442   2.554   2.970   5.789
 2848SOL    HW1 9443   2.514   3.020   5.865
 2848SOL    HW2 9444   2.616   3.030   5.738
 2849SOL     OW 9445   3.521   0.412   0.989
 2849SOL    HW1 9446   3.602   0.449   1.033
 2849SOL    HW2 9447   3.520   0.312   0.998
 2850SOL     OW 9448   1.980   0.287   2.897
 2850SOL    HW1 9449   2.000   0.193   2.869
 2850SOL    HW2 9450   2.051   0.348   2.864
 2851SOL     OW 9451   5.394   2.873   6.496
 2851SOL    HW1 9452   5.326   2.821   6.547
 2851SOL    HW2 9453   5.486   2.839   6.518
 2852SOL     OW 9454   5.979   4.271   7.005
 2852SOL    HW1 9455   5.910   4.333   6.968
 2852SOL    HW2 9456   6.063   4.278   6.952
 2853SOL     OW 9457   1.615   2.585   6.797
 2853SOL    HW1 9458   1.704   2.624   6.819
 2853SOL    HW2 9459   1.564   2.568   6.882
 2854SOL     OW 9460   4.216   0.862   5.702
 2854SOL    HW1 9461   4.303   0.894   5.663
 2854SOL    HW2 9462   4.154   0.835   5.629
 2855SOL     OW 9463   1.257   2.092   5.399
 2855SOL    HW1 9464   1.294   2.067   5.309
 2855SOL    HW2 9465   1.332   2.104   5.464
 2856SOL     OW 9466   0.824   3.176   4.314
 2856SOL    HW1 9467   0.901   3.151   4.255
 2856SOL    HW2 9468   0.750   3.214   4.257
 2857SOL     OW 9469   0.653   2.403   1.576
 2857SOL    HW1 9470   0.611   2.465   1.643
 2857SOL    HW2 9471   0.590   2.328   1.558
 2858SOL     OW 9472   4.173   4.887   2.697
 2858SOL    HW1 9473   4.205   4.825   2.626
 2858SOL    HW2 9474   4.235   4.884   2.775
 2859SOL     OW 9475   6.247   0.137   7.008
 2859SOL    HW1 9476   6.251   0.086   0.068
 2859SOL    HW2 9477   6.171   0.104   6.953
 2860SOL     OW 9478   2.495   0.643   2.414
 2860SOL    HW1 9479   2.549   0.707   2.358
 2860SOL    HW2 9480   2.530   0.643   2.508
 2861SOL     OW 9481   3.179   5.363   5.404
 2861SOL    HW1 9482   3.134   5.441   5.361
 2861SOL    HW2 9483   3.119   5.283   5.398
 2862SOL     OW 9484   4.264   2.473   1.592
 2862SOL    HW1 9485   4.225   2.460   1.501
 2862SOL    HW2 9486   4.363   2.480   1.585
 2863SOL     OW 9487   5.041   1.538   6.178
 2863SOL    HW1 9488   5.118   1.578   6.128
 2863SOL    HW2 9489   5.014   1.451   6.135
 2864SOL     OW 9490   4.565   2.430   0.588
 2864SOL    HW1 9491   4.663   2.426   0.609
 2864SOL    HW2 9492   4.526   2.338   0.594
 2865SOL     OW 9493   4.045   6.531   3.922
 2865SOL    HW1 9494   4.032   6.615   3.975
 2865SOL    HW2 9495   4.017   6.452   3.976
 2866SOL     OW 9496   5.730   4.513   0.363
 2866SOL    HW1 9497   5.816   4.503   0.413
 2866SOL    HW2 9498   5.655   4.520   0.428
 2867SOL     OW 9499   5.923   6.095   3.094
 2867SOL    HW1 9500   5.873   6.021   3.140
 2867SOL    HW2 9501   6.018   6.067   3.080
 2868SOL     OW 9502   1.536   1.178   5.496
 2868SOL    HW1 9503   1.521   1.097   5.440
 2868SOL    HW2 9504   1.631   1.179   5.530
 2869SOL     OW 9505   6.672   0.800   3.075
 2869SOL    HW1 9506   6.744   0.831   3.137
 2869SOL    HW2 9507   6.596   0.864   3.076
 2870SOL     OW 9508   0.810   1.940   5.839
 2870SOL    HW1 9509   0.822   1.962   5.936
 2870SOL    HW2 9510   0.854   2.010   5.783
 2871SOL     OW 9511   5.898   0.928   1.014
 2871SOL    HW1 9512   5.826   0.991   1.042
 2871SOL    HW2 9513   5.977   0.980   0.979
 2872SOL     OW 9514   2.286   2.083   1.079
 2872SOL    HW1 9515   2.320   1.990   1.062
 2872SOL    HW2 9516   2.314   2.112   1.171
 2873SOL     OW 9517   6.829   6.853   2.351
 2873SOL    HW1 9518   6.830   6.952   2.346
 2873SOL    HW2 9519   6.812   6.824   2.445
 2874SOL     OW 9520   3.965   6.611   2.745
 2874SOL    HW1 9521   4.053   6.568   2.725
 2874SOL    HW2 9522   3.968   6.654   2.835
 2875SOL     OW 9523   4.561   0.071   1.711
 2875SOL    HW1 9524   4.483   0.024   1.754
 2875SOL    HW2 9525   4.616   0.114   1.783
 2876SOL     OW 9526   1.887   0.311   3.150
 2876SOL    HW1 9527   1.801   0.358   3.130
 2876SOL    HW2 9528   1.944   0.309   3.068
 2877SOL     OW 9529   2.398   1.066   6.124
 2877SOL    HW1 9530   2.453   1.029   6.049
 2877SOL    HW2 9531   2.457   1.083   6.203
 2878SOL     OW 9532   2.869   3.883   5.203
 2878SOL    HW1 9533   2.928   3.958   5.173
 2878SOL    HW2 9534   2.874   3.809   5.136
 2879SOL     OW 9535   5.833   5.519   5.731
 2879SOL    HW1 9536   5.842   5.542   5.634
 2879SOL    HW2 9537   5.924   5.510   5.771
 2880SOL     OW 9538   0.795   1.335   3.100
 2880SOL    HW1 9539   0.798   1.357   3.198
 2880SOL    HW2 9540   0.863   1.388   3.051
 2881SOL     OW 9541   3.926   5.924   0.273
 2881SOL    HW1 9542   3.963   5.833   0.290
 2881SOL    HW2 9543   3.954   5.987   0.345
 2882SOL     OW 9544   0.015   5.869   1.219
 2882SOL    HW1 9545   6.942   5.854   1.231
 2882SOL    HW2 9546   0.033   5.899   1.125
 2883SOL     OW 9547   5.711   0.218   3.796
 2883SOL    HW1 9548   5.703   0.191   3.700
 2883SOL    HW2 9549   5.720   0.318   3.801
 2884SOL     OW 9550   1.081   6.429   2.729
 2884SOL    HW1 9551   1.030   6.374   2.662
 2884SOL    HW2 9552   1.093   6.522   2.694
 2885SOL     OW 9553   1.700   2.843   4.426
 2885SOL    HW1 9554   1.779   2.897   4.455
 2885SOL    HW2 9555   1.660   2.796   4.505
 2886SOL     OW 9556   1.748   3.384   6.599
 2886SOL    HW1 9557   1.662   3.429   6.573
 2886SOL    HW2 9558   1.737   3.341   6.689
 2887SOL     OW 9559   1.125   6.793   5.091
 2887SOL    HW1 9560   1.090   6.740   5.168
 2887SOL    HW2 9561   1.225   6.785   5.088
 2888SOL     OW 9562   0.307   4.424   0.203
 2888SOL    HW1 9563   0.368   4.380   0.137
 2888SOL    HW2 9564   0.251   4.493   0.156
 2889SOL     OW 9565   2.716   5.974   2.676
 2889SOL    HW1 9566   2.798   5.934   2.634
 2889SOL    HW2 9567   2.647   5.989   2.606
 2890SOL     OW 9568   1.608   6.298   0.662
 2890SOL    HW1 9569   1.641   6.390   0.640
 2890SOL    HW2 9570   1.643   6.233   0.596
 2891SOL     OW 9571   0.865   3.831   3.386
 2891SOL    HW1 9572   0.860   3.778   3.471
 2891SOL    HW2 9573   0.879   3.928   3.407
 2892SOL     OW 9574   5.970   3.068   1.332
 2892SOL    HW1 9575   5.947   3.164   1.346
 2892SOL    HW2 9576   6.026   3.036   1.409
 2893SOL     OW 9577   1.008   5.170   4.383
 2893SOL    HW1 9578   1.103   5.148   4.403
 2893SOL    HW2 9579   0.952   5.152   4.463
 2894SOL     OW 9580   1.204   3.267   1.814
 2894SOL    HW1 9581   1.266   3.227   1.881
 2894SOL    HW2 9582   1.122   3.300   1.859
 2895SOL     OW 9583   5.664   1.426   5.500
 2895SOL    HW1 9584   5.589   1.371   5.537
 2895SOL    HW2 9585   5.727   1.368   5.449
 2896SOL     OW 9586   3.921   7.025   5.469
 2896SOL    HW1 9587   3.978   6.994   5.393
 2896SOL    HW2 9588   3.916   0.099   5.469
 2897SOL     OW 9589   3.739   5.198   2.316
 2897SOL    HW1 9590   3.820   5.206   2.258
 2897SOL    HW2 9591   3.714   5.102   2.325
 2898SOL     OW 9592   4.134   4.762   4.318
 2898SOL    HW1 9593   4.194   4.823   4.266
 2898SOL    HW2 9594   4.091   4.696   4.257
 2899SOL     OW 9595   0.410   1.383   0.997
 2899SOL    HW1 9596   0.451   1.307   0.947
 2899SOL    HW2 9597   0.407   1.361   1.095
 2900SOL     OW 9598   3.886   4.655   6.573
 2900SOL    HW1 9599   3.808   4.671   6.633
 2900SOL    HW2 9600   3.859   4.592   6.500
 2901SOL     OW 9601   2.569   4.555   3.375
 2901SOL    HW1 9602   2.616   4.631   3.330
 2901SOL    HW2 9603   2.571   4.568   3.474
 2902SOL     OW 9604   6.791   5.033   3.177
 2902SOL    HW1 9605   6.793   4.933   3.181
 2902SOL    HW2 9606   6.759   5.063   3.087
 2903SOL     OW 9607   4.184   6.405   0.529
 2903SOL    HW1 9608   4.131   6.456   0.597
 2903SOL    HW2 9609   4.124   6.373   0.456
 2904SOL     OW 9610   2.962   5.239   4.891
 2904SOL    HW1 9611   3.047   5.204   4.851
 2904SOL    HW2 9612   2.918   5.166   4.943
 2905SOL     OW 9613   1.354   3.922   4.085
 2905SOL    HW1 9614   1.402   3.965   4.008
 2905SOL    HW2 9615   1.327   3.830   4.060
 2906SOL     OW 9616   4.718   5.666   2.735
 2906SOL    HW1 9617   4.779   5.745   2.726
 2906SOL    HW2 9618   4.656   5.664   2.657
 2907SOL     OW 9619   0.673   1.612   3.399
 2907SOL    HW1 9620   0.748   1.667   3.437
 2907SOL    HW2 9621   0.637   1.657   3.317
 2908SOL     OW 9622   4.778   0.427   3.388
 2908SOL    HW1 9623   4.839   0.348   3.384
 2908SOL    HW2 9624   4.698   0.410   3.331
 2909SOL     OW 9625   2.348   5.849   4.212
 2909SOL    HW1 9626   2.415   5.791   4.258
 2909SOL    HW2 9627   2.335   5.933   4.265
 2910SOL     OW 9628   5.687   0.230   4.139
 2910SOL    HW1 9629   5.735   0.162   4.083
 2910SOL    HW2 9630   5.684   0.199   4.234
 2911SOL     OW 9631   1.920   5.443   3.805
 2911SOL    HW1 9632   1.961   5.491   3.882
 2911SOL    HW2 9633   1.836   5.398   3.834
 2912SOL     OW 9634   6.363   6.913   0.545
 2912SOL    HW1 9635   6.350   6.925   0.643
 2912SOL    HW2 9636   6.329   6.994   0.497
 2913SOL     OW 9637   3.714   4.966   2.037
 2913SOL    HW1 9638   3.655   5.044   2.057
 2913SOL    HW2 9639   3.658   4.892   1.998
 2914SOL     OW 9640   6.061   5.895   6.735
 2914SOL    HW1 9641   6.036   5.921   6.828
 2914SOL    HW2 9642   6.022   5.805   6.714
 2915SOL     OW 9643   3.224   2.060   3.397
 2915SOL    HW1 9644   3.170   2.141   3.372
 2915SOL    HW2 9645   3.162   1.985   3.420
 2916SOL     OW 9646   1.349   5.977   0.480
 2916SOL    HW1 9647   1.422   5.912   0.503
 2916SOL    HW2 9648   1.317   6.021   0.564
 2917SOL     OW 9649   3.112   0.066   4.130
 2917SOL    HW1 9650   3.071   0.150   4.095
 2917SOL    HW2 9651   3.201   0.052   4.087
 2918SOL     OW 9652   6.145   4.311   5.621
 2918SOL    HW1 9653   6.133   4.266   5.533
 2918SOL    HW2 9654   6.234   4.357   5.624
 2919SOL     OW 9655   5.987   0.578   2.717
 2919SOL    HW1 9656   5.908   0.557   2.659
 2919SOL    HW2 9657   5.987   0.518   2.797
 2920SOL     OW 9658   2.802   0.999   0.972
 2920SOL    HW1 9659   2.723   1.011   0.912
 2920SOL    HW2 9660   2.879   0.962   0.920
 2921SOL     OW 9661   0.879   0.198   5.132
 2921SOL    HW1 9662   0.955   0.141   5.104
 2921SOL    HW2 9663   0.793   0.154   5.106
 2922SOL     OW 9664   4.815   6.597   1.493
 2922SOL    HW1 9665   4.786   6.516   1.441
 2922SOL    HW2 9666   4.785   6.588   1.588
 2923SOL     OW 9667   6.299   5.811   3.694
 2923SOL    HW1 9668   6.202   5.830   3.704
 2923SOL    HW2 9669   6.353   5.882   3.740
 2924SOL     OW 9670   6.730   2.501   5.472
 2924SOL    HW1 9671   6.791   2.443   5.418
 2924SOL    HW2 9672   6.701   2.453   5.554
 2925SOL     OW 9673   6.119   2.369   0.333
 2925SOL    HW1 9674   6.063   2.286   0.331
 2925SOL    HW2 9675   6.180   2.366   0.412
 2926SOL     OW 9676   5.785   2.241   6.741
 2926SOL    HW1 9677   5.786   2.163   6.804
 2926SOL    HW2 9678   5.856   2.229   6.672
 2927SOL     OW 9679   1.884   3.325   1.179
 2927SOL    HW1 9680   1.938   3.356   1.101
 2927SOL    HW2 9681   1.839   3.404   1.221
 2928SOL     OW 9682   6.696   0.814   6.519
 2928SOL    HW1 9683   6.603   0.845   6.499
 2928SOL    HW2 9684   6.699   0.779   6.613
 2929SOL     OW 9685   1.170   2.537   6.035
 2929SOL    HW1 9686   1.232   2.459   6.027
 2929SOL    HW2 9687   1.138   2.544   6.129
 2930SOL     OW 9688   5.312   7.019   5.444
 2930SOL    HW1 9689   5.300   7.005   5.543
 2930SOL    HW2 9690   5.387   0.058   5.430
 2931SOL     OW 9691   4.929   5.279   0.167
 2931SOL    HW1 9692   4.936   5.350   0.096
 2931SOL    HW2 9693   4.833   5.255   0.180
 2932SOL     OW 9694   0.931   5.707   2.069
 2932SOL    HW1 9695   0.841   5.681   2.105
 2932SOL    HW2 9696   0.959   5.641   1.999
 2933SOL     OW 9697   1.841   6.511   2.353
 2933SOL    HW1 9698   1.835   6.424   2.401
 2933SOL    HW2 9699   1.755   6.528   2.304
 2934SOL     OW 9700   5.289   2.556   6.901
 2934SOL    HW1 9701   5.334   2.479   6.946
 2934SOL    HW2 9702   5.249   2.616   6.970
 2935SOL     OW 9703   6.753   3.220   6.453
 2935SOL    HW1 9704   6.702   3.181   6.377
 2935SOL    HW2 9705   6.736   3.319   6.459
 2936SOL     OW 9706   4.674   5.988   0.428
 2936SOL    HW1 9707   4.603   6.049   0.464
 2936SOL    HW2 9708   4.759   6.003   0.479
 2937SOL     OW 9709   5.454   5.381   1.412
 2937SOL    HW1 9710   5.484   5.417   1.324
 2937SOL    HW2 9711   5.371   5.327   1.399
 2938SOL     OW 9712   5.620   4.655   0.126
 2938SOL    HW1 9713   5.644   4.598   0.204
 2938SOL    HW2 9714   5.551   4.609   0.070
 2939SOL     OW 9715   2.384   0.505   2.075
 2939SOL    HW1 9716   2.357   0.510   1.979
 2939SOL    HW2 9717   2.466   0.560   2.090
 2940SOL     OW 9718   5.416   4.839   5.433
 2940SOL    HW1 9719   5.463   4.824   5.347
 2940SOL    HW2 9720   5.321   4.866   5.416
 2941SOL     OW 9721   1.369   2.188   4.412
 2941SOL    HW1 9722   1.467   2.177   4.395
 2941SOL    HW2 9723   1.342   2.282   4.390
 2942SOL     OW 9724   4.085   1.747   0.806
 2942SOL    HW1 9725   4.163   1.793   0.763
 2942SOL    HW2 9726   4.000   1.783   0.768
 2943SOL     OW 9727   5.925   4.088   3.843
 2943SOL    HW1 9728   5.987   4.166   3.843
 2943SOL    HW2 9729   5.968   4.011   3.796
 2944SOL     OW 9730   2.914   6.131   4.210
 2944SOL    HW1 9731   2.835   6.070   4.217
 2944SOL    HW2 9732   2.886   6.224   4.234
 2945SOL     OW 9733   4.042   3.341   1.673
 2945SOL    HW1 9734   4.054   3.250   1.711
 2945SOL    HW2 9735   3.985   3.396   1.733
 2946SOL     OW 9736   1.728   4.799   6.340
 2946SOL    HW1 9737   1.824   4.817   6.321
 2946SOL    HW2 9738   1.711   4.700   6.336
 2947SOL     OW 9739   0.684   5.844   1.623
 2947SOL    HW1 9740   0.677   5.926   1.566
 2947SOL    HW2 9741   0.770   5.845   1.672
 2948SOL     OW 9742   0.237   4.574   4.542
 2948SOL    HW1 9743   0.311   4.613   4.487
 2948SOL    HW2 9744   0.151   4.583   4.493
 2949SOL     OW 9745   1.023   5.536   1.342
 2949SOL    HW1 9746   1.037   5.437   1.340
 2949SOL    HW2 9747   0.931   5.556   1.376
 2950SOL     OW 9748   6.191   5.915   4.364
 2950SOL    HW1 9749   6.252   5.971   4.420
 2950SOL    HW2 9750   6.140   5.973   4.300
 2951SOL     OW 9751   5.529   1.918   2.178
 2951SOL    HW1 9752   5.477   1.909   2.263
 2951SOL    HW2 9753   5.534   1.829   2.133
 2952SOL     OW 9754   0.219   6.137   5.241
 2952SOL    HW1 9755   0.178   6.223   5.213
 2952SOL    HW2 9756   0.230   6.135   5.341
 2953SOL     OW 9757   6.021   3.959   2.983
 2953SOL    HW1 9758   6.024   3.940   2.884
 2953SOL    HW2 9759   6.038   3.874   3.033
 2954SOL     OW 9760   1.127   5.200   2.048
 2954SOL    HW1 9761   1.126   5.104   2.074
 2954SOL    HW2 9762   1.042   5.244   2.078
 2955SOL     OW 9763   0.985   4.148   1.270
 2955SOL    HW1 9764   0.920   4.166   1.344
 2955SOL    HW2 9765   1.068   4.108   1.308
 2956SOL     OW 9766   5.544   5.912   2.991
 2956SOL    HW1 9767   5.555   5.815   2.967
 2956SOL    HW2 9768   5.601   5.932   3.071
 2957SOL     OW 9769   5.354   4.065   1.691
 2957SOL    HW1 9770   5.317   4.137   1.749
 2957SOL    HW2 9771   5.280   4.025   1.637
 2958SOL     OW 9772   2.381   4.269   3.922
 2958SOL    HW1 9773   2.358   4.334   3.850
 2958SOL    HW2 9774   2.335   4.182   3.905
 2959SOL     OW 9775   4.945   3.337   1.648
 2959SOL    HW1 9776   5.040   3.343   1.616
 2959SOL    HW2 9777   4.942   3.353   1.747
 2960SOL     OW 9778   3.204   0.356   0.359
 2960SOL    HW1 9779   3.176   0.277   0.413
 2960SOL    HW2 9780   3.178   0.342   0.263
 2961SOL     OW 9781   5.579   4.674   3.336
 2961SOL    HW1 9782   5.612   4.731   3.412
 2961SOL    HW2 9783   5.581   4.727   3.251
 2962SOL     OW 9784   4.497   5.958   3.625
 2962SOL    HW1 9785   4.584   5.964   3.673
 2962SOL    HW2 9786   4.438   6.034   3.653
 2963SOL     OW 9787   1.117   1.001   6.880
 2963SOL    HW1 9788   1.069   1.086   6.902
 2963SOL    HW2 9789   1.114   0.940   6.959
 2964SOL     OW 9790   6.827   1.541   5.013
 2964SOL    HW1 9791   6.908   1.597   5.024
 2964SOL    HW2 9792   6.781   1.531   5.101
 2965SOL     OW 9793   0.732   0.563   4.596
 2965SOL    HW1 9794   0.723   0.464   4.590
 2965SOL    HW2 9795   0.769   0.588   4.685
 2966SOL     OW 9796   4.622   5.094   3.133
 2966SOL    HW1 9797   4.614   5.157   3.210
 2966SOL    HW2 9798   4.717   5.065   3.123
 2967SOL     OW 9799   5.938   1.122   5.629
 2967SOL    HW1 9800   5.865   1.056   5.613
 2967SOL    HW2 9801   6.025   1.074   5.640
 2968SOL     OW 9802   1.120   2.873   0.489
 2968SOL    HW1 9803   1.035   2.923   0.502
 2968SOL    HW2 9804   1.131   2.849   0.392
 2969SOL     OW 9805   4.563   2.195   4.403
 2969SOL    HW1 9806   4.535   2.141   4.483
 2969SOL    HW2 9807   4.631   2.262   4.431
 2970SOL     OW 9808   2.763   3.093   5.279
 2970SOL    HW1 9809   2.670   3.067   5.253
 2970SOL    HW2 9810   2.789   3.044   5.362
 2971SOL     OW 9811   5.199   4.175   0.888
 2971SOL    HW1 9812   5.100   4.173   0.877
 2971SOL    HW2 9813   5.233   4.082   0.901
 2972SOL     OW 9814   6.622   4.741   6.486
 2972SOL    HW1 9815   6.552   4.701   6.545
 2972SOL    HW2 9816   6.589   4.742   6.392
 2973SOL     OW 9817   5.598   5.770   1.882
 2973SOL    HW1 9818   5.540   5.693   1.855
 2973SOL    HW2 9819   5.689   5.759   1.840
 2974SOL     OW 9820   0.282   4.593   3.804
 2974SOL    HW1 9821   0.183   4.602   3.791
 2974SOL    HW2 9822   0.303   4.500   3.834
 2975SOL     OW 9823   5.005   4.159   4.067
 2975SOL    HW1 9824   4.960   4.111   3.992
 2975SOL    HW2 9825   5.063   4.095   4.118
 2976SOL     OW 9826   4.168   2.240   2.667
 2976SOL    HW1 9827   4.223   2.283   2.596
 2976SOL    HW2 9828   4.116   2.310   2.716
 2977SOL     OW 9829   1.280   0.569   2.908
 2977SOL    HW1 9830   1.210   0.637   2.928
 2977SOL    HW2 9831   1.274   0.494   2.975
 2978SOL     OW 9832   3.673   4.659   6.735
 2978SOL    HW1 9833   3.626   4.746   6.727
 2978SOL    HW2 9834   3.612   4.585   6.708
 2979SOL     OW 9835   3.581   1.467   4.073
 2979SOL    HW1 9836   3.564   1.564   4.089
 2979SOL    HW2 9837   3.503   1.427   4.024
 2980SOL     OW 9838   1.778   5.727   5.457
 2980SOL    HW1 9839   1.777   5.821   5.493
 2980SOL    HW2 9840   1.842   5.721   5.381
 2981SOL     OW 9841   2.725   0.977   6.727
 2981SOL    HW1 9842   2.666   1.025   6.662
 2981SOL    HW2 9843   2.775   1.044   6.782
 2982SOL     OW 9844   2.797   5.807   1.100
 2982SOL    HW1 9845   2.850   5.729   1.067
 2982SOL    HW2 9846   2.859   5.877   1.137
 2983SOL     OW 9847   6.280   2.230   2.050
 2983SOL    HW1 9848   6.288   2.302   2.118
 2983SOL    HW2 9849   6.344   2.156   2.072
 2984SOL     OW 9850   6.102   4.795   7.013
 2984SOL    HW1 9851   6.052   4.738   0.053
 2984SOL    HW2 9852   6.188   4.750   6.989
 2985SOL     OW 9853   1.830   2.563   4.605
 2985SOL    HW1 9854   1.925   2.595   4.605
 2985SOL    HW2 9855   1.826   2.472   4.646
 2986SOL     OW 9856   3.547   4.171   2.888
 2986SOL    HW1 9857   3.561   4.267   2.863
 2986SOL    HW2 9858   3.630   4.136   2.931
 2987SOL     OW 9859   1.374   1.516   3.868
 2987SOL    HW1 9860   1.396   1.487   3.775
 2987SOL    HW2 9861   1.455   1.557   3.910
 2988SOL     OW 9862   1.781   6.959   2.751
 2988SOL    HW1 9863   1.805   6.978   2.656
 2988SOL    HW2 9864   1.849   6.897   2.791
 2989SOL     OW 9865   5.050   4.726   6.042
 2989SOL    HW1 9866   5.143   4.754   6.068
 2989SOL    HW2 9867   5.017   4.782   5.967
 2990SOL     OW 9868   3.507   1.729   4.140
 2990SOL    HW1 9869   3.571   1.781   4.197
 2990SOL    HW2 9870   3.498   1.773   4.050
 2991SOL     OW 9871   6.197   3.224   5.839
 2991SOL    HW1 9872   6.200   3.207   5.740
 2991SOL    HW2 9873   6.190   3.322   5.855
 2992SOL     OW 9874   1.121   5.101   5.006
 2992SOL    HW1 9875   1.143   5.011   5.044
 2992SOL    HW2 9876   1.199   5.162   5.015
 2993SOL     OW 9877   0.347   5.038   1.565
 2993SOL    HW1 9878   0.403   4.962   1.599
 2993SOL    HW2 9879   0.408   5.111   1.531
 2994SOL     OW 9880   3.982   6.591   6.915
 2994SOL    HW1 9881   4.017   6.650   6.988
 2994SOL    HW2 9882   3.963   6.500   6.953
 2995SOL     OW 9883   3.912   1.498   6.621
 2995SOL    HW1 9884   3.929   1.415   6.568
 2995SOL    HW2 9885   3.816   1.502   6.646
 2996SOL     OW 9886   0.649   1.277   5.000
 2996SOL    HW1 9887   0.671   1.262   5.096
 2996SOL    HW2 9888   0.672   1.371   4.975
 2997SOL     OW 9889   4.740   0.393   3.043
 2997SOL    HW1 9890   4.666   0.403   3.109
 2997SOL    HW2 9891   4.720   0.316   2.981
 2998SOL     OW 9892   5.157   6.832   3.789
 2998SOL    HW1 9893   5.250   6.796   3.793
 2998SOL    HW2 9894   5.129   6.843   3.693
 2999SOL     OW 9895   2.388   5.154   5.610
 2999SOL    HW1 9896   2.427   5.197   5.529
 2999SOL    HW2 9897   2.312   5.095   5.584
 3000SOL     OW 9898   2.920   4.224   6.176
 3000SOL    HW1 9899   2.889   4.152   6.238
 3000SOL    HW2 9900   3.013   4.252   6.201
 3001SOL     OW 9901   6.991   1.096   6.734
 3001SOL    HW1 9902   7.012   1.003   6.763
 3001SOL    HW2 9903   6.931   1.093   6.654
 3002SOL     OW 9904   3.401   2.086   0.016
 3002SOL    HW1 9905   3.484   2.075   0.071
 3002SOL    HW2 9906   3.331   2.022   0.048
 3003SOL     OW 9907   0.697   6.701   0.956
 3003SOL    HW1 9908   0.677   6.761   1.034
 3003SOL    HW2 9909   0.732   6.614   0.990
 3004SOL     OW 9910   0.795   4.047   2.545
 3004SOL    HW1 9911   0.854   4.127   2.552
 3004SOL    HW2 9912   0.717   4.067   2.486
 3005SOL     OW 9913   1.398   2.534   0.018
 3005SOL    HW1 9914   1.308   2.567   0.046
 3005SOL    HW2 9915   1.467   2.601   0.044
 3006SOL     OW 9916   5.537   2.384   4.236
 3006SOL    HW1 9917   5.581   2.386   4.326
 3006SOL    HW2 9918   5.536   2.290   4.201
 3007SOL     OW 9919   5.571   4.151   0.830
 3007SOL    HW1 9920   5.668   4.138   0.847
 3007SOL    HW2 9921   5.533   4.071   0.783
 3008SOL     OW 9922   3.056   2.631   6.369
 3008SOL    HW1 9923   2.982   2.564   6.370
 3008SOL    HW2 9924   3.065   2.669   6.277
 3009SOL     OW 9925   6.704   2.702   2.839
 3009SOL    HW1 9926   6.709   2.632   2.767
 3009SOL    HW2 9927   6.719   2.658   2.928
 3010SOL     OW 9928   2.760   5.754   3.242
 3010SOL    HW1 9929   2.711   5.667   3.239
 3010SOL    HW2 9930   2.750   5.795   3.332
 3011SOL     OW 9931   5.573   1.113   2.977
 3011SOL    HW1 9932   5.548   1.152   2.888
 3011SOL    HW2 9933   5.494   1.116   3.038
 3012SOL     OW 9934   2.488   3.282   6.546
 3012SOL    HW1 9935   2.435   3.211   6.501
 3012SOL    HW2 9936   2.448   3.371   6.528
 3013SOL     OW 9937   5.473   5.456   3.924
 3013SOL    HW1 9938   5.560   5.505   3.925
 3013SOL    HW2 9939   5.427   5.469   4.012
 3014SOL     OW 9940   4.918   2.133   5.451
 3014SOL    HW1 9941   4.933   2.162   5.546
 3014SOL    HW2 9942   4.828   2.089   5.443
 3015SOL     OW 9943   1.894   1.906   0.290
 3015SOL    HW1 9944   1.860   1.833   0.231
 3015SOL    HW2 9945   1.888   1.993   0.241
 3016SOL     OW 9946   3.093   6.262   4.594
 3016SOL    HW1 9947   3.044   6.174   4.593
 3016SOL    HW2 9948   3.186   6.248   4.627
 3017SOL     OW 9949   6.243   5.734   2.353
 3017SOL    HW1 9950   6.238   5.677   2.272
 3017SOL    HW2 9951   6.261   5.678   2.433
 3018SOL     OW 9952   2.817   0.332   6.502
 3018SOL    HW1 9953   2.849   0.242   6.472
 3018SOL    HW2 9954   2.718   0.337   6.496
 3019SOL     OW 9955   0.469   6.969   6.597
 3019SOL    HW1 9956   0.405   6.969   6.520
 3019SOL    HW2 9957   0.545   6.908   6.577
 3020SOL     OW 9958   3.979   3.013   0.885
 3020SOL    HW1 9959   3.964   3.085   0.817
 3020SOL    HW2 9960   4.052   3.041   0.947
 3021SOL     OW 9961   3.498   0.361   5.140
 3021SOL    HW1 9962   3.539   0.430   5.082
 3021SOL    HW2 9963   3.539   0.272   5.121
 3022SOL     OW 9964   4.032   5.251   4.799
 3022SOL    HW1 9965   3.962   5.185   4.773
 3022SOL    HW2 9966   4.089   5.212   4.871
 3023SOL     OW 9967   4.160   6.350   3.068
 3023SOL    HW1 9968   4.234   6.318   3.127
 3023SOL    HW2 9969   4.095   6.404   3.121
 3024SOL     OW 9970   5.416   6.826   4.659
 3024SOL    HW1 9971   5.325   6.810   4.621
 3024SOL    HW2 9972   5.425   6.778   4.746
 3025SOL     OW 9973   4.123   6.061   1.397
 3025SOL    HW1 9974   4.035   6.103   1.375
 3025SOL    HW2 9975   4.166   6.112   1.472
 3026SOL     OW 9976   0.214   1.081   5.934
 3026SOL    HW1 9977   0.285   1.025   5.892
 3026SOL    HW2 9978   0.128   1.030   5.938
 3027SOL     OW 9979   3.951   1.433   3.103
 3027SOL    HW1 9980   3.916   1.409   3.013
 3027SOL    HW2 9981   3.893   1.392   3.174
 3028SOL     OW 9982   1.391   3.370   5.997
 3028SOL    HW1 9983   1.409   3.425   5.916
 3028SOL    HW2 9984   1.294   3.342   5.998
 3029SOL     OW 9985   0.767   3.258   5.225
 3029SOL    HW1 9986   0.682   3.261   5.172
 3029SOL    HW2 9987   0.770   3.174   5.279
 3030SOL     OW 9988   0.934   3.057   0.600
 3030SOL    HW1 9989   1.003   3.103   0.656
 3030SOL    HW2 9990   0.943   3.086   0.504
 3031SOL     OW 9991   0.173   5.148   1.154
 3031SOL    HW1 9992   0.208   5.054   1.148
 3031SOL    HW2 9993   0.240   5.205   1.202
 3032SOL     OW 9994   1.932   6.827   1.523
 3032SOL    HW1 9995   1.898   6.904   1.576
 3032SOL    HW2 9996   1.888   6.743   1.556
 3033SOL     OW 9997   5.308   1.194   2.075
 3033SOL    HW1 9998   5.302   1.292   2.091
 3033SOL    HW2 9999   5.216   1.158   2.054
 3034SOL     OW10000   0.999   0.351   3.206
 3034SOL    HW110001   0.969   0.444   3.229
 3034SOL    HW210002   0.926   0.286   3.228
 3035SOL     OW10003   0.461   2.970   6.065
 3035SOL    HW110004   0.475   3.030   6.145
 3035SOL    HW210005   0.375   2.995   6.021
 3036SOL     OW10006   1.367   2.145   5.634
 3036SOL    HW110007   1.427   2.225   5.641
 3036SOL    HW210008   1.321   2.131   5.722
 3037SOL     OW10009   6.122   5.346   6.179
 3037SOL    HW110010   6.076   5.367   6.092
 3037SOL    HW210011   6.131   5.247   6.188
 3038SOL     OW10012   5.247   5.133   5.817
 3038SOL    HW110013   5.335   5.180   5.817
 3038SOL    HW210014   5.173   5.200   5.826
 3039SOL     OW10015   0.908   3.098   1.301
 3039SOL    HW110016   0.848   3.093   1.381
 3039SOL    HW210017   0.971   3.175   1.311
 3040SOL     OW10018   3.484   3.952   6.206
 3040SOL    HW110019   3.471   3.855   6.186
 3040SOL    HW210020   3.445   4.007   6.132
 3041SOL     OW10021   2.020   4.153   5.592
 3041SOL    HW110022   2.074   4.134   5.510
 3041SOL    HW210023   1.935   4.199   5.565
 3042SOL     OW10024   6.593   6.332   3.237
 3042SOL    HW110025   6.655   6.254   3.232
 3042SOL    HW210026   6.515   6.317   3.177
 3043SOL     OW10027   3.022   3.943   1.749
 3043SOL    HW110028   3.012   3.876   1.823
 3043SOL    HW210029   3.047   4.032   1.787
 3044SOL     OW10030   3.821   5.642   5.750
 3044SOL    HW110031   3.800   5.545   5.738
 3044SOL    HW210032   3.739   5.690   5.782
 3045SOL     OW10033   4.946   0.240   3.311
 3045SOL    HW110034   5.027   0.288   3.276
 3045SOL    HW210035   4.945   0.146   3.276
 3046SOL     OW10036   3.502   1.046   6.289
 3046SOL    HW110037   3.601   1.060   6.280
 3046SOL    HW210038   3.455   1.134   6.288
 3047SOL     OW10039   5.947   0.608   1.717
 3047SOL    HW110040   5.925   0.567   1.805
 3047SOL    HW210041   5.951   0.708   1.727
 3048SOL     OW10042   4.173   2.498   1.339
 3048SOL    HW110043   4.177   2.598   1.343
 3048SOL    HW210044   4.215   2.467   1.253
 3049SOL     OW10045   1.526   6.898   3.479
 3049SOL    HW110046   1.488   6.835   3.411
 3049SOL    HW210047   1.469   6.980   3.485
 3050SOL     OW10048   3.065   1.915   1.786
 3050SOL    HW110049   3.123   1.993   1.760
 3050SOL    HW210050   3.075   1.842   1.718
 3051SOL     OW10051   2.151   6.513   6.611
 3051SOL    HW110052   2.177   6.429   6.657
 3051SOL    HW210053   2.076   6.557   6.661
 3052SOL     OW10054   5.000   5.382   1.777
 3052SOL    HW110055   5.082   5.406   1.725
 3052SOL    HW210056   4.932   5.454   1.767
 3053SOL     OW10057   6.672   3.093   0.960
 3053SOL    HW110058   6.767   3.065   0.974
 3053SOL    HW210059   6.650   3.168   1.021
 3054SOL     OW10060   6.141   2.243   1.661
 3054SOL    HW110061   6.118   2.278   1.570
 3054SOL    HW210062   6.103   2.304   1.730
 3055SOL     OW10063   5.180   0.261   4.943
 3055SOL    HW110064   5.128   0.262   5.029
 3055SOL    HW210065   5.259   0.321   4.952
 3056SOL     OW10066   6.093   1.060   5.935
 3056SOL    HW110067   6.165   1.050   6.004
 3056SOL    HW210068   6.004   1.042   5.977
 3057SOL     OW10069   4.238   5.473   3.909
 3057SOL    HW110070   4.328   5.440   3.879
 3057SOL    HW210071   4.167   5.412   3.873
 3058SOL     OW10072   0.292   4.705   1.027
 3058SOL    HW110073   0.316   4.801   1.015
 3058SOL    HW210074   0.199   4.689   0.993
 3059SOL     OW10075   2.687   1.896   4.263
 3059SOL    HW110076   2.737   1.962   4.319
 3059SOL    HW210077   2.686   1.807   4.309
 3060SOL     OW10078   1.498   5.316   6.978
 3060SOL    HW110079   1.474   5.275   6.890
 3060SOL    HW210080   1.438   5.279   0.023
 3061SOL     OW10081   6.644   6.009   5.857
 3061SOL    HW110082   6.557   6.032   5.900
 3061SOL    HW210083   6.719   6.034   5.918
 3062SOL     OW10084   2.240   0.019   1.169
 3062SOL    HW110085   2.213   6.965   1.115
 3062SOL    HW210086   2.178   0.095   1.149
 3063SOL     OW10087   1.976   4.612   1.568
 3063SOL    HW110088   2.002   4.524   1.527
 3063SOL    HW210089   2.045   4.680   1.544
 3064SOL     OW10090   5.328   3.426   0.925
 3064SOL    HW110091   5.337   3.492   0.851
 3064SOL    HW210092   5.289   3.341   0.890
 3065SOL     OW10093   1.428   2.389   6.643
 3065SOL    HW110094   1.504   2.417   6.702
 3065SOL    HW210095   1.412   2.460   6.575
 3066SOL     OW10096   5.226   4.543   0.501
 3066SOL    HW110097   5.326   4.539   0.503
 3066SOL    HW210098   5.196   4.638   0.503
 3067SOL     OW10099   4.058   1.519   6.385
 3067SOL    HW110100   4.003   1.528   6.468
 3067SOL    HW210101   4.044   1.600   6.328
 3068SOL     OW10102   0.059   6.632   1.226
 3068SOL    HW110103   0.079   6.725   1.258
 3068SOL    HW210104   0.144   6.581   1.216
 3069SOL     OW10105   6.883   6.420   2.288
 3069SOL    HW110106   6.822   6.369   2.227
 3069SOL    HW210107   6.892   6.514   2.255
 3070SOL     OW10108   2.791   1.238   6.847
 3070SOL    HW110109   2.717   1.300   6.823
 3070SOL    HW210110   2.870   1.256   6.788
 3071SOL     OW10111   6.540   6.361   4.002
 3071SOL    HW110112   6.542   6.278   4.058
 3071SOL    HW210113   6.551   6.441   4.060
 3072SOL     OW10114   2.484   5.630   6.393
 3072SOL    HW110115   2.447   5.579   6.316
 3072SOL    HW210116   2.510   5.722   6.363
 3073SOL     OW10117   0.220   3.527   3.691
 3073SOL    HW110118   0.143   3.543   3.628
 3073SOL    HW210119   0.210   3.437   3.733
 3074SOL     OW10120   6.954   4.183   1.217
 3074SOL    HW110121   6.894   4.263   1.226
 3074SOL    HW210122   6.964   4.139   1.306
 3075SOL     OW10123   2.327   5.460   2.553
 3075SOL    HW110124   2.246   5.519   2.545
 3075SOL    HW210125   2.389   5.497   2.622
 3076SOL     OW10126   6.477   1.128   3.629
 3076SOL    HW110127   6.501   1.184   3.708
 3076SOL    HW210128   6.561   1.098   3.583
 3077SOL     OW10129   5.611   4.553   1.615
 3077SOL    HW110130   5.696   4.506   1.637
 3077SOL    HW210131   5.622   4.651   1.633
 3078SOL     OW10132   0.007   3.301   2.882
 3078SOL    HW110133   0.024   3.363   2.959
 3078SOL    HW210134   7.017   3.209   2.917
 3079SOL     OW10135   3.016   2.240   3.406
 3079SOL    HW110136   2.943   2.178   3.376
 3079SOL    HW210137   2.992   2.279   3.495
 3080SOL     OW10138   6.337   5.137   2.651
 3080SOL    HW110139   6.268   5.085   2.703
 3080SOL    HW210140   6.297   5.166   2.564
 3081SOL     OW10141   1.101   3.879   6.275
 3081SOL    HW110142   1.198   3.862   6.292
 3081SOL    HW210143   1.090   3.969   6.234
 3082SOL     OW10144   2.106   5.711   4.191
 3082SOL    HW110145   2.045   5.780   4.153
 3082SOL    HW210146   2.200   5.745   4.192
 3083SOL     OW10147   3.004   6.005   3.581
 3083SOL    HW110148   2.924   5.947   3.600
 3083SOL    HW210149   3.088   5.951   3.594
 3084SOL     OW10150   6.438   3.885   3.721
 3084SOL    HW110151   6.521   3.849   3.763
 3084SOL    HW210152   6.463   3.953   3.652
 3085SOL     OW10153   6.502   4.275   0.609
 3085SOL    HW110154   6.515   4.365   0.651
 3085SOL    HW210155   6.404   4.255   0.603
 3086SOL     OW10156   5.190   1.745   0.524
 3086SOL    HW110157   5.125   1.698   0.583
 3086SOL    HW210158   5.162   1.840   0.512
 3087SOL     OW10159   2.311   6.876   3.581
 3087SOL    HW110160   2.298   6.890   3.483
 3087SOL    HW210161   2.269   6.790   3.608
 3088SOL     OW10162   2.210   4.585   4.774
 3088SOL    HW110163   2.178   4.569   4.681
 3088SOL    HW210164   2.239   4.499   4.815
 3089SOL     OW10165   3.511   1.823   4.661
 3089SOL    HW110166   3.542   1.790   4.750
 3089SOL    HW210167   3.563   1.778   4.589
 3090SOL     OW10168   2.245   1.630   1.891
 3090SOL    HW110169   2.231   1.679   1.805
 3090SOL    HW210170   2.188   1.548   1.892
 3091SOL     OW10171   1.327   0.946   0.843
 3091SOL    HW110172   1.307   1.020   0.779
 3091SOL    HW210173   1.406   0.970   0.899
 3092SOL     OW10174   5.641   0.085   0.825
 3092SOL    HW110175   5.593   0.149   0.885
 3092SOL    HW210176   5.639   7.020   0.866
 3093SOL     OW10177   5.382   5.787   6.680
 3093SOL    HW110178   5.399   5.783   6.582
 3093SOL    HW210179   5.283   5.795   6.697
 3094SOL     OW10180   2.391   0.557   3.929
 3094SOL    HW110181   2.392   0.544   3.830
 3094SOL    HW210182   2.306   0.518   3.967
 3095SOL     OW10183   2.505   4.161   5.382
 3095SOL    HW110184   2.522   4.080   5.440
 3095SOL    HW210185   2.438   4.137   5.311
 3096SOL     OW10186   0.698   5.267   5.258
 3096SOL    HW110187   0.704   5.176   5.299
 3096SOL    HW210188   0.605   5.302   5.269
 3097SOL     OW10189   5.918   3.782   6.906
 3097SOL    HW110190   5.919   3.722   6.986
 3097SOL    HW210191   5.947   3.731   6.826
 3098SOL     OW10192   1.754   3.240   1.644
 3098SOL    HW110193   1.747   3.163   1.581
 3098SOL    HW210194   1.693   3.313   1.616
 3099SOL     OW10195   1.141   6.285   4.047
 3099SOL    HW110196   1.069   6.354   4.038
 3099SOL    HW210197   1.104   6.204   4.092
 3100SOL     OW10198   6.635   5.901   3.970
 3100SOL    HW110199   6.637   5.990   3.924
 3100SOL    HW210200   6.588   5.909   4.058
 3101SOL     OW10201   6.392   5.741   6.660
 3101SOL    HW110202   6.321   5.767   6.595
 3101SOL    HW210203   6.364   5.660   6.711
 3102SOL     OW10204   6.232   0.065   1.835
 3102SOL    HW110205   6.147   0.015   1.851
 3102SOL    HW210206   6.220   0.161   1.860
 3103SOL     OW10207   4.235   1.541   1.913
 3103SOL    HW110208   4.210   1.444   1.917
 3103SOL    HW210209   4.235   1.579   2.006
 3104SOL     OW10210   4.262   0.403   6.519
 3104SOL    HW110211   4.268   0.331   6.588
 3104SOL    HW210212   4.317   0.378   6.440
 3105SOL     OW10213   6.332   4.243   1.295
 3105SOL    HW110214   6.391   4.202   1.225
 3105SOL    HW210215   6.304   4.334   1.266
 3106SOL     OW10216   4.562   6.941   4.391
 3106SOL    HW110217   4.570   0.015   4.396
 3106SOL    HW210218   4.575   6.912   4.296
 3107SOL     OW10219   3.498   0.761   4.493
 3107SOL    HW110220   3.512   0.809   4.580
 3107SOL    HW210221   3.423   0.695   4.503
 3108SOL     OW10222   2.468   5.750   4.878
 3108SOL    HW110223   2.539   5.817   4.896
 3108SOL    HW210224   2.509   5.659   4.868
 3109SOL     OW10225   5.678   6.594   3.481
 3109SOL    HW110226   5.690   6.520   3.547
 3109SOL    HW210227   5.669   6.681   3.529
 3110SOL     OW10228   1.346   3.512   3.361
 3110SOL    HW110229   1.385   3.491   3.450
 3110SOL    HW210230   1.270   3.450   3.343
 3111SOL     OW10231   0.019   5.075   3.010
 3111SOL    HW110232   0.035   5.168   2.979
 3111SOL    HW210233   6.980   5.075   3.086
 3112SOL     OW10234   3.436   2.802   7.012
 3112SOL    HW110235   3.392   2.731   6.958
 3112SOL    HW210236   3.382   2.886   7.007
 3113SOL     OW10237   3.194   4.998   3.151
 3113SOL    HW110238   3.137   5.079   3.140
 3113SOL    HW210239   3.228   4.968   3.062
 3114SOL     OW10240   3.439   1.761   0.161
 3114SOL    HW110241   3.352   1.807   0.141
 3114SOL    HW210242   3.445   1.742   0.259
 3115SOL     OW10243   3.753   4.503   5.903
 3115SOL    HW110244   3.745   4.419   5.957
 3115SOL    HW210245   3.769   4.580   5.965
 3116SOL     OW10246   6.993   2.079   6.764
 3116SOL    HW110247   6.934   2.051   6.840
 3116SOL    HW210248   7.025   2.172   6.781
 3117SOL     OW10249   4.630   4.239   5.235
 3117SOL    HW110250   4.710   4.232   5.175
 3117SOL    HW210251   4.566   4.306   5.196
 3118SOL     OW10252   1.079   4.865   1.975
 3118SOL    HW110253   1.052   4.770   1.959
 3118SOL    HW210254   1.123   4.901   1.894
 3119SOL     OW10255   2.421   2.878   7.019
 3119SOL    HW110256   2.478   2.862   6.939
 3119SOL    HW210257   2.452   2.819   0.068
 3120SOL     OW10258   2.888   0.322   6.181
 3120SOL    HW110259   2.948   0.390   6.138
 3120SOL    HW210260   2.797   0.361   6.193
 3121SOL     OW10261   6.513   1.496   4.285
 3121SOL    HW110262   6.484   1.585   4.250
 3121SOL    HW210263   6.522   1.500   4.384
 3122SOL     OW10264   4.589   5.580   6.139
 3122SOL    HW110265   4.674   5.530   6.123
 3122SOL    HW210266   4.581   5.655   6.074
 3123SOL     OW10267   2.418   1.844   2.634
 3123SOL    HW110268   2.356   1.808   2.564
 3123SOL    HW210269   2.491   1.896   2.590
 3124SOL     OW10270   4.895   0.041   4.589
 3124SOL    HW110271   4.916   0.100   4.668
 3124SOL    HW210272   4.980   0.002   4.553
 3125SOL     OW10273   1.137   3.449   5.746
 3125SOL    HW110274   1.155   3.353   5.769
 3125SOL    HW210275   1.088   3.493   5.821
 3126SOL     OW10276   5.911   4.029   5.533
 3126SOL    HW110277   5.874   4.008   5.443
 3126SOL    HW210278   5.850   4.093   5.580
 3127SOL     OW10279   2.150   2.344   6.891
 3127SOL    HW110280   2.055   2.358   6.919
 3127SOL    HW210281   2.155   2.266   6.829
 3128SOL     OW10282   3.117   1.233   6.354
 3128SOL    HW110283   3.070   1.147   6.337
 3128SOL    HW210284   3.058   1.293   6.408
 3129SOL     OW10285   6.399   3.641   6.733
 3129SOL    HW110286   6.464   3.694   6.679
 3129SOL    HW210287   6.307   3.678   6.719
 3130SOL     OW10288   2.120   4.450   2.132
 3130SOL    HW110289   2.134   4.478   2.037
 3130SOL    HW210290   2.023   4.438   2.149
 3131SOL     OW10291   0.693   3.406   1.449
 3131SOL    HW110292   0.757   3.482   1.468
 3131SOL    HW210293   0.727   3.323   1.493
 3132SOL     OW10294   5.004   5.453   6.438
 3132SOL    HW110295   4.975   5.402   6.357
 3132SOL    HW210296   5.102   5.439   6.451
 3133SOL     OW10297   3.351   1.152   2.678
 3133SOL    HW110298   3.445   1.118   2.685
 3133SOL    HW210299   3.299   1.121   2.758
 3134SOL     OW10300   4.306   4.113   1.182
 3134SOL    HW110301   4.399   4.143   1.160
 3134SOL    HW210302   4.274   4.162   1.263
 3135SOL     OW10303   4.726   0.511   5.847
 3135SOL    HW110304   4.640   0.556   5.870
 3135SOL    HW210305   4.730   0.421   5.891
 3136SOL     OW10306   5.391   0.228   2.768
 3136SOL    HW110307   5.448   0.164   2.716
 3136SOL    HW210308   5.324   0.177   2.822
 3137SOL     OW10309   6.343   0.362   2.780
 3137SOL    HW110310   6.328   0.413   2.865
 3137SOL    HW210311   6.265   0.303   2.763
 3138SOL     OW10312   0.107   6.063   3.414
 3138SOL    HW110313   0.108   5.989   3.346
 3138SOL    HW210314   0.014   6.101   3.420
 3139SOL     OW10315   4.090   5.317   0.163
 3139SOL    HW110316   4.049   5.232   0.130
 3139SOL    HW210317   4.046   5.395   0.118
 3140SOL     OW10318   6.513   6.065   6.582
 3140SOL    HW110319   6.473   6.051   6.492
 3140SOL    HW210320   6.545   6.159   6.590
 3141SOL     OW10321   1.042   0.498   6.571
 3141SOL    HW110322   0.958   0.444   6.568
 3141SOL    HW210323   1.020   0.591   6.601
 3142SOL     OW10324   3.000   6.814   2.198
 3142SOL    HW110325   2.926   6.859   2.248
 3142SOL    HW210326   2.963   6.738   2.144
 3143SOL     OW10327   6.419   1.860   0.433
 3143SOL    HW110328   6.329   1.872   0.391
 3143SOL    HW210329   6.482   1.821   0.365
 3144SOL     OW10330   4.068   3.947   0.944
 3144SOL    HW110331   4.117   3.865   0.972
 3144SOL    HW210332   4.020   3.929   0.858
 3145SOL     OW10333   2.128   6.314   2.326
 3145SOL    HW110334   2.071   6.280   2.252
 3145SOL    HW210335   2.071   6.335   2.405
 3146SOL     OW10336   0.515   1.790   4.288
 3146SOL    HW110337   0.518   1.700   4.332
 3146SOL    HW210338   0.608   1.828   4.286
 3147SOL     OW10339   2.909   5.378   0.724
 3147SOL    HW110340   2.999   5.421   0.728
 3147SOL    HW210341   2.886   5.340   0.814
 3148SOL     OW10342   6.695   6.911   3.369
 3148SOL    HW110343   6.742   6.833   3.409
 3148SOL    HW210344   6.761   6.967   3.319
 3149SOL     OW10345   3.167   0.732   6.222
 3149SOL    HW110346   3.253   0.693   6.256
 3149SOL    HW210347   3.178   0.830   6.207
 3150SOL     OW10348   6.573   5.491   5.438
 3150SOL    HW110349   6.544   5.584   5.418
 3150SOL    HW210350   6.587   5.441   5.353
 3151SOL     OW10351   0.732   1.252   4.745
 3151SOL    HW110352   0.709   1.274   4.840
 3151SOL    HW210353   0.715   1.155   4.728
 3152SOL     OW10354   0.876   5.472   0.827
 3152SOL    HW110355   0.839   5.464   0.734
 3152SOL    HW210356   0.976   5.471   0.824
 3153SOL     OW10357   6.282   5.607   0.564
 3153SOL    HW110358   6.311   5.685   0.620
 3153SOL    HW210359   6.226   5.639   0.488
 3154SOL     OW10360   0.331   1.891   6.521
 3154SOL    HW110361   0.423   1.890   6.483
 3154SOL    HW210362   0.284   1.806   6.495
 3155SOL     OW10363   6.740   4.738   0.643
 3155SOL    HW110364   6.666   4.775   0.585
 3155SOL    HW210365   6.795   4.674   0.590
 3156SOL     OW10366   3.274   2.989   2.180
 3156SOL    HW110367   3.356   2.941   2.210
 3156SOL    HW210368   3.248   2.959   2.088
 3157SOL     OW10369   2.241   1.675   5.555
 3157SOL    HW110370   2.326   1.714   5.519
 3157SOL    HW210371   2.167   1.695   5.491
 3158SOL     OW10372   3.492   1.866   3.922
 3158SOL    HW110373   3.503   1.804   3.844
 3158SOL    HW210374   3.488   1.960   3.889
 3159SOL     OW10375   5.731   0.568   0.148
 3159SOL    HW110376   5.805   0.512   0.112
 3159SOL    HW210377   5.748   0.589   0.245
 3160SOL     OW10378   0.795   5.922   5.489
 3160SOL    HW110379   0.818   5.924   5.391
 3160SOL    HW210380   0.807   5.829   5.524
 3161SOL     OW10381   2.141   2.885   2.956
 3161SOL    HW110382   2.043   2.873   2.971
 3161SOL    HW210383   2.160   2.884   2.857
 3162SOL     OW10384   1.341   5.434   1.899
 3162SOL    HW110385   1.435   5.462   1.919
 3162SOL    HW210386   1.283   5.455   1.978
 3163SOL     OW10387   4.375   3.271   6.666
 3163SOL    HW110388   4.312   3.205   6.708
 3163SOL    HW210389   4.344   3.364   6.686
 3164SOL     OW10390   3.978   5.546   1.198
 3164SOL    HW110391   4.011   5.554   1.104
 3164SOL    HW210392   4.055   5.529   1.259
 3165SOL     OW10393   1.119   0.036   1.466
 3165SOL    HW110394   1.193   0.068   1.406
 3165SOL    HW210395   1.136   0.068   1.559
 3166SOL     OW10396   3.863   1.844   3.783
 3166SOL    HW110397   3.852   1.800   3.873
 3166SOL    HW210398   3.903   1.778   3.719
 3167SOL     OW10399   5.849   4.127   0.905
 3167SOL    HW110400   5.904   4.044   0.908
 3167SOL    HW210401   5.860   4.172   0.817
 3168SOL     OW10402   4.990   2.768   0.424
 3168SOL    HW110403   4.899   2.800   0.397
 3168SOL    HW210404   4.996   2.669   0.412
 3169SOL     OW10405   2.336   4.397   4.304
 3169SOL    HW110406   2.357   4.307   4.264
 3169SOL    HW210407   2.325   4.388   4.403
 3170SOL     OW10408   4.040   5.876   1.604
 3170SOL    HW110409   3.954   5.839   1.570
 3170SOL    HW210410   4.107   5.880   1.529
 3171SOL     OW10411   0.075   1.347   2.368
 3171SOL    HW110412   0.075   1.304   2.458
 3171SOL    HW210413   0.011   1.425   2.369
 3172SOL     OW10414   0.037   5.987   0.159
 3172SOL    HW110415   0.109   5.920   0.139
 3172SOL    HW210416   0.070   6.078   0.136
 3173SOL     OW10417   3.255   2.258   0.317
 3173SOL    HW110418   3.339   2.209   0.343
 3173SOL    HW210419   3.269   2.302   0.229
 3174SOL     OW10420   3.227   2.422   0.721
 3174SOL    HW110421   3.155   2.432   0.789
 3174SOL    HW210422   3.193   2.452   0.632
 3175SOL     OW10423   5.944   0.919   1.734
 3175SOL    HW110424   5.974   0.941   1.641
 3175SOL    HW210425   5.848   0.945   1.745
 3176SOL     OW10426   1.160   4.359   5.633
 3176SOL    HW110427   1.207   4.332   5.549
 3176SOL    HW210428   1.174   4.289   5.703
 3177SOL     OW10429   4.827   4.245   3.668
 3177SOL    HW110430   4.925   4.263   3.657
 3177SOL    HW210431   4.776   4.291   3.595
 3178SOL     OW10432   6.678   2.088   1.045
 3178SOL    HW110433   6.770   2.077   1.007
 3178SOL    HW210434   6.643   2.179   1.022
 3179SOL     OW10435   0.907   2.528   2.277
 3179SOL    HW110436   0.882   2.437   2.243
 3179SOL    HW210437   0.916   2.525   2.376
 3180SOL     OW10438   5.732   0.842   6.967
 3180SOL    HW110439   5.713   0.749   6.998
 3180SOL    HW210440   5.767   0.839   6.873
 3181SOL     OW10441   0.368   2.200   2.764
 3181SOL    HW110442   0.460   2.182   2.798
 3181SOL    HW210443   0.358   2.162   2.672
 3182SOL     OW10444   2.730   0.623   6.535
 3182SOL    HW110445   2.681   0.645   6.450
 3182SOL    HW210446   2.779   0.536   6.523
 3183SOL     OW10447   4.927   3.717   2.239
 3183SOL    HW110448   4.862   3.770   2.294
 3183SOL    HW210449   5.017   3.720   2.282
 3184SOL     OW10450   0.910   3.198   2.917
 3184SOL    HW110451   0.931   3.107   2.883
 3184SOL    HW210452   0.944   3.267   2.853
 3185SOL     OW10453   5.096   5.753   6.760
 3185SOL    HW110454   5.034   5.698   6.704
 3185SOL    HW210455   5.055   5.842   6.777
 3186SOL     OW10456   3.138   2.199   1.423
 3186SOL    HW110457   3.216   2.214   1.362
 3186SOL    HW210458   3.168   2.150   1.505
 3187SOL     OW10459   4.459   4.733   0.667
 3187SOL    HW110460   4.454   4.701   0.573
 3187SOL    HW210461   4.550   4.770   0.686
 3188SOL     OW10462   1.069   6.820   4.274
 3188SOL    HW110463   1.025   6.863   4.195
 3188SOL    HW210464   1.004   6.818   4.351
 3189SOL     OW10465   1.214   1.721   1.373
 3189SOL    HW110466   1.222   1.702   1.275
 3189SOL    HW210467   1.278   1.663   1.423
 3190SOL     OW10468   0.984   5.072   6.984
 3190SOL    HW110469   0.950   5.089   6.892
 3190SOL    HW210470   0.924   5.006   0.004
 3191SOL     OW10471   5.378   5.946   0.828
 3191SOL    HW110472   5.318   5.920   0.753
 3191SOL    HW210473   5.455   5.882   0.834
 3192SOL     OW10474   6.955   3.100   1.273
 3192SOL    HW110475   6.964   3.087   1.372
 3192SOL    HW210476   7.000   3.185   1.247
 3193SOL     OW10477   4.431   1.191   6.671
 3193SOL    HW110478   4.472   1.154   6.587
 3193SOL    HW210479   4.346   1.239   6.648
 3194SOL     OW10480   1.508   1.490   6.824
 3194SOL    HW110481   1.473   1.574   6.782
 3194SOL    HW210482   1.602   1.505   6.855
 3195SOL     OW10483   2.665   1.318   3.673
 3195SOL    HW110484   2.693   1.323   3.577
 3195SOL    HW210485   2.589   1.253   3.682
 3196SOL     OW10486   0.366   0.412   6.545
 3196SOL    HW110487   0.300   0.437   6.473
 3196SOL    HW210488   0.361   0.480   6.619
 3197SOL     OW10489   3.196   6.709   4.286
 3197SOL    HW110490   3.135   6.756   4.350
 3197SOL    HW210491   3.142   6.670   4.212
 3198SOL     OW10492   6.073   3.105   4.311
 3198SOL    HW110493   6.015   3.033   4.272
 3198SOL    HW210494   6.141   3.063   4.371
 3199SOL     OW10495   5.078   4.304   2.839
 3199SOL    HW110496   5.025   4.364   2.779
 3199SOL    HW210497   5.080   4.342   2.931
 3200SOL     OW10498   5.957   3.226   2.618
 3200SOL    HW110499   6.038   3.279   2.594
 3200SOL    HW210500   5.942   3.232   2.717
 3201SOL     OW10501   6.251   4.798   3.977
 3201SOL    HW110502   6.202   4.883   3.959
 3201SOL    HW210503   6.314   4.779   3.901
 3202SOL     OW10504   0.985   4.641   1.629
 3202SOL    HW110505   0.917   4.607   1.564
 3202SOL    HW210506   1.009   4.735   1.605
 3203SOL     OW10507   6.592   2.309   0.609
 3203SOL    HW110508   6.534   2.314   0.528
 3203SOL    HW210509   6.556   2.370   0.680
 3204SOL     OW10510   4.766   6.470   3.259
 3204SOL    HW110511   4.676   6.441   3.290
 3204SOL    HW210512   4.783   6.435   3.167
 3205SOL     OW10513   5.784   2.641   6.177
 3205SOL    HW110514   5.689   2.668   6.191
 3205SOL    HW210515   5.838   2.721   6.149
 3206SOL     OW10516   2.187   4.820   6.964
 3206SOL    HW110517   2.267   4.842   7.019
 3206SOL    HW210518   2.190   4.873   6.879
 3207SOL     OW10519   0.845   0.900   5.745
 3207SOL    HW110520   0.941   0.892   5.772
 3207SOL    HW210521   0.838   0.957   5.663
 3208SOL     OW10522   4.619   6.420   5.859
 3208SOL    HW110523   4.706   6.401   5.814
 3208SOL    HW210524   4.628   6.500   5.918
 3209SOL     OW10525   4.197   5.451   3.550
 3209SOL    HW110526   4.271   5.383   3.552
 3209SOL    HW210527   4.229   5.534   3.503
 3210SOL     OW10528   0.941   4.232   0.814
 3210SOL    HW110529   0.854   4.278   0.829
 3210SOL    HW210530   0.973   4.192   0.900
 3211SOL     OW10531   2.091   3.559   0.373
 3211SOL    HW110532   2.136   3.536   0.287
 3211SOL    HW210533   1.994   3.534   0.367
 3212SOL     OW10534   2.991   6.790   1.535
 3212SOL    HW110535   2.957   6.702   1.502
 3212SOL    HW210536   2.967   6.802   1.632
 3213SOL     OW10537   1.034   6.826   0.579
 3213SOL    HW110538   1.042   6.876   0.665
 3213SOL    HW210539   1.123   6.826   0.532
 3214SOL     OW10540   4.213   5.709   0.599
 3214SOL    HW110541   4.119   5.675   0.602
 3214SOL    HW210542   4.268   5.653   0.537
 3215SOL     OW10543   0.062   3.323   1.073
 3215SOL    HW110544   7.005   3.371   1.103
 3215SOL    HW210545   0.038   3.259   1.000
 3216SOL     OW10546   6.529   5.619   0.132
 3216SOL    HW110547   6.498   5.605   0.226
 3216SOL    HW210548   6.539   5.717   0.114
 3217SOL     OW10549   0.188   5.279   2.049
 3217SOL    HW110550   0.193   5.242   1.956
 3217SOL    HW210551   0.098   5.260   2.088
 3218SOL     OW10552   4.380   2.152   3.805
 3218SOL    HW110553   4.460   2.119   3.756
 3218SOL    HW210554   4.297   2.120   3.759
 3219SOL     OW10555   0.425   1.823   3.569
 3219SOL    HW110556   0.437   1.785   3.661
 3219SOL    HW210557   0.514   1.841   3.528
 3220SOL     OW10558   0.052   5.421   6.476
 3220SOL    HW110559   0.003   5.430   6.389
 3220SOL    HW210560   0.069   5.512   6.514
 3221SOL     OW10561   4.451   0.745   1.430
 3221SOL    HW110562   4.530   0.746   1.368
 3221SOL    HW210563   4.375   0.696   1.387
 3222SOL     OW10564   3.344   1.380   2.533
 3222SOL    HW110565   3.288   1.456   2.567
 3222SOL    HW210566   3.349   1.308   2.602
 3223SOL     OW10567   2.409   6.553   6.519
 3223SOL    HW110568   2.310   6.557   6.534
 3223SOL    HW210569   2.446   6.468   6.556
 3224SOL     OW10570   4.647   4.119   5.817
 3224SOL    HW110571   4.590   4.182   5.870
 3224SOL    HW210572   4.716   4.078   5.877
 3225SOL     OW10573   5.272   3.002   6.021
 3225SOL    HW110574   5.346   3.059   6.057
 3225SOL    HW210575   5.309   2.913   5.995
 3226SOL     OW10576   2.091   1.553   2.934
 3226SOL    HW110577   2.189   1.573   2.936
 3226SOL    HW210578   2.076   1.467   2.884
 3227SOL     OW10579   3.320   2.514   6.917
 3227SOL    HW110580   3.258   2.564   6.856
 3227SOL    HW210581   3.317   2.416   6.894
 3228SOL     OW10582   0.128   4.105   2.059
 3228SOL    HW110583   0.074   4.183   2.089
 3228SOL    HW210584   0.087   4.020   2.093
 3229SOL     OW10585   4.160   0.370   5.041
 3229SOL    HW110586   4.175   0.450   5.099
 3229SOL    HW210587   4.162   0.398   4.945
 3230SOL     OW10588   2.535   3.926   5.542
 3230SOL    HW110589   2.620   3.888   5.505
 3230SOL    HW210590   2.463   3.857   5.537
 3231SOL     OW10591   2.649   0.098   1.245
 3231SOL    HW110592   2.609   0.188   1.228
 3231SOL    HW210593   2.710   0.104   1.324
 3232SOL     OW10594   4.919   6.327   5.056
 3232SOL    HW110595   4.932   6.420   5.089
 3232SOL    HW210596   4.827   6.319   5.016
 3233SOL     OW10597   0.889   2.269   1.579
 3233SOL    HW110598   0.979   2.312   1.575
 3233SOL    HW210599   0.818   2.340   1.580
 3234SOL     OW10600   0.232   2.138   7.004
 3234SOL    HW110601   0.309   2.148   0.042
 3234SOL    HW210602   0.178   2.058   0.002
 3235SOL     OW10603   6.268   0.651   2.751
 3235SOL    HW110604   6.180   0.640   2.705
 3235SOL    HW210605   6.314   0.562   2.758
 3236SOL     OW10606   1.405   3.085   0.654
 3236SOL    HW110607   1.406   3.023   0.576
 3236SOL    HW210608   1.499   3.097   0.688
 3237SOL     OW10609   5.661   1.461   3.590
 3237SOL    HW110610   5.733   1.467   3.659
 3237SOL    HW210611   5.616   1.549   3.581
 3238SOL     OW10612   6.866   5.618   0.658
 3238SOL    HW110613   6.822   5.620   0.568
 3238SOL    HW210614   6.964   5.605   0.648
 3239SOL     OW10615   6.727   1.718   2.768
 3239SOL    HW110616   6.667   1.786   2.810
 3239SOL    HW210617   6.816   1.720   2.814
 3240SOL     OW10618   6.773   6.658   6.377
 3240SOL    HW110619   6.727   6.736   6.333
 3240SOL    HW210620   6.841   6.692   6.442
 3241SOL     OW10621   4.416   1.277   4.734
 3241SOL    HW110622   4.510   1.242   4.730
 3241SOL    HW210623   4.411   1.364   4.685
 3242SOL     OW10624   4.165   3.715   6.828
 3242SOL    HW110625   4.222   3.773   6.770
 3242SOL    HW210626   4.078   3.697   6.782
 3243SOL     OW10627   4.335   4.058   0.824
 3243SOL    HW110628   4.323   4.039   0.726
 3243SOL    HW210629   4.249   4.039   0.871
 3244SOL     OW10630   4.524   5.833   6.922
 3244SOL    HW110631   4.622   5.842   6.939
 3244SOL    HW210632   4.506   5.843   6.824
 3245SOL     OW10633   5.322   3.014   5.081
 3245SOL    HW110634   5.277   3.042   4.996
 3245SOL    HW210635   5.420   3.001   5.064
 3246SOL     OW10636   5.489   0.405   2.519
 3246SOL    HW110637   5.576   0.362   2.544
 3246SOL    HW210638   5.477   0.489   2.572
 3247SOL     OW10639   6.563   4.691   2.669
 3247SOL    HW110640   6.502   4.675   2.592
 3247SOL    HW210641   6.595   4.604   2.705
 3248SOL     OW10642   6.530   3.746   1.327
 3248SOL    HW110643   6.509   3.729   1.423
 3248SOL    HW210644   6.460   3.704   1.269
 3249SOL     OW10645   3.832   3.137   4.436
 3249SOL    HW110646   3.847   3.147   4.534
 3249SOL    HW210647   3.920   3.138   4.389
 3250SOL     OW10648   5.632   0.234   2.122
 3250SOL    HW110649   5.570   0.217   2.198
 3250SOL    HW210650   5.581   0.239   2.037
 3251SOL     OW10651   3.264   1.078   3.686
 3251SOL    HW110652   3.233   1.015   3.615
 3251SOL    HW210653   3.322   1.148   3.646
 3252SOL     OW10654   2.443   1.095   2.915
 3252SOL    HW110655   2.437   1.157   2.994
 3252SOL    HW210656   2.409   1.005   2.941
 3253SOL     OW10657   4.720   4.415   1.853
 3253SOL    HW110658   4.789   4.408   1.925
 3253SOL    HW210659   4.631   4.436   1.894
 3254SOL     OW10660   4.901   5.739   5.577
 3254SOL    HW110661   4.964   5.663   5.561
 3254SOL    HW210662   4.860   5.767   5.490
 3255SOL     OW10663   5.403   6.632   0.390
 3255SOL    HW110664   5.312   6.648   0.428
 3255SOL    HW210665   5.460   6.588   0.459
 3256SOL     OW10666   2.981   0.585   0.718
 3256SOL    HW110667   2.963   0.642   0.638
 3256SOL    HW210668   2.937   0.496   0.706
 3257SOL     OW10669   1.491   1.848   2.090
 3257SOL    HW110670   1.563   1.889   2.034
 3257SOL    HW210671   1.531   1.790   2.160
 3258SOL     OW10672   4.463   5.123   2.369
 3258SOL    HW110673   4.525   5.137   2.447
 3258SOL    HW210674   4.378   5.081   2.401
 3259SOL     OW10675   5.401   5.297   4.317
 3259SOL    HW110676   5.485   5.253   4.349
 3259SOL    HW210677   5.423   5.379   4.265
 3260SOL     OW10678   0.954   1.730   1.340
 3260SOL    HW110679   0.939   1.829   1.337
 3260SOL    HW210680   1.050   1.711   1.359
 3261SOL     OW10681   5.794   0.484   1.485
 3261SOL    HW110682   5.861   0.516   1.553
 3261SOL    HW210683   5.811   0.530   1.398
 3262SOL     OW10684   2.993   2.193   2.747
 3262SOL    HW110685   2.927   2.251   2.794
 3262SOL    HW210686   2.987   2.208   2.649
 3263SOL     OW10687   2.579   0.999   3.463
 3263SOL    HW110688   2.489   0.976   3.427
 3263SOL    HW210689   2.631   1.050   3.395
 3264SOL     OW10690   1.096   3.946   0.799
 3264SOL    HW110691   1.059   3.983   0.884
 3264SOL    HW210692   1.121   4.022   0.739
 3265SOL     OW10693   5.560   0.659   6.399
 3265SOL    HW110694   5.556   0.564   6.429
 3265SOL    HW210695   5.468   0.690   6.375
 3266SOL     OW10696   1.684   3.958   0.561
 3266SOL    HW110697   1.718   4.052   0.556
 3266SOL    HW210698   1.758   3.898   0.590
 3267SOL     OW10699   3.390   6.549   0.881
 3267SOL    HW110700   3.345   6.461   0.876
 3267SOL    HW210701   3.340   6.616   0.826
 3268SOL     OW10702   1.215   3.529   1.697
 3268SOL    HW110703   1.209   3.431   1.680
 3268SOL    HW210704   1.283   3.570   1.637
 3269SOL     OW10705   4.972   5.675   2.156
 3269SOL    HW110706   4.948   5.749   2.093
 3269SOL    HW210707   5.028   5.608   2.107
 3270SOL     OW10708   1.114   4.340   5.997
 3270SOL    HW110709   1.041   4.370   5.935
 3270SOL    HW210710   1.191   4.405   5.991
 3271SOL     OW10711   5.782   3.610   2.775
 3271SOL    HW110712   5.869   3.605   2.724
 3271SOL    HW210713   5.725   3.682   2.735
 3272SOL     OW10714   3.465   4.704   6.035
 3272SOL    HW110715   3.486   4.718   5.938
 3272SOL    HW210716   3.396   4.770   6.065
 3273SOL     OW10717   0.366   6.245   0.753
 3273SOL    HW110718   0.285   6.279   0.705
 3273SOL    HW210719   0.414   6.180   0.694
 3274SOL     OW10720   4.946   0.986   0.722
 3274SOL    HW110721   4.966   0.997   0.625
 3274SOL    HW210722   5.031   0.978   0.773
 3275SOL     OW10723   6.030   1.762   6.993
 3275SOL    HW110724   6.001   1.858   6.993
 3275SOL    HW210725   6.033   1.729   0.061
 3276SOL     OW10726   2.724   5.774   0.275
 3276SOL    HW110727   2.640   5.791   0.326
 3276SOL    HW210728   2.701   5.737   0.185
 3277SOL     OW10729   3.666   0.028   6.419
 3277SOL    HW110730   3.585   6.996   6.423
 3277SOL    HW210731   3.648   0.115   6.465
 3278SOL     OW10732   0.974   0.874   5.257
 3278SOL    HW110733   0.917   0.851   5.178
 3278SOL    HW210734   0.975   0.797   5.321
 3279SOL     OW10735   5.310   0.294   0.541
 3279SOL    HW110736   5.372   0.270   0.466
 3279SOL    HW210737   5.215   0.283   0.512
 3280SOL     OW10738   3.914   4.998   4.462
 3280SOL    HW110739   3.928   5.076   4.401
 3280SOL    HW210740   4.002   4.958   4.486
 3281SOL     OW10741   1.833   4.872   1.728
 3281SOL    HW110742   1.750   4.928   1.725
 3281SOL    HW210743   1.822   4.799   1.795
 3282SOL     OW10744   0.003   4.857   5.552
 3282SOL    HW110745   0.005   4.837   5.454
 3282SOL    HW210746   0.081   4.916   5.575
 3283SOL     OW10747   3.600   0.158   1.020
 3283SOL    HW110748   3.560   0.130   1.107
 3283SOL    HW210749   3.699   0.161   1.027
 3284SOL     OW10750   0.151   5.082   7.016
 3284SOL    HW110751   0.206   5.154   6.973
 3284SOL    HW210752   0.206   5.000   0.001
 3285SOL     OW10753   4.182   2.294   3.453
 3285SOL    HW110754   4.241   2.226   3.410
 3285SOL    HW210755   4.239   2.355   3.509
 3286SOL     OW10756   3.503   2.872   2.242
 3286SOL    HW110757   3.592   2.910   2.266
 3286SOL    HW210758   3.511   2.773   2.230
 3287SOL     OW10759   0.561   0.542   0.165
 3287SOL    HW110760   0.587   0.524   0.259
 3287SOL    HW210761   0.624   0.495   0.103
 3288SOL     OW10762   0.834   5.685   5.640
 3288SOL    HW110763   0.747   5.656   5.678
 3288SOL    HW210764   0.906   5.620   5.667
 3289SOL     OW10765   2.884   0.137   5.510
 3289SOL    HW110766   2.805   0.110   5.456
 3289SOL    HW210767   2.867   0.225   5.553
 3290SOL     OW10768   0.214   6.757   1.627
 3290SOL    HW110769   0.163   6.833   1.668
 3290SOL    HW210770   0.250   6.698   1.700
 3291SOL     OW10771   1.308   6.765   0.468
 3291SOL    HW110772   1.389   6.751   0.527
 3291SOL    HW210773   1.318   6.710   0.385
 3292SOL     OW10774   0.437   1.345   0.359
 3292SOL    HW110775   0.400   1.256   0.386
 3292SOL    HW210776   0.491   1.334   0.275
 3293SOL     OW10777   0.066   3.775   2.184
 3293SOL    HW110778   0.058   3.679   2.160
 3293SOL    HW210779   0.136   3.786   2.255
 3294SOL     OW10780   6.050   1.955   6.527
 3294SOL    HW110781   6.106   1.992   6.453
 3294SOL    HW210782   6.060   1.856   6.530
 3295SOL     OW10783   1.243   2.819   2.142
 3295SOL    HW110784   1.148   2.826   2.112
 3295SOL    HW210785   1.283   2.735   2.106
 3296SOL     OW10786   1.169   6.982   2.694
 3296SOL    HW110787   1.174   0.055   2.707
 3296SOL    HW210788   1.212   6.936   2.771
 3297SOL     OW10789   2.994   0.820   5.135
 3297SOL    HW110790   3.053   0.744   5.111
 3297SOL    HW210791   2.961   0.866   5.052
 3298SOL     OW10792   6.144   1.639   5.270
 3298SOL    HW110793   6.153   1.687   5.182
 3298SOL    HW210794   6.054   1.657   5.309
 3299SOL     OW10795   2.976   5.856   2.810
 3299SOL    HW110796   2.981   5.828   2.906
 3299SOL    HW210797   2.908   5.928   2.800
 3300SOL     OW10798   6.667   0.870   5.191
 3300SOL    HW110799   6.632   0.923   5.268
 3300SOL    HW210800   6.592   0.816   5.151
 3301SOL     OW10801   1.616   3.229   3.615
 3301SOL    HW110802   1.576   3.163   3.679
 3301SOL    HW210803   1.574   3.218   3.525
 3302SOL     OW10804   0.746   4.608   5.293
 3302SOL    HW110805   0.766   4.586   5.388
 3302SOL    HW210806   0.657   4.653   5.286
 3303SOL     OW10807   3.378   4.021   1.540
 3303SOL    HW110808   3.336   3.930   1.533
 3303SOL    HW210809   3.370   4.054   1.634
 3304SOL     OW10810   1.097   5.560   4.070
 3304SOL    HW110811   1.165   5.633   4.064
 3304SOL    HW210812   1.133   5.485   4.126
 3305SOL     OW10813   2.189   0.935   2.547
 3305SOL    HW110814   2.246   0.875   2.491
 3305SOL    HW210815   2.185   1.025   2.505
 3306SOL     OW10816   2.055   5.444   5.371
 3306SOL    HW110817   2.106   5.405   5.293
 3306SOL    HW210818   1.960   5.415   5.366
 3307SOL     OW10819   0.228   5.330   6.685
 3307SOL    HW110820   0.313   5.325   6.632
 3307SOL    HW210821   0.152   5.354   6.624
 3308SOL     OW10822   2.634   6.517   0.919
 3308SOL    HW110823   2.635   6.450   0.845
 3308SOL    HW210824   2.656   6.607   0.883
 3309SOL     OW10825   0.330   6.084   2.720
 3309SOL    HW110826   0.283   5.999   2.696
 3309SOL    HW210827   0.358   6.082   2.816
 3310SOL     OW10828   0.020   3.427   6.606
 3310SOL    HW110829   7.000   3.436   6.694
 3310SOL    HW210830   0.086   3.502   6.595
 3311SOL     OW10831   2.263   4.099   1.103
 3311SOL    HW110832   2.315   4.063   1.180
 3311SOL    HW210833   2.324   4.111   1.024
 3312SOL     OW10834   3.913   4.497   5.672
 3312SOL    HW110835   4.009   4.490   5.699
 3312SOL    HW210836   3.856   4.503   5.754
 3313SOL     OW10837   1.008   5.835   3.435
 3313SOL    HW110838   1.053   5.747   3.418
 3313SOL    HW210839   0.965   5.867   3.351
 3314SOL     OW10840   2.552   1.481   3.016
 3314SOL    HW110841   2.636   1.446   2.977
 3314SOL    HW210842   2.486   1.500   2.943
 3315SOL     OW10843   6.416   3.614   4.277
 3315SOL    HW110844   6.402   3.647   4.184
 3315SOL    HW210845   6.345   3.547   4.300
 3316SOL     OW10846   5.068   1.519   5.877
 3316SOL    HW110847   5.050   1.437   5.822
 3316SOL    HW210848   4.981   1.558   5.908
 3317SOL     OW10849   4.382   3.113   1.717
 3317SOL    HW110850   4.295   3.121   1.767
 3317SOL    HW210851   4.457   3.104   1.782
 3318SOL     OW10852   1.819   1.092   1.118
 3318SOL    HW110853   1.864   1.007   1.092
 3318SOL    HW210854   1.725   1.074   1.144
 3319SOL     OW10855   6.740   1.476   3.943
 3319SOL    HW110856   6.751   1.485   4.042
 3319SOL    HW210857   6.825   1.442   3.903
 3320SOL     OW10858   6.242   0.051   5.001
 3320SOL    HW110859   6.248   0.007   5.091
 3320SOL    HW210860   6.153   0.032   4.961
 3321SOL     OW10861   4.651   1.403   0.288
 3321SOL    HW110862   4.670   1.307   0.267
 3321SOL    HW210863   4.661   1.417   0.387
 3322SOL     OW10864   6.239   3.137   1.013
 3322SOL    HW110865   6.294   3.186   1.080
 3322SOL    HW210866   6.280   3.047   0.995
 3323SOL     OW10867   3.188   2.936   0.470
 3323SOL    HW110868   3.126   2.862   0.493
 3323SOL    HW210869   3.279   2.916   0.505
 3324SOL     OW10870   3.741   5.452   6.658
 3324SOL    HW110871   3.681   5.532   6.662
 3324SOL    HW210872   3.803   5.453   6.736
 3325SOL     OW10873   0.979   3.061   0.041
 3325SOL    HW110874   0.916   3.024   0.109
 3325SOL    HW210875   0.942   3.047   6.975
 3326SOL     OW10876   4.530   2.053   1.540
 3326SOL    HW110877   4.440   2.089   1.566
 3326SOL    HW210878   4.529   1.953   1.545
 3327SOL     OW10879   2.940   5.647   1.725
 3327SOL    HW110880   3.034   5.645   1.760
 3327SOL    HW210881   2.881   5.594   1.785
 3328SOL     OW10882   4.185   2.380   0.455
 3328SOL    HW110883   4.174   2.347   0.549
 3328SOL    HW210884   4.183   2.480   0.454
 3329SOL     OW10885   4.688   0.446   5.129
 3329SOL    HW110886   4.689   0.363   5.184
 3329SOL    HW210887   4.779   0.464   5.092
 3330SOL     OW10888   6.174   5.024   1.375
 3330SOL    HW110889   6.140   4.967   1.300
 3330SOL    HW210890   6.269   5.048   1.358
 3331SOL     OW10891   2.038   2.838   1.448
 3331SOL    HW110892   2.029   2.763   1.513
 3331SOL    HW210893   1.955   2.895   1.451
 3332SOL     OW10894   6.256   5.109   6.807
 3332SOL    HW110895   6.334   5.168   6.825
 3332SOL    HW210896   6.208   5.091   6.893
 3333SOL     OW10897   4.387   4.332   6.642
 3333SOL    HW110898   4.398   4.422   6.686
 3333SOL    HW210899   4.324   4.340   6.565
 3334SOL     OW10900   2.890   3.785   1.559
 3334SOL    HW110901   2.904   3.841   1.478
 3334SOL    HW210902   2.941   3.825   1.636
 3335SOL     OW10903   4.953   6.941   5.003
 3335SOL    HW110904   5.014   6.882   5.056
 3335SOL    HW210905   4.881   6.977   5.062
 3336SOL     OW10906   2.253   6.374   4.784
 3336SOL    HW110907   2.330   6.310   4.780
 3336SOL    HW210908   2.197   6.353   4.863
 3337SOL     OW10909   3.181   3.996   2.757
 3337SOL    HW110910   3.102   3.936   2.750
 3337SOL    HW210911   3.195   4.043   2.670
 3338SOL     OW10912   5.264   3.354   1.940
 3338SOL    HW110913   5.336   3.291   1.966
 3338SOL    HW210914   5.270   3.374   1.842
 3339SOL     OW10915   6.853   0.419   6.788
 3339SOL    HW110916   6.799   0.335   6.784
 3339SOL    HW210917   6.812   0.482   6.854
 3340SOL     OW10918   3.328   1.703   2.287
 3340SOL    HW110919   3.414   1.707   2.235
 3340SOL    HW210920   3.254   1.673   2.228
 3341SOL     OW10921   1.353   5.543   3.348
 3341SOL    HW110922   1.442   5.498   3.354
 3341SOL    HW210923   1.358   5.620   3.284
 3342SOL     OW10924   2.367   6.998   4.192
 3342SOL    HW110925   2.305   6.947   4.251
 3342SOL    HW210926   2.371   0.068   4.221
 3343SOL     OW10927   5.872   3.356   0.564
 3343SOL    HW110928   5.809   3.358   0.641
 3343SOL    HW210929   5.822   3.339   0.480
 3344SOL     OW10930   5.473   3.434   4.269
 3344SOL    HW110931   5.503   3.466   4.179
 3344SOL    HW210932   5.384   3.389   4.260
 3345SOL     OW10933   1.530   3.762   5.708
 3345SOL    HW110934   1.488   3.682   5.751
 3345SOL    HW210935   1.520   3.756   5.609
 3346SOL     OW10936   1.649   0.654   0.730
 3346SOL    HW110937   1.671   0.745   0.765
 3346SOL    HW210938   1.550   0.643   0.726
 3347SOL     OW10939   0.814   3.686   5.629
 3347SOL    HW110940   0.749   3.717   5.559
 3347SOL    HW210941   0.885   3.754   5.642
 3348SOL     OW10942   3.535   3.879   4.277
 3348SOL    HW110943   3.507   3.830   4.195
 3348SOL    HW210944   3.591   3.820   4.335
 3349SOL     OW10945   0.971   6.109   2.929
 3349SOL    HW110946   1.010   6.166   3.001
 3349SOL    HW210947   0.979   6.156   2.841
 3350SOL     OW10948   0.516   2.583   6.545
 3350SOL    HW110949   0.599   2.612   6.592
 3350SOL    HW210950   0.525   2.599   6.447
 3351SOL     OW10951   4.656   1.301   2.079
 3351SOL    HW110952   4.592   1.246   2.134
 3351SOL    HW210953   4.670   1.390   2.123
 3352SOL     OW10954   6.851   2.304   0.536
 3352SOL    HW110955   6.859   2.299   0.437
 3352SOL    HW210956   6.756   2.288   0.563
 3353SOL     OW10957   1.853   5.577   1.531
 3353SOL    HW110958   1.843   5.596   1.629
 3353SOL    HW210959   1.943   5.536   1.515
 3354SOL     OW10960   4.657   2.479   5.321
 3354SOL    HW110961   4.686   2.564   5.365
 3354SOL    HW210962   4.581   2.499   5.258
 3355SOL     OW10963   2.326   2.006   6.640
 3355SOL    HW110964   2.330   1.953   6.555
 3355SOL    HW210965   2.356   1.949   6.716
 3356SOL     OW10966   0.577   4.700   5.719
 3356SOL    HW110967   0.627   4.716   5.804
 3356SOL    HW210968   0.479   4.707   5.736
 3357SOL     OW10969   2.306   4.165   1.801
 3357SOL    HW110970   2.257   4.235   1.751
 3357SOL    HW210971   2.403   4.166   1.776
 3358SOL     OW10972   4.402   1.079   0.840
 3358SOL    HW110973   4.430   1.005   0.779
 3358SOL    HW210974   4.483   1.129   0.872
 3359SOL     OW10975   0.244   0.129   3.103
 3359SOL    HW110976   0.223   0.035   3.076
 3359SOL    HW210977   0.311   0.129   3.177
 3360SOL     OW10978   0.893   1.257   6.605
 3360SOL    HW110979   0.859   1.170   6.568
 3360SOL    HW210980   0.850   1.274   6.694
 3361SOL     OW10981   1.292   4.766   4.238
 3361SOL    HW110982   1.285   4.764   4.338
 3361SOL    HW210983   1.351   4.841   4.210
 3362SOL     OW10984   3.606   1.384   2.463
 3362SOL    HW110985   3.507   1.387   2.478
 3362SOL    HW210986   3.624   1.383   2.364
 3363SOL     OW10987   6.267   6.918   1.416
 3363SOL    HW110988   6.241   7.015   1.414
 3363SOL    HW210989   6.350   6.907   1.471
 3364SOL     OW10990   1.271   4.791   3.586
 3364SOL    HW110991   1.227   4.768   3.499
 3364SOL    HW210992   1.299   4.887   3.585
 3365SOL     OW10993   6.510   2.160   5.221
 3365SOL    HW110994   6.546   2.163   5.314
 3365SOL    HW210995   6.420   2.117   5.222
 3366SOL     OW10996   5.886   6.448   4.756
 3366SOL    HW110997   5.859   6.355   4.731
 3366SOL    HW210998   5.805   6.500   4.783
 3367SOL     OW10999   3.653   2.826   1.880
 3367SOL    HW111000   3.681   2.909   1.832
 3367SOL    HW211001   3.652   2.843   1.978
 3368SOL     OW11002   0.812   4.854   5.907
 3368SOL    HW111003   0.823   4.953   5.897
 3368SOL    HW211004   0.728   4.836   5.959
 3369SOL     OW11005   3.873   2.586   6.784
 3369SOL    HW111006   3.895   2.573   6.881
 3369SOL    HW211007   3.929   2.660   6.748
 3370SOL     OW11008   7.021   5.705   6.600
 3370SOL    HW111009   6.940   5.750   6.562
 3370SOL    HW211010   0.031   5.759   6.676
 3371SOL     OW11011   2.162   2.968   2.001
 3371SOL    HW111012   2.135   3.056   2.042
 3371SOL    HW211013   2.167   2.979   1.902
 3372SOL     OW11014   0.611   1.980   1.082
 3372SOL    HW111015   0.535   1.955   1.022
 3372SOL    HW211016   0.671   1.902   1.094
 3373SOL     OW11017   6.987   1.797   3.118
 3373SOL    HW111018   6.964   1.889   3.150
 3373SOL    HW211019   0.060   1.781   3.129
 3374SOL     OW11020   1.346   6.549   4.888
 3374SOL    HW111021   1.443   6.539   4.911
 3374SOL    HW211022   1.303   6.459   4.883
 3375SOL     OW11023   0.007   5.099   6.418
 3375SOL    HW111024   7.006   5.172   6.481
 3375SOL    HW211025   7.016   5.010   6.461
 3376SOL     OW11026   4.035   3.125   3.446
 3376SOL    HW111027   4.034   3.172   3.534
 3376SOL    HW211028   4.124   3.082   3.432
 3377SOL     OW11029   6.656   6.314   6.103
 3377SOL    HW111030   6.584   6.289   6.167
 3377SOL    HW211031   6.732   6.356   6.153
 3378SOL     OW11032   0.609   1.369   0.124
 3378SOL    HW111033   0.660   1.418   0.195
 3378SOL    HW211034   0.671   1.310   0.073
 3379SOL     OW11035   6.315   6.858   6.273
 3379SOL    HW111036   6.284   6.930   6.212
 3379SOL    HW211037   6.273   6.870   6.363
 3380SOL     OW11038   5.963   6.775   5.058
 3380SOL    HW111039   6.057   6.750   5.082
 3380SOL    HW211040   5.919   6.815   5.138
 3381SOL     OW11041   0.821   2.703   1.509
 3381SOL    HW111042   0.883   2.664   1.440
 3381SOL    HW211043   0.732   2.720   1.467
 3382SOL     OW11044   0.590   2.518   0.939
 3382SOL    HW111045   0.583   2.420   0.956
 3382SOL    HW211046   0.662   2.535   0.872
 3383SOL     OW11047   4.489   5.562   1.564
 3383SOL    HW111048   4.534   5.481   1.525
 3383SOL    HW211049   4.410   5.585   1.508
 3384SOL     OW11050   2.519   3.347   6.116
 3384SOL    HW111051   2.607   3.300   6.104
 3384SOL    HW211052   2.525   3.440   6.081
 3385SOL     OW11053   6.720   3.044   4.145
 3385SOL    HW111054   6.666   3.013   4.066
 3385SOL    HW211055   6.662   3.100   4.204
 3386SOL     OW11056   5.567   4.774   6.867
 3386SOL    HW111057   5.570   4.716   6.949
 3386SOL    HW211058   5.587   4.718   6.786
 3387SOL     OW11059   3.381   0.593   3.096
 3387SOL    HW111060   3.449   0.608   3.168
 3387SOL    HW211061   3.357   0.496   3.092
 3388SOL     OW11062   5.169   3.061   1.841
 3388SOL    HW111063   5.140   3.147   1.883
 3388SOL    HW211064   5.089   3.005   1.820
 3389SOL     OW11065   5.640   5.150   6.392
 3389SOL    HW111066   5.689   5.173   6.308
 3389SOL    HW211067   5.686   5.191   6.470
 3390SOL     OW11068   4.965   6.018   6.500
 3390SOL    HW111069   5.022   5.936   6.505
 3390SOL    HW211070   5.007   6.085   6.438
 3391SOL     OW11071   4.911   3.164   5.391
 3391SOL    HW111072   4.835   3.217   5.353
 3391SOL    HW211073   4.987   3.164   5.326
 3392SOL     OW11074   2.749   0.036   3.484
 3392SOL    HW111075   2.795   0.122   3.504
 3392SOL    HW211076   2.695   0.046   3.401
 3393SOL     OW11077   0.011   6.298   6.855
 3393SOL    HW111078   6.981   6.232   6.906
 3393SOL    HW211079   6.994   6.388   6.859
 3394SOL     OW11080   5.136   3.581   2.037
 3394SOL    HW111081   5.048   3.587   1.990
 3394SOL    HW211082   5.181   3.496   2.011
 3395SOL     OW11083   5.196   3.069   3.164
 3395SOL    HW111084   5.287   3.082   3.126
 3395SOL    HW211085   5.197   3.086   3.262
 3396SOL     OW11086   4.435   1.813   3.560
 3396SOL    HW111087   4.524   1.851   3.585
 3396SOL    HW211088   4.441   1.714   3.558
 3397SOL     OW11089   2.841   0.366   5.616
 3397SOL    HW111090   2.778   0.442   5.600
 3397SOL    HW211091   2.934   0.402   5.625
 3398SOL     OW11092   0.753   6.591   4.892
 3398SOL    HW111093   0.657   6.606   4.914
 3398SOL    HW211094   0.799   6.678   4.879
 3399SOL     OW11095   5.686   4.222   3.912
 3399SOL    HW111096   5.753   4.153   3.887
 3399SOL    HW211097   5.617   4.182   3.973
 3400SOL     OW11098   4.503   3.190   5.825
 3400SOL    HW111099   4.464   3.241   5.902
 3400SOL    HW211100   4.449   3.207   5.743
 3401SOL     OW11101   6.913   2.994   1.042
 3401SOL    HW111102   7.009   2.996   1.017
 3401SOL    HW211103   6.903   3.016   1.139
 3402SOL     OW11104   4.084   5.758   6.880
 3402SOL    HW111105   4.116   5.842   6.836
 3402SOL    HW211106   4.016   5.780   6.950
 3403SOL     OW11107   3.671   5.538   4.976
 3403SOL    HW111108   3.767   5.510   4.980
 3403SOL    HW211109   3.646   5.558   4.882
 3404SOL     OW11110   5.010   1.097   7.021
 3404SOL    HW111111   4.920   1.124   6.987
 3404SOL    HW211112   5.011   1.104   0.095
 3405SOL     OW11113   6.696   3.941   4.552
 3405SOL    HW111114   6.790   3.942   4.586
 3405SOL    HW211115   6.634   3.956   4.629
 3406SOL     OW11116   0.960   4.310   1.569
 3406SOL    HW111117   1.018   4.379   1.526
 3406SOL    HW211118   0.945   4.334   1.665
 3407SOL     OW11119   1.540   4.932   6.221
 3407SOL    HW111120   1.611   4.874   6.261
 3407SOL    HW211121   1.450   4.898   6.249
 3408SOL     OW11122   4.831   3.833   5.216
 3408SOL    HW111123   4.835   3.913   5.156
 3408SOL    HW211124   4.843   3.750   5.163
 3409SOL     OW11125   3.322   6.613   6.754
 3409SOL    HW111126   3.350   6.552   6.828
 3409SOL    HW211127   3.334   6.565   6.666
 3410SOL     OW11128   6.520   6.540   1.019
 3410SOL    HW111129   6.595   6.518   1.082
 3410SOL    HW211130   6.551   6.610   0.954
 3411SOL     OW11131   0.620   2.806   1.984
 3411SOL    HW111132   0.692   2.857   1.936
 3411SOL    HW211133   0.539   2.864   1.993
 3412SOL     OW11134   4.498   2.684   0.479
 3412SOL    HW111135   4.402   2.685   0.451
 3412SOL    HW211136   4.523   2.593   0.509
 3413SOL     OW11137   5.956   1.300   0.792
 3413SOL    HW111138   5.995   1.366   0.856
 3413SOL    HW211139   5.898   1.235   0.841
 3414SOL     OW11140   3.400   1.016   5.651
 3414SOL    HW111141   3.446   1.020   5.739
 3414SOL    HW211142   3.466   1.035   5.578
 3415SOL     OW11143   1.902   3.824   4.684
 3415SOL    HW111144   1.877   3.795   4.592
 3415SOL    HW211145   1.997   3.856   4.684
 3416SOL     OW11146   0.048   5.846   0.930
 3416SOL    HW111147   0.098   5.788   0.865
 3416SOL    HW211148   7.019   5.913   0.881
 3417SOL     OW11149   0.625   6.371   2.888
 3417SOL    HW111150   0.659   6.435   2.956
 3417SOL    HW211151   0.665   6.392   2.799
 3418SOL     OW11152   3.716   0.029   3.768
 3418SOL    HW111153   3.780   0.062   3.699
 3418SOL    HW211154   3.660   6.981   3.730
 3419SOL     OW11155   2.672   5.921   4.911
 3419SOL    HW111156   2.769   5.945   4.909
 3419SOL    HW211157   2.624   5.982   4.973
 3420SOL     OW11158   5.608   3.233   4.438
 3420SOL    HW111159   5.566   3.278   4.517
 3420SOL    HW211160   5.580   3.280   4.354
 3421SOL     OW11161   5.314   1.072   5.083
 3421SOL    HW111162   5.388   1.108   5.027
 3421SOL    HW211163   5.338   0.980   5.116
 3422SOL     OW11164   2.008   0.451   0.720
 3422SOL    HW111165   2.066   0.507   0.778
 3422SOL    HW211166   2.064   0.387   0.667
 3423SOL     OW11167   0.399   4.571   6.525
 3423SOL    HW111168   0.382   4.485   6.573
 3423SOL    HW211169   0.338   4.641   6.561
 3424SOL     OW11170   2.836   6.555   1.449
 3424SOL    HW111171   2.780   6.606   1.514
 3424SOL    HW211172   2.810   6.579   1.356
 3425SOL     OW11173   5.756   4.649   2.847
 3425SOL    HW111174   5.686   4.628   2.916
 3425SOL    HW211175   5.844   4.662   2.892
 3426SOL     OW11176   3.961   2.733   0.620
 3426SOL    HW111177   3.930   2.650   0.573
 3426SOL    HW211178   3.882   2.781   0.658
 3427SOL     OW11179   6.591   0.569   0.305
 3427SOL    HW111180   6.561   0.604   0.216
 3427SOL    HW211181   6.672   0.512   0.293
 3428SOL     OW11182   2.088   5.345   7.004
 3428SOL    HW111183   2.010   5.328   6.944
 3428SOL    HW211184   2.109   5.261   0.029
 3429SOL     OW11185   0.669   1.885   0.483
 3429SOL    HW111186   0.606   1.808   0.489
 3429SOL    HW211187   0.619   1.970   0.500
 3430SOL     OW11188   1.368   6.873   5.370
 3430SOL    HW111189   1.353   6.971   5.359
 3430SOL    HW211190   1.384   6.831   5.281
 3431SOL     OW11191   1.197   0.008   1.139
 3431SOL    HW111192   1.269   6.999   1.079
 3431SOL    HW211193   1.151   6.957   1.183
 3432SOL     OW11194   1.876   2.693   6.900
 3432SOL    HW111195   1.968   2.731   6.907
 3432SOL    HW211196   1.811   2.753   6.947
 3433SOL     OW11197   1.218   0.517   5.653
 3433SOL    HW111198   1.291   0.459   5.617
 3433SOL    HW211199   1.144   0.523   5.586
 3434SOL     OW11200   4.149   1.208   1.102
 3434SOL    HW111201   4.129   1.164   1.014
 3434SOL    HW211202   4.207   1.288   1.086
 3435SOL     OW11203   0.255   1.385   0.750
 3435SOL    HW111204   0.296   1.374   0.841
 3435SOL    HW211205   0.249   1.295   0.706
 3436SOL     OW11206   3.897   6.179   6.327
 3436SOL    HW111207   3.887   6.177   6.426
 3436SOL    HW211208   3.806   6.191   6.285
 3437SOL     OW11209   2.370   0.565   5.813
 3437SOL    HW111210   2.414   0.480   5.784
 3437SOL    HW211211   2.410   0.642   5.762
 3438SOL     OW11212   1.221   2.746   0.083
 3438SOL    HW111213   1.164   2.695   0.019
 3438SOL    HW211214   1.201   2.844   0.074
 3439SOL     OW11215   2.098   6.264   4.977
 3439SOL    HW111216   2.024   6.222   5.029
 3439SOL    HW211217   2.167   6.195   4.955
 3440SOL     OW11218   3.238   3.690   1.138
 3440SOL    HW111219   3.202   3.612   1.189
 3440SOL    HW211220   3.273   3.659   1.050
 3441SOL     OW11221   5.090   6.575   4.907
 3441SOL    HW111222   5.068   6.660   4.858
 3441SOL    HW211223   5.067   6.585   5.003
 3442SOL     OW11224   2.413   4.766   1.833
 3442SOL    HW111225   2.463   4.852   1.832
 3442SOL    HW211226   2.321   4.781   1.869
 3443SOL     OW11227   5.066   6.208   1.479
 3443SOL    HW111228   4.987   6.148   1.467
 3443SOL    HW211229   5.140   6.179   1.419
 3444SOL     OW11230   4.626   5.270   0.192
 3444SOL    HW111231   4.535   5.280   0.152
 3444SOL    HW211232   4.650   5.354   0.241
 3445SOL     OW11233   6.496   5.405   3.349
 3445SOL    HW111234   6.573   5.342   3.337
 3445SOL    HW211235   6.531   5.498   3.358
 3446SOL     OW11236   5.920   1.259   2.638
 3446SOL    HW111237   5.925   1.301   2.547
 3446SOL    HW211238   5.882   1.167   2.629
 3447SOL     OW11239   6.110   5.271   0.774
 3447SOL    HW111240   6.030   5.225   0.736
 3447SOL    HW211241   6.168   5.305   0.700
 3448SOL     OW11242   3.447   0.677   0.512
 3448SOL    HW111243   3.489   0.635   0.432
 3448SOL    HW211244   3.433   0.608   0.583
 3449SOL     OW11245   5.901   6.582   4.046
 3449SOL    HW111246   5.942   6.568   3.957
 3449SOL    HW211247   5.824   6.645   4.038
 3450SOL     OW11248   6.959   2.530   6.568
 3450SOL    HW111249   6.870   2.484   6.567
 3450SOL    HW211250   6.949   2.621   6.527
 3451SOL     OW11251   2.036   5.587   1.119
 3451SOL    HW111252   1.982   5.513   1.159
 3451SOL    HW211253   2.129   5.555   1.102
 3452SOL     OW11254   6.224   0.570   6.038
 3452SOL    HW111255   6.263   0.534   5.954
 3452SOL    HW211256   6.146   0.630   6.017
 3453SOL     OW11257   6.824   5.811   6.446
 3453SOL    HW111258   6.843   5.741   6.378
 3453SOL    HW211259   6.856   5.900   6.412
 3454SOL     OW11260   0.959   2.107   5.649
 3454SOL    HW111261   1.020   2.043   5.603
 3454SOL    HW211262   1.013   2.181   5.690
 3455SOL     OW11263   2.755   2.294   4.810
 3455SOL    HW111264   2.725   2.208   4.771
 3455SOL    HW211265   2.760   2.364   4.739
 3456SOL     OW11266   5.670   5.668   2.562
 3456SOL    HW111267   5.768   5.679   2.545
 3456SOL    HW211268   5.643   5.574   2.544
 3457SOL     OW11269   2.658   4.861   3.305
 3457SOL    HW111270   2.757   4.868   3.293
 3457SOL    HW211271   2.623   4.947   3.342
 3458SOL     OW11272   4.917   0.523   2.041
 3458SOL    HW111273   4.934   0.518   1.943
 3458SOL    HW211274   4.819   0.511   2.059
 3459SOL     OW11275   5.183   3.403   3.339
 3459SOL    HW111276   5.179   3.305   3.359
 3459SOL    HW211277   5.214   3.417   3.246
 3460SOL     OW11278   2.282   3.399   6.938
 3460SOL    HW111279   2.274   3.445   6.850
 3460SOL    HW211280   2.379   3.384   6.958
 3461SOL     OW11281   4.646   5.531   4.941
 3461SOL    HW111282   4.552   5.522   4.908
 3461SOL    HW211283   4.709   5.534   4.864
 3462SOL     OW11284   0.246   3.894   2.826
 3462SOL    HW111285   0.279   3.909   2.919
 3462SOL    HW211286   0.200   3.977   2.794
 3463SOL     OW11287   0.821   3.542   2.422
 3463SOL    HW111288   0.807   3.640   2.437
 3463SOL    HW211289   0.918   3.520   2.433
 3464SOL     OW11290   6.072   3.967   6.414
 3464SOL    HW111291   6.121   3.996   6.331
 3464SOL    HW211292   6.048   4.048   6.468
 3465SOL     OW11293   1.452   2.256   2.344
 3465SOL    HW111294   1.546   2.248   2.309
 3465SOL    HW211295   1.416   2.346   2.322
 3466SOL     OW11296   0.498   4.817   0.537
 3466SOL    HW111297   0.583   4.765   0.543
 3466SOL    HW211298   0.506   4.900   0.592
 3467SOL     OW11299   1.765   2.777   0.403
 3467SOL    HW111300   1.832   2.771   0.477
 3467SOL    HW211301   1.680   2.734   0.432
 3468SOL     OW11302   5.026   6.845   3.056
 3468SOL    HW111303   5.086   6.768   3.039
 3468SOL    HW211304   4.944   6.837   3.000
 3469SOL     OW11305   5.204   0.451   2.656
 3469SOL    HW111306   5.213   0.518   2.729
 3469SOL    HW211307   5.282   0.390   2.656
 3470SOL     OW11308   6.051   3.329   1.609
 3470SOL    HW111309   6.044   3.337   1.709
 3470SOL    HW211310   6.147   3.316   1.584
 3471SOL     OW11311   4.058   5.188   4.304
 3471SOL    HW111312   4.048   5.150   4.212
 3471SOL    HW211313   4.155   5.193   4.328
 3472SOL     OW11314   2.739   0.826   2.690
 3472SOL    HW111315   2.669   0.880   2.642
 3472SOL    HW211316   2.695   0.774   2.764
 3473SOL     OW11317   6.961   2.118   1.530
 3473SOL    HW111318   7.003   2.176   1.600
 3473SOL    HW211319   0.007   2.068   1.481
 3474SOL     OW11320   1.184   4.374   1.427
 3474SOL    HW111321   1.243   4.405   1.353
 3474SOL    HW211322   1.180   4.274   1.428
 3475SOL     OW11323   1.265   4.692   4.500
 3475SOL    HW111324   1.232   4.597   4.501
 3475SOL    HW211325   1.220   4.743   4.573
 3476SOL     OW11326   3.008   1.413   3.366
 3476SOL    HW111327   3.058   1.443   3.448
 3476SOL    HW211328   3.045   1.459   3.286
 3477SOL     OW11329   2.169   5.172   0.786
 3477SOL    HW111330   2.204   5.079   0.797
 3477SOL    HW211331   2.183   5.202   0.692
 3478SOL     OW11332   2.979   5.489   5.269
 3478SOL    HW111333   2.927   5.554   5.214
 3478SOL    HW211334   2.948   5.396   5.248
 3479SOL     OW11335   1.463   0.470   3.327
 3479SOL    HW111336   1.389   0.404   3.339
 3479SOL    HW211337   1.444   0.552   3.380
 3480SOL     OW11338   0.788   6.859   5.121
 3480SOL    HW111339   0.848   6.838   5.043
 3480SOL    HW211340   0.844   6.889   5.198
 3481SOL     OW11341   4.703   0.336   0.356
 3481SOL    HW111342   4.714   0.409   0.424
 3481SOL    HW211343   4.714   0.247   0.400
 3482SOL     OW11344   5.224   1.257   1.734
 3482SOL    HW111345   5.131   1.294   1.727
 3482SOL    HW211346   5.272   1.304   1.808
 3483SOL     OW11347   4.800   2.033   1.086
 3483SOL    HW111348   4.827   2.128   1.101
 3483SOL    HW211349   4.712   2.016   1.130
 3484SOL     OW11350   1.170   3.318   6.796
 3484SOL    HW111351   1.231   3.397   6.788
 3484SOL    HW211352   1.097   3.339   6.862
 3485SOL     OW11353   1.799   1.465   4.551
 3485SOL    HW111354   1.701   1.480   4.533
 3485SOL    HW211355   1.815   1.472   4.649
 3486SOL     OW11356   3.019   0.922   2.899
 3486SOL    HW111357   2.962   0.851   2.940
 3486SOL    HW211358   3.044   0.896   2.806
 3487SOL     OW11359   5.342   2.775   5.378
 3487SOL    HW111360   5.399   2.855   5.395
 3487SOL    HW211361   5.327   2.725   5.464
 3488SOL     OW11362   6.048   1.829   4.334
 3488SOL    HW111363   6.085   1.852   4.244
 3488SOL    HW211364   5.974   1.763   4.324
 3489SOL     OW11365   3.858   6.928   1.197
 3489SOL    HW111366   3.949   6.961   1.221
 3489SOL    HW211367   3.836   6.956   1.103
 3490SOL     OW11368   4.291   4.165   0.438
 3490SOL    HW111369   4.305   4.130   0.345
 3490SOL    HW211370   4.333   4.102   0.504
 3491SOL     OW11371   4.621   2.529   4.705
 3491SOL    HW111372   4.605   2.604   4.641
 3491SOL    HW211373   4.658   2.566   4.790
 3492SOL     OW11374   0.340   5.304   1.311
 3492SOL    HW111375   0.352   5.328   1.407
 3492SOL    HW211376   0.426   5.266   1.275
 3493SOL     OW11377   5.675   4.621   6.653
 3493SOL    HW111378   5.752   4.561   6.633
 3493SOL    HW211379   5.607   4.613   6.580
 3494SOL     OW11380   4.039   0.486   1.069
 3494SOL    HW111381   3.964   0.444   1.017
 3494SOL    HW211382   4.066   0.424   1.143
 3495SOL     OW11383   5.197   5.137   2.572
 3495SOL    HW111384   5.189   5.228   2.530
 3495SOL    HW211385   5.185   5.145   2.671
 3496SOL     OW11386   6.574   4.227   0.365
 3496SOL    HW111387   6.618   4.310   0.329
 3496SOL    HW211388   6.539   4.245   0.457
 3497SOL     OW11389   3.607   0.880   3.941
 3497SOL    HW111390   3.627   0.963   3.992
 3497SOL    HW211391   3.511   0.880   3.913
 3498SOL     OW11392   2.693   2.315   0.527
 3498SOL    HW111393   2.633   2.361   0.592
 3498SOL    HW211394   2.763   2.379   0.495
 3499SOL     OW11395   4.907   3.284   4.357
 3499SOL    HW111396   4.966   3.231   4.418
 3499SOL    HW211397   4.814   3.249   4.362
 3500SOL     OW11398   1.689   3.361   4.510
 3500SOL    HW111399   1.668   3.451   4.472
 3500SOL    HW211400   1.788   3.346   4.504
 3501SOL     OW11401   2.046   5.834   4.742
 3501SOL    HW111402   1.963   5.881   4.713
 3501SOL    HW211403   2.083   5.781   4.666
 3502SOL     OW11404   6.409   2.726   2.631
 3502SOL    HW111405   6.491   2.773   2.664
 3502SOL    HW211406   6.391   2.754   2.537
 3503SOL     OW11407   6.675   6.316   4.484
 3503SOL    HW111408   6.599   6.381   4.479
 3503SOL    HW211409   6.690   6.275   4.394
 3504SOL     OW11410   1.811   1.744   1.486
 3504SOL    HW111411   1.731   1.799   1.464
 3504SOL    HW211412   1.871   1.795   1.547
 3505SOL     OW11413   5.428   4.774   5.145
 3505SOL    HW111414   5.336   4.812   5.155
 3505SOL    HW211415   5.422   4.676   5.122
 3506SOL     OW11416   5.019   5.287   5.795
 3506SOL    HW111417   5.022   5.387   5.807
 3506SOL    HW211418   4.926   5.255   5.815
 3507SOL     OW11419   1.703   1.142   0.003
 3507SOL    HW111420   1.679   1.094   6.945
 3507SOL    HW211421   1.640   1.220   0.016
 3508SOL     OW11422   3.346   2.380   6.227
 3508SOL    HW111423   3.410   2.448   6.190
 3508SOL    HW211424   3.255   2.395   6.186
 3509SOL     OW11425   6.098   0.413   5.592
 3509SOL    HW111426   6.090   0.513   5.594
 3509SOL    HW211427   6.193   0.387   5.613
 3510SOL     OW11428   1.698   2.829   1.656
 3510SOL    HW111429   1.613   2.790   1.690
 3510SOL    HW211430   1.748   2.870   1.732
 3511SOL     OW11431   2.962   5.210   0.514
 3511SOL    HW111432   2.940   5.272   0.589
 3511SOL    HW211433   3.058   5.185   0.519
 3512SOL     OW11434   0.565   4.982   0.729
 3512SOL    HW111435   0.646   4.937   0.765
 3512SOL    HW211436   0.574   5.081   0.741
 3513SOL     OW11437   6.241   3.044   0.628
 3513SOL    HW111438   6.258   3.049   0.530
 3513SOL    HW211439   6.253   2.950   0.659
 3514SOL     OW11440   1.253   1.516   1.852
 3514SOL    HW111441   1.237   1.460   1.934
 3514SOL    HW211442   1.266   1.611   1.879
 3515SOL     OW11443   4.916   5.975   3.404
 3515SOL    HW111444   4.955   6.062   3.436
 3515SOL    HW211445   4.988   5.907   3.398
 3516SOL     OW11446   4.826   0.043   0.971
 3516SOL    HW111447   4.862   0.099   1.045
 3516SOL    HW211448   4.892   6.996   0.949
 3517SOL     OW11449   1.161   2.040   0.928
 3517SOL    HW111450   1.196   2.104   0.996
 3517SOL    HW211451   1.081   1.993   0.964
 3518SOL     OW11452   5.454   3.563   4.524
 3518SOL    HW111453   5.473   3.546   4.427
 3518SOL    HW211454   5.415   3.655   4.534
 3519SOL     OW11455   1.116   0.912   5.811
 3519SOL    HW111456   1.188   0.892   5.744
 3519SOL    HW211457   1.123   1.008   5.838
 3520SOL     OW11458   3.264   4.897   6.082
 3520SOL    HW111459   3.287   4.971   6.020
 3520SOL    HW211460   3.171   4.864   6.063
 3521SOL     OW11461   5.193   3.146   6.707
 3521SOL    HW111462   5.203   3.233   6.658
 3521SOL    HW211463   5.097   3.122   6.715
 3522SOL     OW11464   6.822   4.599   2.010
 3522SOL    HW111465   6.755   4.526   2.022
 3522SOL    HW211466   6.902   4.563   1.962
 3523SOL     OW11467   2.955   5.176   6.356
 3523SOL    HW111468   2.891   5.240   6.314
 3523SOL    HW211469   3.048   5.200   6.331
 3524SOL     OW11470   3.698   1.191   1.182
 3524SOL    HW111471   3.776   1.253   1.187
 3524SOL    HW211472   3.615   1.243   1.166
 3525SOL     OW11473   0.887   3.805   2.477
 3525SOL    HW111474   0.841   3.890   2.502
 3525SOL    HW211475   0.941   3.820   2.394
 3526SOL     OW11476   2.286   6.235   4.002
 3526SOL    HW111477   2.278   6.213   4.100
 3526SOL    HW211478   2.293   6.151   3.949
 3527SOL     OW11479   6.106   2.963   5.988
 3527SOL    HW111480   6.098   3.061   5.970
 3527SOL    HW211481   6.112   2.914   5.901
 3528SOL     OW11482   0.462   4.796   3.850
 3528SOL    HW111483   0.403   4.719   3.826
 3528SOL    HW211484   0.534   4.805   3.782
 3529SOL     OW11485   4.424   0.281   0.315
 3529SOL    HW111486   4.516   0.318   0.323
 3529SOL    HW211487   4.402   0.265   0.219
 3530SOL     OW11488   1.858   5.081   3.251
 3530SOL    HW111489   1.834   5.154   3.315
 3530SOL    HW211490   1.782   5.016   3.246
 3531SOL     OW11491   4.715   3.522   0.743
 3531SOL    HW111492   4.730   3.434   0.699
 3531SOL    HW211493   4.617   3.541   0.747
 3532SOL     OW11494   2.885   0.665   1.257
 3532SOL    HW111495   2.878   0.747   1.315
 3532SOL    HW211496   2.936   0.688   1.174
 3533SOL     OW11497   1.635   1.558   2.473
 3533SOL    HW111498   1.674   1.632   2.419
 3533SOL    HW211499   1.644   1.472   2.424
 3534SOL     OW11500   5.860   1.268   5.410
 3534SOL    HW111501   5.902   1.249   5.499
 3534SOL    HW211502   5.924   1.245   5.337
 3535SOL     OW11503   0.996   5.324   0.370
 3535SOL    HW111504   0.942   5.317   0.286
 3535SOL    HW211505   1.057   5.245   0.378
 3536SOL     OW11506   2.298   2.215   3.794
 3536SOL    HW111507   2.263   2.183   3.882
 3536SOL    HW211508   2.298   2.140   3.728
 3537SOL     OW11509   2.774   5.256   0.949
 3537SOL    HW111510   2.709   5.251   0.873
 3537SOL    HW211511   2.820   5.168   0.958
 3538SOL     OW11512   1.261   0.526   6.006
 3538SOL    HW111513   1.178   0.560   6.050
 3538SOL    HW211514   1.238   0.447   5.949
 3539SOL     OW11515   5.999   3.835   6.049
 3539SOL    HW111516   6.093   3.842   6.082
 3539SOL    HW211517   5.993   3.873   5.957
 3540SOL     OW11518   1.776   2.755   6.228
 3540SOL    HW111519   1.803   2.701   6.148
 3540SOL    HW211520   1.857   2.798   6.268
 3541SOL     OW11521   1.720   2.982   6.800
 3541SOL    HW111522   1.681   2.902   6.756
 3541SOL    HW211523   1.811   2.999   6.762
 3542SOL     OW11524   1.249   4.490   1.699
 3542SOL    HW111525   1.300   4.575   1.714
 3542SOL    HW211526   1.183   4.504   1.625
 3543SOL     OW11527   0.907   3.462   5.502
 3543SOL    HW111528   0.895   3.468   5.403
 3543SOL    HW211529   0.859   3.537   5.547
 3544SOL     OW11530   2.722   4.714   6.598
 3544SOL    HW111531   2.643   4.728   6.658
 3544SOL    HW211532   2.798   4.772   6.628
 3545SOL     OW11533   4.095   5.080   6.994
 3545SOL    HW111534   4.038   4.998   6.998
 3545SOL    HW211535   4.191   5.054   6.982
 3546SOL     OW11536   0.574   4.736   3.067
 3546SOL    HW111537   0.617   4.765   2.982
 3546SOL    HW211538   0.537   4.643   3.057
 3547SOL     OW11539   6.488   5.199   4.966
 3547SOL    HW111540   6.516   5.288   5.002
 3547SOL    HW211541   6.567   5.138   4.962
 3548SOL     OW11542   5.361   0.418   5.827
 3548SOL    HW111543   5.397   0.325   5.837
 3548SOL    HW211544   5.427   0.483   5.865
 3549SOL     OW11545   0.069   5.152   5.887
 3549SOL    HW111546   0.124   5.236   5.886
 3549SOL    HW211547   6.998   5.175   5.889
 3550SOL     OW11548   5.748   2.845   3.392
 3550SOL    HW111549   5.686   2.769   3.411
 3550SOL    HW211550   5.759   2.900   3.474
 3551SOL     OW11551   3.364   2.167   3.171
 3551SOL    HW111552   3.404   2.247   3.215
 3551SOL    HW211553   3.273   2.189   3.135
 3552SOL     OW11554   6.299   6.560   1.650
 3552SOL    HW111555   6.231   6.633   1.659
 3552SOL    HW211556   6.288   6.494   1.725
 3553SOL     OW11557   4.150   5.294   0.762
 3553SOL    HW111558   4.106   5.204   0.771
 3553SOL    HW211559   4.206   5.295   0.680
 3554SOL     OW11560   4.321   1.441   1.005
 3554SOL    HW111561   4.320   1.539   1.021
 3554SOL    HW211562   4.406   1.415   0.958
 3555SOL     OW11563   0.424   4.182   4.239
 3555SOL    HW111564   0.464   4.193   4.148
 3555SOL    HW211565   0.493   4.145   4.302
 3556SOL     OW11566   4.180   1.240   4.513
 3556SOL    HW111567   4.194   1.188   4.597
 3556SOL    HW211568   4.246   1.316   4.509
 3557SOL     OW11569   0.773   1.005   4.403
 3557SOL    HW111570   0.682   0.999   4.361
 3557SOL    HW211571   0.817   0.915   4.401
 3558SOL     OW11572   1.735   6.110   2.309
 3558SOL    HW111573   1.752   6.013   2.290
 3558SOL    HW211574   1.783   6.165   2.242
 3559SOL     OW11575   0.641   6.642   5.334
 3559SOL    HW111576   0.641   6.605   5.242
 3559SOL    HW211577   0.627   6.568   5.400
 3560SOL     OW11578   1.718   5.425   2.567
 3560SOL    HW111579   1.771   5.502   2.531
 3560SOL    HW211580   1.719   5.349   2.502
 3561SOL     OW11581   4.581   4.529   5.154
 3561SOL    HW111582   4.491   4.560   5.124
 3561SOL    HW211583   4.652   4.586   5.113
 3562SOL     OW11584   3.564   1.320   2.839
 3562SOL    HW111585   3.566   1.410   2.796
 3562SOL    HW211586   3.480   1.311   2.894
 3563SOL     OW11587   6.116   2.016   0.677
 3563SOL    HW111588   6.076   2.057   0.758
 3563SOL    HW211589   6.216   2.023   0.681
 3564SOL     OW11590   1.170   4.518   2.796
 3564SOL    HW111591   1.264   4.541   2.819
 3564SOL    HW211592   1.108   4.567   2.857
 3565SOL     OW11593   3.196   6.457   4.992
 3565SOL    HW111594   3.236   6.498   5.074
 3565SOL    HW211595   3.221   6.510   4.912
 3566SOL     OW11596   6.585   3.599   6.205
 3566SOL    HW111597   6.510   3.573   6.266
 3566SOL    HW211598   6.643   3.519   6.188
 3567SOL     OW11599   0.124   2.060   5.909
 3567SOL    HW111600   0.057   2.094   5.974
 3567SOL    HW211601   0.194   2.007   5.958
 3568SOL     OW11602   4.689   4.396   3.462
 3568SOL    HW111603   4.607   4.401   3.405
 3568SOL    HW211604   4.708   4.486   3.501
 3569SOL     OW11605   2.768   1.493   6.239
 3569SOL    HW111606   2.788   1.583   6.201
 3569SOL    HW211607   2.791   1.422   6.172
 3570SOL     OW11608   5.730   0.938   5.586
 3570SOL    HW111609   5.670   0.869   5.626
 3570SOL    HW211610   5.697   0.963   5.495
 3571SOL     OW11611   0.844   5.105   4.574
 3571SOL    HW111612   0.885   5.067   4.657
 3571SOL    HW211613   0.755   5.145   4.596
 3572SOL     OW11614   5.941   3.500   2.988
 3572SOL    HW111615   5.952   3.404   2.963
 3572SOL    HW211616   5.870   3.542   2.932
 3573SOL     OW11617   0.706   5.748   3.291
 3573SOL    HW111618   0.655   5.828   3.325
 3573SOL    HW211619   0.697   5.673   3.356
 3574SOL     OW11620   0.582   3.492   0.341
 3574SOL    HW111621   0.659   3.434   0.365
 3574SOL    HW211622   0.500   3.436   0.330
 3575SOL     OW11623   5.310   5.139   2.185
 3575SOL    HW111624   5.399   5.184   2.186
 3575SOL    HW211625   5.273   5.142   2.092
 3576SOL     OW11626   0.007   1.858   6.307
 3576SOL    HW111627   6.938   1.826   6.311
 3576SOL    HW211628   0.066   1.794   6.356
 3577SOL     OW11629   1.640   1.791   6.107
 3577SOL    HW111630   1.566   1.853   6.081
 3577SOL    HW211631   1.614   1.742   6.190
 3578SOL     OW11632   3.728   2.204   0.561
 3578SOL    HW111633   3.730   2.153   0.647
 3578SOL    HW211634   3.816   2.196   0.514
 3579SOL     OW11635   6.183   2.435   3.833
 3579SOL    HW111636   6.183   2.359   3.768
 3579SOL    HW211637   6.186   2.521   3.782
 3580SOL     OW11638   5.669   3.130   1.744
 3580SOL    HW111639   5.724   3.108   1.824
 3580SOL    HW211640   5.719   3.105   1.661
 3581SOL     OW11641   1.565   5.662   3.564
 3581SOL    HW111642   1.508   5.650   3.645
 3581SOL    HW211643   1.574   5.574   3.516
 3582SOL     OW11644   0.383   3.697   6.167
 3582SOL    HW111645   0.319   3.717   6.241
 3582SOL    HW211646   0.333   3.656   6.090
 3583SOL     OW11647   0.739   4.120   6.205
 3583SOL    HW111648   0.659   4.180   6.207
 3583SOL    HW211649   0.709   4.025   6.221
 3584SOL     OW11650   5.564   5.593   6.790
 3584SOL    HW111651   5.497   5.667   6.793
 3584SOL    HW211652   5.645   5.622   6.739
 3585SOL     OW11653   3.325   0.546   4.484
 3585SOL    HW111654   3.363   0.465   4.530
 3585SOL    HW211655   3.240   0.521   4.438
 3586SOL     OW11656   6.692   2.224   4.996
 3586SOL    HW111657   6.636   2.177   5.065
 3586SOL    HW211658   6.778   2.254   5.037
 3587SOL     OW11659   2.342   4.500   6.050
 3587SOL    HW111660   2.422   4.485   5.992
 3587SOL    HW211661   2.371   4.500   6.146
 3588SOL     OW11662   0.942   2.681   5.977
 3588SOL    HW111663   1.023   2.632   6.009
 3588SOL    HW211664   0.959   2.715   5.884
 3589SOL     OW11665   4.505   1.563   4.722
 3589SOL    HW111666   4.558   1.641   4.690
 3589SOL    HW211667   4.524   1.548   4.819
 3590SOL     OW11668   0.628   2.546   0.355
 3590SOL    HW111669   0.583   2.495   0.429
 3590SOL    HW211670   0.721   2.510   0.343
 3591SOL     OW11671   5.211   3.966   6.855
 3591SOL    HW111672   5.161   3.912   6.788
 3591SOL    HW211673   5.308   3.943   6.853
 3592SOL     OW11674   0.578   5.026   2.187
 3592SOL    HW111675   0.670   5.012   2.151
 3592SOL    HW211676   0.560   5.124   2.195
 3593SOL     OW11677   0.479   5.619   4.967
 3593SOL    HW111678   0.532   5.640   4.885
 3593SOL    HW211679   0.517   5.668   5.045
 3594SOL     OW11680   4.517   6.421   3.357
 3594SOL    HW111681   4.534   6.413   3.455
 3594SOL    HW211682   4.494   6.516   3.335
 3595SOL     OW11683   3.739   5.878   6.772
 3595SOL    HW111684   3.756   5.966   6.816
 3595SOL    HW211685   3.818   5.852   6.717
 3596SOL     OW11686   6.137   3.119   3.144
 3596SOL    HW111687   6.038   3.126   3.132
 3596SOL    HW211688   6.163   3.164   3.230
 3597SOL     OW11689   1.834   2.584   5.571
 3597SOL    HW111690   1.805   2.677   5.549
 3597SOL    HW211691   1.759   2.521   5.552
 3598SOL     OW11692   1.481   5.440   6.374
 3598SOL    HW111693   1.468   5.384   6.291
 3598SOL    HW211694   1.579   5.449   6.393
 3599SOL     OW11695   6.740   2.231   6.442
 3599SOL    HW111696   6.827   2.185   6.455
 3599SOL    HW211697   6.706   2.213   6.349
 3600SOL     OW11698   0.723   3.053   1.514
 3600SOL    HW111699   0.690   2.993   1.587
 3600SOL    HW211700   0.646   3.076   1.453
 3601SOL     OW11701   5.457   3.858   6.861
 3601SOL    HW111702   5.553   3.878   6.881
 3601SOL    HW211703   5.444   3.759   6.854
 3602SOL     OW11704   1.737   2.457   0.531
 3602SOL    HW111705   1.785   2.522   0.591
 3602SOL    HW211706   1.697   2.384   0.586
 3603SOL     OW11707   3.680   1.148   3.960
 3603SOL    HW111708   3.614   1.223   3.967
 3603SOL    HW211709   3.744   1.166   3.886
 3604SOL     OW11710   6.475   5.365   2.939
 3604SOL    HW111711   6.490   5.371   2.840
 3604SOL    HW211712   6.563   5.370   2.986
 3605SOL     OW11713   6.611   3.626   4.884
 3605SOL    HW111714   6.545   3.669   4.822
 3605SOL    HW211715   6.647   3.543   4.842
 3606SOL     OW11716   0.004   0.489   4.579
 3606SOL    HW111717   7.014   0.587   4.580
 3606SOL    HW211718   0.020   0.458   4.485
 3607SOL     OW11719   6.287   4.993   2.140
 3607SOL    HW111720   6.372   5.038   2.166
 3607SOL    HW211721   6.211   5.059   2.146
 3608SOL     OW11722   5.193   2.563   4.036
 3608SOL    HW111723   5.187   2.630   3.962
 3608SOL    HW211724   5.274   2.507   4.025
 3609SOL     OW11725   1.321   6.944   4.232
 3609SOL    HW111726   1.237   6.889   4.242
 3609SOL    HW211727   1.400   6.883   4.231
 3610SOL     OW11728   2.171   0.081   6.359
 3610SOL    HW111729   2.096   0.110   6.419
 3610SOL    HW211730   2.219   0.161   6.324
 3611SOL     OW11731   4.453   4.939   4.677
 3611SOL    HW111732   4.550   4.934   4.700
 3611SOL    HW211733   4.402   4.872   4.731
 3612SOL     OW11734   6.625   7.018   0.432
 3612SOL    HW111735   6.723   6.997   0.439
 3612SOL    HW211736   6.573   6.958   0.492
 3613SOL     OW11737   4.411   4.578   2.013
 3613SOL    HW111738   4.316   4.605   2.030
 3613SOL    HW211739   4.414   4.481   1.987
 3614SOL     OW11740   3.784   3.564   1.504
 3614SOL    HW111741   3.864   3.619   1.478
 3614SOL    HW211742   3.702   3.619   1.493
 3615SOL     OW11743   5.402   4.907   6.545
 3615SOL    HW111744   5.372   4.992   6.501
 3615SOL    HW211745   5.470   4.861   6.488
 3616SOL     OW11746   0.472   1.816   6.885
 3616SOL    HW111747   0.377   1.823   6.855
 3616SOL    HW211748   0.530   1.795   6.807
 3617SOL     OW11749   3.971   1.228   6.581
 3617SOL    HW111750   4.055   1.234   6.635
 3617SOL    HW211751   3.913   1.155   6.618
 3618SOL     OW11752   2.195   2.812   5.598
 3618SOL    HW111753   2.290   2.786   5.583
 3618SOL    HW211754   2.157   2.852   5.515
 3619SOL     OW11755   5.544   2.559   4.604
 3619SOL    HW111756   5.495   2.510   4.676
 3619SOL    HW211757   5.482   2.624   4.560
 3620SOL     OW11758   5.924   6.717   5.869
 3620SOL    HW111759   5.848   6.779   5.890
 3620SOL    HW211760   6.008   6.751   5.912
 3621SOL     OW11761   3.172   2.736   5.513
 3621SOL    HW111762   3.111   2.768   5.440
 3621SOL    HW211763   3.131   2.757   5.602
 3622SOL     OW11764   0.938   1.323   5.466
 3622SOL    HW111765   0.927   1.277   5.555
 3622SOL    HW211766   0.865   1.390   5.454
 3623SOL     OW11767   6.923   6.176   4.328
 3623SOL    HW111768   6.892   6.264   4.291
 3623SOL    HW211769   6.982   6.192   4.407
 3624SOL     OW11770   1.456   6.679   2.420
 3624SOL    HW111771   1.368   6.710   2.383
 3624SOL    HW211772   1.530   6.710   2.361
 3625SOL     OW11773   6.981   2.835   6.558
 3625SOL    HW111774   6.961   2.930   6.536
 3625SOL    HW211775   6.956   2.816   6.653
 3626SOL     OW11776   1.484   1.920   5.885
 3626SOL    HW111777   1.420   1.990   5.917
 3626SOL    HW211778   1.559   1.964   5.835
 3627SOL     OW11779   3.161   3.574   2.433
 3627SOL    HW111780   3.185   3.592   2.338
 3627SOL    HW211781   3.145   3.476   2.446
 3628SOL     OW11782   1.884   1.037   2.237
 3628SOL    HW111783   1.787   1.043   2.213
 3628SOL    HW211784   1.915   0.942   2.228
 3629SOL     OW11785   6.684   0.830   5.501
 3629SOL    HW111786   6.616   0.901   5.483
 3629SOL    HW211787   6.718   0.839   5.594
 3630SOL     OW11788   5.024   2.166   4.057
 3630SOL    HW111789   5.019   2.262   4.029
 3630SOL    HW211790   5.072   2.114   3.986
 3631SOL     OW11791   2.576   1.584   3.415
 3631SOL    HW111792   2.623   1.498   3.435
 3631SOL    HW211793   2.537   1.581   3.323
 3632SOL     OW11794   5.219   4.792   1.658
 3632SOL    HW111795   5.190   4.886   1.642
 3632SOL    HW211796   5.289   4.790   1.730
 3633SOL     OW11797   4.496   1.968   5.611
 3633SOL    HW111798   4.400   1.987   5.588
 3633SOL    HW211799   4.503   1.952   5.710
 3634SOL     OW11800   1.736   5.211   5.089
 3634SOL    HW111801   1.799   5.272   5.041
 3634SOL    HW211802   1.754   5.216   5.188
 3635SOL     OW11803   3.249   6.969   0.597
 3635SOL    HW111804   3.220   0.027   0.643
 3635SOL    HW211805   3.332   6.987   0.544
 3636SOL     OW11806   0.182   5.723   0.682
 3636SOL    HW111807   0.156   5.756   0.591
 3636SOL    HW211808   0.244   5.789   0.725
 3637SOL     OW11809   0.029   2.125   2.163
 3637SOL    HW111810   6.981   2.137   2.230
 3637SOL    HW211811   0.108   2.180   2.191
 3638SOL     OW11812   0.863   4.722   3.172
 3638SOL    HW111813   0.769   4.695   3.148
 3638SOL    HW211814   0.888   4.679   3.259
 3639SOL     OW11815   3.883   5.456   0.792
 3639SOL    HW111816   3.837   5.390   0.733
 3639SOL    HW211817   3.864   5.432   0.888
 3640SOL     OW11818   4.146   0.628   0.382
 3640SOL    HW111819   4.185   0.571   0.309
 3640SOL    HW211820   4.072   0.684   0.345
 3641SOL     OW11821   5.707   3.465   2.227
 3641SOL    HW111822   5.700   3.464   2.327
 3641SOL    HW211823   5.778   3.401   2.198
 3642SOL     OW11824   5.107   2.030   0.466
 3642SOL    HW111825   5.153   2.113   0.434
 3642SOL    HW211826   5.053   1.991   0.392
 3643SOL     OW11827   3.308   5.530   4.132
 3643SOL    HW111828   3.408   5.518   4.134
 3643SOL    HW211829   3.264   5.451   4.174
 3644SOL     OW11830   0.293   0.941   1.941
 3644SOL    HW111831   0.308   1.019   1.880
 3644SOL    HW211832   0.375   0.925   1.995
 3645SOL     OW11833   1.161   2.768   4.147
 3645SOL    HW111834   1.257   2.755   4.170
 3645SOL    HW211835   1.109   2.784   4.231
 3646SOL     OW11836   1.521   4.150   6.454
 3646SOL    HW111837   1.585   4.089   6.500
 3646SOL    HW211838   1.520   4.239   6.500
 3647SOL     OW11839   2.506   6.257   6.563
 3647SOL    HW111840   2.483   6.196   6.639
 3647SOL    HW211841   2.457   6.227   6.481
 3648SOL     OW11842   4.455   5.074   1.681
 3648SOL    HW111843   4.475   5.165   1.718
 3648SOL    HW211844   4.360   5.051   1.701
 3649SOL     OW11845   6.086   2.813   1.207
 3649SOL    HW111846   6.101   2.799   1.110
 3649SOL    HW211847   6.038   2.899   1.222
 3650SOL     OW11848   6.566   6.110   1.849
 3650SOL    HW111849   6.599   6.186   1.794
 3650SOL    HW211850   6.555   6.029   1.792
 3651SOL     OW11851   0.224   0.162   4.432
 3651SOL    HW111852   0.134   0.152   4.474
 3651SOL    HW211853   0.288   0.097   4.473
 3652SOL     OW11854   6.354   0.240   3.390
 3652SOL    HW111855   6.436   0.217   3.443
 3652SOL    HW211856   6.318   0.328   3.421
 3653SOL     OW11857   0.907   1.713   3.730
 3653SOL    HW111858   0.979   1.774   3.763
 3653SOL    HW211859   0.937   1.618   3.741
 3654SOL     OW11860   3.607   4.388   0.673
 3654SOL    HW111861   3.574   4.359   0.583
 3654SOL    HW211862   3.705   4.407   0.667
 3655SOL     OW11863   3.227   6.739   3.945
 3655SOL    HW111864   3.142   6.718   3.994
 3655SOL    HW211865   3.252   6.835   3.962
 3656SOL     OW11866   0.474   4.557   1.431
 3656SOL    HW111867   0.391   4.583   1.381
 3656SOL    HW211868   0.502   4.466   1.403
 3657SOL     OW11869   5.361   6.045   5.587
 3657SOL    HW111870   5.442   6.053   5.645
 3657SOL    HW211871   5.388   6.051   5.491
 3658SOL     OW11872   2.051   4.721   6.514
 3658SOL    HW111873   1.983   4.663   6.558
 3658SOL    HW211874   2.053   4.702   6.416
 3659SOL     OW11875   2.005   3.128   5.507
 3659SOL    HW111876   1.998   3.146   5.605
 3659SOL    HW211877   1.914   3.105   5.471
 3660SOL     OW11878   5.726   5.571   3.933
 3660SOL    HW111879   5.723   5.633   4.011
 3660SOL    HW211880   5.812   5.582   3.884
 3661SOL     OW11881   6.402   0.571   5.580
 3661SOL    HW111882   6.481   0.631   5.589
 3661SOL    HW211883   6.387   0.550   5.483
 3662SOL     OW11884   4.027   0.893   4.184
 3662SOL    HW111885   3.962   0.966   4.203
 3662SOL    HW211886   3.982   0.804   4.198
 3663SOL     OW11887   2.124   2.153   0.500
 3663SOL    HW111888   2.076   2.144   0.587
 3663SOL    HW211889   2.115   2.068   0.448
 3664SOL     OW11890   4.525   2.362   1.290
 3664SOL    HW111891   4.584   2.388   1.214
 3664SOL    HW211892   4.512   2.263   1.290
 3665SOL     OW11893   0.872   6.468   5.097
 3665SOL    HW111894   0.827   6.496   5.012
 3665SOL    HW211895   0.968   6.447   5.078
 3666SOL     OW11896   0.724   3.412   3.068
 3666SOL    HW111897   0.704   3.496   3.017
 3666SOL    HW211898   0.772   3.348   3.008
 3667SOL     OW11899   0.497   1.639   3.736
 3667SOL    HW111900   0.435   1.564   3.757
 3667SOL    HW211901   0.566   1.646   3.808
 3668SOL     OW11902   1.563   1.378   0.913
 3668SOL    HW111903   1.622   1.367   0.834
 3668SOL    HW211904   1.581   1.466   0.957
 3669SOL     OW11905   5.483   1.628   3.976
 3669SOL    HW111906   5.556   1.693   3.953
 3669SOL    HW211907   5.401   1.678   4.004
 3670SOL     OW11908   1.734   5.758   6.588
 3670SOL    HW111909   1.724   5.712   6.676
 3670SOL    HW211910   1.731   5.857   6.603
 3671SOL     OW11911   0.246   1.807   4.037
 3671SOL    HW111912   0.216   1.819   4.132
 3671SOL    HW211913   0.338   1.845   4.026
 3672SOL     OW11914   4.592   2.031   1.964
 3672SOL    HW111915   4.638   1.968   1.903
 3672SOL    HW211916   4.498   2.046   1.934
 3673SOL     OW11917   4.014   6.347   0.074
 3673SOL    HW111918   4.095   6.407   0.078
 3673SOL    HW211919   4.044   6.252   0.073
 3674SOL     OW11920   1.525   5.889   5.341
 3674SOL    HW111921   1.439   5.929   5.372
 3674SOL    HW211922   1.601   5.932   5.389
 3675SOL     OW11923   2.281   2.904   3.911
 3675SOL    HW111924   2.319   2.875   3.823
 3675SOL    HW211925   2.275   2.825   3.972
 3676SOL     OW11926   6.209   4.248   2.782
 3676SOL    HW111927   6.237   4.243   2.878
 3676SOL    HW211928   6.243   4.168   2.733
 3677SOL     OW11929   2.931   6.357   4.358
 3677SOL    HW111930   2.971   6.317   4.440
 3677SOL    HW211931   2.867   6.430   4.383
 3678SOL     OW11932   0.562   1.228   4.307
 3678SOL    HW111933   0.555   1.252   4.210
 3678SOL    HW211934   0.536   1.133   4.320
 3679SOL     OW11935   6.923   0.379   3.587
 3679SOL    HW111936   6.840   0.332   3.557
 3679SOL    HW211937   6.902   0.476   3.604
 3680SOL     OW11938   5.037   3.007   4.037
 3680SOL    HW111939   5.095   3.014   4.119
 3680SOL    HW211940   4.949   2.966   4.062
 3681SOL     OW11941   0.037   0.867   6.024
 3681SOL    HW111942   0.063   0.857   5.928
 3681SOL    HW211943   0.109   0.829   6.082
 3682SOL     OW11944   5.152   2.669   0.088
 3682SOL    HW111945   5.120   2.624   0.172
 3682SOL    HW211946   5.094   2.749   0.069
 3683SOL     OW11947   6.676   1.751   4.192
 3683SOL    HW111948   6.703   1.663   4.230
 3683SOL    HW211949   6.744   1.780   4.125
 3684SOL     OW11950   1.208   4.978   0.120
 3684SOL    HW111951   1.179   4.884   0.142
 3684SOL    HW211952   1.132   5.028   0.080
 3685SOL     OW11953   1.733   6.213   6.563
 3685SOL    HW111954   1.812   6.238   6.508
 3685SOL    HW211955   1.717   6.284   6.632
 3686SOL     OW11956   6.102   5.509   4.677
 3686SOL    HW111957   6.138   5.482   4.766
 3686SOL    HW211958   6.014   5.556   4.690
 3687SOL     OW11959   3.822   6.578   3.747
 3687SOL    HW111960   3.912   6.566   3.790
 3687SOL    HW211961   3.763   6.631   3.808
 3688SOL     OW11962   0.656   3.147   6.647
 3688SOL    HW111963   0.566   3.166   6.685
 3688SOL    HW211964   0.700   3.233   6.620
 3689SOL     OW11965   2.383   0.235   5.990
 3689SOL    HW111966   2.291   0.266   5.970
 3689SOL    HW211967   2.386   0.135   5.992
 3690SOL     OW11968   4.468   5.831   0.159
 3690SOL    HW111969   4.480   5.849   0.061
 3690SOL    HW211970   4.381   5.785   0.174
 3691SOL     OW11971   2.577   1.665   6.526
 3691SOL    HW111972   2.574   1.711   6.437
 3691SOL    HW211973   2.487   1.626   6.545
 3692SOL     OW11974   6.462   5.155   5.799
 3692SOL    HW111975   6.552   5.133   5.835
 3692SOL    HW211976   6.472   5.209   5.715
 3693SOL     OW11977   1.896   3.881   3.238
 3693SOL    HW111978   1.881   3.978   3.255
 3693SOL    HW211979   1.975   3.849   3.291
 3694SOL     OW11980   0.707   6.482   1.770
 3694SOL    HW111981   0.637   6.416   1.744
 3694SOL    HW211982   0.663   6.565   1.807
 3695SOL     OW11983   5.427   2.944   1.979
 3695SOL    HW111984   5.406   2.860   1.928
 3695SOL    HW211985   5.357   3.012   1.960
 3696SOL     OW11986   4.243   6.980   3.859
 3696SOL    HW111987   4.331   6.932   3.864
 3696SOL    HW211988   4.252   0.044   3.901
 3697SOL     OW11989   0.392   6.552   2.610
 3697SOL    HW111990   0.392   6.565   2.511
 3697SOL    HW211991   0.344   6.468   2.633
 3698SOL     OW11992   2.965   1.108   4.386
 3698SOL    HW111993   3.033   1.158   4.439
 3698SOL    HW211994   2.902   1.173   4.344
 3699SOL     OW11995   1.323   2.029   4.616
 3699SOL    HW111996   1.323   2.077   4.528
 3699SOL    HW211997   1.383   1.950   4.611
 3700SOL     OW11998   1.303   5.578   4.868
 3700SOL    HW111999   1.387   5.524   4.860
 3700SOL    HW212000   1.251   5.572   4.783
 3701SOL     OW12001   1.413   0.990   4.144
 3701SOL    HW112002   1.490   0.944   4.101
 3701SOL    HW212003   1.360   0.925   4.198
 3702SOL     OW12004   5.550   6.764   3.075
 3702SOL    HW112005   5.608   6.841   3.047
 3702SOL    HW212006   5.497   6.732   2.996
 3703SOL     OW12007   6.339   0.321   6.350
 3703SOL    HW112008   6.337   0.421   6.350
 3703SOL    HW212009   6.342   0.287   6.256
 3704SOL     OW12010   3.386   1.939   1.081
 3704SOL    HW112011   3.289   1.952   1.058
 3704SOL    HW212012   3.440   2.009   1.035
 3705SOL     OW12013   5.282   4.014   4.769
 3705SOL    HW112014   5.239   4.086   4.823
 3705SOL    HW212015   5.279   3.928   4.820
 3706SOL     OW12016   1.327   4.077   0.073
 3706SOL    HW112017   1.322   4.067   0.173
 3706SOL    HW212018   1.283   3.998   0.030
 3707SOL     OW12019   5.278   4.818   4.373
 3707SOL    HW112020   5.252   4.741   4.431
 3707SOL    HW212021   5.369   4.801   4.334
 3708SOL     OW12022   6.233   1.168   0.234
 3708SOL    HW112023   6.225   1.069   0.248
 3708SOL    HW212024   6.238   1.213   0.323
 3709SOL     OW12025   3.384   0.830   1.013
 3709SOL    HW112026   3.443   0.874   0.945
 3709SOL    HW212027   3.315   0.895   1.043
 3710SOL     OW12028   6.539   5.463   5.144
 3710SOL    HW112029   6.510   5.524   5.070
 3710SOL    HW212030   6.627   5.422   5.120
 3711SOL     OW12031   0.994   6.017   4.739
 3711SOL    HW112032   0.988   6.055   4.831
 3711SOL    HW212033   1.069   5.951   4.735
 3712SOL     OW12034   1.073   5.428   6.216
 3712SOL    HW112035   1.005   5.406   6.285
 3712SOL    HW212036   1.152   5.472   6.260
 3713SOL     OW12037   0.485   6.844   5.211
 3713SOL    HW112038   0.549   6.770   5.231
 3713SOL    HW212039   0.536   6.930   5.202
 3714SOL     OW12040   5.492   5.829   6.146
 3714SOL    HW112041   5.431   5.814   6.068
 3714SOL    HW212042   5.577   5.872   6.115
 3715SOL     OW12043   0.638   3.868   2.785
 3715SOL    HW112044   0.582   3.865   2.702
 3715SOL    HW212045   0.659   3.963   2.807
 3716SOL     OW12046   6.004   6.793   3.513
 3716SOL    HW112047   5.934   6.779   3.583
 3716SOL    HW212048   6.094   6.781   3.553
 3717SOL     OW12049   6.237   6.596   6.463
 3717SOL    HW112050   6.236   6.535   6.543
 3717SOL    HW212051   6.242   6.691   6.494
 3718SOL     OW12052   0.627   1.054   0.052
 3718SOL    HW112053   0.713   1.030   0.099
 3718SOL    HW212054   0.572   0.971   0.041
 3719SOL     OW12055   5.352   4.019   1.311
 3719SOL    HW112056   5.407   3.997   1.230
 3719SOL    HW212057   5.402   3.991   1.393
 3720SOL     OW12058   5.708   3.229   0.145
 3720SOL    HW112059   5.754   3.218   0.057
 3720SOL    HW212060   5.689   3.139   0.184
 3721SOL     OW12061   6.948   5.300   2.054
 3721SOL    HW112062   6.939   5.366   1.979
 3721SOL    HW212063   6.905   5.213   2.026
 3722SOL     OW12064   5.746   5.989   1.036
 3722SOL    HW112065   5.792   6.032   0.958
 3722SOL    HW212066   5.678   6.051   1.073
 3723SOL     OW12067   5.837   5.033   1.097
 3723SOL    HW112068   5.773   4.962   1.124
 3723SOL    HW212069   5.816   5.065   1.004
 3724SOL     OW12070   1.801   4.972   4.977
 3724SOL    HW112071   1.739   4.897   5.003
 3724SOL    HW212072   1.760   5.059   5.006
 3725SOL     OW12073   0.102   5.320   0.164
 3725SOL    HW112074   0.152   5.330   0.249
 3725SOL    HW212075   0.120   5.230   0.124
 3726SOL     OW12076   6.162   3.226   6.725
 3726SOL    HW112077   6.141   3.272   6.812
 3726SOL    HW212078   6.101   3.147   6.714
 3727SOL     OW12079   6.412   1.650   5.705
 3727SOL    HW112080   6.434   1.573   5.646
 3727SOL    HW212081   6.313   1.664   5.706
 3728SOL     OW12082   1.061   3.172   6.333
 3728SOL    HW112083   0.965   3.162   6.306
 3728SOL    HW212084   1.117   3.108   6.281
 3729SOL     OW12085   1.766   1.843   4.411
 3729SOL    HW112086   1.791   1.928   4.365
 3729SOL    HW212087   1.815   1.837   4.498
 3730SOL     OW12088   3.147   5.845   5.570
 3730SOL    HW112089   3.082   5.775   5.541
 3730SOL    HW212090   3.228   5.802   5.610
 3731SOL     OW12091   6.899   1.531   1.045
 3731SOL    HW112092   6.943   1.508   0.959
 3731SOL    HW212093   6.830   1.602   1.029
 3732SOL     OW12094   2.675   1.822   6.772
 3732SOL    HW112095   2.623   1.758   6.715
 3732SOL    HW212096   2.733   1.879   6.714
 3733SOL     OW12097   1.580   3.238   3.053
 3733SOL    HW112098   1.616   3.324   3.017
 3733SOL    HW212099   1.481   3.244   3.063
 3734SOL     OW12100   5.493   0.352   1.289
 3734SOL    HW112101   5.564   0.337   1.358
 3734SOL    HW212102   5.408   0.380   1.333
 3735SOL     OW12103   2.926   1.145   3.051
 3735SOL    HW112104   2.992   1.070   3.041
 3735SOL    HW212105   2.969   1.230   3.023
 3736SOL     OW12106   6.787   1.921   1.517
 3736SOL    HW112107   6.858   1.990   1.537
 3736SOL    HW212108   6.768   1.921   1.419
 3737SOL     OW12109   5.407   1.018   4.245
 3737SOL    HW112110   5.484   0.955   4.228
 3737SOL    HW212111   5.331   0.968   4.284
 3738SOL     OW12112   6.657   0.275   1.926
 3738SOL    HW112113   6.711   0.254   1.844
 3738SOL    HW212114   6.652   0.374   1.938
 3739SOL     OW12115   2.555   5.389   0.712
 3739SOL    HW112116   2.605   5.303   0.711
 3739SOL    HW212117   2.563   5.433   0.623
 3740SOL     OW12118   6.827   0.308   0.848
 3740SOL    HW112119   6.810   0.257   0.932
 3740SOL    HW212120   6.883   0.388   0.868
 3741SOL     OW12121   5.711   2.900   5.921
 3741SOL    HW112122   5.666   2.826   5.874
 3741SOL    HW212123   5.666   2.987   5.899
 3742SOL     OW12124   3.011   1.694   6.634
 3742SOL    HW112125   2.932   1.632   6.634
 3742SOL    HW212126   3.075   1.666   6.562
 3743SOL     OW12127   6.102   3.203   0.426
 3743SOL    HW112128   6.151   3.195   0.513
 3743SOL    HW212129   6.167   3.206   0.351
 3744SOL     OW12130   1.865   5.854   1.489
 3744SOL    HW112131   1.929   5.778   1.479
 3744SOL    HW212132   1.776   5.828   1.450
 3745SOL     OW12133   4.583   4.547   2.676
 3745SOL    HW112134   4.581   4.497   2.589
 3745SOL    HW212135   4.613   4.641   2.660
 3746SOL     OW12136   6.110   0.856   3.845
 3746SOL    HW112137   6.043   0.929   3.828
 3746SOL    HW212138   6.114   0.796   3.765
 3747SOL     OW12139   3.056   6.232   5.070
 3747SOL    HW112140   3.107   6.304   5.024
 3747SOL    HW212141   3.007   6.271   5.148
 3748SOL     OW12142   5.648   0.885   1.675
 3748SOL    HW112143   5.636   0.884   1.576
 3748SOL    HW212144   5.579   0.828   1.718
 3749SOL     OW12145   1.710   5.204   3.049
 3749SOL    HW112146   1.764   5.173   3.127
 3749SOL    HW212147   1.620   5.234   3.081
 3750SOL     OW12148   6.826   5.276   1.515
 3750SOL    HW112149   6.897   5.302   1.449
 3750SOL    HW212150   6.869   5.250   1.601
 3751SOL     OW12151   6.812   3.717   1.556
 3751SOL    HW112152   6.713   3.723   1.568
 3751SOL    HW212153   6.836   3.625   1.525
 3752SOL     OW12154   6.557   6.759   0.817
 3752SOL    HW112155   6.477   6.812   0.788
 3752SOL    HW212156   6.638   6.817   0.812
 3753SOL     OW12157   6.857   0.965   4.323
 3753SOL    HW112158   6.854   0.892   4.256
 3753SOL    HW212159   6.950   0.999   4.331
 3754SOL     OW12160   4.410   6.596   0.907
 3754SOL    HW112161   4.329   6.537   0.900
 3754SOL    HW212162   4.482   6.549   0.959
 3755SOL     OW12163   5.391   5.727   4.360
 3755SOL    HW112164   5.369   5.824   4.352
 3755SOL    HW212165   5.365   5.694   4.451
 3756SOL     OW12166   2.004   5.677   6.549
 3756SOL    HW112167   2.002   5.666   6.648
 3756SOL    HW212168   1.917   5.714   6.517
 3757SOL     OW12169   4.329   6.606   6.314
 3757SOL    HW112170   4.281   6.552   6.383
 3757SOL    HW212171   4.427   6.605   6.333
 3758SOL     OW12172   2.049   1.456   5.609
 3758SOL    HW112173   2.114   1.530   5.625
 3758SOL    HW212174   2.091   1.387   5.550
 3759SOL     OW12175   4.405   5.615   6.387
 3759SOL    HW112176   4.453   5.621   6.300
 3759SOL    HW212177   4.355   5.528   6.392
 3760SOL     OW12178   1.891   1.455   5.375
 3760SOL    HW112179   1.975   1.500   5.404
 3760SOL    HW212180   1.860   1.392   5.446
 3761SOL     OW12181   0.995   0.887   4.698
 3761SOL    HW112182   0.991   0.986   4.679
 3761SOL    HW212183   1.078   0.849   4.658
 3762SOL     OW12184   1.379   3.736   0.171
 3762SOL    HW112185   1.409   3.641   0.176
 3762SOL    HW212186   1.294   3.742   0.118
 3763SOL     OW12187   6.645   4.340   1.686
 3763SOL    HW112188   6.603   4.279   1.753
 3763SOL    HW212189   6.581   4.356   1.611
 3764SOL     OW12190   1.659   6.653   3.809
 3764SOL    HW112191   1.644   6.554   3.807
 3764SOL    HW212192   1.593   6.696   3.871
 3765SOL     OW12193   4.584   0.854   1.027
 3765SOL    HW112194   4.581   0.807   0.939
 3765SOL    HW212195   4.582   0.786   1.101
 3766SOL     OW12196   1.223   0.975   3.816
 3766SOL    HW112197   1.306   1.031   3.810
 3766SOL    HW212198   1.153   1.023   3.869
 3767SOL     OW12199   2.380   4.465   0.186
 3767SOL    HW112200   2.384   4.366   0.173
 3767SOL    HW212201   2.291   4.491   0.222
 3768SOL     OW12202   1.754   6.446   4.768
 3768SOL    HW112203   1.758   6.542   4.739
 3768SOL    HW212204   1.838   6.399   4.740
 3769SOL     OW12205   6.320   6.657   5.394
 3769SOL    HW112206   6.384   6.590   5.434
 3769SOL    HW212207   6.298   6.726   5.462
 3770SOL     OW12208   2.047   0.335   6.950
 3770SOL    HW112209   2.141   0.347   6.983
 3770SOL    HW212210   1.985   0.332   0.003
 3771SOL     OW12211   5.788   3.381   6.657
 3771SOL    HW112212   5.763   3.295   6.612
 3771SOL    HW212213   5.884   3.401   6.639
 3772SOL     OW12214   6.734   0.775   6.780
 3772SOL    HW112215   6.672   0.840   6.824
 3772SOL    HW212216   6.805   0.748   6.844
 3773SOL     OW12217   6.300   2.700   6.308
 3773SOL    HW112218   6.228   2.656   6.255
 3773SOL    HW212219   6.312   2.795   6.277
 3774SOL     OW12220   0.371   6.160   0.315
 3774SOL    HW112221   0.318   6.118   0.241
 3774SOL    HW212222   0.320   6.239   0.351
 3775SOL     OW12223   4.777   5.171   2.186
 3775SOL    HW112224   4.792   5.266   2.158
 3775SOL    HW212225   4.861   5.135   2.227
 3776SOL     OW12226   3.869   1.034   0.585
 3776SOL    HW112227   3.864   1.118   0.639
 3776SOL    HW212228   3.821   0.961   0.633
 3777SOL     OW12229   3.447   5.323   3.806
 3777SOL    HW112230   3.474   5.286   3.895
 3777SOL    HW212231   3.524   5.316   3.742
 3778SOL     OW12232   3.452   4.929   2.383
 3778SOL    HW112233   3.537   4.876   2.387
 3778SOL    HW212234   3.400   4.901   2.302
 3779SOL     OW12235   1.937   4.798   0.774
 3779SOL    HW112236   1.878   4.729   0.734
 3779SOL    HW212237   1.974   4.764   0.861
 3780SOL     OW12238   5.805   6.245   5.305
 3780SOL    HW112239   5.841   6.228   5.213
 3780SOL    HW212240   5.877   6.282   5.363
 3781SOL     OW12241   0.575   6.675   4.507
 3781SOL    HW112242   0.649   6.633   4.560
 3781SOL    HW212243   0.584   6.648   4.411
 3782SOL     OW12244   3.133   0.920   4.026
 3782SOL    HW112245   3.172   0.975   4.100
 3782SOL    HW212246   3.042   0.953   4.003
 3783SOL     OW12247   5.896   5.391   4.103
 3783SOL    HW112248   5.879   5.450   4.025
 3783SOL    HW212249   5.862   5.435   4.186
 3784SOL     OW12250   4.702   2.746   2.113
 3784SOL    HW112251   4.716   2.830   2.060
 3784SOL    HW212252   4.673   2.673   2.051
 3785SOL     OW12253   2.065   2.146   6.262
 3785SOL    HW112254   2.025   2.179   6.348
 3785SOL    HW212255   1.997   2.092   6.213
 3786SOL     OW12256   2.261   6.035   2.932
 3786SOL    HW112257   2.221   6.024   3.023
 3786SOL    HW212258   2.199   5.997   2.863
 3787SOL     OW12259   5.955   0.780   2.410
 3787SOL    HW112260   5.891   0.709   2.441
 3787SOL    HW212261   5.903   0.855   2.368
 3788SOL     OW12262   0.604   4.106   4.405
 3788SOL    HW112263   0.564   4.124   4.495
 3788SOL    HW212264   0.688   4.053   4.415
 3789SOL     OW12265   0.388   2.678   5.213
 3789SOL    HW112266   0.455   2.745   5.247
 3789SOL    HW212267   0.407   2.658   5.117
 3790SOL     OW12268   1.237   4.833   5.099
 3790SOL    HW112269   1.235   4.735   5.115
 3790SOL    HW212270   1.254   4.881   5.185
 3791SOL     OW12271   5.370   0.687   0.198
 3791SOL    HW112272   5.411   0.610   0.148
 3791SOL    HW212273   5.429   0.712   0.275
 3792SOL     OW12274   1.002   1.974   5.234
 3792SOL    HW112275   1.017   1.993   5.137
 3792SOL    HW212276   1.003   2.061   5.285
 3793SOL     OW12277   5.017   6.457   2.622
 3793SOL    HW112278   5.081   6.530   2.595
 3793SOL    HW212279   4.923   6.489   2.610
 3794SOL     OW12280   2.309   3.712   0.442
 3794SOL    HW112281   2.333   3.771   0.366
 3794SOL    HW212282   2.230   3.656   0.417
 3795SOL     OW12283   4.370   6.549   6.779
 3795SOL    HW112284   4.336   6.601   6.857
 3795SOL    HW212285   4.415   6.610   6.715
 3796SOL     OW12286   2.876   1.919   2.305
 3796SOL    HW112287   2.899   1.831   2.263
 3796SOL    HW212288   2.934   1.991   2.266
 3797SOL     OW12289   0.021   4.125   1.500
 3797SOL    HW112290   7.025   4.059   1.572
 3797SOL    HW212291   0.085   4.193   1.534
 3798SOL     OW12292   2.448   5.581   2.774
 3798SOL    HW112293   2.534   5.561   2.822
 3798SOL    HW212294   2.415   5.671   2.803
 3799SOL     OW12295   0.756   2.287   4.399
 3799SOL    HW112296   0.760   2.262   4.302
 3799SOL    HW212297   0.843   2.267   4.443
 3800SOL     OW12298   5.661   3.374   3.795
 3800SOL    HW112299   5.749   3.334   3.769
 3800SOL    HW212300   5.668   3.418   3.884
 3801SOL     OW12301   6.181   6.834   2.807
 3801SOL    HW112302   6.229   6.902   2.751
 3801SOL    HW212303   6.145   6.762   2.748
 3802SOL     OW12304   1.234   2.068   3.272
 3802SOL    HW112305   1.151   2.022   3.303
 3802SOL    HW212306   1.211   2.155   3.228
 3803SOL     OW12307   3.323   2.394   1.597
 3803SOL    HW112308   3.252   2.337   1.639
 3803SOL    HW212309   3.331   2.480   1.648
 3804SOL     OW12310   5.005   1.011   3.937
 3804SOL    HW112311   5.039   0.921   3.910
 3804SOL    HW212312   4.940   1.001   4.012
 3805SOL     OW12313   2.720   2.849   1.739
 3805SOL    HW112314   2.789   2.885   1.801
 3805SOL    HW212315   2.663   2.924   1.705
 3806SOL     OW12316   3.887   3.901   6.480
 3806SOL    HW112317   3.867   3.999   6.479
 3806SOL    HW212318   3.915   3.873   6.388
 3807SOL     OW12319   1.934   5.667   2.831
 3807SOL    HW112320   1.837   5.691   2.833
 3807SOL    HW212321   1.946   5.581   2.782
 3808SOL     OW12322   3.864   0.417   0.809
 3808SOL    HW112323   3.926   0.440   0.735
 3808SOL    HW212324   3.834   0.501   0.855
 3809SOL     OW12325   5.544   3.274   1.041
 3809SOL    HW112326   5.471   3.309   0.982
 3809SOL    HW212327   5.562   3.178   1.018
 3810SOL     OW12328   4.342   2.317   4.296
 3810SOL    HW112329   4.410   2.247   4.316
 3810SOL    HW212330   4.267   2.311   4.361
 3811SOL     OW12331   1.345   4.075   4.311
 3811SOL    HW112332   1.325   4.015   4.233
 3811SOL    HW212333   1.442   4.069   4.333
 3812SOL     OW12334   5.162   6.752   4.533
 3812SOL    HW112335   5.092   6.746   4.605
 3812SOL    HW212336   5.163   6.845   4.495
 3813SOL     OW12337   4.554   4.799   0.356
 3813SOL    HW112338   4.509   4.888   0.357
 3813SOL    HW212339   4.653   4.812   0.350
 3814SOL     OW12340   0.040   6.730   7.016
 3814SOL    HW112341   0.020   6.661   6.947
 3814SOL    HW212342   0.132   6.766   7.003
 3815SOL     OW12343   4.728   2.807   0.311
 3815SOL    HW112344   4.654   2.757   0.356
 3815SOL    HW212345   4.733   2.779   0.215
 3816SOL     OW12346   0.871   6.195   6.570
 3816SOL    HW112347   0.855   6.111   6.518
 3816SOL    HW212348   0.793   6.257   6.559
 3817SOL     OW12349   4.736   4.323   2.765
 3817SOL    HW112350   4.692   4.405   2.729
 3817SOL    HW212351   4.835   4.340   2.774
 3818SOL     OW12352   6.066   0.849   0.630
 3818SOL    HW112353   6.148   0.897   0.600
 3818SOL    HW212354   5.988   0.911   0.627
 3819SOL     OW12355   5.788   5.386   2.009
 3819SOL    HW112356   5.811   5.460   2.073
 3819SOL    HW212357   5.869   5.364   1.954
 3820SOL     OW12358   5.436   6.951   3.239
 3820SOL    HW112359   5.472   6.868   3.197
 3820SOL    HW212360   5.430   6.938   3.338
 3821SOL     OW12361   2.106   1.497   0.962
 3821SOL    HW112362   2.131   1.507   0.865
 3821SOL    HW212363   2.188   1.473   1.015
 3822SOL     OW12364   1.648   6.853   2.264
 3822SOL    HW112365   1.718   6.866   2.334
 3822SOL    HW212366   1.601   6.939   2.247
 3823SOL     OW12367   3.010   2.783   5.720
 3823SOL    HW112368   2.928   2.728   5.706
 3823SOL    HW212369   2.986   2.880   5.717
 3824SOL     OW12370   6.271   2.317   0.586
 3824SOL    HW112371   6.265   2.359   0.677
 3824SOL    HW212372   6.277   2.218   0.596
 3825SOL     OW12373   1.126   6.196   0.599
 3825SOL    HW112374   1.059   6.171   0.669
 3825SOL    HW212375   1.196   6.255   0.639
 3826SOL     OW12376   1.184   2.748   6.588
 3826SOL    HW112377   1.221   2.824   6.642
 3826SOL    HW212378   1.183   2.665   6.643
 3827SOL     OW12379   2.477   2.188   0.915
 3827SOL    HW112380   2.526   2.231   0.991
 3827SOL    HW212381   2.410   2.123   0.951
 3828SOL     OW12382   3.742   2.712   1.533
 3828SOL    HW112383   3.814   2.649   1.504
 3828SOL    HW212384   3.682   2.667   1.599
 3829SOL     OW12385   1.552   4.745   4.548
 3829SOL    HW112386   1.468   4.716   4.503
 3829SOL    HW212387   1.620   4.672   4.542
 3830SOL     OW12388   0.780   0.593   3.854
 3830SOL    HW112389   0.735   0.506   3.836
 3830SOL    HW212390   0.866   0.577   3.904
 3831SOL     OW12391   4.525   2.492   2.624
 3831SOL    HW112392   4.550   2.570   2.567
 3831SOL    HW212393   4.457   2.436   2.575
 3832SOL     OW12394   5.930   0.878   3.075
 3832SOL    HW112395   5.906   0.856   2.981
 3832SOL    HW212396   5.891   0.967   3.100
 3833SOL     OW12397   0.979   6.669   5.285
 3833SOL    HW112398   0.918   6.653   5.363
 3833SOL    HW212399   0.935   6.636   5.201
 3834SOL     OW12400   4.645   3.345   1.700
 3834SOL    HW112401   4.631   3.443   1.706
 3834SOL    HW212402   4.724   3.320   1.757
 3835SOL     OW12403   2.848   5.584   4.864
 3835SOL    HW112404   2.876   5.625   4.951
 3835SOL    HW212405   2.928   5.549   4.816
 3836SOL     OW12406   1.752   4.156   5.396
 3836SOL    HW112407   1.813   4.077   5.386
 3836SOL    HW212408   1.659   4.125   5.413
 3837SOL     OW12409   4.924   4.310   0.080
 3837SOL    HW112410   4.990   4.354   0.018
 3837SOL    HW212411   4.843   4.283   0.028
 3838SOL     OW12412   6.665   3.646   4.446
 3838SOL    HW112413   6.577   3.637   4.399
 3838SOL    HW212414   6.670   3.736   4.488
 3839SOL     OW12415   4.117   0.961   3.742
 3839SOL    HW112416   4.173   0.889   3.783
 3839SOL    HW212417   4.021   0.946   3.765
 3840SOL     OW12418   1.838   1.234   5.547
 3840SOL    HW112419   1.769   1.284   5.600
 3840SOL    HW212420   1.904   1.193   5.609
 3841SOL     OW12421   0.284   3.450   5.592
 3841SOL    HW112422   0.326   3.532   5.632
 3841SOL    HW212423   0.201   3.427   5.643
 3842SOL     OW12424   1.371   3.862   6.387
 3842SOL    HW112425   1.417   3.800   6.450
 3842SOL    HW212426   1.425   3.873   6.304
 3843SOL     OW12427   6.758   4.120   2.765
 3843SOL    HW112428   6.719   4.189   2.827
 3843SOL    HW212429   6.754   4.030   2.809
 3844SOL     OW12430   0.431   3.086   6.400
 3844SOL    HW112431   0.398   3.131   6.483
 3844SOL    HW212432   0.354   3.065   6.341
 3845SOL     OW12433   3.745   2.964   3.084
 3845SOL    HW112434   3.652   2.930   3.098
 3845SOL    HW212435   3.790   2.973   3.173
 3846SOL     OW12436   1.003   4.951   3.946
 3846SOL    HW112437   0.963   4.910   3.864
 3846SOL    HW212438   1.023   4.880   4.014
 3847SOL     OW12439   6.182   0.868   4.745
 3847SOL    HW112440   6.278   0.849   4.724
 3847SOL    HW212441   6.125   0.846   4.667
 3848SOL     OW12442   3.202   5.578   3.056
 3848SOL    HW112443   3.221   5.499   3.115
 3848SOL    HW212444   3.104   5.582   3.037
 3849SOL     OW12445   0.525   1.846   5.110
 3849SOL    HW112446   0.557   1.792   5.188
 3849SOL    HW212447   0.496   1.937   5.142
 3850SOL     OW12448   2.826   3.141   1.375
 3850SOL    HW112449   2.765   3.220   1.374
 3850SOL    HW212450   2.790   3.071   1.314
 3851SOL     OW12451   1.809   4.574   2.781
 3851SOL    HW112452   1.811   4.503   2.851
 3851SOL    HW212453   1.727   4.630   2.791
 3852SOL     OW12454   4.886   6.793   4.179
 3852SOL    HW112455   4.795   6.811   4.141
 3852SOL    HW212456   4.939   6.878   4.180
 3853SOL     OW12457   1.193   3.004   3.125
 3853SOL    HW112458   1.170   2.998   3.028
 3853SOL    HW212459   1.250   2.927   3.151
 3854SOL     OW12460   1.041   3.165   2.349
 3854SOL    HW112461   0.980   3.244   2.353
 3854SOL    HW212462   1.015   3.107   2.272
 3855SOL     OW12463   4.989   5.985   6.876
 3855SOL    HW112464   4.930   6.042   6.818
 3855SOL    HW212465   5.082   6.022   6.875
 3856SOL     OW12466   6.398   6.288   5.630
 3856SOL    HW112467   6.423   6.349   5.555
 3856SOL    HW212468   6.465   6.296   5.703
 3857SOL     OW12469   0.706   5.981   5.740
 3857SOL    HW112470   0.742   5.949   5.652
 3857SOL    HW212471   0.779   5.978   5.809
 3858SOL     OW12472   1.555   6.235   5.427
 3858SOL    HW112473   1.476   6.292   5.447
 3858SOL    HW212474   1.539   6.142   5.461
 3859SOL     OW12475   6.594   2.321   2.938
 3859SOL    HW112476   6.663   2.289   3.003
 3859SOL    HW212477   6.504   2.322   2.982
 3860SOL     OW12478   1.914   0.602   5.534
 3860SOL    HW112479   1.897   0.666   5.609
 3860SOL    HW212480   2.013   0.597   5.516
 3861SOL     OW12481   5.005   4.842   2.359
 3861SOL    HW112482   5.068   4.778   2.315
 3861SOL    HW212483   5.000   4.822   2.457
 3862SOL     OW12484   0.644   0.332   4.924
 3862SOL    HW112485   0.721   0.282   4.886
 3862SOL    HW212486   0.587   0.270   4.978
 3863SOL     OW12487   4.917   2.806   6.384
 3863SOL    HW112488   4.873   2.748   6.453
 3863SOL    HW212489   4.924   2.899   6.419
 3864SOL     OW12490   3.065   1.255   5.480
 3864SOL    HW112491   3.091   1.322   5.411
 3864SOL    HW212492   2.966   1.257   5.494
 3865SOL     OW12493   3.547   0.026   0.629
 3865SOL    HW112494   3.579   0.113   0.665
 3865SOL    HW212495   3.562   6.980   0.697
 3866SOL     OW12496   4.058   0.784   0.848
 3866SOL    HW112497   4.055   0.884   0.849
 3866SOL    HW212498   4.029   0.749   0.936
 3867SOL     OW12499   1.307   3.678   3.961
 3867SOL    HW112500   1.270   3.585   3.969
 3867SOL    HW212501   1.293   3.712   3.868
 3868SOL     OW12502   2.537   6.955   1.086
 3868SOL    HW112503   2.572   7.009   1.162
 3868SOL    HW212504   2.437   6.953   1.090
 3869SOL     OW12505   6.935   3.302   4.395
 3869SOL    HW112506   6.882   3.222   4.368
 3869SOL    HW212507   0.002   3.295   4.357
 3870SOL     OW12508   4.440   5.416   0.964
 3870SOL    HW112509   4.386   5.333   0.978
 3870SOL    HW212510   4.438   5.442   0.868
 3871SOL     OW12511   4.342   0.285   1.845
 3871SOL    HW112512   4.418   0.285   1.910
 3871SOL    HW212513   4.259   0.317   1.890
 3872SOL     OW12514   4.117   3.241   2.098
 3872SOL    HW112515   4.048   3.314   2.090
 3872SOL    HW212516   4.120   3.207   2.192
 3873SOL     OW12517   6.852   5.006   1.435
 3873SOL    HW112518   6.944   4.983   1.464
 3873SOL    HW212519   6.832   5.101   1.458
 3874SOL     OW12520   3.861   6.125   6.898
 3874SOL    HW112521   3.936   6.131   6.964
 3874SOL    HW212522   3.791   6.192   6.921
 3875SOL     OW12523   0.892   2.743   2.538
 3875SOL    HW112524   0.974   2.795   2.560
 3875SOL    HW212525   0.902   2.649   2.572
 3876SOL     OW12526   5.790   5.221   6.615
 3876SOL    HW112527   5.888   5.239   6.612
 3876SOL    HW212528   5.775   5.128   6.648
 3877SOL     OW12529   0.022   2.642   0.008
 3877SOL    HW112530   0.100   2.594   6.992
 3877SOL    HW212531   0.051   2.686   0.093
 3878SOL     OW12532   2.536   6.542   5.481
 3878SOL    HW112533   2.579   6.456   5.454
 3878SOL    HW212534   2.530   6.546   5.581
 3879SOL     OW12535   5.278   6.744   1.311
 3879SOL    HW112536   5.274   6.653   1.351
 3879SOL    HW212537   5.287   6.812   1.383
 3880SOL     OW12538   6.278   4.097   3.589
 3880SOL    HW112539   6.193   4.049   3.611
 3880SOL    HW212540   6.274   4.190   3.625
 3881SOL     OW12541   1.397   5.371   0.511
 3881SOL    HW112542   1.316   5.421   0.539
 3881SOL    HW212543   1.374   5.312   0.433
 3882SOL     OW12544   6.235   1.743   4.752
 3882SOL    HW112545   6.164   1.775   4.688
 3882SOL    HW212546   6.318   1.797   4.738
 3883SOL     OW12547   4.834   0.994   3.018
 3883SOL    HW112548   4.882   1.055   2.955
 3883SOL    HW212549   4.757   1.043   3.060
 3884SOL     OW12550   1.649   5.712   4.286
 3884SOL    HW112551   1.647   5.642   4.216
 3884SOL    HW212552   1.735   5.707   4.337
 3885SOL     OW12553   6.419   1.340   4.071
 3885SOL    HW112554   6.325   1.321   4.099
 3885SOL    HW212555   6.467   1.386   4.146
 3886SOL     OW12556   6.863   6.984   5.018
 3886SOL    HW112557   6.788   6.996   5.084
 3886SOL    HW212558   6.895   6.889   5.023
 3887SOL     OW12559   5.570   2.045   5.540
 3887SOL    HW112560   5.562   1.999   5.628
 3887SOL    HW212561   5.484   2.035   5.490
 3888SOL     OW12562   0.613   0.197   6.612
 3888SOL    HW112563   0.556   0.121   6.582
 3888SOL    HW212564   0.594   0.217   6.708
 3889SOL     OW12565   6.868   2.727   6.155
 3889SOL    HW112566   6.944   2.750   6.216
 3889SOL    HW212567   6.781   2.745   6.202
 3890SOL     OW12568   5.789   6.056   2.780
 3890SOL    HW112569   5.729   5.987   2.741
 3890SOL    HW212570   5.743   6.144   2.781
 3891SOL     OW12571   5.617   4.869   4.717
 3891SOL    HW112572   5.528   4.881   4.761
 3891SOL    HW212573   5.688   4.863   4.787
 3892SOL     OW12574   0.353   1.049   2.519
 3892SOL    HW112575   0.299   0.971   2.489
 3892SOL    HW212576   0.448   1.021   2.532
 3893SOL     OW12577   2.763   5.339   2.044
 3893SOL    HW112578   2.788   5.427   2.005
 3893SOL    HW212579   2.804   5.265   1.989
 3894SOL     OW12580   3.049   1.889   0.319
 3894SOL    HW112581   2.965   1.856   0.364
 3894SOL    HW212582   3.040   1.987   0.299
 3895SOL     OW12583   1.380   1.111   5.177
 3895SOL    HW112584   1.336   1.175   5.115
 3895SOL    HW212585   1.323   1.099   5.258
 3896SOL     OW12586   0.265   2.349   5.933
 3896SOL    HW112587   0.192   2.314   5.873
 3896SOL    HW212588   0.242   2.328   6.028
 3897SOL     OW12589   3.433   6.339   2.002
 3897SOL    HW112590   3.437   6.437   2.019
 3897SOL    HW212591   3.340   6.305   2.017
 3898SOL     OW12592   3.145   3.005   3.256
 3898SOL    HW112593   3.046   2.993   3.249
 3898SOL    HW212594   3.183   3.030   3.167
 3899SOL     OW12595   4.838   0.966   4.420
 3899SOL    HW112596   4.749   1.009   4.436
 3899SOL    HW212597   4.909   1.017   4.468
 3900SOL     OW12598   4.914   3.501   3.354
 3900SOL    HW112599   4.909   3.511   3.453
 3900SOL    HW212600   5.006   3.474   3.327
 3901SOL     OW12601   2.736   6.202   5.596
 3901SOL    HW112602   2.816   6.257   5.622
 3901SOL    HW212603   2.760   6.105   5.598
 3902SOL     OW12604   4.776   4.030   2.214
 3902SOL    HW112605   4.802   4.006   2.308
 3902SOL    HW212606   4.721   4.114   2.215
 3903SOL     OW12607   4.221   3.467   6.756
 3903SOL    HW112608   4.202   3.409   6.835
 3903SOL    HW212609   4.211   3.563   6.782
 3904SOL     OW12610   1.694   0.905   6.270
 3904SOL    HW112611   1.747   0.829   6.232
 3904SOL    HW212612   1.634   0.871   6.343
 3905SOL     OW12613   6.041   6.224   5.879
 3905SOL    HW112614   6.091   6.309   5.858
 3905SOL    HW212615   5.994   6.192   5.797
 3906SOL     OW12616   1.576   5.188   5.867
 3906SOL    HW112617   1.504   5.211   5.802
 3906SOL    HW212618   1.574   5.090   5.886
 3907SOL     OW12619   0.389   0.854   4.549
 3907SOL    HW112620   0.406   0.951   4.567
 3907SOL    HW212621   0.403   0.802   4.634
 3908SOL     OW12622   1.086   1.141   6.338
 3908SOL    HW112623   1.129   1.216   6.388
 3908SOL    HW212624   1.149   1.108   6.268
 3909SOL     OW12625   6.230   4.371   6.661
 3909SOL    HW112626   6.237   4.345   6.757
 3909SOL    HW212627   6.176   4.303   6.612
 3910SOL     OW12628   3.601   4.160   2.169
 3910SOL    HW112629   3.503   4.164   2.190
 3910SOL    HW212630   3.651   4.124   2.248
 3911SOL     OW12631   4.876   1.337   0.766
 3911SOL    HW112632   4.937   1.326   0.687
 3911SOL    HW212633   4.919   1.297   0.847
 3912SOL     OW12634   3.708   0.817   6.117
 3912SOL    HW112635   3.614   0.804   6.151
 3912SOL    HW212636   3.743   0.905   6.151
 3913SOL     OW12637   3.546   5.884   7.005
 3913SOL    HW112638   3.468   5.946   7.001
 3913SOL    HW212639   3.620   5.925   0.033
 3914SOL     OW12640   5.264   0.956   1.340
 3914SOL    HW112641   5.330   1.013   1.290
 3914SOL    HW212642   5.183   0.940   1.283
 3915SOL     OW12643   4.335   6.642   0.010
 3915SOL    HW112644   4.239   6.668   0.023
 3915SOL    HW212645   4.343   6.543   0.014
 3916SOL     OW12646   2.950   0.056   3.024
 3916SOL    HW112647   2.936   0.065   2.925
 3916SOL    HW212648   2.903   7.000   3.056
 3917SOL     OW12649   2.404   4.639   0.768
 3917SOL    HW112650   2.364   4.559   0.725
 3917SOL    HW212651   2.443   4.699   0.698
 3918SOL     OW12652   4.140   0.150   0.715
 3918SOL    HW112653   4.206   0.215   0.679
 3918SOL    HW212654   4.054   0.158   0.665
 3919SOL     OW12655   3.705   0.739   6.776
 3919SOL    HW112656   3.784   0.713   6.831
 3919SOL    HW212657   3.627   0.757   6.836
 3920SOL     OW12658   2.255   0.571   0.485
 3920SOL    HW112659   2.224   0.491   0.435
 3920SOL    HW212660   2.315   0.626   0.426
 3921SOL     OW12661   0.081   2.331   6.430
 3921SOL    HW112662   0.044   2.242   6.457
 3921SOL    HW212663   0.034   2.403   6.482
 3922SOL     OW12664   4.805   5.069   1.361
 3922SOL    HW112665   4.777   4.995   1.423
 3922SOL    HW212666   4.748   5.066   1.279
 3923SOL     OW12667   5.553   2.119   0.857
 3923SOL    HW112668   5.541   2.164   0.945
 3923SOL    HW212669   5.498   2.166   0.787
 3924SOL     OW12670   0.476   4.489   3.048
 3924SOL    HW112671   0.551   4.430   3.078
 3924SOL    HW212672   0.391   4.437   3.048
 3925SOL     OW12673   5.097   4.710   1.412
 3925SOL    HW112674   5.142   4.751   1.492
 3925SOL    HW212675   5.094   4.610   1.424
 3926SOL     OW12676   0.570   0.127   5.287
 3926SOL    HW112677   0.658   0.174   5.286
 3926SOL    HW212678   0.499   0.191   5.256
 3927SOL     OW12679   0.750   2.829   4.121
 3927SOL    HW112680   0.764   2.730   4.129
 3927SOL    HW212681   0.839   2.875   4.123
 3928SOL     OW12682   3.076   6.021   2.298
 3928SOL    HW112683   3.113   5.948   2.241
 3928SOL    HW212684   3.026   6.086   2.241
 3929SOL     OW12685   0.245   0.989   0.197
 3929SOL    HW112686   0.257   1.034   0.286
 3929SOL    HW212687   0.232   1.059   0.127
 3930SOL     OW12688   0.941   2.049   3.597
 3930SOL    HW112689   1.012   2.064   3.665
 3930SOL    HW212690   0.887   2.132   3.586
 3931SOL     OW12691   1.726   1.947   1.756
 3931SOL    HW112692   1.697   2.016   1.822
 3931SOL    HW212693   1.675   1.959   1.671
 3932SOL     OW12694   2.797   5.290   4.313
 3932SOL    HW112695   2.705   5.316   4.283
 3932SOL    HW212696   2.825   5.208   4.264
 3933SOL     OW12697   1.729   6.785   0.192
 3933SOL    HW112698   1.675   6.784   0.108
 3933SOL    HW212699   1.684   6.843   0.260
 3934SOL     OW12700   0.164   1.183   3.431
 3934SOL    HW112701   0.164   1.111   3.361
 3934SOL    HW212702   0.189   1.270   3.389
 3935SOL     OW12703   6.847   2.121   5.663
 3935SOL    HW112704   6.890   2.035   5.691
 3935SOL    HW212705   6.802   2.162   5.743
 3936SOL     OW12706   6.826   6.170   5.473
 3936SOL    HW112707   6.807   6.159   5.375
 3936SOL    HW212708   6.925   6.173   5.488
 3937SOL     OW12709   0.581   5.981   3.365
 3937SOL    HW112710   0.669   6.022   3.390
 3937SOL    HW212711   0.547   6.026   3.282
 3938SOL     OW12712   6.747   3.475   4.189
 3938SOL    HW112713   6.745   3.535   4.269
 3938SOL    HW212714   6.695   3.392   4.208
 3939SOL     OW12715   2.515   1.934   3.869
 3939SOL    HW112716   2.559   2.023   3.857
 3939SOL    HW212717   2.579   1.870   3.913
 3940SOL     OW12718   3.001   4.806   1.914
 3940SOL    HW112719   2.942   4.726   1.904
 3940SOL    HW212720   3.096   4.779   1.900
 3941SOL     OW12721   5.679   6.946   4.286
 3941SOL    HW112722   5.691   0.007   4.334
 3941SOL    HW212723   5.667   6.872   4.352
 3942SOL     OW12724   0.927   6.218   5.316
 3942SOL    HW112725   0.860   6.207   5.389
 3942SOL    HW212726   0.933   6.315   5.290
 3943SOL     OW12727   1.004   3.108   1.684
 3943SOL    HW112728   0.953   3.194   1.680
 3943SOL    HW212729   1.095   3.125   1.720
 3944SOL     OW12730   5.550   3.725   5.547
 3944SOL    HW112731   5.583   3.757   5.636
 3944SOL    HW212732   5.461   3.682   5.559
 3945SOL     OW12733   1.256   2.233   3.540
 3945SOL    HW112734   1.193   2.268   3.470
 3945SOL    HW212735   1.319   2.305   3.567
 3946SOL     OW12736   0.403   3.828   6.967
 3946SOL    HW112737   0.407   3.816   0.041
 3946SOL    HW212738   0.343   3.904   6.945
 3947SOL     OW12739   6.191   5.253   0.283
 3947SOL    HW112740   6.212   5.186   0.354
 3947SOL    HW212741   6.171   5.205   0.197
 3948SOL     OW12742   1.153   3.889   6.964
 3948SOL    HW112743   1.114   3.902   6.873
 3948SOL    HW212744   1.088   3.839   7.021
 3949SOL     OW12745   6.421   6.925   3.443
 3949SOL    HW112746   6.359   6.972   3.380
 3949SOL    HW212747   6.511   6.916   3.400
 3950SOL     OW12748   4.126   4.046   1.783
 3950SOL    HW112749   4.211   4.098   1.796
 3950SOL    HW212750   4.090   4.017   1.872
 3951SOL     OW12751   0.001   1.744   6.961
 3951SOL    HW112752   0.053   1.802   6.897
 3951SOL    HW212753   0.010   1.648   6.934
 3952SOL     OW12754   5.893   3.186   4.502
 3952SOL    HW112755   5.802   3.208   4.466
 3952SOL    HW212756   5.962   3.208   4.433
 3953SOL     OW12757   3.220   4.653   5.713
 3953SOL    HW112758   3.310   4.661   5.670
 3953SOL    HW212759   3.212   4.563   5.756
 3954SOL     OW12760   6.186   4.830   5.701
 3954SOL    HW112761   6.124   4.888   5.754
 3954SOL    HW212762   6.213   4.751   5.757
 3955SOL     OW12763   4.879   6.277   0.007
 3955SOL    HW112764   4.899   6.289   6.936
 3955SOL    HW212765   4.784   6.245   0.018
 3956SOL     OW12766   0.512   2.928   5.211
 3956SOL    HW112767   0.584   2.923   5.141
 3956SOL    HW212768   0.542   2.989   5.285
 3957SOL     OW12769   3.241   5.889   3.680
 3957SOL    HW112770   3.270   5.957   3.747
 3957SOL    HW212771   3.313   5.820   3.669
 3958SOL     OW12772   5.775   6.777   0.248
 3958SOL    HW112773   5.692   6.738   0.208
 3958SOL    HW212774   5.853   6.717   0.229
 3959SOL     OW12775   3.324   6.287   0.919
 3959SOL    HW112776   3.424   6.279   0.918
 3959SOL    HW212777   3.286   6.241   0.838
 3960SOL     OW12778   5.261   2.510   6.105
 3960SOL    HW112779   5.219   2.419   6.105
 3960SOL    HW212780   5.215   2.568   6.173
 3961SOL     OW12781   5.177   2.096   1.493
 3961SOL    HW112782   5.126   2.163   1.547
 3961SOL    HW212783   5.136   2.090   1.401
 3962SOL     OW12784   0.628   5.938   6.760
 3962SOL    HW112785   0.703   5.874   6.776
 3962SOL    HW212786   0.597   5.976   6.847
 3963SOL     OW12787   5.990   5.549   3.329
 3963SOL    HW112788   5.971   5.456   3.296
 3963SOL    HW212789   6.070   5.586   3.282
 3964SOL     OW12790   4.934   5.719   5.266
 3964SOL    HW112791   4.850   5.672   5.241
 3964SOL    HW212792   4.990   5.660   5.324
 3965SOL     OW12793   3.510   4.826   5.771
 3965SOL    HW112794   3.453   4.822   5.689
 3965SOL    HW212795   3.605   4.805   5.747
 3966SOL     OW12796   6.577   5.156   6.613
 3966SOL    HW112797   6.520   5.122   6.539
 3966SOL    HW212798   6.530   5.231   6.660
 3967SOL     OW12799   1.199   4.943   3.151
 3967SOL    HW112800   1.178   4.863   3.207
 3967SOL    HW212801   1.116   4.976   3.107
 3968SOL     OW12802   5.254   0.535   2.371
 3968SOL    HW112803   5.234   0.551   2.468
 3968SOL    HW212804   5.348   0.502   2.362
 3969SOL     OW12805   0.737   4.668   2.625
 3969SOL    HW112806   0.759   4.659   2.528
 3969SOL    HW212807   0.743   4.578   2.669
 3970SOL     OW12808   5.091   5.431   3.473
 3970SOL    HW112809   5.020   5.490   3.512
 3970SOL    HW212810   5.150   5.397   3.546
 3971SOL     OW12811   2.934   5.338   2.704
 3971SOL    HW112812   2.990   5.261   2.737
 3971SOL    HW212813   2.929   5.335   2.605
 3972SOL     OW12814   0.624   5.842   0.560
 3972SOL    HW112815   0.664   5.905   0.494
 3972SOL    HW212816   0.637   5.748   0.528
 3973SOL     OW12817   3.364   3.567   4.919
 3973SOL    HW112818   3.366   3.661   4.953
 3973SOL    HW212819   3.337   3.566   4.823
 3974SOL     OW12820   0.409   0.728   6.376
 3974SOL    HW112821   0.504   0.709   6.403
 3974SOL    HW212822   0.364   0.779   6.449
 3975SOL     OW12823   6.782   0.048   5.754
 3975SOL    HW112824   6.881   0.061   5.758
 3975SOL    HW212825   6.756   6.994   5.809
 3976SOL     OW12826   1.009   4.901   1.057
 3976SOL    HW112827   1.031   4.817   1.009
 3976SOL    HW212828   1.092   4.939   1.098
 3977SOL     OW12829   3.007   5.186   5.821
 3977SOL    HW112830   2.969   5.102   5.858
 3977SOL    HW212831   3.100   5.199   5.856
 3978SOL     OW12832   5.130   0.992   4.728
 3978SOL    HW112833   5.228   0.985   4.715
 3978SOL    HW212834   5.084   0.930   4.664
 3979SOL     OW12835   2.276   6.171   1.932
 3979SOL    HW112836   2.183   6.146   1.958
 3979SOL    HW212837   2.337   6.157   2.010
 3980SOL     OW12838   6.614   3.761   5.562
 3980SOL    HW112839   6.707   3.756   5.597
 3980SOL    HW212840   6.557   3.815   5.624
 3981SOL     OW12841   0.554   1.880   5.883
 3981SOL    HW112842   0.648   1.904   5.859
 3981SOL    HW212843   0.503   1.858   5.800
 3982SOL     OW12844   2.763   0.592   4.402
 3982SOL    HW112845   2.745   0.665   4.335
 3982SOL    HW212846   2.813   0.518   4.357
 3983SOL     OW12847   2.879   6.004   4.497
 3983SOL    HW112848   2.911   5.924   4.547
 3983SOL    HW212849   2.846   5.976   4.407
 3984SOL     OW12850   2.053   0.080   1.593
 3984SOL    HW112851   1.998   0.136   1.531
 3984SOL    HW212852   2.039   0.110   1.687
 3985SOL     OW12853   1.980   3.804   6.862
 3985SOL    HW112854   2.004   3.862   6.785
 3985SOL    HW212855   1.951   3.714   6.829
 3986SOL     OW12856   0.427   1.544   3.052
 3986SOL    HW112857   0.430   1.444   3.049
 3986SOL    HW212858   0.499   1.578   3.113
 3987SOL     OW12859   1.537   5.404   4.878
 3987SOL    HW112860   1.566   5.408   4.974
 3987SOL    HW212861   1.495   5.315   4.860
 3988SOL     OW12862   3.642   1.705   5.868
 3988SOL    HW112863   3.736   1.730   5.892
 3988SOL    HW212864   3.634   1.695   5.769
 3989SOL     OW12865   5.937   0.610   5.792
 3989SOL    HW112866   5.887   0.623   5.707
 3989SOL    HW212867   5.920   0.518   5.828
 3990SOL     OW12868   5.556   2.122   4.152
 3990SOL    HW112869   5.509   2.081   4.231
 3990SOL    HW212870   5.642   2.074   4.137
 3991SOL     OW12871   6.623   2.398   3.556
 3991SOL    HW112872   6.701   2.391   3.618
 3991SOL    HW212873   6.654   2.431   3.466
 3992SOL     OW12874   4.901   3.166   6.843
 3992SOL    HW112875   4.864   3.181   6.935
 3992SOL    HW212876   4.831   3.190   6.775
 3993SOL     OW12877   2.536   2.153   3.387
 3993SOL    HW112878   2.462   2.209   3.425
 3993SOL    HW212879   2.496   2.072   3.342
 3994SOL     OW12880   2.112   2.671   5.018
 3994SOL    HW112881   2.099   2.572   5.033
 3994SOL    HW212882   2.202   2.687   4.977
 3995SOL     OW12883   2.351   4.969   4.177
 3995SOL    HW112884   2.425   4.908   4.149
 3995SOL    HW212885   2.369   5.003   4.269
 3996SOL     OW12886   2.062   1.171   5.179
 3996SOL    HW112887   2.102   1.092   5.225
 3996SOL    HW212888   1.980   1.144   5.130
 3997SOL     OW12889   4.864   3.915   3.487
 3997SOL    HW112890   4.942   3.942   3.543
 3997SOL    HW212891   4.897   3.888   3.396
 3998SOL     OW12892   5.439   2.187   2.116
 3998SOL    HW112893   5.494   2.247   2.058
 3998SOL    HW212894   5.483   2.097   2.122
 3999SOL     OW12895   6.063   3.939   3.680
 3999SOL    HW112896   6.108   3.858   3.718
 3999SOL    HW212897   5.998   3.911   3.609
 4000SOL     OW12898   3.264   5.237   2.552
 4000SOL    HW112899   3.210   5.313   2.515
 4000SOL    HW212900   3.213   5.193   2.626
 4001SOL     OW12901   2.252   3.537   5.250
 4001SOL    HW112902   2.349   3.524   5.228
 4001SOL    HW212903   2.238   3.631   5.283
 4002SOL     OW12904   3.686   3.793   5.111
 4002SOL    HW112905   3.683   3.693   5.105
 4002SOL    HW212906   3.710   3.820   5.204
 4003SOL     OW12907   2.050   1.263   6.086
 4003SOL    HW112908   2.138   1.305   6.108
 4003SOL    HW212909   2.052   1.166   6.110
 4004SOL     OW12910   6.068   2.915   4.812
 4004SOL    HW112911   6.153   2.950   4.772
 4004SOL    HW212912   6.078   2.817   4.830
 4005SOL     OW12913   5.453   4.708   1.234
 4005SOL    HW112914   5.405   4.623   1.259
 4005SOL    HW212915   5.429   4.779   1.300
 4006SOL     OW12916   5.467   4.548   2.290
 4006SOL    HW112917   5.535   4.619   2.308
 4006SOL    HW212918   5.394   4.555   2.358
 4007SOL     OW12919   0.673   2.234   2.916
 4007SOL    HW112920   0.726   2.154   2.887
 4007SOL    HW212921   0.687   2.248   3.014
 4008SOL     OW12922   3.384   1.274   6.291
 4008SOL    HW112923   3.402   1.357   6.239
 4008SOL    HW212924   3.285   1.262   6.302
 4009SOL     OW12925   3.987   2.022   1.187
 4009SOL    HW112926   4.020   1.927   1.188
 4009SOL    HW212927   3.934   2.037   1.103
 4010SOL     OW12928   2.703   3.362   1.519
 4010SOL    HW112929   2.677   3.395   1.609
 4010SOL    HW212930   2.786   3.409   1.489
 4011SOL     OW12931   0.292   6.552   1.816
 4011SOL    HW112932   0.234   6.558   1.898
 4011SOL    HW212933   0.382   6.519   1.841
 4012SOL     OW12934   4.464   6.340   2.126
 4012SOL    HW112935   4.471   6.421   2.184
 4012SOL    HW212936   4.390   6.281   2.160
 4013SOL     OW12937   2.249   0.325   1.331
 4013SOL    HW112938   2.342   0.302   1.302
 4013SOL    HW212939   2.184   0.270   1.279
 4014SOL     OW12940   3.640   5.704   3.646
 4014SOL    HW112941   3.553   5.728   3.690
 4014SOL    HW212942   3.691   5.642   3.706
 4015SOL     OW12943   4.409   4.350   6.976
 4015SOL    HW112944   4.488   4.372   6.919
 4015SOL    HW212945   4.327   4.390   6.935
 4016SOL     OW12946   2.188   5.750   0.282
 4016SOL    HW112947   2.184   5.795   0.192
 4016SOL    HW212948   2.188   5.651   0.269
 4017SOL     OW12949   0.686   6.314   6.108
 4017SOL    HW112950   0.643   6.258   6.178
 4017SOL    HW212951   0.717   6.400   6.149
 4018SOL     OW12952   4.956   6.593   1.174
 4018SOL    HW112953   5.055   6.608   1.186
 4018SOL    HW212954   4.917   6.666   1.119
 4019SOL     OW12955   5.910   4.240   2.808
 4019SOL    HW112956   5.862   4.255   2.894
 4019SOL    HW212957   6.007   4.262   2.819
 4020SOL     OW12958   6.805   3.462   5.813
 4020SOL    HW112959   6.891   3.494   5.774
 4020SOL    HW212960   6.814   3.365   5.836
 4021SOL     OW12961   3.289   4.199   5.143
 4021SOL    HW112962   3.312   4.113   5.188
 4021SOL    HW212963   3.339   4.207   5.057
 4022SOL     OW12964   4.486   6.890   6.992
 4022SOL    HW112965   4.437   6.806   7.015
 4022SOL    HW212966   4.459   6.963   0.029
 4023SOL     OW12967   0.259   0.493   4.734
 4023SOL    HW112968   0.214   0.511   4.821
 4023SOL    HW212969   0.191   0.471   4.665
 4024SOL     OW12970   2.567   5.676   4.317
 4024SOL    HW112971   2.533   5.583   4.303
 4024SOL    HW212972   2.592   5.689   4.413
 4025SOL     OW12973   1.066   5.957   3.982
 4025SOL    HW112974   1.065   6.015   3.900
 4025SOL    HW212975   0.973   5.928   4.003
 4026SOL     OW12976   5.985   6.736   3.247
 4026SOL    HW112977   5.898   6.693   3.223
 4026SOL    HW212978   5.990   6.751   3.345
 4027SOL     OW12979   2.872   2.342   0.211
 4027SOL    HW112980   2.866   2.390   0.298
 4027SOL    HW212981   2.789   2.360   0.157
 4028SOL     OW12982   3.869   1.674   3.358
 4028SOL    HW112983   3.898   1.643   3.449
 4028SOL    HW212984   3.886   1.772   3.350
 4029SOL     OW12985   2.793   4.536   5.778
 4029SOL    HW112986   2.828   4.467   5.714
 4029SOL    HW212987   2.794   4.626   5.734
 4030SOL     OW12988   0.379   1.692   2.041
 4030SOL    HW112989   0.408   1.627   2.112
 4030SOL    HW212990   0.280   1.692   2.034
 4031SOL     OW12991   5.447   6.074   3.586
 4031SOL    HW112992   5.476   5.996   3.641
 4031SOL    HW212993   5.411   6.041   3.498
 4032SOL     OW12994   6.733   0.316   2.192
 4032SOL    HW112995   6.812   0.377   2.190
 4032SOL    HW212996   6.719   0.276   2.101
 4033SOL     OW12997   2.295   3.220   1.443
 4033SOL    HW112998   2.201   3.234   1.410
 4033SOL    HW212999   2.295   3.219   1.543
 4034SOL     OW13000   6.565   1.766   4.678
 4034SOL    HW113001   6.601   1.798   4.590
 4034SOL    HW213002   6.519   1.841   4.724
 4035SOL     OW13003   6.449   2.053   1.200
 4035SOL    HW113004   6.526   2.075   1.139
 4035SOL    HW213005   6.440   1.954   1.206
 4036SOL     OW13006   4.112   5.514   2.141
 4036SOL    HW113007   4.024   5.467   2.145
 4036SOL    HW213008   4.173   5.476   2.211
 4037SOL     OW13009   2.117   1.626   0.142
 4037SOL    HW113010   2.100   1.543   0.196
 4037SOL    HW213011   2.030   1.671   0.124
 4038SOL     OW13012   4.730   2.840   1.511
 4038SOL    HW113013   4.730   2.929   1.557
 4038SOL    HW213014   4.637   2.819   1.481
 4039SOL     OW13015   5.888   5.070   1.443
 4039SOL    HW113016   5.845   5.100   1.357
 4039SOL    HW213017   5.988   5.073   1.433
 4040SOL     OW13018   3.611   0.319   5.987
 4040SOL    HW113019   3.618   0.411   6.024
 4040SOL    HW213020   3.642   0.319   5.891
 4041SOL     OW13021   0.844   5.288   1.379
 4041SOL    HW113022   0.779   5.363   1.386
 4041SOL    HW213023   0.807   5.207   1.424
 4042SOL     OW13024   6.156   5.656   3.139
 4042SOL    HW113025   6.254   5.643   3.122
 4042SOL    HW213026   6.104   5.625   3.060
 4043SOL     OW13027   6.187   2.341   4.870
 4043SOL    HW113028   6.223   2.383   4.787
 4043SOL    HW213029   6.244   2.368   4.948
 4044SOL     OW13030   4.449   0.107   3.192
 4044SOL    HW113031   4.374   0.164   3.227
 4044SOL    HW213032   4.432   0.086   3.096
 4045SOL     OW13033   4.021   6.003   5.140
 4045SOL    HW113034   3.941   5.950   5.111
 4045SOL    HW213035   3.997   6.099   5.150
 4046SOL     OW13036   1.358   1.780   4.261
 4046SOL    HW113037   1.450   1.756   4.289
 4046SOL    HW213038   1.352   1.879   4.247
 4047SOL     OW13039   1.937   2.327   0.397
 4047SOL    HW113040   1.889   2.376   0.470
 4047SOL    HW213041   2.018   2.281   0.435
 4048SOL     OW13042   4.823   2.253   1.827
 4048SOL    HW113043   4.870   2.283   1.744
 4048SOL    HW213044   4.724   2.262   1.814
 4049SOL     OW13045   5.995   5.146   6.395
 4049SOL    HW113046   5.929   5.186   6.332
 4049SOL    HW213047   5.989   5.046   6.391
 4050SOL     OW13048   1.541   0.210   1.648
 4050SOL    HW113049   1.444   0.212   1.672
 4050SOL    HW213050   1.590   0.151   1.712
 4051SOL     OW13051   4.288   1.925   6.960
 4051SOL    HW113052   4.197   1.963   6.941
 4051SOL    HW213053   4.282   1.864   0.013
 4052SOL     OW13054   6.713   1.216   2.815
 4052SOL    HW113055   6.780   1.257   2.754
 4052SOL    HW213056   6.622   1.254   2.796
 4053SOL     OW13057   3.090   5.598   3.713
 4053SOL    HW113058   3.106   5.695   3.731
 4053SOL    HW213059   3.089   5.548   3.800
 4054SOL     OW13060   6.370   4.017   1.739
 4054SOL    HW113061   6.408   4.010   1.646
 4054SOL    HW213062   6.271   4.007   1.735
 4055SOL     OW13063   3.272   3.176   0.330
 4055SOL    HW113064   3.196   3.239   0.345
 4055SOL    HW213065   3.254   3.089   0.377
 4056SOL     OW13066   3.861   4.152   0.455
 4056SOL    HW113067   3.955   4.153   0.490
 4056SOL    HW213068   3.849   4.226   0.390
 4057SOL     OW13069   6.220   3.030   1.543
 4057SOL    HW113070   6.240   3.128   1.540
 4057SOL    HW213071   6.298   2.979   1.505
 4058SOL     OW13072   1.840   0.304   4.569
 4058SOL    HW113073   1.756   0.328   4.520
 4058SOL    HW213074   1.882   0.388   4.605
 4059SOL     OW13075   1.558   1.975   3.187
 4059SOL    HW113076   1.528   2.000   3.279
 4059SOL    HW213077   1.481   1.985   3.123
 4060SOL     OW13078   5.677   5.597   4.903
 4060SOL    HW113079   5.621   5.519   4.878
 4060SOL    HW213080   5.722   5.579   4.991
 4061SOL     OW13081   2.847   4.795   2.176
 4061SOL    HW113082   2.822   4.715   2.121
 4061SOL    HW213083   2.945   4.813   2.167
 4062SOL     OW13084   1.725   2.202   2.235
 4062SOL    HW113085   1.737   2.288   2.284
 4062SOL    HW213086   1.743   2.125   2.296
 4063SOL     OW13087   6.158   6.467   6.734
 4063SOL    HW113088   6.116   6.527   6.803
 4063SOL    HW213089   6.087   6.415   6.688
 4064SOL     OW13090   2.954   0.273   3.998
 4064SOL    HW113091   2.961   0.236   3.906
 4064SOL    HW213092   2.905   0.360   3.995
 4065SOL     OW13093   0.618   0.212   1.067
 4065SOL    HW113094   0.604   0.263   1.152
 4065SOL    HW213095   0.715   0.191   1.056
 4066SOL     OW13096   5.549   5.243   3.722
 4066SOL    HW113097   5.598   5.308   3.664
 4066SOL    HW213098   5.545   5.279   3.816
 4067SOL     OW13099   6.134   2.990   2.894
 4067SOL    HW113100   6.139   3.019   2.989
 4067SOL    HW213101   6.226   2.979   2.857
 4068SOL     OW13102   2.288   1.439   4.668
 4068SOL    HW113103   2.309   1.502   4.593
 4068SOL    HW213104   2.340   1.355   4.656
 4069SOL     OW13105   2.422   5.175   6.287
 4069SOL    HW113106   2.465   5.175   6.196
 4069SOL    HW213107   2.352   5.103   6.290
 4070SOL     OW13108   0.332   3.794   2.292
 4070SOL    HW113109   0.428   3.819   2.284
 4070SOL    HW213110   0.310   3.779   2.389
 4071SOL     OW13111   1.698   0.719   5.397
 4071SOL    HW113112   1.649   0.651   5.343
 4071SOL    HW213113   1.784   0.679   5.431
 4072SOL     OW13114   0.145   5.489   4.314
 4072SOL    HW113115   0.216   5.558   4.319
 4072SOL    HW213116   0.154   5.438   4.229
 4073SOL     OW13117   2.785   6.346   6.594
 4073SOL    HW113118   2.689   6.331   6.571
 4073SOL    HW213119   2.843   6.299   6.527
 4074SOL     OW13120   0.042   3.516   2.075
 4074SOL    HW113121   0.024   3.432   2.127
 4074SOL    HW213122   0.017   3.502   1.979
 4075SOL     OW13123   3.659   1.941   1.833
 4075SOL    HW113124   3.675   2.035   1.861
 4075SOL    HW213125   3.561   1.923   1.828
 4076SOL     OW13126   2.800   2.879   5.520
 4076SOL    HW113127   2.772   2.811   5.587
 4076SOL    HW213128   2.753   2.965   5.538
 4077SOL     OW13129   2.996   0.793   0.522
 4077SOL    HW113130   3.052   0.755   0.448
 4077SOL    HW213131   2.945   0.872   0.489
 4078SOL     OW13132   0.045   6.107   1.780
 4078SOL    HW113133   0.137   6.101   1.819
 4078SOL    HW213134   0.053   6.115   1.680
 4079SOL     OW13135   1.111   1.844   3.824
 4079SOL    HW113136   1.157   1.932   3.810
 4079SOL    HW213137   1.128   1.812   3.917
 4080SOL     OW13138   3.714   4.333   6.667
 4080SOL    HW113139   3.728   4.253   6.726
 4080SOL    HW213140   3.799   4.355   6.619
 4081SOL     OW13141   1.539   2.879   5.014
 4081SOL    HW113142   1.445   2.870   4.980
 4081SOL    HW213143   1.602   2.883   4.937
 4082SOL     OW13144   1.130   3.155   0.753
 4082SOL    HW113145   1.124   3.135   0.851
 4082SOL    HW213146   1.214   3.116   0.716
 4083SOL     OW13147   0.073   4.872   1.852
 4083SOL    HW113148   0.134   4.936   1.805
 4083SOL    HW213149   7.012   4.865   1.803
 4084SOL     OW13150   4.662   2.191   3.677
 4084SOL    HW113151   4.689   2.246   3.757
 4084SOL    HW213152   4.663   2.249   3.595
 4085SOL     OW13153   1.967   5.995   0.908
 4085SOL    HW113154   1.958   6.093   0.890
 4085SOL    HW213155   1.907   5.944   0.846
 4086SOL     OW13156   0.871   5.266   1.832
 4086SOL    HW113157   0.864   5.224   1.922
 4086SOL    HW213158   0.967   5.279   1.808
 4087SOL     OW13159   2.001   1.425   3.492
 4087SOL    HW113160   1.998   1.399   3.396
 4087SOL    HW213161   2.090   1.465   3.513
 4088SOL     OW13162   6.419   0.893   6.506
 4088SOL    HW113163   6.336   0.944   6.483
 4088SOL    HW213164   6.400   0.829   6.581
 4089SOL     OW13165   5.881   4.998   4.194
 4089SOL    HW113166   5.938   4.922   4.162
 4089SOL    HW213167   5.937   5.081   4.198
 4090SOL     OW13168   1.393   5.695   5.221
 4090SOL    HW113169   1.345   5.766   5.170
 4090SOL    HW213170   1.465   5.737   5.277
 4091SOL     OW13171   6.560   6.670   6.552
 4091SOL    HW113172   6.638   6.680   6.491
 4091SOL    HW213173   6.478   6.703   6.507
 4092SOL     OW13174   5.662   2.348   4.490
 4092SOL    HW113175   5.635   2.436   4.530
 4092SOL    HW213176   5.616   2.274   4.539
 4093SOL     OW13177   4.176   5.748   2.250
 4093SOL    HW113178   4.167   5.671   2.187
 4093SOL    HW213179   4.094   5.755   2.307
 4094SOL     OW13180   1.938   5.625   5.669
 4094SOL    HW113181   1.981   5.537   5.649
 4094SOL    HW213182   1.883   5.653   5.590
 4095SOL     OW13183   1.060   3.492   0.305
 4095SOL    HW113184   1.135   3.466   0.367
 4095SOL    HW213185   0.981   3.434   0.323
 4096SOL     OW13186   4.573   6.900   6.360
 4096SOL    HW113187   4.519   6.922   6.279
 4096SOL    HW213188   4.554   6.967   6.432
 4097SOL     OW13189   4.049   4.878   4.847
 4097SOL    HW113190   4.080   4.845   4.758
 4097SOL    HW213191   3.960   4.923   4.837
 4098SOL     OW13192   7.005   2.577   1.695
 4098SOL    HW113193   6.913   2.580   1.735
 4098SOL    HW213194   6.998   2.548   1.599
 4099SOL     OW13195   3.277   4.997   0.961
 4099SOL    HW113196   3.223   5.025   1.040
 4099SOL    HW213197   3.217   4.956   0.893
 4100SOL     OW13198   6.931   0.106   4.483
 4100SOL    HW113199   6.843   0.070   4.514
 4100SOL    HW213200   6.917   0.196   4.442
 4101SOL     OW13201   6.171   1.011   6.520
 4101SOL    HW113202   6.133   0.991   6.429
 4101SOL    HW213203   6.096   1.030   6.583
 4102SOL     OW13204   0.461   0.852   0.428
 4102SOL    HW113205   0.558   0.837   0.448
 4102SOL    HW213206   0.414   0.764   0.419
 4103SOL     OW13207   6.796   0.216   0.189
 4103SOL    HW113208   6.869   0.148   0.201
 4103SOL    HW213209   6.707   0.171   0.197
 4104SOL     OW13210   6.845   4.731   2.730
 4104SOL    HW113211   6.755   4.776   2.735
 4104SOL    HW213212   6.834   4.638   2.696
 4105SOL     OW13213   5.360   6.952   1.653
 4105SOL    HW113214   5.361   6.996   1.743
 4105SOL    HW213215   5.443   6.896   1.644
 4106SOL     OW13216   6.347   3.257   2.745
 4106SOL    HW113217   6.341   3.278   2.647
 4106SOL    HW213218   6.388   3.334   2.793
 4107SOL     OW13219   0.872   5.131   1.125
 4107SOL    HW113220   0.931   5.059   1.090
 4107SOL    HW213221   0.894   5.150   1.220
 4108SOL     OW13222   6.021   4.720   5.498
 4108SOL    HW113223   6.062   4.729   5.407
 4108SOL    HW213224   6.075   4.771   5.564
 4109SOL     OW13225   6.249   6.635   4.527
 4109SOL    HW113226   6.174   6.655   4.464
 4109SOL    HW213227   6.211   6.605   4.614
 4110SOL     OW13228   4.531   3.588   6.241
 4110SOL    HW113229   4.473   3.585   6.160
 4110SOL    HW213230   4.556   3.495   6.268
 4111SOL     OW13231   5.300   3.936   0.274
 4111SOL    HW113232   5.301   4.034   0.295
 4111SOL    HW213233   5.230   3.917   0.205
 4112SOL     OW13234   4.890   6.203   4.775
 4112SOL    HW113235   4.853   6.230   4.864
 4112SOL    HW213236   4.817   6.164   4.719
 4113SOL     OW13237   5.138   6.183   4.995
 4113SOL    HW113238   5.118   6.109   4.931
 4113SOL    HW213239   5.056   6.238   5.010
 4114SOL     OW13240   3.572   2.116   4.550
 4114SOL    HW113241   3.553   2.183   4.478
 4114SOL    HW213242   3.491   2.058   4.563
 4115SOL     OW13243   3.392   5.457   1.744
 4115SOL    HW113244   3.443   5.376   1.713
 4115SOL    HW213245   3.338   5.492   1.668
 4116SOL     OW13246   3.273   0.976   2.334
 4116SOL    HW113247   3.334   1.004   2.260
 4116SOL    HW213248   3.262   1.052   2.399
 4117SOL     OW13249   1.532   3.895   2.369
 4117SOL    HW113250   1.601   3.950   2.416
 4117SOL    HW213251   1.518   3.809   2.419
 4118SOL     OW13252   4.311   6.043   0.293
 4118SOL    HW113253   4.365   5.975   0.244
 4118SOL    HW213254   4.304   6.016   0.389
 4119SOL     OW13255   3.064   1.890   3.748
 4119SOL    HW113256   3.137   1.955   3.723
 4119SOL    HW213257   3.015   1.863   3.666
 4120SOL     OW13258   3.347   1.153   6.661
 4120SOL    HW113259   3.421   1.195   6.608
 4120SOL    HW213260   3.316   1.217   6.731
 4121SOL     OW13261   5.833   0.890   4.397
 4121SOL    HW113262   5.926   0.865   4.423
 4121SOL    HW213263   5.827   0.990   4.386
 4122SOL     OW13264   1.203   5.578   4.377
 4122SOL    HW113265   1.299   5.595   4.400
 4122SOL    HW213266   1.164   5.660   4.337
 4123SOL     OW13267   4.137   4.609   5.449
 4123SOL    HW113268   4.042   4.582   5.434
 4123SOL    HW213269   4.163   4.591   5.544
 4124SOL     OW13270   0.138   6.246   0.129
 4124SOL    HW113271   0.047   6.267   0.095
 4124SOL    HW213272   0.161   6.308   0.204
 4125SOL     OW13273   4.993   1.574   2.099
 4125SOL    HW113274   4.995   1.606   2.004
 4125SOL    HW213275   5.072   1.611   2.148
 4126SOL     OW13276   1.603   3.572   4.355
 4126SOL    HW113277   1.507   3.600   4.349
 4126SOL    HW213278   1.639   3.556   4.263
 4127SOL     OW13279   5.211   4.876   5.222
 4127SOL    HW113280   5.135   4.814   5.242
 4127SOL    HW213281   5.179   4.970   5.228
 4128SOL     OW13282   1.025   2.742   1.973
 4128SOL    HW113283   1.072   2.817   1.926
 4128SOL    HW213284   0.945   2.713   1.920
 4129SOL     OW13285   4.092   1.363   5.878
 4129SOL    HW113286   4.049   1.442   5.834
 4129SOL    HW213287   4.081   1.370   5.977
 4130SOL     OW13288   6.769   3.456   6.902
 4130SOL    HW113289   6.681   3.460   6.855
 4130SOL    HW213290   6.778   3.536   6.961
 4131SOL     OW13291   0.630   1.129   3.687
 4131SOL    HW113292   0.619   1.125   3.787
 4131SOL    HW213293   0.541   1.143   3.645
 4132SOL     OW13294   5.086   4.346   3.454
 4132SOL    HW113295   5.048   4.329   3.363
 4132SOL    HW213296   5.177   4.304   3.461
 4133SOL     OW13297   2.835   5.626   0.602
 4133SOL    HW113298   2.825   5.533   0.636
 4133SOL    HW213299   2.870   5.624   0.508
 4134SOL     OW13300   2.297   3.431   1.059
 4134SOL    HW113301   2.357   3.482   0.996
 4134SOL    HW213302   2.309   3.333   1.044
 4135SOL     OW13303   1.162   1.560   2.814
 4135SOL    HW113304   1.228   1.633   2.832
 4135SOL    HW213305   1.208   1.471   2.821
 4136SOL     OW13306   1.470   2.831   3.887
 4136SOL    HW113307   1.378   2.868   3.894
 4136SOL    HW213308   1.525   2.888   3.826
 4137SOL     OW13309   1.326   4.384   1.169
 4137SOL    HW113310   1.368   4.316   1.109
 4137SOL    HW213311   1.388   4.461   1.181
 4138SOL     OW13312   4.903   5.457   2.710
 4138SOL    HW113313   4.832   5.504   2.762
 4138SOL    HW213314   4.990   5.503   2.722
 4139SOL     OW13315   2.003   1.871   5.696
 4139SOL    HW113316   2.068   1.853   5.769
 4139SOL    HW213317   2.048   1.922   5.623
 4140SOL     OW13318   3.531   0.195   5.462
 4140SOL    HW113319   3.588   0.195   5.380
 4140SOL    HW213320   3.435   0.203   5.436
 4141SOL     OW13321   5.899   6.343   0.807
 4141SOL    HW113322   5.806   6.377   0.822
 4141SOL    HW213323   5.929   6.370   0.716
 4142SOL     OW13324   6.574   4.978   1.252
 4142SOL    HW113325   6.578   5.077   1.258
 4142SOL    HW213326   6.649   4.938   1.304
 4143SOL     OW13327   5.741   1.658   0.559
 4143SOL    HW113328   5.763   1.631   0.465
 4143SOL    HW213329   5.735   1.577   0.617
 4144SOL     OW13330   4.820   3.201   0.096
 4144SOL    HW113331   4.754   3.275   0.111
 4144SOL    HW213332   4.826   3.144   0.178
 4145SOL     OW13333   0.070   6.451   1.449
 4145SOL    HW113334   0.045   6.528   1.391
 4145SOL    HW213335   0.150   6.475   1.504
 4146SOL     OW13336   6.669   0.443   3.322
 4146SOL    HW113337   6.664   0.539   3.294
 4146SOL    HW213338   6.634   0.385   3.249
 4147SOL     OW13339   5.067   4.037   6.464
 4147SOL    HW113340   4.990   4.070   6.520
 4147SOL    HW213341   5.051   3.941   6.439
 4148SOL     OW13342   1.558   0.504   5.303
 4148SOL    HW113343   1.537   0.551   5.217
 4148SOL    HW213344   1.650   0.465   5.298
 4149SOL     OW13345   0.389   3.303   0.690
 4149SOL    HW113346   0.426   3.388   0.726
 4149SOL    HW213347   0.419   3.226   0.747
 4150SOL     OW13348   1.278   0.792   5.625
 4150SOL    HW113349   1.300   0.795   5.528
 4150SOL    HW213350   1.226   0.709   5.645
 4151SOL     OW13351   2.346   5.970   5.971
 4151SOL    HW113352   2.270   5.909   5.947
 4151SOL    HW213353   2.424   5.950   5.912
 4152SOL     OW13354   4.407   5.804   0.789
 4152SOL    HW113355   4.323   5.780   0.741
 4152SOL    HW213356   4.385   5.835   0.882
 4153SOL     OW13357   4.380   5.576   6.973
 4153SOL    HW113358   4.432   5.661   6.971
 4153SOL    HW213359   4.380   5.535   6.881
 4154SOL     OW13360   6.949   5.412   3.282
 4154SOL    HW113361   6.990   5.491   3.236
 4154SOL    HW213362   7.021   5.361   3.330
 4155SOL     OW13363   1.379   0.972   3.183
 4155SOL    HW113364   1.469   0.951   3.147
 4155SOL    HW213365   1.386   1.045   3.251
 4156SOL     OW13366   5.596   6.095   5.022
 4156SOL    HW113367   5.623   6.008   4.979
 4156SOL    HW213368   5.675   6.155   5.029
 4157SOL     OW13369   4.413   5.252   4.078
 4157SOL    HW113370   4.454   5.258   3.987
 4157SOL    HW213371   4.315   5.270   4.072
 4158SOL     OW13372   0.585   4.068   1.969
 4158SOL    HW113373   0.677   4.042   1.996
 4158SOL    HW213374   0.564   4.029   1.880
 4159SOL     OW13375   1.616   3.708   3.804
 4159SOL    HW113376   1.650   3.614   3.797
 4159SOL    HW213377   1.535   3.718   3.746
 4160SOL     OW13378   6.104   1.077   0.943
 4160SOL    HW113379   6.107   1.171   0.909
 4160SOL    HW213380   6.194   1.052   0.978
 4161SOL     OW13381   1.122   1.257   0.876
 4161SOL    HW113382   1.028   1.242   0.844
 4161SOL    HW213383   1.127   1.238   0.974
 4162SOL     OW13384   6.925   6.057   6.318
 4162SOL    HW113385   6.890   6.139   6.362
 4162SOL    HW213386   7.025   6.055   6.323
 4163SOL     OW13387   4.866   6.960   3.251
 4163SOL    HW113388   4.907   6.926   3.335
 4163SOL    HW213389   4.917   6.924   3.172
 4164SOL     OW13390   1.724   6.899   5.902
 4164SOL    HW113391   1.735   6.843   5.820
 4164SOL    HW213392   1.801   6.884   5.964
 4165SOL     OW13393   4.403   6.932   6.171
 4165SOL    HW113394   4.371   6.838   6.153
 4165SOL    HW213395   4.364   6.994   6.103
 4166SOL     OW13396   6.288   2.772   0.690
 4166SOL    HW113397   6.376   2.726   0.695
 4166SOL    HW213398   6.246   2.754   0.601
 4167SOL     OW13399   1.496   3.839   1.102
 4167SOL    HW113400   1.561   3.914   1.089
 4167SOL    HW213401   1.420   3.850   1.038
 4168SOL     OW13402   6.664   4.599   1.547
 4168SOL    HW113403   6.604   4.679   1.551
 4168SOL    HW213404   6.648   4.540   1.626
 4169SOL     OW13405   6.150   4.223   4.410
 4169SOL    HW113406   6.166   4.288   4.336
 4169SOL    HW213407   6.161   4.269   4.498
 4170SOL     OW13408   4.644   4.429   5.734
 4170SOL    HW113409   4.721   4.375   5.767
 4170SOL    HW213410   4.651   4.440   5.635
 4171SOL     OW13411   6.727   5.664   0.437
 4171SOL    HW113412   6.768   5.649   0.347
 4171SOL    HW213413   6.647   5.605   0.447
 4172SOL     OW13414   0.748   1.668   5.750
 4172SOL    HW113415   0.791   1.748   5.793
 4172SOL    HW213416   0.652   1.664   5.778
 4173SOL     OW13417   5.080   4.168   5.440
 4173SOL    HW113418   5.050   4.263   5.451
 4173SOL    HW213419   5.039   4.111   5.511
 4174SOL     OW13420   5.726   0.649   3.302
 4174SOL    HW113421   5.703   0.738   3.263
 4174SOL    HW213422   5.655   0.583   3.279
 4175SOL     OW13423   2.428   6.222   4.451
 4175SOL    HW113424   2.475   6.256   4.532
 4175SOL    HW213425   2.448   6.281   4.373
 4176SOL     OW13426   3.375   6.062   2.061
 4176SOL    HW113427   3.442   6.050   1.988
 4176SOL    HW213428   3.293   6.007   2.040
 4177SOL     OW13429   6.223   4.252   5.368
 4177SOL    HW113430   6.284   4.328   5.345
 4177SOL    HW213431   6.204   4.199   5.285
 4178SOL     OW13432   5.097   0.748   3.874
 4178SOL    HW113433   5.111   0.724   3.970
 4178SOL    HW213434   5.078   0.666   3.821
 4179SOL     OW13435   4.622   2.638   3.554
 4179SOL    HW113436   4.682   2.647   3.634
 4179SOL    HW213437   4.558   2.715   3.553
 4180SOL     OW13438   5.697   4.495   1.045
 4180SOL    HW113439   5.716   4.586   1.007
 4180SOL    HW213440   5.672   4.432   0.971
 4181SOL     OW13441   2.342   1.335   1.020
 4181SOL    HW113442   2.338   1.301   0.926
 4181SOL    HW213443   2.404   1.413   1.025
 4182SOL     OW13444   0.870   6.791   3.174
 4182SOL    HW113445   0.953   6.777   3.119
 4182SOL    HW213446   0.789   6.781   3.117
 4183SOL     OW13447   4.160   1.266   0.039
 4183SOL    HW113448   4.153   1.350   0.094
 4183SOL    HW213449   4.079   1.210   0.054
 4184SOL     OW13450   5.155   5.044   1.559
 4184SOL    HW113451   5.062   5.069   1.587
 4184SOL    HW213452   5.219   5.115   1.588
 4185SOL     OW13453   0.429   5.546   2.494
 4185SOL    HW113454   0.344   5.549   2.442
 4185SOL    HW213455   0.464   5.639   2.506
 4186SOL     OW13456   2.134   5.132   0.127
 4186SOL    HW113457   2.227   5.124   0.164
 4186SOL    HW213458   2.076   5.062   0.166
 4187SOL     OW13459   3.409   3.299   5.494
 4187SOL    HW113460   3.393   3.370   5.426
 4187SOL    HW213461   3.406   3.339   5.586
 4188SOL     OW13462   4.678   0.164   4.496
 4188SOL    HW113463   4.760   0.119   4.533
 4188SOL    HW213464   4.704   0.221   4.418
 4189SOL     OW13465   3.945   6.267   5.144
 4189SOL    HW113466   3.877   6.291   5.075
 4189SOL    HW213467   3.902   6.269   5.235
 4190SOL     OW13468   0.773   0.750   6.874
 4190SOL    HW113469   0.825   0.683   6.927
 4190SOL    HW213470   0.733   0.705   6.794
 4191SOL     OW13471   5.056   4.042   2.931
 4191SOL    HW113472   5.096   4.131   2.911
 4191SOL    HW213473   4.990   4.052   3.006
 4192SOL     OW13474   0.565   1.308   4.041
 4192SOL    HW113475   0.478   1.337   4.001
 4192SOL    HW213476   0.593   1.221   4.000
 4193SOL     OW13477   1.313   0.595   2.106
 4193SOL    HW113478   1.218   0.609   2.078
 4193SOL    HW213479   1.326   0.501   2.137
 4194SOL     OW13480   5.598   0.809   4.980
 4194SOL    HW113481   5.527   0.857   5.032
 4194SOL    HW213482   5.677   0.869   4.968
 4195SOL     OW13483   4.064   6.296   1.915
 4195SOL    HW113484   4.112   6.383   1.908
 4195SOL    HW213485   4.061   6.267   2.011
 4196SOL     OW13486   5.331   1.970   3.367
 4196SOL    HW113487   5.366   1.991   3.276
 4196SOL    HW213488   5.232   1.979   3.368
 4197SOL     OW13489   4.924   5.828   5.824
 4197SOL    HW113490   4.926   5.802   5.728
 4197SOL    HW213491   4.994   5.896   5.843
 4198SOL     OW13492   5.619   3.347   0.393
 4198SOL    HW113493   5.666   3.332   0.306
 4198SOL    HW213494   5.537   3.290   0.397
 4199SOL     OW13495   2.251   2.855   6.119
 4199SOL    HW113496   2.242   2.898   6.029
 4199SOL    HW213497   2.285   2.762   6.109
 4200SOL     OW13498   3.276   6.605   6.267
 4200SOL    HW113499   3.235   6.684   6.314
 4200SOL    HW213500   3.227   6.589   6.181
 4201SOL     OW13501   6.256   6.278   3.658
 4201SOL    HW113502   6.286   6.206   3.720
 4201SOL    HW213503   6.168   6.254   3.617
 4202SOL     OW13504   4.005   4.944   5.637
 4202SOL    HW113505   4.086   4.890   5.614
 4202SOL    HW213506   4.019   5.039   5.609
 4203SOL     OW13507   5.182   4.814   0.475
 4203SOL    HW113508   5.113   4.847   0.411
 4203SOL    HW213509   5.230   4.891   0.515
 4204SOL     OW13510   4.052   3.259   2.500
 4204SOL    HW113511   4.076   3.343   2.451
 4204SOL    HW213512   4.058   3.275   2.598
 4205SOL     OW13513   4.234   5.627   3.178
 4205SOL    HW113514   4.221   5.670   3.267
 4205SOL    HW213515   4.147   5.586   3.148
 4206SOL     OW13516   0.016   0.420   5.960
 4206SOL    HW113517   6.981   0.463   5.893
 4206SOL    HW213518   0.098   0.476   5.970
 4207SOL     OW13519   1.565   0.752   1.735
 4207SOL    HW113520   1.572   0.759   1.635
 4207SOL    HW213521   1.643   0.797   1.777
 4208SOL     OW13522   0.824   3.762   6.255
 4208SOL    HW113523   0.835   3.674   6.209
 4208SOL    HW213524   0.909   3.784   6.303
 4209SOL     OW13525   0.547   1.099   5.654
 4209SOL    HW113526   0.545   1.017   5.711
 4209SOL    HW213527   0.500   1.081   5.567
 4210SOL     OW13528   2.918   3.240   2.202
 4210SOL    HW113529   2.869   3.311   2.253
 4210SOL    HW213530   2.968   3.183   2.267
 4211SOL     OW13531   4.116   5.471   5.414
 4211SOL    HW113532   4.112   5.554   5.470
 4211SOL    HW213533   4.027   5.453   5.373
 4212SOL     OW13534   5.871   2.320   2.644
 4212SOL    HW113535   5.901   2.415   2.640
 4212SOL    HW213536   5.912   2.275   2.723
 4213SOL     OW13537   2.301   1.034   1.676
 4213SOL    HW113538   2.394   1.071   1.672
 4213SOL    HW213539   2.250   1.081   1.748
 4214SOL     OW13540   1.627   4.845   5.279
 4214SOL    HW113541   1.646   4.794   5.195
 4214SOL    HW213542   1.648   4.788   5.358
 4215SOL     OW13543   0.053   6.556   4.727
 4215SOL    HW113544   0.106   6.489   4.780
 4215SOL    HW213545   0.096   6.569   4.638
 4216SOL     OW13546   1.249   1.770   3.448
 4216SOL    HW113547   1.303   1.686   3.451
 4216SOL    HW213548   1.309   1.847   3.425
 4217SOL     OW13549   0.037   0.534   3.039
 4217SOL    HW113550   0.026   0.435   3.030
 4217SOL    HW213551   0.113   0.554   3.101
 4218SOL     OW13552   4.542   0.906   1.655
 4218SOL    HW113553   4.499   0.870   1.572
 4218SOL    HW213554   4.471   0.926   1.723
 4219SOL     OW13555   2.830   5.387   3.323
 4219SOL    HW113556   2.758   5.452   3.300
 4219SOL    HW213557   2.843   5.324   3.247
 4220SOL     OW13558   5.643   2.576   3.291
 4220SOL    HW113559   5.565   2.631   3.265
 4220SOL    HW213560   5.637   2.554   3.389
 4221SOL     OW13561   6.199   5.212   6.550
 4221SOL    HW113562   6.111   5.196   6.505
 4221SOL    HW213563   6.194   5.179   6.644
 4222SOL     OW13564   6.167   2.165   3.155
 4222SOL    HW113565   6.112   2.088   3.187
 4222SOL    HW213566   6.111   2.248   3.155
 4223SOL     OW13567   3.128   3.529   5.697
 4223SOL    HW113568   3.131   3.618   5.651
 4223SOL    HW213569   3.069   3.537   5.778
 4224SOL     OW13570   4.921   3.199   3.193
 4224SOL    HW113571   5.011   3.164   3.167
 4224SOL    HW213572   4.880   3.247   3.116
 4225SOL     OW13573   3.978   0.552   5.802
 4225SOL    HW113574   3.949   0.583   5.893
 4225SOL    HW213575   3.936   0.609   5.732
 4226SOL     OW13576   0.887   1.071   2.511
 4226SOL    HW113577   0.928   1.158   2.537
 4226SOL    HW213578   0.950   1.022   2.450
 4227SOL     OW13579   3.720   4.938   6.761
 4227SOL    HW113580   3.800   4.883   6.784
 4227SOL    HW213581   3.731   5.030   6.800
 4228SOL     OW13582   0.851   3.451   4.493
 4228SOL    HW113583   0.759   3.485   4.511
 4228SOL    HW213584   0.861   3.358   4.529
 4229SOL     OW13585   4.663   4.960   5.339
 4229SOL    HW113586   4.687   4.963   5.242
 4229SOL    HW213587   4.622   4.872   5.361
 4230SOL     OW13588   1.880   0.610   4.012
 4230SOL    HW113589   1.867   0.704   4.043
 4230SOL    HW213590   1.807   0.586   3.949
 4231SOL     OW13591   5.651   6.555   4.865
 4231SOL    HW113592   5.614   6.644   4.890
 4231SOL    HW213593   5.577   6.487   4.864
 4232SOL     OW13594   0.406   4.548   2.550
 4232SOL    HW113595   0.426   4.626   2.609
 4232SOL    HW213596   0.475   4.477   2.564
 4233SOL     OW13597   0.089   0.339   0.242
 4233SOL    HW113598   0.134   0.376   0.322
 4233SOL    HW213599   0.153   0.335   0.166
 4234SOL     OW13600   1.751   0.052   6.172
 4234SOL    HW113601   1.655   0.071   6.151
 4234SOL    HW213602   1.757   0.002   6.257
 4235SOL     OW13603   5.325   4.208   5.794
 4235SOL    HW113604   5.401   4.235   5.735
 4235SOL    HW213605   5.321   4.270   5.872
 4236SOL     OW13606   0.281   3.470   3.245
 4236SOL    HW113607   0.295   3.406   3.320
 4236SOL    HW213608   0.336   3.441   3.166
 4237SOL     OW13609   6.745   5.383   3.067
 4237SOL    HW113610   6.750   5.286   3.042
 4237SOL    HW213611   6.740   5.392   3.166
 4238SOL     OW13612   3.085   4.885   2.495
 4238SOL    HW113613   3.075   4.984   2.489
 4238SOL    HW213614   3.096   4.858   2.591
 4239SOL     OW13615   5.548   1.721   3.571
 4239SOL    HW113616   5.506   1.743   3.659
 4239SOL    HW213617   5.604   1.798   3.541
 4240SOL     OW13618   2.657   0.133   0.181
 4240SOL    HW113619   2.620   0.090   0.098
 4240SOL    HW213620   2.733   0.078   0.216
 4241SOL     OW13621   6.288   0.659   1.282
 4241SOL    HW113622   6.261   0.626   1.373
 4241SOL    HW213623   6.388   0.661   1.276
 4242SOL     OW13624   2.233   0.600   3.160
 4242SOL    HW113625   2.308   0.537   3.139
 4242SOL    HW213626   2.167   0.555   3.221
 4243SOL     OW13627   6.582   4.024   3.489
 4243SOL    HW113628   6.554   3.928   3.480
 4243SOL    HW213629   6.519   4.082   3.438
 4244SOL     OW13630   5.370   4.889   1.408
 4244SOL    HW113631   5.284   4.911   1.454
 4244SOL    HW213632   5.437   4.859   1.476
 4245SOL     OW13633   6.031   0.934   6.300
 4245SOL    HW113634   5.984   1.019   6.273
 4245SOL    HW213635   6.064   0.887   6.219
 4246SOL     OW13636   5.880   3.137   3.243
 4246SOL    HW113637   5.870   3.089   3.330
 4246SOL    HW213638   5.887   3.235   3.259
 4247SOL     OW13639   2.297   4.969   3.317
 4247SOL    HW113640   2.237   5.022   3.257
 4247SOL    HW213641   2.307   4.877   3.281
 4248SOL     OW13642   1.704   1.291   3.917
 4248SOL    HW113643   1.751   1.311   3.830
 4248SOL    HW213644   1.627   1.230   3.900
 4249SOL     OW13645   5.081   1.268   4.055
 4249SOL    HW113646   5.016   1.342   4.040
 4249SOL    HW213647   5.048   1.185   4.010
 4250SOL     OW13648   6.202   6.247   4.433
 4250SOL    HW113649   6.293   6.288   4.441
 4250SOL    HW213650   6.133   6.309   4.470
 4251SOL     OW13651   5.867   3.271   0.866
 4251SOL    HW113652   5.876   3.173   0.884
 4251SOL    HW213653   5.924   3.322   0.930
 4252SOL     OW13654   5.656   6.064   6.368
 4252SOL    HW113655   5.621   6.149   6.328
 4252SOL    HW213656   5.687   6.003   6.295
 4253SOL     OW13657   3.342   6.633   1.273
 4253SOL    HW113658   3.329   6.710   1.210
 4253SOL    HW213659   3.254   6.605   1.310
 4254SOL     OW13660   1.792   3.623   2.194
 4254SOL    HW113661   1.777   3.638   2.291
 4254SOL    HW213662   1.745   3.539   2.166
 4255SOL     OW13663   6.693   4.112   3.745
 4255SOL    HW113664   6.654   4.081   3.658
 4255SOL    HW213665   6.674   4.209   3.757
 4256SOL     OW13666   1.154   6.045   1.230
 4256SOL    HW113667   1.072   5.988   1.220
 4256SOL    HW213668   1.137   6.115   1.300
 4257SOL     OW13669   3.586   1.267   4.817
 4257SOL    HW113670   3.573   1.364   4.834
 4257SOL    HW213671   3.602   1.252   4.720
 4258SOL     OW13672   3.377   6.082   0.499
 4258SOL    HW113673   3.306   6.041   0.555
 4258SOL    HW213674   3.361   6.060   0.402
 4259SOL     OW13675   1.367   7.004   0.941
 4259SOL    HW113676   1.440   6.963   0.995
 4259SOL    HW213677   1.403   0.057   0.890
 4260SOL     OW13678   5.839   0.303   3.289
 4260SOL    HW113679   5.801   0.367   3.223
 4260SOL    HW213680   5.913   0.250   3.247
 4261SOL     OW13681   2.262   0.606   2.784
 4261SOL    HW113682   2.244   0.700   2.811
 4261SOL    HW213683   2.181   0.568   2.739
 4262SOL     OW13684   0.596   3.880   6.200
 4262SOL    HW113685   0.681   3.836   6.228
 4262SOL    HW213686   0.526   3.811   6.186
 4263SOL     OW13687   2.667   0.449   3.160
 4263SOL    HW113688   2.717   0.536   3.161
 4263SOL    HW213689   2.728   0.375   3.187
 4264SOL     OW13690   0.061   2.378   4.834
 4264SOL    HW113691   0.043   2.407   4.740
 4264SOL    HW213692   0.071   2.278   4.836
 4265SOL     OW13693   3.907   1.254   0.717
 4265SOL    HW113694   3.880   1.317   0.790
 4265SOL    HW213695   3.868   1.285   0.630
 4266SOL     OW13696   1.931   6.619   6.198
 4266SOL    HW113697   1.902   6.633   6.103
 4266SOL    HW213698   1.988   6.538   6.204
 4267SOL     OW13699   2.191   3.849   4.505
 4267SOL    HW113700   2.240   3.859   4.592
 4267SOL    HW213701   2.183   3.752   4.482
 4268SOL     OW13702   1.171   5.714   6.482
 4268SOL    HW113703   1.210   5.806   6.486
 4268SOL    HW213704   1.165   5.675   6.574
 4269SOL     OW13705   2.892   0.020   2.738
 4269SOL    HW113706   2.936   6.956   2.729
 4269SOL    HW213707   2.931   0.082   2.670
 4270SOL     OW13708   4.133   3.467   2.336
 4270SOL    HW113709   4.216   3.412   2.329
 4270SOL    HW213710   4.075   3.452   2.256
 4271SOL     OW13711   0.043   0.386   0.536
 4271SOL    HW113712   0.010   0.442   0.611
 4271SOL    HW213713   6.993   0.359   0.477
 4272SOL     OW13714   6.663   2.575   4.507
 4272SOL    HW113715   6.732   2.564   4.579
 4272SOL    HW213716   6.657   2.491   4.453
 4273SOL     OW13717   4.580   6.498   4.511
 4273SOL    HW113718   4.576   6.426   4.441
 4273SOL    HW213719   4.559   6.459   4.600
 4274SOL     OW13720   1.694   6.881   1.709
 4274SOL    HW113721   1.611   6.878   1.765
 4274SOL    HW213722   1.732   6.789   1.701
 4275SOL     OW13723   6.594   2.252   3.958
 4275SOL    HW113724   6.515   2.314   3.961
 4275SOL    HW213725   6.586   2.185   4.032
 4276SOL     OW13726   2.751   5.315   3.826
 4276SOL    HW113727   2.780   5.221   3.848
 4276SOL    HW213728   2.813   5.353   3.758
 4277SOL     OW13729   6.407   4.742   2.977
 4277SOL    HW113730   6.373   4.793   3.056
 4277SOL    HW213731   6.452   4.804   2.913
 4278SOL     OW13732   0.325   6.926   5.003
 4278SOL    HW113733   0.372   6.873   5.073
 4278SOL    HW213734   0.313   7.020   5.034
 4279SOL     OW13735   2.738   1.367   3.418
 4279SOL    HW113736   2.835   1.389   3.406
 4279SOL    HW213737   2.711   1.295   3.354
 4280SOL     OW13738   5.838   6.967   5.648
 4280SOL    HW113739   5.841   0.023   5.591
 4280SOL    HW213740   5.754   6.966   5.700
 4281SOL     OW13741   6.071   5.032   3.213
 4281SOL    HW113742   6.054   4.989   3.302
 4281SOL    HW213743   6.162   5.007   3.180
 4282SOL     OW13744   3.186   4.329   0.190
 4282SOL    HW113745   3.138   4.384   0.258
 4282SOL    HW213746   3.125   4.257   0.155
 4283SOL     OW13747   2.472   0.738   3.260
 4283SOL    HW113748   2.450   0.733   3.357
 4283SOL    HW213749   2.403   0.687   3.207
 4284SOL     OW13750   3.256   4.111   1.230
 4284SOL    HW113751   3.305   4.027   1.205
 4284SOL    HW213752   3.238   4.111   1.328
 4285SOL     OW13753   2.622   0.713   5.768
 4285SOL    HW113754   2.653   0.694   5.675
 4285SOL    HW213755   2.653   0.640   5.829
 4286SOL     OW13756   5.709   6.871   5.932
 4286SOL    HW113757   5.674   6.790   5.979
 4286SOL    HW213758   5.763   6.926   5.995
 4287SOL     OW13759   4.976   0.566   6.281
 4287SOL    HW113760   5.045   0.568   6.352
 4287SOL    HW213761   4.888   0.593   6.319
 4288SOL     OW13762   0.748   5.448   3.643
 4288SOL    HW113763   0.804   5.461   3.725
 4288SOL    HW213764   0.715   5.537   3.611
 4289SOL     OW13765   0.292   2.487   5.494
 4289SOL    HW113766   0.291   2.394   5.532
 4289SOL    HW213767   0.304   2.483   5.395
 4290SOL     OW13768   1.097   6.171   4.360
 4290SOL    HW113769   1.104   6.076   4.329
 4290SOL    HW213770   1.179   6.221   4.332
 4291SOL     OW13771   4.761   3.615   0.040
 4291SOL    HW113772   4.719   3.539   0.090
 4291SOL    HW213773   4.721   3.620   6.975
 4292SOL     OW13774   6.734   3.183   0.021
 4292SOL    HW113775   6.741   3.227   0.111
 4292SOL    HW213776   6.756   3.249   6.976
 4293SOL     OW13777   3.115   3.799   0.168
 4293SOL    HW113778   3.161   3.765   0.086
 4293SOL    HW213779   3.016   3.801   0.153
 4294SOL     OW13780   1.992   1.710   6.781
 4294SOL    HW113781   2.006   1.624   6.830
 4294SOL    HW213782   1.949   1.692   6.692
 4295SOL     OW13783   4.914   5.590   4.391
 4295SOL    HW113784   4.974   5.649   4.444
 4295SOL    HW213785   4.927   5.495   4.420
 4296SOL     OW13786   3.243   0.032   0.127
 4296SOL    HW113787   3.308   0.028   0.203
 4296SOL    HW213788   3.211   0.125   0.115
 4297SOL     OW13789   5.855   0.458   1.904
 4297SOL    HW113790   5.830   0.523   1.976
 4297SOL    HW213791   5.789   0.383   1.903
 4298SOL     OW13792   3.645   5.779   1.190
 4298SOL    HW113793   3.635   5.686   1.224
 4298SOL    HW213794   3.554   5.817   1.171
 4299SOL     OW13795   1.899   2.407   6.962
 4299SOL    HW113796   1.882   2.374   0.029
 4299SOL    HW213797   1.894   2.507   6.961
 4300SOL     OW13798   2.519   0.019   0.596
 4300SOL    HW113799   2.533   0.116   0.579
 4300SOL    HW213800   2.441   0.006   0.658
 4301SOL     OW13801   5.055   0.139   1.313
 4301SOL    HW113802   5.010   0.073   1.373
 4301SOL    HW213803   5.139   0.099   1.276
 4302SOL     OW13804   6.952   0.046   6.270
 4302SOL    HW113805   6.887   0.039   6.345
 4302SOL    HW213806   6.912   0.102   6.197
 4303SOL     OW13807   0.046   4.450   4.124
 4303SOL    HW113808   0.037   4.547   4.101
 4303SOL    HW213809   6.983   4.415   4.154
 4304SOL     OW13810   3.059   3.066   2.335
 4304SOL    HW113811   3.142   3.017   2.311
 4304SOL    HW213812   3.012   3.019   2.409
 4305SOL     OW13813   1.123   0.113   5.596
 4305SOL    HW113814   1.048   0.176   5.617
 4305SOL    HW213815   1.210   0.160   5.609
 4306SOL     OW13816   4.625   5.251   4.269
 4306SOL    HW113817   4.560   5.294   4.206
 4306SOL    HW213818   4.604   5.154   4.278
 4307SOL     OW13819   6.251   4.104   5.023
 4307SOL    HW113820   6.343   4.117   4.986
 4307SOL    HW213821   6.256   4.048   5.106
 4308SOL     OW13822   6.209   5.743   1.500
 4308SOL    HW113823   6.214   5.646   1.473
 4308SOL    HW213824   6.300   5.773   1.528
 4309SOL     OW13825   1.169   1.142   1.261
 4309SOL    HW113826   1.114   1.136   1.345
 4309SOL    HW213827   1.111   1.127   1.181
 4310SOL     OW13828   1.147   2.414   1.625
 4310SOL    HW113829   1.119   2.365   1.708
 4310SOL    HW213830   1.211   2.357   1.573
 4311SOL     OW13831   0.550   6.146   2.536
 4311SOL    HW113832   0.584   6.234   2.568
 4311SOL    HW213833   0.479   6.113   2.598
 4312SOL     OW13834   1.420   5.772   2.338
 4312SOL    HW113835   1.511   5.803   2.311
 4312SOL    HW213836   1.375   5.845   2.391
 4313SOL     OW13837   4.967   2.189   0.890
 4313SOL    HW113838   5.042   2.130   0.861
 4313SOL    HW213839   4.885   2.169   0.837
 4314SOL     OW13840   5.469   1.753   4.922
 4314SOL    HW113841   5.528   1.714   4.851
 4314SOL    HW213842   5.488   1.708   5.010
 4315SOL     OW13843   2.651   0.858   3.881
 4315SOL    HW113844   2.558   0.831   3.906
 4315SOL    HW213845   2.697   0.781   3.836
 4316SOL     OW13846   5.063   0.592   1.744
 4316SOL    HW113847   5.144   0.645   1.768
 4316SOL    HW213848   5.005   0.644   1.682
 4317SOL     OW13849   5.588   2.377   5.314
 4317SOL    HW113850   5.674   2.338   5.281
 4317SOL    HW213851   5.513   2.346   5.256
 4318SOL     OW13852   1.076   1.783   4.874
 4318SOL    HW113853   1.020   1.755   4.796
 4318SOL    HW213854   1.047   1.732   4.955
 4319SOL     OW13855   1.946   1.909   0.935
 4319SOL    HW113856   1.969   1.987   0.993
 4319SOL    HW213857   2.020   1.892   0.870
 4320SOL     OW13858   3.643   5.241   0.845
 4320SOL    HW113859   3.709   5.269   0.914
 4320SOL    HW213860   3.621   5.144   0.856
 4321SOL     OW13861   0.283   4.707   4.796
 4321SOL    HW113862   0.287   4.657   4.883
 4321SOL    HW213863   0.268   4.642   4.721
 4322SOL     OW13864   6.499   3.051   0.027
 4322SOL    HW113865   6.584   3.096   0.054
 4322SOL    HW213866   6.494   3.044   6.954
 4323SOL     OW13867   4.479   4.276   0.732
 4323SOL    HW113868   4.407   4.325   0.682
 4323SOL    HW213869   4.438   4.199   0.781
 4324SOL     OW13870   5.535   4.764   5.658
 4324SOL    HW113871   5.537   4.832   5.731
 4324SOL    HW213872   5.473   4.795   5.585
 4325SOL     OW13873   2.892   1.308   1.885
 4325SOL    HW113874   2.958   1.335   1.815
 4325SOL    HW213875   2.799   1.331   1.855
 4326SOL     OW13876   4.694   4.641   2.027
 4326SOL    HW113877   4.624   4.713   2.024
 4326SOL    HW213878   4.765   4.661   1.959
 4327SOL     OW13879   5.509   5.610   1.551
 4327SOL    HW113880   5.512   5.527   1.496
 4327SOL    HW213881   5.468   5.591   1.640
 4328SOL     OW13882   5.155   4.637   5.682
 4328SOL    HW113883   5.208   4.638   5.597
 4328SOL    HW213884   5.103   4.552   5.688
 4329SOL     OW13885   4.513   2.826   6.179
 4329SOL    HW113886   4.425   2.863   6.150
 4329SOL    HW213887   4.516   2.728   6.161
 4330SOL     OW13888   1.991   6.332   4.672
 4330SOL    HW113889   1.988   6.236   4.643
 4330SOL    HW213890   2.078   6.350   4.717
 4331SOL     OW13891   5.808   1.021   2.302
 4331SOL    HW113892   5.897   1.020   2.257
 4331SOL    HW213893   5.741   0.973   2.245
 4332SOL     OW13894   5.108   3.009   2.486
 4332SOL    HW113895   5.025   3.065   2.484
 4332SOL    HW213896   5.148   3.012   2.577
 4333SOL     OW13897   4.615   1.745   5.470
 4333SOL    HW113898   4.711   1.727   5.450
 4333SOL    HW213899   4.607   1.827   5.526
 4334SOL     OW13900   2.374   2.708   2.584
 4334SOL    HW113901   2.341   2.802   2.575
 4334SOL    HW213902   2.334   2.666   2.665
 4335SOL     OW13903   3.554   3.300   1.822
 4335SOL    HW113904   3.591   3.243   1.896
 4335SOL    HW213905   3.456   3.312   1.835
 4336SOL     OW13906   2.611   6.632   6.024
 4336SOL    HW113907   2.697   6.671   6.058
 4336SOL    HW213908   2.558   6.703   5.978
 4337SOL     OW13909   1.704   4.389   1.269
 4337SOL    HW113910   1.784   4.445   1.248
 4337SOL    HW213911   1.725   4.293   1.250
 4338SOL     OW13912   6.219   6.831   5.836
 4338SOL    HW113913   6.205   6.822   5.738
 4338SOL    HW213914   6.249   6.743   5.874
 4339SOL     OW13915   4.247   2.887   6.485
 4339SOL    HW113916   4.340   2.922   6.497
 4339SOL    HW213917   4.187   2.961   6.455
 4340SOL     OW13918   6.491   3.718   1.605
 4340SOL    HW113919   6.401   3.686   1.576
 4340SOL    HW213920   6.483   3.813   1.638
 4341SOL     OW13921   1.121   5.263   1.763
 4341SOL    HW113922   1.178   5.295   1.840
 4341SOL    HW213923   1.178   5.212   1.699
 4342SOL     OW13924   5.334   4.106   2.864
 4342SOL    HW113925   5.258   4.080   2.805
 4342SOL    HW213926   5.356   4.030   2.925
 4343SOL     OW13927   2.932   6.094   4.878
 4343SOL    HW113928   2.987   6.150   4.940
 4343SOL    HW213929   2.973   6.004   4.869
 4344SOL     OW13930   0.945   3.783   2.896
 4344SOL    HW113931   0.970   3.862   2.841
 4344SOL    HW213932   0.868   3.807   2.956
 4345SOL     OW13933   4.112   3.740   4.330
 4345SOL    HW113934   4.049   3.817   4.343
 4345SOL    HW213935   4.191   3.770   4.276
 4346SOL     OW13936   2.112   3.394   2.867
 4346SOL    HW113937   2.091   3.465   2.800
 4346SOL    HW213938   2.127   3.307   2.821
 4347SOL     OW13939   5.378   7.015   2.939
 4347SOL    HW113940   5.443   0.064   2.923
 4347SOL    HW213941   5.383   6.986   3.035
 4348SOL     OW13942   0.123   5.397   4.048
 4348SOL    HW113943   0.028   5.366   4.053
 4348SOL    HW213944   0.153   5.395   3.952
 4349SOL     OW13945   6.346   2.362   3.047
 4349SOL    HW113946   6.302   2.276   3.071
 4349SOL    HW213947   6.279   2.436   3.052
 4350SOL     OW13948   3.840   1.760   4.053
 4350SOL    HW113949   3.807   1.750   4.147
 4350SOL    HW213950   3.896   1.842   4.046
 4351SOL     OW13951   1.075   6.179   1.452
 4351SOL    HW113952   1.115   6.201   1.540
 4351SOL    HW213953   1.087   6.256   1.389
 4352SOL     OW13954   6.129   4.129   2.458
 4352SOL    HW113955   6.043   4.126   2.510
 4352SOL    HW213956   6.191   4.059   2.491
 4353SOL     OW13957   3.348   2.872   6.488
 4353SOL    HW113958   3.300   2.934   6.551
 4353SOL    HW213959   3.446   2.891   6.492
 4354SOL     OW13960   2.166   1.089   6.529
 4354SOL    HW113961   2.090   1.070   6.468
 4354SOL    HW213962   2.210   1.175   6.502
 4355SOL     OW13963   2.359   6.971   2.525
 4355SOL    HW113964   2.348   7.000   2.430
 4355SOL    HW213965   2.449   7.000   2.559
 4356SOL     OW13966   5.018   3.455   6.513
 4356SOL    HW113967   4.989   3.368   6.474
 4356SOL    HW213968   5.098   3.489   6.464
 4357SOL     OW13969   0.000   0.990   1.635
 4357SOL    HW113970   6.973   1.067   1.670
 4357SOL    HW213971   7.014   0.910   1.695
 4358SOL     OW13972   6.516   0.956   1.078
 4358SOL    HW113973   6.424   0.950   1.115
 4358SOL    HW213974   6.548   0.866   1.050
 4359SOL     OW13975   1.356   1.240   6.835
 4359SOL    HW113976   1.401   1.217   6.922
 4359SOL    HW213977   1.401   1.318   6.794
 4360SOL     OW13978   0.796   3.478   3.791
 4360SOL    HW113979   0.799   3.405   3.723
 4360SOL    HW213980   0.775   3.439   3.881
 4361SOL     OW13981   2.272   3.930   1.609
 4361SOL    HW113982   2.285   3.833   1.631
 4361SOL    HW213983   2.245   3.979   1.692
 4362SOL     OW13984   6.787   5.599   3.543
 4362SOL    HW113985   6.838   5.514   3.535
 4362SOL    HW213986   6.801   5.639   3.633
 4363SOL     OW13987   4.368   2.236   0.705
 4363SOL    HW113988   4.371   2.154   0.648
 4363SOL    HW213989   4.402   2.215   0.797
 4364SOL     OW13990   3.229   4.067   3.522
 4364SOL    HW113991   3.231   4.116   3.434
 4364SOL    HW213992   3.232   3.969   3.506
 4365SOL     OW13993   2.657   0.611   2.125
 4365SOL    HW113994   2.689   0.682   2.187
 4365SOL    HW213995   2.698   0.524   2.149
 4366SOL     OW13996   6.071   0.094   6.299
 4366SOL    HW113997   6.052   0.010   6.349
 4366SOL    HW213998   6.127   0.073   6.219
 4367SOL     OW13999   2.705   4.811   4.224
 4367SOL    HW114000   2.654   4.748   4.283
 4367SOL    HW214001   2.790   4.768   4.196
 4368SOL     OW14002   3.713   5.523   1.535
 4368SOL    HW114003   3.647   5.580   1.583
 4368SOL    HW214004   3.803   5.567   1.536
 4369SOL     OW14005   4.770   4.753   2.907
 4369SOL    HW114006   4.847   4.797   2.861
 4369SOL    HW214007   4.684   4.795   2.877
 4370SOL     OW14008   3.666   4.582   1.448
 4370SOL    HW114009   3.687   4.610   1.354
 4370SOL    HW214010   3.636   4.662   1.501
 4371SOL     OW14011   1.773   1.974   2.381
 4371SOL    HW114012   1.740   1.970   2.475
 4371SOL    HW214013   1.768   1.883   2.340
 4372SOL     OW14014   2.514   2.329   4.522
 4372SOL    HW114015   2.525   2.422   4.488
 4372SOL    HW214016   2.491   2.268   4.446
 4373SOL     OW14017   4.211   1.095   0.566
 4373SOL    HW114018   4.274   1.032   0.612
 4373SOL    HW214019   4.133   1.043   0.530
 4374SOL     OW14020   0.763   1.504   1.338
 4374SOL    HW114021   0.842   1.564   1.350
 4374SOL    HW214022   0.779   1.417   1.385
 4375SOL     OW14023   4.319   6.010   2.977
 4375SOL    HW114024   4.317   5.983   3.073
 4375SOL    HW214025   4.349   6.106   2.969
 4376SOL     OW14026   6.162   0.140   2.863
 4376SOL    HW114027   6.202   0.141   2.955
 4376SOL    HW214028   6.174   0.049   2.823
 4377SOL     OW14029   5.759   5.736   6.996
 4377SOL    HW114030   5.786   5.794   0.047
 4377SOL    HW214031   5.687   5.674   7.025
 4378SOL     OW14032   1.650   3.113   2.763
 4378SOL    HW114033   1.706   3.111   2.845
 4378SOL    HW214034   1.707   3.095   2.683
 4379SOL     OW14035   2.560   1.655   2.165
 4379SOL    HW114036   2.615   1.584   2.121
 4379SOL    HW214037   2.610   1.742   2.165
 4380SOL     OW14038   1.624   6.378   3.842
 4380SOL    HW114039   1.700   6.334   3.794
 4380SOL    HW214040   1.637   6.370   3.941
 4381SOL     OW14041   2.235   4.270   5.162
 4381SOL    HW114042   2.282   4.207   5.100
 4381SOL    HW214043   2.299   4.341   5.192
 4382SOL     OW14044   6.013   3.430   5.966
 4382SOL    HW114045   5.928   3.378   5.954
 4382SOL    HW214046   6.032   3.482   5.883
 4383SOL     OW14047   0.924   2.787   5.721
 4383SOL    HW114048   0.998   2.854   5.710
 4383SOL    HW214049   0.837   2.830   5.698
 4384SOL     OW14050   5.393   1.452   6.605
 4384SOL    HW114051   5.297   1.453   6.632
 4384SOL    HW214052   5.431   1.544   6.612
 4385SOL     OW14053   6.439   3.354   5.072
 4385SOL    HW114054   6.363   3.299   5.039
 4385SOL    HW214055   6.413   3.450   5.073
 4386SOL     OW14056   1.731   3.981   6.567
 4386SOL    HW114057   1.731   3.998   6.665
 4386SOL    HW214058   1.800   4.039   6.523
 4387SOL     OW14059   0.012   0.974   2.058
 4387SOL    HW114060   0.059   1.026   2.131
 4387SOL    HW214061   0.080   0.923   2.005
 4388SOL     OW14062   5.013   0.894   6.451
 4388SOL    HW114063   4.920   0.871   6.478
 4388SOL    HW214064   5.037   0.984   6.488
 4389SOL     OW14065   6.099   2.603   0.915
 4389SOL    HW114066   6.159   2.523   0.907
 4389SOL    HW214067   6.143   2.681   0.872
 4390SOL     OW14068   3.853   1.345   2.070
 4390SOL    HW114069   3.830   1.319   1.977
 4390SOL    HW214070   3.930   1.290   2.102
 4391SOL     OW14071   1.486   5.583   6.053
 4391SOL    HW114072   1.463   5.626   6.140
 4391SOL    HW214073   1.545   5.504   6.069
 4392SOL     OW14074   6.572   3.537   5.889
 4392SOL    HW114075   6.667   3.512   5.867
 4392SOL    HW214076   6.524   3.562   5.804
 4393SOL     OW14077   5.524   0.026   2.629
 4393SOL    HW114078   5.595   0.015   2.560
 4393SOL    HW214079   5.455   6.980   2.618
 4394SOL     OW14080   5.618   5.683   2.855
 4394SOL    HW114081   5.651   5.619   2.785
 4394SOL    HW214082   5.678   5.680   2.935
 4395SOL     OW14083   4.032   0.517   1.628
 4395SOL    HW114084   3.960   0.562   1.576
 4395SOL    HW214085   3.991   0.451   1.691
 4396SOL     OW14086   2.601   2.526   4.079
 4396SOL    HW114087   2.650   2.442   4.104
 4396SOL    HW214088   2.559   2.513   3.989
 4397SOL     OW14089   0.226   1.424   4.664
 4397SOL    HW114090   0.293   1.408   4.736
 4397SOL    HW214091   0.165   1.345   4.656
 4398SOL     OW14092   0.726   4.649   4.840
 4398SOL    HW114093   0.652   4.658   4.906
 4398SOL    HW214094   0.688   4.640   4.748
 4399SOL     OW14095   1.705   1.126   1.865
 4399SOL    HW114096   1.698   1.042   1.919
 4399SOL    HW214097   1.699   1.103   1.768
 4400SOL     OW14098   2.906   7.024   5.002
 4400SOL    HW114099   2.946   0.048   5.079
 4400SOL    HW214100   2.967   6.951   4.973
 4401SOL     OW14101   4.957   0.129   6.694
 4401SOL    HW114102   4.955   0.096   6.599
 4401SOL    HW214103   4.872   0.179   6.714
 4402SOL     OW14104   2.369   6.459   1.361
 4402SOL    HW114105   2.359   6.411   1.274
 4402SOL    HW214106   2.390   6.556   1.344
 4403SOL     OW14107   0.798   6.674   3.632
 4403SOL    HW114108   0.799   6.771   3.656
 4403SOL    HW214109   0.856   6.659   3.551
 4404SOL     OW14110   0.339   4.373   5.796
 4404SOL    HW114111   0.265   4.309   5.774
 4404SOL    HW214112   0.423   4.322   5.811
 4405SOL     OW14113   2.404   4.595   1.076
 4405SOL    HW114114   2.375   4.599   0.981
 4405SOL    HW214115   2.359   4.518   1.122
 4406SOL     OW14116   6.803   4.074   0.461
 4406SOL    HW114117   6.841   4.037   0.376
 4406SOL    HW214118   6.715   4.117   0.442
 4407SOL     OW14119   0.123   4.343   0.638
 4407SOL    HW114120   0.160   4.251   0.652
 4407SOL    HW214121   0.129   4.394   0.724
 4408SOL     OW14122   3.674   0.950   1.354
 4408SOL    HW114123   3.706   0.991   1.269
 4408SOL    HW214124   3.651   0.854   1.337
 4409SOL     OW14125   4.471   6.725   1.579
 4409SOL    HW114126   4.430   6.753   1.667
 4409SOL    HW214127   4.476   6.626   1.576
 4410SOL     OW14128   1.403   5.554   0.274
 4410SOL    HW114129   1.499   5.565   0.299
 4410SOL    HW214130   1.389   5.461   0.239
 4411SOL     OW14131   3.181   3.148   3.479
 4411SOL    HW114132   3.152   3.084   3.408
 4411SOL    HW214133   3.264   3.114   3.523
 4412SOL     OW14134   3.662   0.357   4.435
 4412SOL    HW114135   3.670   0.440   4.380
 4412SOL    HW214136   3.663   0.277   4.374
 4413SOL     OW14137   5.602   5.859   4.910
 4413SOL    HW114138   5.508   5.877   4.939
 4413SOL    HW214139   5.611   5.764   4.881
 4414SOL     OW14140   3.871   4.922   1.594
 4414SOL    HW114141   3.900   4.832   1.561
 4414SOL    HW214142   3.880   4.989   1.520
 4415SOL     OW14143   3.863   3.506   6.437
 4415SOL    HW114144   3.803   3.505   6.516
 4415SOL    HW214145   3.956   3.531   6.466
 4416SOL     OW14146   2.724   0.173   4.398
 4416SOL    HW114147   2.740   0.081   4.362
 4416SOL    HW214148   2.627   0.186   4.417
 4417SOL     OW14149   6.035   4.187   3.415
 4417SOL    HW114150   6.044   4.182   3.316
 4417SOL    HW214151   6.040   4.282   3.445
 4418SOL     OW14152   5.563   1.228   2.717
 4418SOL    HW114153   5.657   1.196   2.699
 4418SOL    HW214154   5.499   1.178   2.658
 4419SOL     OW14155   5.493   5.712   0.566
 4419SOL    HW114156   5.404   5.667   0.564
 4419SOL    HW214157   5.516   5.735   0.661
 4420SOL     OW14158   4.974   1.482   1.480
 4420SOL    HW114159   5.046   1.550   1.463
 4420SOL    HW214160   4.993   1.400   1.427
 4421SOL     OW14161   1.906   1.328   4.350
 4421SOL    HW114162   1.849   1.320   4.268
 4421SOL    HW214163   1.850   1.361   4.426
 4422SOL     OW14164   3.031   4.188   5.922
 4422SOL    HW114165   3.054   4.091   5.912
 4422SOL    HW214166   2.983   4.202   6.009
 4423SOL     OW14167   1.139   2.521   5.552
 4423SOL    HW114168   1.041   2.502   5.553
 4423SOL    HW214169   1.155   2.612   5.514
 4424SOL     OW14170   5.305   0.397   4.431
 4424SOL    HW114171   5.393   0.443   4.445
 4424SOL    HW214172   5.318   0.319   4.370
 4425SOL     OW14173   3.275   5.731   6.624
 4425SOL    HW114174   3.240   5.662   6.687
 4425SOL    HW214175   3.199   5.788   6.593
 4426SOL     OW14176   0.318   1.707   4.998
 4426SOL    HW114177   0.390   1.736   5.061
 4426SOL    HW214178   0.276   1.623   5.033
 4427SOL     OW14179   0.073   6.008   2.338
 4427SOL    HW114180   0.147   5.957   2.382
 4427SOL    HW214181   0.044   5.960   2.256
 4428SOL     OW14182   3.208   5.712   1.773
 4428SOL    HW114183   3.293   5.688   1.819
 4428SOL    HW214184   3.213   5.806   1.739
 4429SOL     OW14185   3.027   0.484   3.065
 4429SOL    HW114186   3.002   0.474   2.969
 4429SOL    HW214187   2.991   0.570   3.101
 4430SOL     OW14188   4.990   3.428   5.109
 4430SOL    HW114189   5.082   3.463   5.128
 4430SOL    HW214190   4.928   3.505   5.096
 4431SOL     OW14191   2.037   0.892   1.973
 4431SOL    HW114192   2.051   0.850   2.063
 4431SOL    HW214193   2.104   0.964   1.959
 4432SOL     OW14194   3.996   3.743   4.031
 4432SOL    HW114195   3.948   3.784   3.953
 4432SOL    HW214196   3.959   3.780   4.116
 4433SOL     OW14197   5.657   0.579   4.851
 4433SOL    HW114198   5.721   0.604   4.779
 4433SOL    HW214199   5.625   0.662   4.897
 4434SOL     OW14200   3.928   1.996   3.542
 4434SOL    HW114201   3.997   1.946   3.490
 4434SOL    HW214202   3.930   1.966   3.637
 4435SOL     OW14203   4.144   3.895   1.248
 4435SOL    HW114204   4.158   3.797   1.232
 4435SOL    HW214205   4.221   3.946   1.212
 4436SOL     OW14206   3.688   1.756   0.936
 4436SOL    HW114207   3.634   1.673   0.949
 4436SOL    HW214208   3.652   1.828   0.994
 4437SOL     OW14209   5.807   1.597   3.997
 4437SOL    HW114210   5.740   1.657   3.955
 4437SOL    HW214211   5.896   1.643   3.999
 4438SOL     OW14212   4.943   0.669   0.605
 4438SOL    HW114213   4.963   0.757   0.649
 4438SOL    HW214214   4.976   0.671   0.511
 4439SOL     OW14215   0.506   5.844   1.231
 4439SOL    HW114216   0.495   5.746   1.241
 4439SOL    HW214217   0.480   5.872   1.138
 4440SOL     OW14218   2.124   5.140   0.458
 4440SOL    HW114219   2.163   5.093   0.379
 4440SOL    HW214220   2.145   5.238   0.453
 4441SOL     OW14221   6.794   2.115   2.873
 4441SOL    HW114222   6.795   2.208   2.835
 4441SOL    HW214223   6.700   2.086   2.889
 4442SOL     OW14224   2.708   5.677   5.266
 4442SOL    HW114225   2.629   5.674   5.205
 4442SOL    HW214226   2.787   5.713   5.217
 4443SOL     OW14227   6.846   2.448   0.941
 4443SOL    HW114228   6.923   2.499   0.978
 4443SOL    HW214229   6.873   2.403   0.856
 4444SOL     OW14230   3.880   5.068   6.039
 4444SOL    HW114231   3.955   5.055   6.104
 4444SOL    HW214232   3.893   5.154   5.991
 4445SOL     OW14233   6.576   0.669   1.241
 4445SOL    HW114234   6.594   0.698   1.147
 4445SOL    HW214235   6.643   0.711   1.303
 4446SOL     OW14236   5.738   1.207   1.886
 4446SOL    HW114237   5.717   1.267   1.809
 4446SOL    HW214238   5.660   1.147   1.905
 4447SOL     OW14239   5.820   4.390   6.396
 4447SOL    HW114240   5.810   4.385   6.297
 4447SOL    HW214241   5.730   4.390   6.439
 4448SOL     OW14242   2.815   3.906   1.310
 4448SOL    HW114243   2.763   3.825   1.283
 4448SOL    HW214244   2.772   3.988   1.272
 4449SOL     OW14245   5.265   0.766   5.726
 4449SOL    HW114246   5.246   0.754   5.824
 4449SOL    HW214247   5.179   0.765   5.676
 4450SOL     OW14248   3.693   3.203   4.229
 4450SOL    HW114249   3.754   3.260   4.175
 4450SOL    HW214250   3.741   3.171   4.311
 4451SOL     OW14251   5.956   3.826   4.222
 4451SOL    HW114252   6.025   3.898   4.230
 4451SOL    HW214253   5.889   3.851   4.153
 4452SOL     OW14254   5.534   6.537   3.914
 4452SOL    HW114255   5.498   6.469   3.978
 4452SOL    HW214256   5.584   6.489   3.841
 4453SOL     OW14257   0.515   3.107   1.328
 4453SOL    HW114258   0.440   3.076   1.386
 4453SOL    HW214259   0.493   3.197   1.291
 4454SOL     OW14260   0.205   1.907   6.786
 4454SOL    HW114261   0.121   1.958   6.769
 4454SOL    HW214262   0.251   1.887   6.700
 4455SOL     OW14263   3.475   6.399   6.321
 4455SOL    HW114264   3.417   6.325   6.287
 4455SOL    HW214265   3.423   6.483   6.326
 4456SOL     OW14266   3.146   5.391   1.860
 4456SOL    HW114267   3.156   5.387   1.959
 4456SOL    HW214268   3.225   5.439   1.821
 4457SOL     OW14269   4.289   2.392   1.118
 4457SOL    HW114270   4.285   2.467   1.053
 4457SOL    HW214271   4.384   2.375   1.143
 4458SOL     OW14272   1.135   3.699   6.599
 4458SOL    HW114273   1.175   3.790   6.607
 4458SOL    HW214274   1.144   3.651   6.686
 4459SOL     OW14275   4.746   0.615   3.883
 4459SOL    HW114276   4.767   0.700   3.834
 4459SOL    HW214277   4.810   0.543   3.855
 4460SOL     OW14278   3.107   3.089   5.677
 4460SOL    HW114279   3.036   3.143   5.631
 4460SOL    HW214280   3.174   3.057   5.610
 4461SOL     OW14281   1.583   0.724   2.243
 4461SOL    HW114282   1.541   0.680   2.164
 4461SOL    HW214283   1.561   0.672   2.326
 4462SOL     OW14284   6.345   4.200   2.128
 4462SOL    HW114285   6.428   4.147   2.143
 4462SOL    HW214286   6.333   4.265   2.204
 4463SOL     OW14287   5.031   2.686   6.791
 4463SOL    HW114288   5.057   2.769   6.841
 4463SOL    HW214289   4.958   2.708   6.726
 4464SOL     OW14290   0.229   5.072   0.757
 4464SOL    HW114291   0.233   5.132   0.836
 4464SOL    HW214292   0.278   5.114   0.680
 4465SOL     OW14293   2.398   5.676   2.262
 4465SOL    HW114294   2.382   5.599   2.324
 4465SOL    HW214295   2.495   5.699   2.262
 4466SOL     OW14296   2.306   1.420   3.386
 4466SOL    HW114297   2.343   1.487   3.321
 4466SOL    HW214298   2.260   1.347   3.336
 4467SOL     OW14299   2.081   0.016   2.855
 4467SOL    HW114300   2.170   7.019   2.893
 4467SOL    HW214301   2.020   6.963   2.864
 4468SOL     OW14302   1.806   2.981   1.453
 4468SOL    HW114303   1.758   2.914   1.508
 4468SOL    HW214304   1.748   3.009   1.376
 4469SOL     OW14305   4.130   6.960   1.220
 4469SOL    HW114306   4.183   6.982   1.301
 4469SOL    HW214307   4.191   6.923   1.149
 4470SOL     OW14308   6.027   2.613   1.991
 4470SOL    HW114309   6.075   2.615   2.078
 4470SOL    HW214310   5.945   2.670   1.997
 4471SOL     OW14311   0.189   1.670   6.418
 4471SOL    HW114312   0.265   1.605   6.410
 4471SOL    HW214313   0.113   1.627   6.468
 4472SOL     OW14314   1.820   2.987   3.978
 4472SOL    HW114315   1.819   2.891   4.004
 4472SOL    HW214316   1.905   3.006   3.928
 4473SOL     OW14317   6.845   2.453   4.132
 4473SOL    HW114318   6.914   2.526   4.127
 4473SOL    HW214319   6.835   2.411   4.042
 4474SOL     OW14320   3.446   0.744   1.706
 4474SOL    HW114321   3.431   0.839   1.677
 4474SOL    HW214322   3.532   0.739   1.758
 4475SOL     OW14323   1.752   3.991   2.763
 4475SOL    HW114324   1.833   3.941   2.733
 4475SOL    HW214325   1.753   3.998   2.863
 4476SOL     OW14326   4.436   6.664   4.183
 4476SOL    HW114327   4.389   6.677   4.271
 4476SOL    HW214328   4.507   6.595   4.193
 4477SOL     OW14329   1.430   0.395   5.524
 4477SOL    HW114330   1.475   0.436   5.444
 4477SOL    HW214331   1.484   0.414   5.606
 4478SOL     OW14332   3.551   6.709   2.688
 4478SOL    HW114333   3.473   6.652   2.714
 4478SOL    HW214334   3.634   6.674   2.731
 4479SOL     OW14335   1.300   0.669   1.511
 4479SOL    HW114336   1.229   0.605   1.484
 4479SOL    HW214337   1.297   0.681   1.611
 4480SOL     OW14338   2.388   3.290   5.765
 4480SOL    HW114339   2.474   3.284   5.816
 4480SOL    HW214340   2.406   3.284   5.667
 4481SOL     OW14341   2.514   6.373   5.708
 4481SOL    HW114342   2.560   6.306   5.650
 4481SOL    HW214343   2.545   6.362   5.803
 4482SOL     OW14344   1.090   4.427   4.236
 4482SOL    HW114345   1.005   4.471   4.264
 4482SOL    HW214346   1.140   4.488   4.175
 4483SOL     OW14347   4.875   3.632   1.960
 4483SOL    HW114348   4.827   3.669   1.880
 4483SOL    HW214349   4.850   3.685   2.041
 4484SOL     OW14350   3.336   3.090   5.831
 4484SOL    HW114351   3.242   3.122   5.825
 4484SOL    HW214352   3.369   3.062   5.741
 4485SOL     OW14353   4.951   2.124   5.024
 4485SOL    HW114354   4.906   2.186   5.089
 4485SOL    HW214355   5.048   2.119   5.045
 4486SOL     OW14356   5.340   4.810   4.720
 4486SOL    HW114357   5.316   4.728   4.773
 4486SOL    HW214358   5.401   4.784   4.645
 4487SOL     OW14359   2.726   2.708   6.185
 4487SOL    HW114360   2.719   2.766   6.266
 4487SOL    HW214361   2.634   2.692   6.148
 4488SOL     OW14362   6.486   3.362   6.087
 4488SOL    HW114363   6.410   3.409   6.133
 4488SOL    HW214364   6.534   3.427   6.028
 4489SOL     OW14365   5.842   5.620   4.708
 4489SOL    HW114366   5.772   5.618   4.780
 4489SOL    HW214367   5.863   5.714   4.685
 4490SOL     OW14368   6.287   2.760   3.083
 4490SOL    HW114369   6.208   2.795   3.134
 4490SOL    HW214370   6.255   2.694   3.014
 4491SOL     OW14371   6.990   2.463   4.604
 4491SOL    HW114372   6.979   2.504   4.514
 4491SOL    HW214373   6.919   2.498   4.665
 4492SOL     OW14374   5.418   4.404   1.912
 4492SOL    HW114375   5.437   4.318   1.959
 4492SOL    HW214376   5.419   4.389   1.813
 4493SOL     OW14377   5.283   6.504   5.353
 4493SOL    HW114378   5.354   6.521   5.285
 4493SOL    HW214379   5.240   6.590   5.379
 4494SOL     OW14380   6.846   1.567   5.671
 4494SOL    HW114381   6.856   1.493   5.604
 4494SOL    HW214382   6.759   1.557   5.719
 4495SOL     OW14383   4.125   6.179   4.485
 4495SOL    HW114384   4.083   6.208   4.571
 4495SOL    HW214385   4.150   6.082   4.491
 4496SOL     OW14386   5.690   5.423   0.978
 4496SOL    HW114387   5.640   5.418   0.892
 4496SOL    HW214388   5.627   5.441   1.054
 4497SOL     OW14389   4.587   0.846   6.705
 4497SOL    HW114390   4.619   0.786   6.778
 4497SOL    HW214391   4.524   0.914   6.742
 4498SOL     OW14392   6.714   3.476   6.429
 4498SOL    HW114393   6.616   3.481   6.412
 4498SOL    HW214394   6.743   3.555   6.482
 4499SOL     OW14395   7.016   3.433   4.091
 4499SOL    HW114396   7.011   3.346   4.043
 4499SOL    HW214397   6.924   3.462   4.118
 4500SOL     OW14398   3.029   3.953   3.754
 4500SOL    HW114399   3.096   4.008   3.704
 4500SOL    HW214400   3.054   3.949   3.851
 4501SOL     OW14401   0.302   3.244   4.900
 4501SOL    HW114402   0.215   3.227   4.946
 4501SOL    HW214403   0.336   3.159   4.860
 4502SOL     OW14404   1.063   2.473   6.684
 4502SOL    HW114405   1.150   2.427   6.702
 4502SOL    HW214406   1.017   2.428   6.608
 4503SOL     OW14407   3.364   6.852   2.025
 4503SOL    HW114408   3.361   6.940   2.071
 4503SOL    HW214409   3.380   6.865   1.927
 4504SOL     OW14410   6.586   1.556   4.883
 4504SOL    HW114411   6.583   1.632   4.819
 4504SOL    HW214412   6.653   1.576   4.955
 4505SOL     OW14413   6.104   5.504   2.541
 4505SOL    HW114414   6.025   5.563   2.556
 4505SOL    HW214415   6.076   5.424   2.487
 4506SOL     OW14416   4.171   2.098   3.648
 4506SOL    HW114417   4.204   2.038   3.575
 4506SOL    HW214418   4.134   2.182   3.608
 4507SOL     OW14419   5.855   5.092   2.258
 4507SOL    HW114420   5.777   5.089   2.196
 4507SOL    HW214421   5.897   5.002   2.264
 4508SOL     OW14422   0.997   4.692   5.765
 4508SOL    HW114423   0.962   4.748   5.840
 4508SOL    HW214424   1.053   4.618   5.803
 4509SOL     OW14425   4.891   2.530   2.357
 4509SOL    HW114426   4.796   2.558   2.369
 4509SOL    HW214427   4.927   2.496   2.444
 4510SOL     OW14428   4.658   0.659   4.581
 4510SOL    HW114429   4.734   0.694   4.527
 4510SOL    HW214430   4.608   0.735   4.622
 4511SOL     OW14431   0.007   3.418   6.924
 4511SOL    HW114432   6.935   3.435   6.928
 4511SOL    HW214433   0.030   3.339   6.982
 4512SOL     OW14434   2.495   6.984   5.290
 4512SOL    HW114435   2.395   6.991   5.294
 4512SOL    HW214436   2.522   6.939   5.205
 4513SOL     OW14437   5.686   5.845   0.434
 4513SOL    HW114438   5.756   5.854   0.505
 4513SOL    HW214439   5.602   5.808   0.475
 4514SOL     OW14440   4.546   1.335   6.151
 4514SOL    HW114441   4.590   1.272   6.087
 4514SOL    HW214442   4.607   1.413   6.168
 4515SOL     OW14443   0.081   2.649   5.640
 4515SOL    HW114444   0.069   2.682   5.547
 4515SOL    HW214445   0.153   2.580   5.642
 4516SOL     OW14446   1.288   0.471   6.850
 4516SOL    HW114447   1.343   0.468   6.934
 4516SOL    HW214448   1.205   0.525   6.867
 4517SOL     OW14449   3.086   1.126   6.996
 4517SOL    HW114450   3.180   1.131   6.962
 4517SOL    HW214451   3.036   1.056   6.946
 4518SOL     OW14452   6.851   0.935   3.217
 4518SOL    HW114453   6.855   0.859   3.282
 4518SOL    HW214454   6.842   1.021   3.267
 4519SOL     OW14455   5.599   0.339   1.857
 4519SOL    HW114456   5.574   0.432   1.831
 4519SOL    HW214457   5.525   0.277   1.835
 4520SOL     OW14458   4.690   6.086   4.290
 4520SOL    HW114459   4.780   6.090   4.247
 4520SOL    HW214460   4.664   5.990   4.302
 4521SOL     OW14461   6.008   2.215   3.942
 4521SOL    HW114462   6.024   2.308   3.976
 4521SOL    HW214463   6.095   2.175   3.912
 4522SOL     OW14464   6.336   0.126   3.129
 4522SOL    HW114465   6.336   0.180   3.213
 4522SOL    HW214466   6.421   0.073   3.124
 4523SOL     OW14467   1.749   4.699   0.369
 4523SOL    HW114468   1.749   4.750   0.455
 4523SOL    HW214469   1.700   4.751   0.300
 4524SOL     OW14470   5.800   2.567   3.807
 4524SOL    HW114471   5.793   2.472   3.838
 4524SOL    HW214472   5.731   2.622   3.854
 4525SOL     OW14473   5.159   1.331   3.230
 4525SOL    HW114474   5.066   1.315   3.196
 4525SOL    HW214475   5.183   1.427   3.216
 4526SOL     OW14476   6.083   0.296   1.542
 4526SOL    HW114477   6.127   0.386   1.539
 4526SOL    HW214478   6.022   0.291   1.620
 4527SOL     OW14479   4.032   1.404   3.502
 4527SOL    HW114480   4.097   1.480   3.498
 4527SOL    HW214481   4.032   1.365   3.594
 4528SOL     OW14482   4.650   0.026   0.162
 4528SOL    HW114483   4.687   0.093   0.098
 4528SOL    HW214484   4.631   6.966   0.114
 4529SOL     OW14485   3.414   1.480   5.327
 4529SOL    HW114486   3.415   1.410   5.255
 4529SOL    HW214487   3.506   1.519   5.337
 4530SOL     OW14488   1.209   3.541   6.333
 4530SOL    HW114489   1.199   3.588   6.420
 4530SOL    HW214490   1.306   3.536   6.309
 4531SOL     OW14491   0.427   3.450   4.364
 4531SOL    HW114492   0.386   3.496   4.286
 4531SOL    HW214493   0.516   3.490   4.384
 4532SOL     OW14494   5.713   2.237   3.510
 4532SOL    HW114495   5.622   2.279   3.510
 4532SOL    HW214496   5.724   2.181   3.427
 4533SOL     OW14497   1.811   0.511   2.101
 4533SOL    HW114498   1.821   0.477   2.194
 4533SOL    HW214499   1.743   0.456   2.052
 4534SOL     OW14500   4.678   4.404   4.515
 4534SOL    HW114501   4.635   4.494   4.514
 4534SOL    HW214502   4.689   4.373   4.610
 4535SOL     OW14503   4.859   1.457   2.308
 4535SOL    HW114504   4.922   1.449   2.385
 4535SOL    HW214505   4.909   1.486   2.226
 4536SOL     OW14506   4.029   1.374   3.783
 4536SOL    HW114507   3.996   1.435   3.855
 4536SOL    HW214508   4.122   1.344   3.804
 4537SOL     OW14509   3.671   2.844   5.871
 4537SOL    HW114510   3.649   2.909   5.943
 4537SOL    HW214511   3.627   2.756   5.890
 4538SOL     OW14512   2.514   0.304   4.141
 4538SOL    HW114513   2.553   0.396   4.138
 4538SOL    HW214514   2.469   0.289   4.230
 4539SOL     OW14515   2.236   0.871   4.719
 4539SOL    HW114516   2.152   0.816   4.722
 4539SOL    HW214517   2.253   0.903   4.626
 4540SOL     OW14518   2.993   3.184   5.146
 4540SOL    HW114519   2.901   3.148   5.163
 4540SOL    HW214520   2.986   3.279   5.114
 4541SOL     OW14521   5.879   1.551   1.069
 4541SOL    HW114522   5.805   1.558   1.003
 4541SOL    HW214523   5.875   1.629   1.132
 4542SOL     OW14524   6.547   1.042   3.024
 4542SOL    HW114525   6.475   1.011   2.961
 4542SOL    HW214526   6.629   1.065   2.971
 4543SOL     OW14527   4.496   1.780   1.494
 4543SOL    HW114528   4.413   1.726   1.480
 4543SOL    HW214529   4.573   1.733   1.450
 4544SOL     OW14530   3.067   6.318   6.100
 4544SOL    HW114531   3.158   6.291   6.133
 4544SOL    HW214532   3.049   6.413   6.128
 4545SOL     OW14533   4.920   4.077   5.029
 4545SOL    HW114534   4.892   4.025   4.948
 4545SOL    HW214535   5.012   4.049   5.056
 4546SOL     OW14536   2.304   1.310   6.492
 4546SOL    HW114537   2.257   1.398   6.497
 4546SOL    HW214538   2.387   1.319   6.437
 4547SOL     OW14539   5.874   2.601   3.120
 4547SOL    HW114540   5.812   2.585   3.197
 4547SOL    HW214541   5.822   2.636   3.042
 4548SOL     OW14542   1.071   4.078   4.654
 4548SOL    HW114543   1.159   4.058   4.697
 4548SOL    HW214544   1.048   4.174   4.668
 4549SOL     OW14545   5.661   4.345   2.224
 4549SOL    HW114546   5.722   4.342   2.303
 4549SOL    HW214547   5.587   4.410   2.241
 4550SOL     OW14548   1.794   5.826   3.373
 4550SOL    HW114549   1.706   5.801   3.332
 4550SOL    HW214550   1.815   5.921   3.351
 4551SOL     OW14551   6.481   1.922   5.601
 4551SOL    HW114552   6.508   1.975   5.682
 4551SOL    HW214553   6.484   1.825   5.623
 4552SOL     OW14554   6.271   2.856   0.967
 4552SOL    HW114555   6.366   2.860   0.998
 4552SOL    HW214556   6.268   2.821   0.873
 4553SOL     OW14557   3.967   4.374   6.569
 4553SOL    HW114558   4.039   4.349   6.504
 4553SOL    HW214559   3.964   4.473   6.579
 4554SOL     OW14560   4.832   0.241   1.159
 4554SOL    HW114561   4.887   0.186   1.223
 4554SOL    HW214562   4.759   0.287   1.210
 4555SOL     OW14563   3.371   1.336   5.973
 4555SOL    HW114564   3.462   1.298   5.988
 4555SOL    HW214565   3.306   1.262   5.959
 4556SOL     OW14566   4.565   2.567   3.973
 4556SOL    HW114567   4.499   2.529   3.909
 4556SOL    HW214568   4.524   2.573   4.064
 4557SOL     OW14569   4.965   6.767   4.731
 4557SOL    HW114570   4.886   6.766   4.670
 4557SOL    HW214571   4.950   6.834   4.804
 4558SOL     OW14572   0.517   3.835   5.255
 4558SOL    HW114573   0.483   3.879   5.338
 4558SOL    HW214574   0.479   3.881   5.174
 4559SOL     OW14575   1.079   3.796   1.779
 4559SOL    HW114576   1.035   3.822   1.693
 4559SOL    HW214577   1.154   3.731   1.759
 4560SOL     OW14578   5.581   4.859   2.764
 4560SOL    HW114579   5.623   4.945   2.733
 4560SOL    HW214580   5.650   4.802   2.807
 4561SOL     OW14581   2.578   0.721   1.534
 4561SOL    HW114582   2.532   0.763   1.612
 4561SOL    HW214583   2.546   0.763   1.450
 4562SOL     OW14584   3.401   6.317   4.850
 4562SOL    HW114585   3.306   6.349   4.848
 4562SOL    HW214586   3.424   6.289   4.944
 4563SOL     OW14587   0.528   3.892   0.731
 4563SOL    HW114588   0.436   3.857   0.747
 4563SOL    HW214589   0.525   3.992   0.724
 4564SOL     OW14590   6.757   6.953   0.807
 4564SOL    HW114591   6.810   6.980   0.727
 4564SOL    HW214592   6.818   6.912   0.875
 4565SOL     OW14593   0.075   0.949   5.521
 4565SOL    HW114594   0.032   0.910   5.439
 4565SOL    HW214595   0.029   1.034   5.546
 4566SOL     OW14596   6.509   1.743   0.670
 4566SOL    HW114597   6.432   1.742   0.734
 4566SOL    HW214598   6.486   1.798   0.590
 4567SOL     OW14599   0.149   0.740   0.193
 4567SOL    HW114600   0.177   0.836   0.188
 4567SOL    HW214601   0.192   0.698   0.273
 4568SOL     OW14602   1.597   4.324   5.687
 4568SOL    HW114603   1.660   4.364   5.754
 4568SOL    HW214604   1.593   4.225   5.700
 4569SOL     OW14605   2.276   1.014   3.639
 4569SOL    HW114606   2.360   1.064   3.662
 4569SOL    HW214607   2.231   0.986   3.724
 4570SOL     OW14608   1.107   6.299   3.121
 4570SOL    HW114609   1.095   6.396   3.098
 4570SOL    HW214610   1.200   6.284   3.154
 4571SOL     OW14611   3.985   3.018   6.199
 4571SOL    HW114612   3.933   3.054   6.122
 4571SOL    HW214613   3.957   2.923   6.216
 4572SOL     OW14614   1.219   6.407   6.936
 4572SOL    HW114615   1.210   6.477   7.007
 4572SOL    HW214616   1.315   6.401   6.909
 4573SOL     OW14617   6.362   6.646   0.517
 4573SOL    HW114618   6.365   6.746   0.512
 4573SOL    HW214619   6.312   6.618   0.599
 4574SOL     OW14620   6.787   3.862   1.292
 4574SOL    HW114621   6.806   3.865   1.390
 4574SOL    HW214622   6.709   3.803   1.275
 4575SOL     OW14623   5.818   1.620   6.646
 4575SOL    HW114624   5.761   1.657   6.572
 4575SOL    HW214625   5.883   1.555   6.608
 4576SOL     OW14626   2.348   6.155   6.357
 4576SOL    HW114627   2.264   6.101   6.360
 4576SOL    HW214628   2.367   6.182   6.262
 4577SOL     OW14629   0.924   1.675   4.612
 4577SOL    HW114630   0.998   1.658   4.547
 4577SOL    HW214631   0.886   1.766   4.595
 4578SOL     OW14632   1.028   3.623   4.758
 4578SOL    HW114633   1.122   3.646   4.736
 4578SOL    HW214634   1.011   3.527   4.733
 4579SOL     OW14635   4.745   2.389   3.491
 4579SOL    HW114636   4.691   2.466   3.525
 4579SOL    HW214637   4.731   2.380   3.392
 4580SOL     OW14638   4.736   4.838   7.001
 4580SOL    HW114639   4.669   4.913   7.001
 4580SOL    HW214640   4.691   4.754   0.005
 4581SOL     OW14641   2.965   4.809   3.018
 4581SOL    HW114642   2.873   4.837   2.992
 4581SOL    HW214643   2.972   4.805   3.117
 4582SOL     OW14644   6.009   6.413   4.501
 4582SOL    HW114645   5.975   6.474   4.429
 4582SOL    HW214646   5.972   6.441   4.589
 4583SOL     OW14647   2.444   1.758   5.382
 4583SOL    HW114648   2.532   1.742   5.338
 4583SOL    HW214649   2.425   1.856   5.383
 4584SOL     OW14650   0.232   5.364   5.836
 4584SOL    HW114651   0.266   5.329   5.749
 4584SOL    HW214652   0.306   5.413   5.883
 4585SOL     OW14653   2.565   0.020   3.303
 4585SOL    HW114654   2.471   7.013   3.311
 4585SOL    HW214655   2.599   0.001   3.211
 4586SOL     OW14656   3.510   4.443   0.405
 4586SOL    HW114657   3.530   4.517   0.468
 4586SOL    HW214658   3.505   4.479   0.312
 4587SOL     OW14659   3.965   3.928   1.993
 4587SOL    HW114660   3.976   3.927   2.092
 4587SOL    HW214661   3.957   3.835   1.959
 4588SOL     OW14662   3.811   4.004   4.983
 4588SOL    HW114663   3.759   3.922   5.004
 4588SOL    HW214664   3.863   4.033   5.064
 4589SOL     OW14665   5.749   1.027   2.609
 4589SOL    HW114666   5.761   1.021   2.510
 4589SOL    HW214667   5.663   0.983   2.635
 4590SOL     OW14668   4.560   5.743   0.383
 4590SOL    HW114669   4.586   5.827   0.429
 4590SOL    HW214670   4.535   5.764   0.288
 4591SOL     OW14671   0.708   6.251   4.504
 4591SOL    HW114672   0.739   6.161   4.532
 4591SOL    HW214673   0.754   6.321   4.558
 4592SOL     OW14674   3.298   1.461   1.671
 4592SOL    HW114675   3.310   1.560   1.682
 4592SOL    HW214676   3.384   1.415   1.693
 4593SOL     OW14677   4.272   5.875   3.762
 4593SOL    HW114678   4.361   5.861   3.720
 4593SOL    HW214679   4.273   5.840   3.856
 4594SOL     OW14680   3.277   0.503   1.605
 4594SOL    HW114681   3.269   0.525   1.702
 4594SOL    HW214682   3.299   0.586   1.554
 4595SOL     OW14683   4.027   2.252   6.411
 4595SOL    HW114684   4.120   2.286   6.398
 4595SOL    HW214685   3.964   2.329   6.419
 4596SOL     OW14686   5.728   6.861   2.654
 4596SOL    HW114687   5.685   6.935   2.705
 4596SOL    HW214688   5.788   6.809   2.715
 4597SOL     OW14689   4.684   4.192   6.894
 4597SOL    HW114690   4.653   4.272   6.843
 4597SOL    HW214691   4.718   4.123   6.830
 4598SOL     OW14692   1.743   5.390   0.103
 4598SOL    HW114693   1.661   5.346   0.066
 4598SOL    HW214694   1.777   5.338   0.181
 4599SOL     OW14695   0.843   5.226   0.149
 4599SOL    HW114696   0.902   5.188   0.078
 4599SOL    HW214697   0.749   5.230   0.115
 4600SOL     OW14698   1.111   4.592   5.364
 4600SOL    HW114699   1.074   4.673   5.410
 4600SOL    HW214700   1.048   4.515   5.375
 4601SOL     OW14701   1.909   0.169   5.962
 4601SOL    HW114702   1.940   0.082   5.925
 4601SOL    HW214703   1.852   0.152   6.043
 4602SOL     OW14704   0.786   5.625   1.445
 4602SOL    HW114705   0.740   5.707   1.478
 4602SOL    HW214706   0.718   5.554   1.426
 4603SOL     OW14707   3.108   5.975   0.907
 4603SOL    HW114708   3.009   5.989   0.914
 4603SOL    HW214709   3.155   6.053   0.948
 4604SOL     OW14710   4.933   0.324   1.504
 4604SOL    HW114711   4.983   0.270   1.436
 4604SOL    HW214712   4.844   0.351   1.466
 4605SOL     OW14713   3.459   0.808   3.492
 4605SOL    HW114714   3.530   0.757   3.539
 4605SOL    HW214715   3.370   0.785   3.530
 4606SOL     OW14716   0.835   0.347   1.568
 4606SOL    HW114717   0.906   0.310   1.628
 4606SOL    HW214718   0.794   0.272   1.515
 4607SOL     OW14719   2.481   2.439   0.696
 4607SOL    HW114720   2.505   2.526   0.654
 4607SOL    HW214721   2.469   2.451   0.794
 4608SOL     OW14722   1.021   6.104   3.761
 4608SOL    HW114723   1.005   6.186   3.705
 4608SOL    HW214724   0.944   6.041   3.749
 4609SOL     OW14725   4.596   4.941   6.068
 4609SOL    HW114726   4.586   5.013   5.999
 4609SOL    HW214727   4.627   4.857   6.024
 4610SOL     OW14728   5.067   2.678   0.851
 4610SOL    HW114729   5.142   2.742   0.833
 4610SOL    HW214730   5.066   2.607   0.781
 4611SOL     OW14731   0.186   6.031   5.720
 4611SOL    HW114732   0.121   5.958   5.743
 4611SOL    HW214733   0.239   6.055   5.802
 4612SOL     OW14734   1.307   5.758   6.984
 4612SOL    HW114735   1.394   5.765   0.007
 4612SOL    HW214736   1.267   5.849   6.975
 4613SOL     OW14737   2.270   5.915   2.194
 4613SOL    HW114738   2.325   5.997   2.179
 4613SOL    HW214739   2.331   5.837   2.210
 4614SOL     OW14740   6.959   3.594   4.441
 4614SOL    HW114741   6.943   3.495   4.433
 4614SOL    HW214742   6.870   3.641   4.446
 4615SOL     OW14743   1.874   0.734   0.324
 4615SOL    HW114744   1.878   0.825   0.367
 4615SOL    HW214745   1.852   0.666   0.393
 4616SOL     OW14746   6.334   0.833   5.891
 4616SOL    HW114747   6.296   0.894   5.960
 4616SOL    HW214748   6.433   0.827   5.904
 4617SOL     OW14749   0.515   2.586   2.256
 4617SOL    HW114750   0.416   2.591   2.240
 4617SOL    HW214751   0.560   2.553   2.174
 4618SOL     OW14752   1.972   2.920   5.003
 4618SOL    HW114753   2.049   2.981   5.018
 4618SOL    HW214754   2.005   2.827   4.987
 4619SOL     OW14755   3.080   6.284   2.999
 4619SOL    HW114756   3.135   6.351   3.048
 4619SOL    HW214757   3.119   6.193   3.013
 4620SOL     OW14758   2.624   4.785   0.304
 4620SOL    HW114759   2.640   4.702   0.251
 4620SOL    HW214760   2.651   4.865   0.250
 4621SOL     OW14761   5.159   1.148   2.441
 4621SOL    HW114762   5.080   1.088   2.432
 4621SOL    HW214763   5.230   1.120   2.376
 4622SOL     OW14764   2.336   4.196   0.322
 4622SOL    HW114765   2.248   4.190   0.370
 4622SOL    HW214766   2.410   4.199   0.390
 4623SOL     OW14767   6.022   6.448   0.575
 4623SOL    HW114768   6.097   6.460   0.639
 4623SOL    HW214769   5.983   6.537   0.551
 4624SOL     OW14770   5.595   0.192   3.142
 4624SOL    HW114771   5.665   0.233   3.199
 4624SOL    HW214772   5.609   0.093   3.138
 4625SOL     OW14773   1.424   4.060   0.380
 4625SOL    HW114774   1.501   4.019   0.429
 4625SOL    HW214775   1.338   4.022   0.416
 4626SOL     OW14776   5.370   5.538   2.086
 4626SOL    HW114777   5.365   5.575   1.993
 4626SOL    HW214778   5.283   5.494   2.109
 4627SOL     OW14779   2.986   4.816   4.137
 4627SOL    HW114780   3.017   4.773   4.222
 4627SOL    HW214781   2.968   4.913   4.153
 4628SOL     OW14782   6.027   4.381   4.102
 4628SOL    HW114783   6.065   4.291   4.120
 4628SOL    HW214784   5.967   4.377   4.022
 4629SOL     OW14785   2.255   5.222   5.909
 4629SOL    HW114786   2.184   5.153   5.922
 4629SOL    HW214787   2.263   5.244   5.811
 4630SOL     OW14788   3.803   5.426   2.130
 4630SOL    HW114789   3.803   5.475   2.218
 4630SOL    HW214790   3.863   5.347   2.136
 4631SOL     OW14791   2.136   6.433   3.212
 4631SOL    HW114792   2.218   6.400   3.165
 4631SOL    HW214793   2.055   6.387   3.175
 4632SOL     OW14794   3.576   5.308   2.543
 4632SOL    HW114795   3.628   5.277   2.463
 4632SOL    HW214796   3.490   5.258   2.548
 4633SOL     OW14797   5.303   1.782   4.099
 4633SOL    HW114798   5.203   1.792   4.104
 4633SOL    HW214799   5.337   1.750   4.187
 4634SOL     OW14800   2.785   5.016   5.887
 4634SOL    HW114801   2.786   4.969   5.975
 4634SOL    HW214802   2.730   5.099   5.894
 4635SOL     OW14803   5.483   3.722   1.314
 4635SOL    HW114804   5.432   3.701   1.398
 4635SOL    HW214805   5.420   3.723   1.237
 4636SOL     OW14806   2.698   5.003   0.148
 4636SOL    HW114807   2.656   5.050   0.071
 4636SOL    HW214808   2.793   4.982   0.127
 4637SOL     OW14809   0.795   0.080   6.980
 4637SOL    HW114810   0.807   7.010   6.956
 4637SOL    HW214811   0.885   0.125   6.982
 4638SOL     OW14812   5.051   2.947   6.952
 4638SOL    HW114813   5.149   2.956   6.973
 4638SOL    HW214814   5.013   3.037   6.932
 4639SOL     OW14815   2.440   4.470   5.259
 4639SOL    HW114816   2.499   4.426   5.326
 4639SOL    HW214817   2.406   4.557   5.296
 4640SOL     OW14818   5.074   4.692   3.367
 4640SOL    HW114819   5.143   4.754   3.330
 4640SOL    HW214820   4.988   4.702   3.316
 4641SOL     OW14821   2.416   6.590   5.065
 4641SOL    HW114822   2.326   6.556   5.091
 4641SOL    HW214823   2.406   6.670   5.007
 4642SOL     OW14824   0.066   5.415   3.717
 4642SOL    HW114825   6.999   5.387   3.690
 4642SOL    HW214826   0.114   5.453   3.638
 4643SOL     OW14827   5.899   3.331   1.399
 4643SOL    HW114828   5.958   3.330   1.480
 4643SOL    HW214829   5.923   3.410   1.342
 4644SOL     OW14830   0.293   4.618   5.069
 4644SOL    HW114831   0.391   4.631   5.054
 4644SOL    HW214832   0.258   4.692   5.127
 4645SOL     OW14833   0.637   1.573   4.395
 4645SOL    HW114834   0.585   1.524   4.464
 4645SOL    HW214835   0.725   1.527   4.380
 4646SOL     OW14836   2.183   5.293   3.830
 4646SOL    HW114837   2.110   5.360   3.815
 4646SOL    HW214838   2.210   5.296   3.927
 4647SOL     OW14839   1.501   1.117   3.868
 4647SOL    HW114840   1.560   1.081   3.795
 4647SOL    HW214841   1.499   1.053   3.945
 4648SOL     OW14842   4.482   1.191   2.245
 4648SOL    HW114843   4.410   1.258   2.260
 4648SOL    HW214844   4.444   1.112   2.196
 4649SOL     OW14845   5.477   0.056   6.174
 4649SOL    HW114846   5.467   6.993   6.219
 4649SOL    HW214847   5.555   0.104   6.213
 4650SOL     OW14848   4.694   5.572   3.305
 4650SOL    HW114849   4.721   5.536   3.215
 4650SOL    HW214850   4.625   5.643   3.293
 4651SOL     OW14851   6.781   1.748   0.540
 4651SOL    HW114852   6.816   1.655   0.530
 4651SOL    HW214853   6.683   1.745   0.562
 4652SOL     OW14854   6.874   0.317   4.304
 4652SOL    HW114855   6.824   0.347   4.386
 4652SOL    HW214856   6.816   0.329   4.224
 4653SOL     OW14857   5.798   5.396   0.191
 4653SOL    HW114858   5.771   5.434   0.280
 4653SOL    HW214859   5.763   5.454   0.118
 4654SOL     OW14860   0.920   6.469   0.294
 4654SOL    HW114861   0.881   6.558   0.318
 4654SOL    HW214862   0.992   6.480   0.226
 4655SOL     OW14863   6.401   4.622   1.885
 4655SOL    HW114864   6.331   4.551   1.885
 4655SOL    HW214865   6.405   4.664   1.976
 4656SOL     OW14866   1.064   0.381   3.848
 4656SOL    HW114867   0.985   0.329   3.881
 4656SOL    HW214868   1.108   0.427   3.925
 4657SOL     OW14869   5.369   6.166   1.377
 4657SOL    HW114870   5.381   6.151   1.475
 4657SOL    HW214871   5.406   6.088   1.326
 4658SOL     OW14872   3.915   0.852   2.673
 4658SOL    HW114873   3.948   0.803   2.754
 4658SOL    HW214874   3.952   0.809   2.590
 4659SOL     OW14875   2.982   4.401   5.360
 4659SOL    HW114876   2.977   4.465   5.283
 4659SOL    HW214877   2.914   4.329   5.348
 4660SOL     OW14878   0.954   4.367   5.382
 4660SOL    HW114879   1.027   4.332   5.441
 4660SOL    HW214880   0.884   4.411   5.438
 4661SOL     OW14881   3.444   3.859   5.723
 4661SOL    HW114882   3.521   3.809   5.764
 4661SOL    HW214883   3.478   3.942   5.679
 4662SOL     OW14884   3.894   6.766   5.160
 4662SOL    HW114885   3.844   6.749   5.075
 4662SOL    HW214886   3.915   6.864   5.167
 4663SOL     OW14887   0.821   1.554   2.625
 4663SOL    HW114888   0.866   1.632   2.582
 4663SOL    HW214889   0.778   1.583   2.710
 4664SOL     OW14890   1.287   1.365   0.489
 4664SOL    HW114891   1.321   1.453   0.520
 4664SOL    HW214892   1.364   1.304   0.470
 4665SOL     OW14893   3.882   0.071   0.271
 4665SOL    HW114894   3.821   0.034   0.341
 4665SOL    HW214895   3.831   0.086   0.187
 4666SOL     OW14896   1.439   1.852   1.004
 4666SOL    HW114897   1.510   1.872   0.936
 4666SOL    HW214898   1.353   1.896   0.976
 4667SOL     OW14899   6.205   3.661   2.101
 4667SOL    HW114900   6.131   3.726   2.115
 4667SOL    HW214901   6.267   3.696   2.030
 4668SOL     OW14902   4.749   1.861   2.906
 4668SOL    HW114903   4.684   1.865   2.831
 4668SOL    HW214904   4.702   1.886   2.991
 4669SOL     OW14905   4.355   6.283   6.656
 4669SOL    HW114906   4.372   6.364   6.712
 4669SOL    HW214907   4.363   6.201   6.713
 4670SOL     OW14908   2.922   2.242   5.131
 4670SOL    HW114909   3.010   2.234   5.083
 4670SOL    HW214910   2.937   2.237   5.229
 4671SOL     OW14911   6.869   2.906   2.424
 4671SOL    HW114912   6.929   2.905   2.345
 4671SOL    HW214913   6.833   2.813   2.440
 4672SOL     OW14914   2.773   4.607   6.349
 4672SOL    HW114915   2.752   4.665   6.427
 4672SOL    HW214916   2.865   4.627   6.315
 4673SOL     OW14917   4.947   6.837   1.443
 4673SOL    HW114918   4.908   6.892   1.369
 4673SOL    HW214919   4.903   6.748   1.445
 4674SOL     OW14920   4.983   0.098   6.418
 4674SOL    HW114921   4.976   0.173   6.351
 4674SOL    HW214922   4.922   0.024   6.391
 4675SOL     OW14923   0.620   0.958   6.270
 4675SOL    HW114924   0.532   1.002   6.254
 4675SOL    HW214925   0.618   0.909   6.357
 4676SOL     OW14926   6.910   6.164   3.529
 4676SOL    HW114927   6.911   6.251   3.578
 4676SOL    HW214928   6.860   6.175   3.442
 4677SOL     OW14929   2.740   1.010   0.329
 4677SOL    HW114930   2.785   1.100   0.327
 4677SOL    HW214931   2.646   1.019   0.294
 4678SOL     OW14932   1.899   4.755   3.329
 4678SOL    HW114933   1.951   4.675   3.358
 4678SOL    HW214934   1.950   4.805   3.260
 4679SOL     OW14935   3.434   0.508   0.753
 4679SOL    HW114936   3.444   0.490   0.851
 4679SOL    HW214937   3.345   0.475   0.722
 4680SOL     OW14938   3.143   1.775   6.888
 4680SOL    HW114939   3.094   1.759   6.802
 4680SOL    HW214940   3.240   1.792   6.869
 4681SOL     OW14941   5.111   5.265   6.898
 4681SOL    HW114942   5.068   5.175   6.888
 4681SOL    HW214943   5.191   5.269   6.839
 4682SOL     OW14944   4.981   4.696   5.215
 4682SOL    HW114945   4.998   4.637   5.136
 4682SOL    HW214946   4.901   4.752   5.198
 4683SOL     OW14947   5.032   5.092   2.270
 4683SOL    HW114948   5.038   5.013   2.330
 4683SOL    HW214949   5.122   5.111   2.230
 4684SOL     OW14950   5.925   0.648   5.198
 4684SOL    HW114951   5.914   0.747   5.205
 4684SOL    HW214952   6.003   0.619   5.254
 4685SOL     OW14953   1.260   5.035   5.564
 4685SOL    HW114954   1.305   4.989   5.488
 4685SOL    HW214955   1.286   5.132   5.566
 4686SOL     OW14956   4.342   4.889   0.031
 4686SOL    HW114957   4.427   4.939   0.019
 4686SOL    HW214958   4.306   4.906   0.123
 4687SOL     OW14959   5.203   3.376   4.214
 4687SOL    HW114960   5.158   3.362   4.126
 4687SOL    HW214961   5.166   3.459   4.257
 4688SOL     OW14962   5.841   3.951   5.270
 4688SOL    HW114963   5.900   3.883   5.314
 4688SOL    HW214964   5.775   3.904   5.211
 4689SOL     OW14965   4.708   0.826   0.184
 4689SOL    HW114966   4.624   0.838   0.237
 4689SOL    HW214967   4.743   0.915   0.156
 4690SOL     OW14968   1.057   0.194   7.011
 4690SOL    HW114969   1.093   0.180   6.918
 4690SOL    HW214970   1.108   0.136   0.049
 4691SOL     OW14971   3.070   4.450   1.102
 4691SOL    HW114972   3.041   4.389   1.029
 4691SOL    HW214973   3.076   4.399   1.188
 4692SOL     OW14974   5.530   5.306   2.133
 4692SOL    HW114975   5.466   5.378   2.107
 4692SOL    HW214976   5.619   5.324   2.092
 4693SOL     OW14977   1.449   2.005   3.453
 4693SOL    HW114978   1.367   2.059   3.432
 4693SOL    HW214979   1.493   2.042   3.535
 4694SOL     OW14980   1.891   1.010   0.391
 4694SOL    HW114981   1.979   0.972   0.419
 4694SOL    HW214982   1.894   1.031   0.293
 4695SOL     OW14983   0.955   4.295   2.528
 4695SOL    HW114984   0.887   4.366   2.511
 4695SOL    HW214985   1.043   4.325   2.491
 4696SOL     OW14986   0.242   4.085   0.470
 4696SOL    HW114987   0.180   4.138   0.412
 4696SOL    HW214988   0.239   3.989   0.443
 4697SOL     OW14989   1.561   3.563   1.064
 4697SOL    HW114990   1.553   3.663   1.063
 4697SOL    HW214991   1.632   3.535   0.999
 4698SOL     OW14992   4.329   5.792   2.497
 4698SOL    HW114993   4.299   5.764   2.406
 4698SOL    HW214994   4.258   5.848   2.540
 4699SOL     OW14995   1.168   6.776   2.129
 4699SOL    HW114996   1.083   6.828   2.119
 4699SOL    HW214997   1.211   6.765   2.039
 4700SOL     OW14998   6.938   1.191   3.012
 4700SOL    HW114999   6.865   1.207   2.946
 4700SOL    HW215000   6.985   1.105   2.991
 4701SOL     OW15001   2.596   1.984   0.427
 4701SOL    HW115002   2.691   1.955   0.417
 4701SOL    HW215003   2.583   2.026   0.517
 4702SOL     OW15004   5.045   4.869   0.237
 4702SOL    HW115005   5.099   4.831   0.162
 4702SOL    HW215006   4.966   4.811   0.254
 4703SOL     OW15007   0.196   1.599   2.671
 4703SOL    HW115008   0.220   1.696   2.674
 4703SOL    HW215009   0.126   1.579   2.739
 4704SOL     OW15010   6.599   6.357   6.559
 4704SOL    HW115011   6.621   6.445   6.599
 4704SOL    HW215012   6.557   6.371   6.469
 4705SOL     OW15013   3.980   3.010   1.432
 4705SOL    HW115014   3.988   2.976   1.526
 4705SOL    HW215015   4.029   3.097   1.424
 4706SOL     OW15016   2.362   0.006   0.819
 4706SOL    HW115017   2.283   0.064   0.837
 4706SOL    HW215018   2.389   6.985   0.903
 4707SOL     OW15019   1.136   6.560   0.131
 4707SOL    HW115020   1.216   6.587   0.183
 4707SOL    HW215021   1.081   6.640   0.109
 4708SOL     OW15022   1.479   2.107   6.152
 4708SOL    HW115023   1.447   2.084   6.244
 4708SOL    HW215024   1.403   2.097   6.087
 4709SOL     OW15025   4.481   5.814   5.211
 4709SOL    HW115026   4.527   5.900   5.191
 4709SOL    HW215027   4.389   5.832   5.243
 4710SOL     OW15028   4.748   0.258   5.950
 4710SOL    HW115029   4.818   0.195   5.982
 4710SOL    HW215030   4.658   0.228   5.984
 4711SOL     OW15031   5.849   1.278   1.461
 4711SOL    HW115032   5.944   1.253   1.440
 4711SOL    HW215033   5.846   1.372   1.494
 4712SOL     OW15034   3.277   4.664   6.669
 4712SOL    HW115035   3.347   4.596   6.649
 4712SOL    HW215036   3.315   4.756   6.658
 4713SOL     OW15037   3.435   3.878   0.638
 4713SOL    HW115038   3.509   3.944   0.628
 4713SOL    HW215039   3.471   3.785   0.634
 4714SOL     OW15040   0.916   1.846   6.291
 4714SOL    HW115041   0.910   1.762   6.237
 4714SOL    HW215042   0.830   1.860   6.340
 4715SOL     OW15043   6.197   3.184   2.185
 4715SOL    HW115044   6.210   3.176   2.284
 4715SOL    HW215045   6.161   3.098   2.149
 4716SOL     OW15046   4.280   6.689   6.058
 4716SOL    HW115047   4.188   6.725   6.069
 4716SOL    HW215048   4.311   6.649   6.145
 4717SOL     OW15049   0.345   6.050   3.823
 4717SOL    HW115050   0.293   6.119   3.872
 4717SOL    HW215051   0.329   5.960   3.864
 4718SOL     OW15052   6.060   2.315   1.407
 4718SOL    HW115053   6.117   2.397   1.395
 4718SOL    HW215054   5.966   2.342   1.425
 4719SOL     OW15055   4.724   3.072   1.633
 4719SOL    HW115056   4.662   3.058   1.711
 4719SOL    HW215057   4.739   3.170   1.620
 4720SOL     OW15058   2.241   4.980   6.281
 4720SOL    HW115059   2.149   5.017   6.271
 4720SOL    HW215060   2.247   4.891   6.235
 4721SOL     OW15061   6.378   1.703   2.601
 4721SOL    HW115062   6.408   1.758   2.679
 4721SOL    HW215063   6.377   1.607   2.627
 4722SOL     OW15064   1.329   6.233   6.637
 4722SOL    HW115065   1.390   6.167   6.595
 4722SOL    HW215066   1.287   6.193   6.719
 4723SOL     OW15067   2.947   3.186   5.907
 4723SOL    HW115068   2.958   3.104   5.964
 4723SOL    HW215069   2.999   3.174   5.822
 4724SOL     OW15070   6.033   0.071   3.516
 4724SOL    HW115071   6.039   6.997   3.510
 4724SOL    HW215072   6.045   0.110   3.424
 4725SOL     OW15073   6.860   5.054   0.973
 4725SOL    HW115074   6.909   5.142   0.971
 4725SOL    HW215075   6.891   4.997   0.898
 4726SOL     OW15076   0.837   2.987   6.327
 4726SOL    HW115077   0.789   2.939   6.254
 4726SOL    HW215078   0.784   2.980   6.412
 4727SOL     OW15079   1.116   6.381   1.295
 4727SOL    HW115080   1.190   6.443   1.320
 4727SOL    HW215081   1.093   6.393   1.198
 4728SOL     OW15082   5.875   1.538   1.472
 4728SOL    HW115083   5.909   1.621   1.515
 4728SOL    HW215084   5.817   1.562   1.394
 4729SOL     OW15085   4.134   1.675   0.456
 4729SOL    HW115086   4.103   1.770   0.448
 4729SOL    HW215087   4.058   1.614   0.435
 4730SOL     OW15088   3.604   5.872   5.600
 4730SOL    HW115089   3.608   5.773   5.586
 4730SOL    HW215090   3.599   5.892   5.698
 4731SOL     OW15091   3.197   0.527   7.009
 4731SOL    HW115092   3.141   0.552   6.930
 4731SOL    HW215093   3.286   0.494   6.977
 4732SOL     OW15094   1.622   4.457   5.181
 4732SOL    HW115095   1.555   4.446   5.254
 4732SOL    HW215096   1.671   4.370   5.168
 4733SOL     OW15097   1.634   4.431   3.771
 4733SOL    HW115098   1.719   4.450   3.721
 4733SOL    HW215099   1.563   4.493   3.739
 4734SOL     OW15100   4.426   3.600   0.104
 4734SOL    HW115101   4.335   3.625   0.138
 4734SOL    HW215102   4.455   3.664   0.033
 4735SOL     OW15103   0.411   5.397   4.558
 4735SOL    HW115104   0.322   5.373   4.598
 4735SOL    HW215105   0.484   5.359   4.614
 4736SOL     OW15106   6.139   1.647   5.705
 4736SOL    HW115107   6.085   1.731   5.696
 4736SOL    HW215108   6.130   1.593   5.622
 4737SOL     OW15109   2.706   4.454   1.697
 4737SOL    HW115110   2.791   4.468   1.748
 4737SOL    HW215111   2.663   4.543   1.679
 4738SOL     OW15112   1.761   6.106   3.340
 4738SOL    HW115113   1.702   6.131   3.417
 4738SOL    HW215114   1.717   6.134   3.255
 4739SOL     OW15115   4.472   1.632   2.811
 4739SOL    HW115116   4.539   1.559   2.826
 4739SOL    HW215117   4.503   1.691   2.737
 4740SOL     OW15118   0.389   1.895   0.841
 4740SOL    HW115119   0.308   1.923   0.790
 4740SOL    HW215120   0.378   1.801   0.872
 4741SOL     OW15121   5.703   3.694   0.686
 4741SOL    HW115122   5.662   3.682   0.596
 4741SOL    HW215123   5.800   3.717   0.676
 4742SOL     OW15124   3.120   6.807   6.815
 4742SOL    HW115125   3.171   6.728   6.782
 4742SOL    HW215126   3.135   6.817   6.914
 4743SOL     OW15127   2.029   3.568   5.020
 4743SOL    HW115128   2.063   3.479   4.990
 4743SOL    HW215129   2.081   3.599   5.099
 4744SOL     OW15130   2.451   4.169   6.264
 4744SOL    HW115131   2.374   4.197   6.207
 4744SOL    HW215132   2.536   4.196   6.221
 4745SOL     OW15133   3.306   5.262   5.838
 4745SOL    HW115134   3.364   5.190   5.875
 4745SOL    HW215135   3.320   5.268   5.739
 4746SOL     OW15136   5.475   6.241   2.537
 4746SOL    HW115137   5.498   6.148   2.510
 4746SOL    HW215138   5.387   6.241   2.585
 4747SOL     OW15139   1.795   3.969   6.144
 4747SOL    HW115140   1.727   3.898   6.159
 4747SOL    HW215141   1.847   3.949   6.061
 4748SOL     OW15142   0.823   4.820   0.774
 4748SOL    HW115143   0.865   4.896   0.724
 4748SOL    HW215144   0.894   4.767   0.819
 4749SOL     OW15145   2.961   6.336   5.340
 4749SOL    HW115146   2.902   6.403   5.296
 4749SOL    HW215147   2.957   6.348   5.439
 4750SOL     OW15148   0.433   4.091   3.522
 4750SOL    HW115149   0.461   3.996   3.510
 4750SOL    HW215150   0.362   4.114   3.455
 4751SOL     OW15151   3.536   1.863   1.302
 4751SOL    HW115152   3.508   1.878   1.207
 4751SOL    HW215153   3.587   1.942   1.335
 4752SOL     OW15154   3.751   0.960   6.584
 4752SOL    HW115155   3.739   0.880   6.643
 4752SOL    HW215156   3.683   1.029   6.607
 4753SOL     OW15157   5.249   7.014   3.971
 4753SOL    HW115158   5.214   6.941   3.912
 4753SOL    HW215159   5.295   6.975   4.050
 4754SOL     OW15160   5.901   0.062   4.630
 4754SOL    HW115161   5.973   0.122   4.595
 4754SOL    HW215162   5.872   0.095   4.720
 4755SOL     OW15163   2.178   0.523   0.951
 4755SOL    HW115164   2.218   0.435   0.977
 4755SOL    HW215165   2.139   0.567   1.032
 4756SOL     OW15166   5.968   3.059   1.042
 4756SOL    HW115167   6.064   3.075   1.019
 4756SOL    HW215168   5.956   3.062   1.141
 4757SOL     OW15169   2.188   1.800   0.825
 4757SOL    HW115170   2.245   1.858   0.767
 4757SOL    HW215171   2.240   1.770   0.905
 4758SOL     OW15172   2.680   6.949   4.280
 4758SOL    HW115173   2.640   6.890   4.350
 4758SOL    HW215174   2.618   6.952   4.201
 4759SOL     OW15175   5.870   4.940   4.854
 4759SOL    HW115176   5.811   5.002   4.906
 4759SOL    HW215177   5.906   4.989   4.774
 4760SOL     OW15178   2.345   1.871   0.568
 4760SOL    HW115179   2.281   1.885   0.492
 4760SOL    HW215180   2.422   1.933   0.558
 4761SOL     OW15181   0.381   6.054   0.015
 4761SOL    HW115182   0.390   6.040   6.943
 4761SOL    HW215183   0.412   6.146   0.039
 4762SOL     OW15184   1.195   5.941   2.427
 4762SOL    HW115185   1.141   5.872   2.475
 4762SOL    HW215186   1.218   6.016   2.490
 4763SOL     OW15187   6.356   6.490   3.496
 4763SOL    HW115188   6.338   6.409   3.552
 4763SOL    HW215189   6.415   6.465   3.419
 4764SOL     OW15190   4.998   3.668   4.867
 4764SOL    HW115191   4.964   3.743   4.810
 4764SOL    HW215192   4.933   3.650   4.941
 4765SOL     OW15193   4.562   0.875   3.730
 4765SOL    HW115194   4.657   0.852   3.710
 4765SOL    HW215195   4.554   0.975   3.740
 4766SOL     OW15196   5.374   5.537   4.160
 4766SOL    HW115197   5.287   5.573   4.124
 4766SOL    HW215198   5.406   5.597   4.234
 4767SOL     OW15199   3.620   5.333   5.683
 4767SOL    HW115200   3.657   5.354   5.592
 4767SOL    HW215201   3.531   5.288   5.673
 4768SOL     OW15202   4.546   1.704   5.889
 4768SOL    HW115203   4.544   1.803   5.900
 4768SOL    HW215204   4.473   1.663   5.944
 4769SOL     OW15205   5.092   3.915   0.085
 4769SOL    HW115206   5.085   3.972   0.003
 4769SOL    HW215207   5.074   3.819   0.061
 4770SOL     OW15208   1.066   0.622   4.343
 4770SOL    HW115209   1.076   0.571   4.429
 4770SOL    HW215210   0.997   0.693   4.354
 4771SOL     OW15211   3.820   5.813   5.095
 4771SOL    HW115212   3.833   5.715   5.080
 4771SOL    HW215213   3.755   5.828   5.169
 4772SOL     OW15214   3.361   4.505   1.255
 4772SOL    HW115215   3.355   4.435   1.184
 4772SOL    HW215216   3.348   4.595   1.214
 4773SOL     OW15217   6.833   5.310   4.125
 4773SOL    HW115218   6.839   5.253   4.043
 4773SOL    HW215219   6.770   5.267   4.190
 4774SOL     OW15220   1.285   3.071   2.246
 4774SOL    HW115221   1.272   2.975   2.221
 4774SOL    HW215222   1.203   3.106   2.290
 4775SOL     OW15223   4.771   6.154   2.543
 4775SOL    HW115224   4.681   6.117   2.521
 4775SOL    HW215225   4.842   6.097   2.502
 4776SOL     OW15226   1.338   6.397   5.483
 4776SOL    HW115227   1.299   6.389   5.574
 4776SOL    HW215228   1.298   6.477   5.436
 4777SOL     OW15229   2.254   4.922   0.815
 4777SOL    HW115230   2.204   4.857   0.872
 4777SOL    HW215231   2.273   4.880   0.726
 4778SOL     OW15232   6.581   2.468   3.244
 4778SOL    HW115233   6.493   2.461   3.198
 4778SOL    HW215234   6.640   2.393   3.215
 4779SOL     OW15235   6.363   6.293   3.078
 4779SOL    HW115236   6.380   6.307   2.980
 4779SOL    HW215237   6.288   6.351   3.108
 4780SOL     OW15238   5.325   0.910   0.071
 4780SOL    HW115239   5.324   0.814   0.099
 4780SOL    HW215240   5.418   0.946   0.077
 4781SOL     OW15241   2.739   5.604   1.907
 4781SOL    HW115242   2.714   5.700   1.895
 4781SOL    HW215243   2.656   5.548   1.898
 4782SOL     OW15244   4.374   5.548   0.430
 4782SOL    HW115245   4.321   5.572   0.349
 4782SOL    HW215246   4.447   5.614   0.443
 4783SOL     OW15247   4.570   4.207   0.339
 4783SOL    HW115248   4.479   4.212   0.299
 4783SOL    HW215249   4.599   4.111   0.345
 4784SOL     OW15250   6.035   3.989   7.018
 4784SOL    HW115251   5.984   4.075   7.012
 4784SOL    HW215252   5.988   3.919   6.964
 4785SOL     OW15253   0.701   6.747   2.095
 4785SOL    HW115254   0.698   6.771   1.998
 4785SOL    HW215255   0.749   6.818   2.146
 4786SOL     OW15256   2.528   1.753   0.287
 4786SOL    HW115257   2.541   1.821   0.359
 4786SOL    HW215258   2.617   1.721   0.255
 4787SOL     OW15259   3.918   1.248   2.354
 4787SOL    HW115260   3.965   1.189   2.288
 4787SOL    HW215261   3.835   1.285   2.312
 4788SOL     OW15262   0.569   5.804   5.196
 4788SOL    HW115263   0.536   5.768   5.283
 4788SOL    HW215264   0.664   5.775   5.182
 4789SOL     OW15265   5.125   1.513   0.892
 4789SOL    HW115266   5.193   1.573   0.852
 4789SOL    HW215267   5.145   1.418   0.868
 4790SOL     OW15268   6.173   2.154   5.175
 4790SOL    HW115269   6.134   2.236   5.217
 4790SOL    HW215270   6.209   2.094   5.247
 4791SOL     OW15271   6.826   2.871   1.713
 4791SOL    HW115272   6.730   2.878   1.741
 4791SOL    HW215273   6.850   2.774   1.701
 4792SOL     OW15274   1.880   4.172   3.177
 4792SOL    HW115275   1.865   4.265   3.211
 4792SOL    HW215276   1.977   4.157   3.163
 4793SOL     OW15277   1.772   2.844   5.654
 4793SOL    HW115278   1.728   2.888   5.732
 4793SOL    HW215279   1.863   2.812   5.681
 4794SOL     OW15280   4.424   0.628   3.222
 4794SOL    HW115281   4.379   0.667   3.142
 4794SOL    HW215282   4.397   0.680   3.303
 4795SOL     OW15283   5.560   2.678   3.949
 4795SOL    HW115284   5.551   2.746   4.021
 4795SOL    HW215285   5.517   2.592   3.978
 4796SOL     OW15286   5.025   1.724   5.041
 4796SOL    HW115287   5.100   1.724   4.975
 4796SOL    HW215288   4.996   1.630   5.058
 4797SOL     OW15289   1.272   6.034   5.429
 4797SOL    HW115290   1.267   6.015   5.331
 4797SOL    HW215291   1.179   6.033   5.467
 4798SOL     OW15292   0.183   3.517   4.864
 4798SOL    HW115293   0.087   3.531   4.890
 4798SOL    HW215294   0.188   3.454   4.787
 4799SOL     OW15295   5.049   2.041   6.783
 4799SOL    HW115296   4.961   2.026   6.739
 4799SOL    HW215297   5.108   1.961   6.767
 4800SOL     OW15298   3.292   2.803   6.215
 4800SOL    HW115299   3.303   2.833   6.310
 4800SOL    HW215300   3.374   2.754   6.186
 4801SOL     OW15301   2.849   2.426   6.365
 4801SOL    HW115302   2.827   2.334   6.397
 4801SOL    HW215303   2.775   2.488   6.390
 4802SOL     OW15304   1.197   6.725   1.850
 4802SOL    HW115305   1.169   6.642   1.898
 4802SOL    HW215306   1.246   6.702   1.766
 4803SOL     OW15307   0.798   5.205   0.865
 4803SOL    HW115308   0.832   5.298   0.857
 4803SOL    HW215309   0.802   5.176   0.960
 4804SOL     OW15310   5.238   5.841   0.616
 4804SOL    HW115311   5.205   5.759   0.570
 4804SOL    HW215312   5.200   5.923   0.572
 4805SOL     OW15313   5.433   1.707   2.405
 4805SOL    HW115314   5.403   1.639   2.473
 4805SOL    HW215315   5.533   1.712   2.405
 4806SOL     OW15316   1.441   4.612   2.935
 4806SOL    HW115317   1.408   4.699   2.900
 4806SOL    HW215318   1.527   4.626   2.984
 4807SOL     OW15319   0.742   5.013   0.406
 4807SOL    HW115320   0.693   4.944   0.353
 4807SOL    HW215321   0.800   5.067   0.346
 4808SOL     OW15322   5.695   4.313   0.160
 4808SOL    HW115323   5.743   4.353   0.082
 4808SOL    HW215324   5.711   4.370   0.241
 4809SOL     OW15325   3.766   4.198   0.140
 4809SOL    HW115326   3.709   4.121   0.171
 4809SOL    HW215327   3.776   4.264   0.214
 4810SOL     OW15328   1.585   4.719   2.616
 4810SOL    HW115329   1.649   4.784   2.576
 4810SOL    HW215330   1.493   4.760   2.616
 4811SOL     OW15331   2.676   3.981   1.541
 4811SOL    HW115332   2.657   3.886   1.564
 4811SOL    HW215333   2.741   3.984   1.465
 4812SOL     OW15334   6.726   5.282   3.345
 4812SOL    HW115335   6.737   5.204   3.284
 4812SOL    HW215336   6.816   5.323   3.363
 4813SOL     OW15337   5.338   2.425   1.424
 4813SOL    HW115338   5.323   2.503   1.484
 4813SOL    HW215339   5.369   2.457   1.334
 4814SOL     OW15340   6.757   3.807   0.872
 4814SOL    HW115341   6.725   3.884   0.927
 4814SOL    HW215342   6.730   3.821   0.777
 4815SOL     OW15343   5.542   4.263   2.841
 4815SOL    HW115344   5.456   4.213   2.850
 4815SOL    HW215345   5.610   4.223   2.902
 4816SOL     OW15346   2.185   4.832   0.516
 4816SOL    HW115347   2.115   4.779   0.564
 4816SOL    HW215348   2.143   4.915   0.478
 4817SOL     OW15349   0.480   2.051   6.088
 4817SOL    HW115350   0.522   1.985   6.026
 4817SOL    HW215351   0.381   2.038   6.089
 4818SOL     OW15352   1.365   6.214   3.906
 4818SOL    HW115353   1.377   6.251   3.814
 4818SOL    HW215354   1.270   6.227   3.936
 4819SOL     OW15355   1.624   1.746   0.388
 4819SOL    HW115356   1.545   1.726   0.329
 4819SOL    HW215357   1.706   1.754   0.332
 4820SOL     OW15358   6.023   2.170   2.285
 4820SOL    HW115359   6.050   2.173   2.382
 4820SOL    HW215360   5.929   2.204   2.276
 4821SOL     OW15361   1.049   6.621   2.353
 4821SOL    HW115362   1.085   6.694   2.296
 4821SOL    HW215363   1.050   6.650   2.449
 4822SOL     OW15364   2.024   2.408   5.071
 4822SOL    HW115365   2.111   2.360   5.072
 4822SOL    HW215366   1.977   2.395   5.159
 4823SOL     OW15367   1.655   0.904   4.476
 4823SOL    HW115368   1.584   0.835   4.487
 4823SOL    HW215369   1.620   0.982   4.424
 4824SOL     OW15370   4.934   2.252   4.719
 4824SOL    HW115371   4.922   2.247   4.818
 4824SOL    HW215372   4.846   2.272   4.676
 4825SOL     OW15373   1.866   3.174   4.911
 4825SOL    HW115374   1.843   3.216   4.998
 4825SOL    HW215375   1.913   3.087   4.927
 4826SOL     OW15376   5.560   1.553   0.029
 4826SOL    HW115377   5.521   1.480   0.084
 4826SOL    HW215378   5.652   1.574   0.061
 4827SOL     OW15379   6.235   1.624   0.831
 4827SOL    HW115380   6.196   1.674   0.753
 4827SOL    HW215381   6.172   1.552   0.859
 4828SOL     OW15382   5.135   2.609   1.123
 4828SOL    HW115383   5.077   2.641   1.048
 4828SOL    HW215384   5.175   2.687   1.170
 4829SOL     OW15385   3.817   6.218   5.928
 4829SOL    HW115386   3.902   6.221   5.876
 4829SOL    HW215387   3.740   6.241   5.868
 4830SOL     OW15388   4.172   6.560   4.545
 4830SOL    HW115389   4.246   6.512   4.593
 4830SOL    HW215390   4.184   6.550   4.447
 4831SOL     OW15391   0.944   4.355   6.206
 4831SOL    HW115392   0.880   4.292   6.162
 4831SOL    HW215393   1.036   4.340   6.169
 4832SOL     OW15394   3.908   3.039   3.843
 4832SOL    HW115395   3.953   3.049   3.932
 4832SOL    HW215396   3.880   2.944   3.830
 4833SOL     OW15397   4.689   2.305   2.751
 4833SOL    HW115398   4.630   2.240   2.798
 4833SOL    HW215399   4.634   2.383   2.719
 4834SOL     OW15400   3.303   6.418   0.607
 4834SOL    HW115401   3.302   6.515   0.633
 4834SOL    HW215402   3.210   6.381   0.613
 4835SOL     OW15403   5.530   1.971   0.009
 4835SOL    HW115404   5.465   2.047   7.022
 4835SOL    HW215405   5.507   1.897   6.972
 4836SOL     OW15406   4.852   2.448   4.925
 4836SOL    HW115407   4.916   2.514   4.965
 4836SOL    HW215408   4.880   2.427   4.832
 4837SOL     OW15409   6.963   3.713   3.088
 4837SOL    HW115410   6.931   3.766   3.166
 4837SOL    HW215411   6.947   3.765   3.004
 4838SOL     OW15412   1.124   5.527   0.517
 4838SOL    HW115413   1.162   5.611   0.480
 4838SOL    HW215414   1.059   5.488   0.452
 4839SOL     OW15415   1.827   3.481   0.359
 4839SOL    HW115416   1.773   3.501   0.441
 4839SOL    HW215417   1.769   3.489   0.278
 4840SOL     OW15418   6.477   4.571   6.645
 4840SOL    HW115419   6.478   4.616   6.734
 4840SOL    HW215420   6.423   4.487   6.651
 4841SOL     OW15421   2.290   5.201   2.051
 4841SOL    HW115422   2.300   5.254   2.135
 4841SOL    HW215423   2.365   5.223   1.988
 4842SOL     OW15424   3.539   5.361   2.011
 4842SOL    HW115425   3.482   5.419   1.952
 4842SOL    HW215426   3.629   5.403   2.023
 4843SOL     OW15427   6.726   3.401   1.879
 4843SOL    HW115428   6.705   3.353   1.964
 4843SOL    HW215429   6.814   3.449   1.889
 4844SOL     OW15430   0.742   3.460   6.631
 4844SOL    HW115431   0.657   3.513   6.633
 4844SOL    HW215432   0.797   3.489   6.553
 4845SOL     OW15433   4.866   5.631   6.623
 4845SOL    HW115434   4.918   5.573   6.560
 4845SOL    HW215435   4.824   5.706   6.571
 4846SOL     OW15436   6.499   2.658   3.750
 4846SOL    HW115437   6.432   2.627   3.682
 4846SOL    HW215438   6.454   2.722   3.813
 4847SOL     OW15439   2.433   0.134   6.579
 4847SOL    HW115440   2.502   0.074   6.622
 4847SOL    HW215441   2.406   0.096   6.491
 4848SOL     OW15442   1.357   1.171   4.486
 4848SOL    HW115443   1.407   1.159   4.572
 4848SOL    HW215444   1.422   1.168   4.409
 4849SOL     OW15445   0.593   6.184   6.613
 4849SOL    HW115446   0.498   6.174   6.644
 4849SOL    HW215447   0.648   6.110   6.652
 4850SOL     OW15448   4.034   0.973   1.830
 4850SOL    HW115449   4.017   1.071   1.835
 4850SOL    HW215450   4.028   0.943   1.735
 4851SOL     OW15451   3.463   6.585   5.775
 4851SOL    HW115452   3.493   6.648   5.704
 4851SOL    HW215453   3.364   6.585   5.781
 4852SOL     OW15454   2.198   5.801   5.228
 4852SOL    HW115455   2.265   5.737   5.266
 4852SOL    HW215456   2.189   5.785   5.129
 4853SOL     OW15457   3.367   1.158   3.174
 4853SOL    HW115458   3.449   1.115   3.212
 4853SOL    HW215459   3.286   1.112   3.209
 4854SOL     OW15460   4.768   6.259   1.534
 4854SOL    HW115461   4.677   6.298   1.522
 4854SOL    HW215462   4.763   6.160   1.519
 4855SOL     OW15463   6.016   2.474   4.052
 4855SOL    HW115464   5.960   2.555   4.074
 4855SOL    HW215465   6.072   2.494   3.972
 4856SOL     OW15466   1.619   3.381   3.330
 4856SOL    HW115467   1.542   3.445   3.334
 4856SOL    HW215468   1.589   3.297   3.284
 4857SOL     OW15469   3.372   2.130   3.926
 4857SOL    HW115470   3.282   2.174   3.926
 4857SOL    HW215471   3.400   2.111   4.020
 4858SOL     OW15472   0.116   0.580   4.973
 4858SOL    HW115473   0.037   0.595   4.913
 4858SOL    HW215474   0.091   0.517   5.046
 4859SOL     OW15475   0.913   5.926   3.203
 4859SOL    HW115476   0.927   5.938   3.105
 4859SOL    HW215477   0.831   5.871   3.219
 4860SOL     OW15478   4.268   4.526   0.747
 4860SOL    HW115479   4.231   4.499   0.658
 4860SOL    HW215480   4.331   4.603   0.735
 4861SOL     OW15481   5.566   5.231   0.046
 4861SOL    HW115482   5.535   5.136   0.043
 4861SOL    HW215483   5.578   5.265   6.979
 4862SOL     OW15484   2.021   4.441   5.124
 4862SOL    HW115485   2.097   4.378   5.112
 4862SOL    HW215486   1.934   4.391   5.118
 4863SOL     OW15487   4.919   3.841   1.591
 4863SOL    HW115488   4.866   3.902   1.649
 4863SOL    HW215489   4.943   3.758   1.642
 4864SOL     OW15490   3.590   1.721   2.125
 4864SOL    HW115491   3.653   1.799   2.127
 4864SOL    HW215492   3.530   1.729   2.046
 4865SOL     OW15493   2.310   6.875   4.686
 4865SOL    HW115494   2.394   6.924   4.664
 4865SOL    HW215495   2.329   6.777   4.688
 4866SOL     OW15496   6.352   4.413   0.930
 4866SOL    HW115497   6.260   4.397   0.895
 4866SOL    HW215498   6.411   4.447   0.857
 4867SOL     OW15499   4.870   5.525   2.452
 4867SOL    HW115500   4.894   5.502   2.547
 4867SOL    HW215501   4.821   5.612   2.451
 4868SOL     OW15502   0.305   4.961   2.274
 4868SOL    HW115503   0.301   4.866   2.304
 4868SOL    HW215504   0.400   4.988   2.261
 4869SOL     OW15505   0.126   1.745   2.049
 4869SOL    HW115506   0.100   1.826   1.996
 4869SOL    HW215507   0.078   1.665   2.012
 4870SOL     OW15508   6.960   6.140   1.503
 4870SOL    HW115509   6.882   6.151   1.440
 4870SOL    HW215510   6.992   6.046   1.501
 4871SOL     OW15511   0.607   1.672   4.686
 4871SOL    HW115512   0.656   1.669   4.599
 4871SOL    HW215513   0.509   1.681   4.668
 4872SOL     OW15514   6.770   5.753   4.289
 4872SOL    HW115515   6.785   5.843   4.248
 4872SOL    HW215516   6.804   5.682   4.229
 4873SOL     OW15517   6.662   4.715   3.680
 4873SOL    HW115518   6.592   4.776   3.717
 4873SOL    HW215519   6.752   4.754   3.698
 4874SOL     OW15520   5.938   3.403   3.248
 4874SOL    HW115521   5.922   3.443   3.158
 4874SOL    HW215522   5.877   3.444   3.315
 4875SOL     OW15523   5.496   3.349   1.710
 4875SOL    HW115524   5.549   3.431   1.691
 4875SOL    HW215525   5.558   3.276   1.741
 4876SOL     OW15526   5.708   1.110   4.024
 4876SOL    HW115527   5.652   1.029   4.042
 4876SOL    HW215528   5.653   1.192   4.040
 4877SOL     OW15529   0.393   1.790   0.471
 4877SOL    HW115530   0.387   1.726   0.548
 4877SOL    HW215531   0.393   1.884   0.506
 4878SOL     OW15532   6.085   0.660   3.110
 4878SOL    HW115533   6.169   0.697   3.150
 4878SOL    HW215534   6.015   0.731   3.109
 4879SOL     OW15535   4.433   5.810   3.402
 4879SOL    HW115536   4.348   5.762   3.426
 4879SOL    HW215537   4.467   5.860   3.482
 4880SOL     OW15538   5.952   3.041   6.657
 4880SOL    HW115539   5.925   2.987   6.737
 4880SOL    HW215540   5.870   3.064   6.603
 4881SOL     OW15541   1.907   6.917   6.999
 4881SOL    HW115542   1.907   6.823   0.008
 4881SOL    HW215543   1.899   6.915   6.899
 4882SOL     OW15544   5.363   1.202   4.065
 4882SOL    HW115545   5.373   1.130   4.133
 4882SOL    HW215546   5.269   1.235   4.065
 4883SOL     OW15547   4.615   5.121   2.610
 4883SOL    HW115548   4.598   5.183   2.687
 4883SOL    HW215549   4.702   5.146   2.566
 4884SOL     OW15550   3.905   0.154   0.903
 4884SOL    HW115551   3.892   0.247   0.869
 4884SOL    HW215552   3.991   0.117   0.866
 4885SOL     OW15553   1.975   5.920   2.242
 4885SOL    HW115554   1.974   5.927   2.142
 4885SOL    HW215555   2.070   5.911   2.273
 4886SOL     OW15556   6.970   6.332   0.672
 4886SOL    HW115557   0.036   6.370   0.671
 4886SOL    HW215558   6.938   6.319   0.578
 4887SOL     OW15559   0.152   0.481   3.537
 4887SOL    HW115560   0.209   0.405   3.506
 4887SOL    HW215561   0.056   0.462   3.517
 4888SOL     OW15562   2.154   6.541   4.525
 4888SOL    HW115563   2.127   6.445   4.517
 4888SOL    HW215564   2.252   6.546   4.545
 4889SOL     OW15565   6.233   0.694   0.121
 4889SOL    HW115566   6.187   0.611   0.153
 4889SOL    HW215567   6.289   0.731   0.195
 4890SOL     OW15568   0.516   1.375   5.714
 4890SOL    HW115569   0.422   1.369   5.749
 4890SOL    HW215570   0.548   1.284   5.689
 4891SOL     OW15571   1.503   5.701   0.511
 4891SOL    HW115572   1.458   5.626   0.463
 4891SOL    HW215573   1.587   5.726   0.463
 4892SOL     OW15574   2.738   6.023   1.401
 4892SOL    HW115575   2.820   6.033   1.345
 4892SOL    HW215576   2.706   6.114   1.430
 4893SOL     OW15577   0.119   4.385   1.242
 4893SOL    HW115578   0.055   4.316   1.207
 4893SOL    HW215579   0.080   4.429   1.322
 4894SOL     OW15580   2.423   2.099   2.387
 4894SOL    HW115581   2.520   2.101   2.408
 4894SOL    HW215582   2.381   2.187   2.410
 4895SOL     OW15583   0.808   5.528   2.652
 4895SOL    HW115584   0.820   5.610   2.707
 4895SOL    HW215585   0.882   5.463   2.671
 4896SOL     OW15586   2.150   4.993   1.944
 4896SOL    HW115587   2.192   5.070   1.991
 4896SOL    HW215588   2.085   4.947   2.005
 4897SOL     OW15589   2.086   4.708   5.730
 4897SOL    HW115590   2.092   4.613   5.759
 4897SOL    HW215591   2.013   4.716   5.661
 4898SOL     OW15592   4.162   1.339   4.209
 4898SOL    HW115593   4.111   1.352   4.294
 4898SOL    HW215594   4.102   1.360   4.131
 4899SOL     OW15595   6.079   5.306   3.133
 4899SOL    HW115596   6.065   5.207   3.120
 4899SOL    HW215597   6.118   5.322   3.223
 4900SOL     OW15598   2.327   5.633   5.414
 4900SOL    HW115599   2.335   5.544   5.369
 4900SOL    HW215600   2.388   5.636   5.493
 4901SOL     OW15601   3.295   6.856   5.403
 4901SOL    HW115602   3.219   6.914   5.375
 4901SOL    HW215603   3.377   6.883   5.351
 4902SOL     OW15604   2.254   2.833   4.625
 4902SOL    HW115605   2.294   2.835   4.717
 4902SOL    HW215606   2.160   2.868   4.629
 4903SOL     OW15607   2.987   6.192   6.920
 4903SOL    HW115608   2.900   6.188   6.970
 4903SOL    HW215609   3.028   6.282   6.932
 4904SOL     OW15610   1.494   0.511   4.101
 4904SOL    HW115611   1.507   0.486   4.197
 4904SOL    HW215612   1.578   0.551   4.065
 4905SOL     OW15613   4.229   1.339   2.112
 4905SOL    HW115614   4.179   1.253   2.124
 4905SOL    HW215615   4.291   1.330   2.034
 4906SOL     OW15616   4.332   1.535   6.678
 4906SOL    HW115617   4.304   1.505   6.769
 4906SOL    HW215618   4.383   1.621   6.686
 4907SOL     OW15619   4.769   5.968   1.114
 4907SOL    HW115620   4.705   5.992   1.187
 4907SOL    HW215621   4.834   6.043   1.101
 4908SOL     OW15622   4.902   4.908   6.451
 4908SOL    HW115623   4.862   4.883   6.539
 4908SOL    HW215624   4.830   4.940   6.389
 4909SOL     OW15625   0.001   0.115   4.868
 4909SOL    HW115626   0.058   0.070   4.799
 4909SOL    HW215627   6.991   0.046   4.932
 4910SOL     OW15628   5.371   6.293   4.345
 4910SOL    HW115629   5.322   6.367   4.391
 4910SOL    HW215630   5.339   6.205   4.378
 4911SOL     OW15631   0.089   3.140   5.044
 4911SOL    HW115632   0.057   3.049   5.019
 4911SOL    HW215633   0.124   3.139   5.138
 4912SOL     OW15634   5.415   2.653   1.243
 4912SOL    HW115635   5.481   2.613   1.180
 4912SOL    HW215636   5.463   2.711   1.309
 4913SOL     OW15637   3.489   3.493   3.908
 4913SOL    HW115638   3.468   3.422   3.842
 4913SOL    HW215639   3.405   3.540   3.935
 4914SOL     OW15640   3.384   6.960   4.985
 4914SOL    HW115641   3.396   6.861   4.996
 4914SOL    HW215642   3.358   6.980   4.890
 4915SOL     OW15643   4.495   0.559   4.298
 4915SOL    HW115644   4.423   0.628   4.298
 4915SOL    HW215645   4.533   0.551   4.390
 4916SOL     OW15646   2.246   1.754   4.021
 4916SOL    HW115647   2.251   1.717   3.928
 4916SOL    HW215648   2.273   1.683   4.086
 4917SOL     OW15649   1.854   4.952   0.513
 4917SOL    HW115650   1.801   5.023   0.466
 4917SOL    HW215651   1.840   4.960   0.612
 4918SOL     OW15652   3.193   6.628   2.284
 4918SOL    HW115653   3.240   6.577   2.212
 4918SOL    HW215654   3.130   6.693   2.243
 4919SOL     OW15655   2.133   2.144   6.727
 4919SOL    HW115656   2.062   2.086   6.767
 4919SOL    HW215657   2.201   2.087   6.680
 4920SOL     OW15658   5.065   0.705   5.564
 4920SOL    HW115659   4.997   0.634   5.585
 4920SOL    HW215660   5.026   0.770   5.498
 4921SOL     OW15661   1.986   4.263   0.633
 4921SOL    HW115662   1.915   4.269   0.563
 4921SOL    HW215663   2.036   4.177   0.623
 4922SOL     OW15664   1.689   3.090   4.702
 4922SOL    HW115665   1.754   3.133   4.765
 4922SOL    HW215666   1.677   3.148   4.622
 4923SOL     OW15667   3.496   1.404   0.497
 4923SOL    HW115668   3.460   1.449   0.579
 4923SOL    HW215669   3.470   1.457   0.416
 4924SOL     OW15670   1.864   2.646   5.982
 4924SOL    HW115671   1.924   2.576   6.020
 4924SOL    HW215672   1.905   2.682   5.898
 4925SOL     OW15673   5.636   6.972   1.974
 4925SOL    HW115674   5.688   0.015   2.023
 4925SOL    HW215675   5.539   6.996   1.972
 4926SOL     OW15676   5.468   2.569   0.225
 4926SOL    HW115677   5.470   2.495   0.159
 4926SOL    HW215678   5.380   2.571   0.271
 4927SOL     OW15679   3.703   3.750   4.438
 4927SOL    HW115680   3.702   3.752   4.538
 4927SOL    HW215681   3.778   3.808   4.405
 4928SOL     OW15682   6.869   0.383   6.419
 4928SOL    HW115683   6.781   0.403   6.463
 4928SOL    HW215684   6.853   0.360   6.323
 4929SOL     OW15685   1.467   4.893   4.980
 4929SOL    HW115686   1.472   4.982   5.024
 4929SOL    HW215687   1.384   4.846   5.011
 4930SOL     OW15688   5.120   0.986   1.859
 4930SOL    HW115689   5.123   0.950   1.766
 4930SOL    HW215690   5.163   1.077   1.861
 4931SOL     OW15691   6.257   0.171   1.336
 4931SOL    HW115692   6.268   0.238   1.262
 4931SOL    HW215693   6.173   0.189   1.386
 4932SOL     OW15694   2.262   2.605   1.722
 4932SOL    HW115695   2.267   2.547   1.803
 4932SOL    HW215696   2.354   2.629   1.691
 4933SOL     OW15697   2.179   0.191   3.617
 4933SOL    HW115698   2.216   0.166   3.706
 4933SOL    HW215699   2.110   0.125   3.589
 4934SOL     OW15700   1.694   4.792   2.992
 4934SOL    HW115701   1.656   4.884   2.999
 4934SOL    HW215702   1.794   4.796   2.995
 4935SOL     OW15703   1.243   1.311   6.573
 4935SOL    HW115704   1.262   1.290   6.668
 4935SOL    HW215705   1.328   1.308   6.520
 4936SOL     OW15706   1.971   5.076   1.337
 4936SOL    HW115707   2.030   5.111   1.410
 4936SOL    HW215708   1.933   5.153   1.285
 4937SOL     OW15709   6.903   3.197   6.094
 4937SOL    HW115710   6.865   3.166   6.181
 4937SOL    HW215711   6.847   3.162   6.019
 4938SOL     OW15712   2.126   5.564   6.826
 4938SOL    HW115713   2.120   5.494   6.898
 4938SOL    HW215714   2.170   5.525   6.745
 4939SOL     OW15715   0.524   1.866   4.023
 4939SOL    HW115716   0.551   1.843   4.116
 4939SOL    HW215717   0.577   1.812   3.958
 4940SOL     OW15718   0.341   1.331   5.459
 4940SOL    HW115719   0.357   1.295   5.550
 4940SOL    HW215720   0.377   1.267   5.390
 4941SOL     OW15721   4.475   2.515   5.072
 4941SOL    HW115722   4.407   2.515   4.999
 4941SOL    HW215723   4.451   2.586   5.139
 4942SOL     OW15724   5.143   2.887   5.641
 4942SOL    HW115725   5.074   2.895   5.569
 4942SOL    HW215726   5.098   2.895   5.730
 4943SOL     OW15727   5.080   4.140   5.989
 4943SOL    HW115728   5.077   4.180   6.080
 4943SOL    HW215729   5.175   4.134   5.958
 4944SOL     OW15730   2.583   4.217   1.716
 4944SOL    HW115731   2.624   4.308   1.719
 4944SOL    HW215732   2.646   4.152   1.673
 4945SOL     OW15733   1.264   6.883   4.572
 4945SOL    HW115734   1.241   6.839   4.658
 4945SOL    HW215735   1.250   6.818   4.497
 4946SOL     OW15736   0.881   5.182   6.766
 4946SOL    HW115737   0.930   5.260   6.805
 4946SOL    HW215738   0.935   5.143   6.691
 4947SOL     OW15739   2.201   0.229   0.888
 4947SOL    HW115740   2.170   0.231   0.793
 4947SOL    HW215741   2.124   0.248   0.948
 4948SOL     OW15742   2.158   2.564   3.248
 4948SOL    HW115743   2.068   2.592   3.214
 4948SOL    HW215744   2.150   2.529   3.341
 4949SOL     OW15745   6.548   4.852   5.388
 4949SOL    HW115746   6.498   4.911   5.324
 4949SOL    HW215747   6.523   4.877   5.481
 4950SOL     OW15748   2.182   4.906   4.796
 4950SOL    HW115749   2.174   4.807   4.807
 4950SOL    HW215750   2.244   4.926   4.720
 4951SOL     OW15751   5.958   1.349   4.161
 4951SOL    HW115752   5.911   1.323   4.076
 4951SOL    HW215753   5.924   1.439   4.191
 4952SOL     OW15754   6.731   0.087   6.433
 4952SOL    HW115755   6.654   0.091   6.497
 4952SOL    HW215756   6.792   0.165   6.449
 4953SOL     OW15757   1.667   0.053   3.352
 4953SOL    HW115758   1.639   6.993   3.395
 4953SOL    HW215759   1.722   0.033   3.270
 4954SOL     OW15760   2.943   3.339   7.020
 4954SOL    HW115761   2.900   3.271   6.960
 4954SOL    HW215762   2.878   3.413   0.013
 4955SOL     OW15763   3.532   6.689   0.047
 4955SOL    HW115764   3.486   6.753   0.108
 4955SOL    HW215765   3.631   6.707   0.049
 4956SOL     OW15766   2.467   6.952   5.635
 4956SOL    HW115767   2.503   0.019   5.629
 4956SOL    HW215768   2.439   6.921   5.544
 4957SOL     OW15769   5.900   2.254   1.994
 4957SOL    HW115770   5.942   2.293   1.911
 4957SOL    HW215771   5.970   2.204   2.046
 4958SOL     OW15772   0.971   5.268   5.644
 4958SOL    HW115773   1.005   5.207   5.572
 4958SOL    HW215774   0.918   5.216   5.710
 4959SOL     OW15775   6.012   2.159   0.922
 4959SOL    HW115776   5.943   2.142   0.992
 4959SOL    HW215777   6.083   2.219   0.960
 4960SOL     OW15778   3.733   4.927   3.749
 4960SOL    HW115779   3.820   4.959   3.711
 4960SOL    HW215780   3.670   4.905   3.675
 4961SOL     OW15781   4.047   0.832   5.517
 4961SOL    HW115782   4.067   0.757   5.454
 4961SOL    HW215783   4.027   0.915   5.464
 4962SOL     OW15784   5.777   2.952   0.208
 4962SOL    HW115785   5.818   2.976   0.296
 4962SOL    HW215786   5.846   2.910   0.150
 4963SOL     OW15787   0.480   6.542   0.455
 4963SOL    HW115788   0.475   6.561   0.357
 4963SOL    HW215789   0.576   6.537   0.484
 4964SOL     OW15790   2.787   6.759   4.861
 4964SOL    HW115791   2.856   6.686   4.865
 4964SOL    HW215792   2.733   6.750   4.778
 4965SOL     OW15793   0.566   0.597   1.939
 4965SOL    HW115794   0.638   0.529   1.930
 4965SOL    HW215795   0.491   0.560   1.993
 4966SOL     OW15796   2.824   6.552   5.199
 4966SOL    HW115797   2.786   6.537   5.108
 4966SOL    HW215798   2.760   6.607   5.253
 4967SOL     OW15799   3.830   4.866   5.188
 4967SOL    HW115800   3.828   4.886   5.286
 4967SOL    HW215801   3.741   4.890   5.148
 4968SOL     OW15802   0.561   1.216   3.311
 4968SOL    HW115803   0.490   1.244   3.376
 4968SOL    HW215804   0.519   1.197   3.222
 4969SOL     OW15805   2.004   5.429   2.715
 4969SOL    HW115806   1.966   5.369   2.644
 4969SOL    HW215807   2.024   5.375   2.797
 4970SOL     OW15808   2.515   2.201   1.954
 4970SOL    HW115809   2.444   2.130   1.952
 4970SOL    HW215810   2.548   2.213   2.047
 4971SOL     OW15811   5.492   5.501   3.144
 4971SOL    HW115812   5.440   5.575   3.102
 4971SOL    HW215813   5.585   5.533   3.164
 4972SOL     OW15814   0.996   3.530   1.200
 4972SOL    HW115815   0.936   3.462   1.157
 4972SOL    HW215816   1.030   3.593   1.130
 4973SOL     OW15817   1.016   6.937   1.927
 4973SOL    HW115818   1.046   6.854   1.880
 4973SOL    HW215819   1.094   6.978   1.974
 4974SOL     OW15820   0.048   4.514   1.477
 4974SOL    HW115821   7.009   4.574   1.431
 4974SOL    HW215822   0.001   4.461   1.547
 4975SOL     OW15823   5.844   4.363   6.114
 4975SOL    HW115824   5.921   4.426   6.112
 4975SOL    HW215825   5.767   4.403   6.064
 4976SOL     OW15826   2.205   2.095   4.010
 4976SOL    HW115827   2.167   2.003   3.999
 4976SOL    HW215828   2.299   2.088   4.043
 4977SOL     OW15829   4.364   4.174   0.155
 4977SOL    HW115830   4.373   4.242   0.081
 4977SOL    HW215831   4.424   4.096   0.135
 4978SOL     OW15832   6.496   4.525   5.039
 4978SOL    HW115833   6.552   4.589   5.092
 4978SOL    HW215834   6.463   4.571   4.956
 4979SOL     OW15835   6.632   6.887   6.243
 4979SOL    HW115836   6.659   6.966   6.299
 4979SOL    HW215837   6.534   6.891   6.224
 4980SOL     OW15838   5.245   6.023   3.142
 4980SOL    HW115839   5.163   6.048   3.090
 4980SOL    HW215840   5.290   6.106   3.174
 4981SOL     OW15841   3.893   4.677   0.832
 4981SOL    HW115842   3.819   4.734   0.795
 4981SOL    HW215843   3.897   4.689   0.932
 4982SOL     OW15844   2.923   0.956   5.366
 4982SOL    HW115845   3.015   0.966   5.404
 4982SOL    HW215846   2.926   0.892   5.289
 4983SOL     OW15847   5.970   3.982   5.806
 4983SOL    HW115848   6.023   4.064   5.830
 4983SOL    HW215849   5.922   3.998   5.720
 4984SOL     OW15850   5.436   4.496   2.974
 4984SOL    HW115851   5.346   4.520   2.937
 4984SOL    HW215852   5.478   4.426   2.917
 4985SOL     OW15853   5.471   0.419   3.371
 4985SOL    HW115854   5.430   0.372   3.292
 4985SOL    HW215855   5.478   0.355   3.448
 4986SOL     OW15856   0.073   4.934   1.510
 4986SOL    HW115857   0.081   4.838   1.536
 4986SOL    HW215858   0.159   4.981   1.529
 4987SOL     OW15859   0.798   0.154   2.473
 4987SOL    HW115860   0.825   0.225   2.407
 4987SOL    HW215861   0.790   0.195   2.564
 4988SOL     OW15862   5.333   0.802   2.377
 4988SOL    HW115863   5.241   0.767   2.397
 4988SOL    HW215864   5.399   0.728   2.382
 4989SOL     OW15865   5.307   6.658   2.068
 4989SOL    HW115866   5.262   6.745   2.050
 4989SOL    HW215867   5.249   6.583   2.038
 4990SOL     OW15868   2.560   2.513   5.451
 4990SOL    HW115869   2.504   2.590   5.481
 4990SOL    HW215870   2.616   2.540   5.374
 4991SOL     OW15871   6.429   5.859   3.266
 4991SOL    HW115872   6.353   5.884   3.327
 4991SOL    HW215873   6.409   5.891   3.174
 4992SOL     OW15874   4.894   1.129   2.168
 4992SOL    HW115875   4.954   1.172   2.100
 4992SOL    HW215876   4.831   1.198   2.205
 4993SOL     OW15877   3.328   5.764   4.892
 4993SOL    HW115878   3.332   5.701   4.814
 4993SOL    HW215879   3.420   5.798   4.913
 4994SOL     OW15880   2.135   0.514   4.029
 4994SOL    HW115881   2.054   0.570   4.016
 4994SOL    HW215882   2.116   0.420   4.001
 4995SOL     OW15883   0.395   2.379   5.257
 4995SOL    HW115884   0.305   2.336   5.269
 4995SOL    HW215885   0.384   2.476   5.238
 4996SOL     OW15886   0.419   1.013   2.873
 4996SOL    HW115887   0.321   0.995   2.863
 4996SOL    HW215888   0.465   0.997   2.785
 4997SOL     OW15889   4.868   2.470   2.637
 4997SOL    HW115890   4.833   2.415   2.713
 4997SOL    HW215891   4.914   2.551   2.674
 4998SOL     OW15892   2.236   4.258   4.809
 4998SOL    HW115893   2.138   4.242   4.793
 4998SOL    HW215894   2.268   4.198   4.882
 4999SOL     OW15895   6.639   3.940   7.018
 4999SOL    HW115896   6.615   4.029   0.032
 4999SOL    HW215897   6.617   3.939   6.921
 5000SOL     OW15898   3.559   6.690   3.325
 5000SOL    HW115899   3.530   6.621   3.258
 5000SOL    HW215900   3.640   6.656   3.374
 5001SOL     OW15901   0.412   4.217   1.778
 5001SOL    HW115902   0.465   4.188   1.858
 5001SOL    HW215903   0.325   4.168   1.776
 5002SOL     OW15904   0.418   2.989   2.013
 5002SOL    HW115905   0.367   2.934   1.947
 5002SOL    HW215906   0.447   3.074   1.970
 5003SOL     OW15907   3.022   5.626   2.655
 5003SOL    HW115908   2.999   5.692   2.727
 5003SOL    HW215909   3.025   5.534   2.694
 5004SOL     OW15910   2.298   4.838   5.818
 5004SOL    HW115911   2.221   4.784   5.784
 5004SOL    HW215912   2.265   4.910   5.878
 5005SOL     OW15913   3.217   2.862   1.038
 5005SOL    HW115914   3.118   2.870   1.050
 5005SOL    HW215915   3.256   2.952   1.018
 5006SOL     OW15916   5.022   0.339   0.981
 5006SOL    HW115917   4.990   0.379   0.895
 5006SOL    HW215918   4.943   0.308   1.034
 5007SOL     OW15919   0.796   6.743   0.387
 5007SOL    HW115920   0.743   6.811   0.437
 5007SOL    HW215921   0.878   6.718   0.440
 5008SOL     OW15922   5.660   6.642   1.790
 5008SOL    HW115923   5.661   6.652   1.890
 5008SOL    HW215924   5.679   6.547   1.767
 5009SOL     OW15925   0.730   0.613   0.952
 5009SOL    HW115926   0.759   0.537   0.893
 5009SOL    HW215927   0.728   0.697   0.899
 5010SOL     OW15928   3.984   3.062   2.286
 5010SOL    HW115929   3.984   3.128   2.361
 5010SOL    HW215930   4.029   2.978   2.315
 5011SOL     OW15931   1.700   4.057   2.494
 5011SOL    HW115932   1.690   4.027   2.589
 5011SOL    HW215933   1.791   4.096   2.481
 5012SOL     OW15934   5.943   4.633   6.344
 5012SOL    HW115935   5.875   4.570   6.382
 5012SOL    HW215936   6.035   4.597   6.359
 5013SOL     OW15937   4.922   1.172   0.313
 5013SOL    HW115938   4.996   1.134   0.368
 5013SOL    HW215939   4.835   1.134   0.343
 5014SOL     OW15940   6.599   4.515   0.781
 5014SOL    HW115941   6.648   4.588   0.732
 5014SOL    HW215942   6.663   4.441   0.803
 5015SOL     OW15943   4.688   1.874   4.517
 5015SOL    HW115944   4.645   1.798   4.468
 5015SOL    HW215945   4.617   1.935   4.552
 5016SOL     OW15946   1.617   3.169   0.394
 5016SOL    HW115947   1.555   3.123   0.331
 5016SOL    HW215948   1.705   3.122   0.395
 5017SOL     OW15949   1.849   2.775   0.866
 5017SOL    HW115950   1.892   2.697   0.912
 5017SOL    HW215951   1.863   2.857   0.921
 5018SOL     OW15952   0.881   3.983   1.956
 5018SOL    HW115953   0.955   3.965   2.021
 5018SOL    HW215954   0.901   3.936   1.869
 5019SOL     OW15955   1.237   4.961   6.021
 5019SOL    HW115956   1.322   4.995   5.980
 5019SOL    HW215957   1.178   5.038   6.046
 5020SOL     OW15958   5.507   0.447   6.589
 5020SOL    HW115959   5.427   0.388   6.598
 5020SOL    HW215960   5.538   0.476   6.679
 5021SOL     OW15961   0.803   1.487   0.271
 5021SOL    HW115962   0.893   1.443   0.279
 5021SOL    HW215963   0.803   1.571   0.326
 5022SOL     OW15964   1.177   1.268   0.157
 5022SOL    HW115965   1.265   1.229   0.183
 5022SOL    HW215966   1.143   1.325   0.232
 5023SOL     OW15967   6.723   2.935   1.305
 5023SOL    HW115968   6.779   3.018   1.299
 5023SOL    HW215969   6.783   2.855   1.311
 5024SOL     OW15970   6.175   5.455   1.490
 5024SOL    HW115971   6.084   5.481   1.522
 5024SOL    HW215972   6.224   5.407   1.564
 5025SOL     OW15973   3.141   1.791   2.012
 5025SOL    HW115974   3.105   1.840   1.933
 5025SOL    HW215975   3.066   1.771   2.076
 5026SOL     OW15976   6.304   6.034   5.612
 5026SOL    HW115977   6.336   5.992   5.527
 5026SOL    HW215978   6.348   6.123   5.623
 5027SOL     OW15979   6.853   6.636   1.822
 5027SOL    HW115980   6.941   6.589   1.825
 5027SOL    HW215981   6.863   6.727   1.863
 5028SOL     OW15982   0.316   2.089   2.514
 5028SOL    HW115983   0.365   2.155   2.458
 5028SOL    HW215984   0.271   2.022   2.455
 5029SOL     OW15985   6.647   2.372   1.752
 5029SOL    HW115986   6.671   2.350   1.658
 5029SOL    HW215987   6.548   2.359   1.765
 5030SOL     OW15988   0.276   6.710   0.532
 5030SOL    HW115989   0.296   6.789   0.591
 5030SOL    HW215990   0.362   6.667   0.504
 5031SOL     OW15991   5.926   0.339   5.391
 5031SOL    HW115992   5.834   0.359   5.423
 5031SOL    HW215993   5.993   0.369   5.458
 5032SOL     OW15994   1.968   2.162   0.774
 5032SOL    HW115995   1.874   2.175   0.807
 5032SOL    HW215996   2.025   2.239   0.803
 5033SOL     OW15997   1.836   0.311   5.593
 5033SOL    HW115998   1.862   0.398   5.635
 5033SOL    HW215999   1.909   0.244   5.605
 5034SOL     OW16000   6.065   0.648   3.635
 5034SOL    HW116001   5.984   0.689   3.593
 5034SOL    HW216002   6.037   0.571   3.693
 5035SOL     OW16003   1.212   3.941   0.491
 5035SOL    HW116004   1.172   4.021   0.535
 5035SOL    HW216005   1.145   3.901   0.428
 5036SOL     OW16006   0.749   4.576   6.735
 5036SOL    HW116007   0.739   4.623   6.647
 5036SOL    HW216008   0.726   4.479   6.725
 5037SOL     OW16009   4.885   4.283   2.483
 5037SOL    HW116010   4.908   4.216   2.553
 5037SOL    HW216011   4.965   4.300   2.426
 5038SOL     OW16012   3.345   4.137   6.078
 5038SOL    HW116013   3.347   4.132   5.979
 5038SOL    HW216014   3.359   4.231   6.108
 5039SOL     OW16015   2.968   4.399   5.646
 5039SOL    HW116016   2.966   4.418   5.548
 5039SOL    HW216017   3.062   4.381   5.675
 5040SOL     OW16018   1.817   5.670   5.912
 5040SOL    HW116019   1.727   5.713   5.909
 5040SOL    HW216020   1.856   5.669   5.820
 5041SOL     OW16021   1.938   1.579   2.563
 5041SOL    HW116022   1.947   1.671   2.526
 5041SOL    HW216023   1.842   1.550   2.558
 5042SOL     OW16024   6.800   2.779   0.249
 5042SOL    HW116025   6.841   2.792   0.340
 5042SOL    HW216026   6.862   2.814   0.179
 5043SOL     OW16027   3.340   0.407   6.039
 5043SOL    HW116028   3.360   0.335   5.973
 5043SOL    HW216029   3.354   0.372   6.132
 5044SOL     OW16030   0.490   6.380   7.020
 5044SOL    HW116031   0.541   6.296   0.015
 5044SOL    HW216032   0.472   6.385   6.922
 5045SOL     OW16033   5.088   0.585   6.793
 5045SOL    HW116034   5.064   0.510   6.732
 5045SOL    HW216035   5.182   0.614   6.774
 5046SOL     OW16036   3.311   4.025   3.002
 5046SOL    HW116037   3.378   4.099   2.993
 5046SOL    HW216038   3.265   4.011   2.915
 5047SOL     OW16039   0.583   4.147   2.317
 5047SOL    HW116040   0.650   4.207   2.274
 5047SOL    HW216041   0.511   4.125   2.251
 5048SOL     OW16042   0.521   1.496   2.209
 5048SOL    HW116043   0.540   1.448   2.123
 5048SOL    HW216044   0.503   1.429   2.281
 5049SOL     OW16045   5.680   2.331   6.114
 5049SOL    HW116046   5.725   2.251   6.076
 5049SOL    HW216047   5.748   2.399   6.141
 5050SOL     OW16048   1.430   1.412   1.204
 5050SOL    HW116049   1.507   1.417   1.267
 5050SOL    HW216050   1.419   1.318   1.172
 5051SOL     OW16051   5.041   5.057   0.948
 5051SOL    HW116052   5.064   5.080   1.043
 5051SOL    HW216053   4.948   5.020   0.945
 5052SOL     OW16054   2.588   0.768   6.276
 5052SOL    HW116055   2.539   0.837   6.330
 5052SOL    HW216056   2.523   0.717   6.220
 5053SOL     OW16057   2.284   4.314   2.979
 5053SOL    HW116058   2.278   4.231   2.923
 5053SOL    HW216059   2.224   4.384   2.940
 5054SOL     OW16060   3.646   5.397   5.420
 5054SOL    HW116061   3.641   5.496   5.421
 5054SOL    HW216062   3.570   5.360   5.365
 5055SOL     OW16063   1.608   1.739   5.601
 5055SOL    HW116064   1.682   1.714   5.664
 5055SOL    HW216065   1.634   1.822   5.551
 5056SOL     OW16066   6.733   4.047   6.723
 5056SOL    HW116067   6.671   3.969   6.713
 5056SOL    HW216068   6.702   4.122   6.665
 5057SOL     OW16069   0.247   6.206   4.041
 5057SOL    HW116070   0.178   6.277   4.029
 5057SOL    HW216071   0.219   6.145   4.115
 5058SOL     OW16072   2.918   3.311   5.595
 5058SOL    HW116073   2.929   3.373   5.516
 5058SOL    HW216074   2.885   3.363   5.673
 5059SOL     OW16075   5.910   1.748   3.620
 5059SOL    HW116076   5.906   1.656   3.661
 5059SOL    HW216077   5.996   1.758   3.569
 5060SOL     OW16078   0.449   1.641   5.726
 5060SOL    HW116079   0.481   1.547   5.718
 5060SOL    HW216080   0.351   1.642   5.745
 5061SOL     OW16081   4.148   3.123   1.850
 5061SOL    HW116082   4.149   3.165   1.941
 5061SOL    HW216083   4.125   3.026   1.859
 5062SOL     OW16084   5.076   1.130   2.955
 5062SOL    HW116085   5.139   1.182   2.898
 5062SOL    HW216086   5.083   1.033   2.931
 5063SOL     OW16087   1.244   6.914   2.439
 5063SOL    HW116088   1.234   6.935   2.537
 5063SOL    HW216089   1.153   6.902   2.399
 5064SOL     OW16090   5.196   4.065   1.998
 5064SOL    HW116091   5.154   3.977   2.020
 5064SOL    HW216092   5.283   4.049   1.952
 5065SOL     OW16093   2.017   1.196   3.742
 5065SOL    HW116094   2.106   1.214   3.700
 5065SOL    HW216095   1.947   1.250   3.696
 5066SOL     OW16096   4.510   4.770   1.846
 5066SOL    HW116097   4.470   4.696   1.900
 5066SOL    HW216098   4.463   4.777   1.758
 5067SOL     OW16099   4.815   1.078   1.526
 5067SOL    HW116100   4.734   1.124   1.489
 5067SOL    HW216101   4.804   1.067   1.625
 5068SOL     OW16102   2.608   4.936   6.866
 5068SOL    HW116103   2.571   4.912   6.777
 5068SOL    HW216104   2.693   4.886   6.882
 5069SOL     OW16105   2.462   3.274   5.490
 5069SOL    HW116106   2.509   3.311   5.410
 5069SOL    HW216107   2.414   3.191   5.465
 5070SOL     OW16108   4.542   4.889   3.512
 5070SOL    HW116109   4.479   4.898   3.435
 5070SOL    HW216110   4.620   4.950   3.499
 5071SOL     OW16111   4.043   2.215   3.014
 5071SOL    HW116112   4.113   2.285   2.998
 5071SOL    HW216113   4.000   2.231   3.104
 5072SOL     OW16114   1.179   0.086   1.731
 5072SOL    HW116115   1.190   0.058   1.826
 5072SOL    HW216116   1.210   0.180   1.720
 5073SOL     OW16117   0.241   5.938   1.343
 5073SOL    HW116118   0.330   5.951   1.300
 5073SOL    HW216119   0.176   5.902   1.277
 5074SOL     OW16120   3.537   2.924   1.175
 5074SOL    HW116121   3.540   2.987   1.097
 5074SOL    HW216122   3.601   2.955   1.245
 5075SOL     OW16123   1.232   1.769   6.704
 5075SOL    HW116124   1.179   1.823   6.640
 5075SOL    HW216125   1.296   1.711   6.653
 5076SOL     OW16126   4.700   0.529   0.602
 5076SOL    HW116127   4.794   0.563   0.605
 5076SOL    HW216128   4.650   0.574   0.529
 5077SOL     OW16129   1.821   4.451   5.463
 5077SOL    HW116130   1.860   4.498   5.384
 5077SOL    HW216131   1.794   4.358   5.437
 5078SOL     OW16132   0.612   1.067   3.947
 5078SOL    HW116133   0.659   1.074   4.035
 5078SOL    HW216134   0.599   0.970   3.924
 5079SOL     OW16135   1.695   3.018   5.464
 5079SOL    HW116136   1.715   2.961   5.544
 5079SOL    HW216137   1.748   2.986   5.386
 5080SOL     OW16138   5.943   6.890   6.345
 5080SOL    HW116139   6.001   6.813   6.317
 5080SOL    HW216140   5.889   6.864   6.425
 5081SOL     OW16141   2.944   3.275   4.603
 5081SOL    HW116142   2.941   3.361   4.551
 5081SOL    HW216143   2.951   3.198   4.539
 5082SOL     OW16144   4.841   5.471   0.420
 5082SOL    HW116145   4.816   5.541   0.486
 5082SOL    HW216146   4.880   5.514   0.339
 5083SOL     OW16147   2.435   6.114   2.177
 5083SOL    HW116148   2.451   6.211   2.198
 5083SOL    HW216149   2.523   6.067   2.168
 5084SOL     OW16150   0.538   4.503   4.003
 5084SOL    HW116151   0.471   4.432   4.021
 5084SOL    HW216152   0.500   4.592   4.026
 5085SOL     OW16153   5.486   3.100   6.691
 5085SOL    HW116154   5.522   3.016   6.732
 5085SOL    HW216155   5.387   3.092   6.682
 5086SOL     OW16156   1.248   5.567   3.044
 5086SOL    HW116157   1.266   5.571   2.945
 5086SOL    HW216158   1.152   5.590   3.060
 5087SOL     OW16159   1.938   5.222   2.419
 5087SOL    HW116160   2.002   5.280   2.370
 5087SOL    HW216161   1.982   5.134   2.440
 5088SOL     OW16162   6.247   1.257   4.945
 5088SOL    HW116163   6.344   1.235   4.954
 5088SOL    HW216164   6.237   1.355   4.926
 5089SOL     OW16165   5.057   4.312   4.311
 5089SOL    HW116166   5.042   4.266   4.223
 5089SOL    HW216167   5.002   4.395   4.314
 5090SOL     OW16168   2.143   4.075   2.811
 5090SOL    HW116169   2.172   4.026   2.728
 5090SOL    HW216170   2.120   4.009   2.882
 5091SOL     OW16171   0.614   0.867   2.405
 5091SOL    HW116172   0.599   0.936   2.476
 5091SOL    HW216173   0.710   0.837   2.408
 5092SOL     OW16174   3.307   3.593   1.801
 5092SOL    HW116175   3.266   3.502   1.800
 5092SOL    HW216176   3.396   3.588   1.848
 5093SOL     OW16177   2.745   1.306   1.365
 5093SOL    HW116178   2.657   1.340   1.399
 5093SOL    HW216179   2.729   1.240   1.292
 5094SOL     OW16180   2.366   5.611   6.114
 5094SOL    HW116181   2.323   5.615   6.024
 5094SOL    HW216182   2.392   5.704   6.142
 5095SOL     OW16183   5.907   2.509   4.430
 5095SOL    HW116184   5.893   2.553   4.519
 5095SOL    HW216185   5.893   2.410   4.440
 5096SOL     OW16186   3.878   4.596   0.476
 5096SOL    HW116187   3.971   4.592   0.438
 5096SOL    HW216188   3.868   4.527   0.548
 5097SOL     OW16189   1.497   0.827   6.488
 5097SOL    HW116190   1.461   0.762   6.555
 5097SOL    HW216191   1.471   0.920   6.513
 5098SOL     OW16192   2.009   0.136   1.926
 5098SOL    HW116193   2.068   0.206   1.964
 5098SOL    HW216194   2.065   0.060   1.892
 5099SOL     OW16195   0.615   6.478   6.509
 5099SOL    HW116196   0.641   6.500   6.603
 5099SOL    HW216197   0.563   6.392   6.509
 5100SOL     OW16198   3.667   5.268   4.986
 5100SOL    HW116199   3.757   5.246   5.023
 5100SOL    HW216200   3.650   5.366   4.993
 5101SOL     OW16201   5.274   6.596   6.976
 5101SOL    HW116202   5.195   6.643   6.939
 5101SOL    HW216203   5.358   6.644   6.949
 5102SOL     OW16204   5.141   6.985   4.430
 5102SOL    HW116205   5.225   0.012   4.441
 5102SOL    HW216206   5.111   6.988   4.335
 5103SOL     OW16207   6.793   1.518   4.229
 5103SOL    HW116208   6.716   1.473   4.275
 5103SOL    HW216209   6.873   1.518   4.290
 5104SOL     OW16210   1.978   6.803   2.910
 5104SOL    HW116211   2.060   6.745   2.911
 5104SOL    HW216212   1.909   6.764   2.971
 5105SOL     OW16213   3.629   2.745   0.449
 5105SOL    HW116214   3.674   2.658   0.471
 5105SOL    HW216215   3.633   2.760   0.350
 5106SOL     OW16216   3.943   1.212   0.342
 5106SOL    HW116217   3.993   1.138   0.389
 5106SOL    HW216218   3.878   1.254   0.405
 5107SOL     OW16219   3.173   0.645   0.363
 5107SOL    HW116220   3.204   0.550   0.368
 5107SOL    HW216221   3.252   0.706   0.361
 5108SOL     OW16222   3.064   3.091   4.886
 5108SOL    HW116223   3.060   3.099   4.986
 5108SOL    HW216224   2.974   3.107   4.847
 5109SOL     OW16225   1.236   0.629   0.438
 5109SOL    HW116226   1.325   0.671   0.457
 5109SOL    HW216227   1.166   0.669   0.498
 5110SOL     OW16228   0.105   0.234   6.363
 5110SOL    HW116229   0.121   0.314   6.304
 5110SOL    HW216230   0.053   0.166   6.312
 5111SOL     OW16231   2.009   0.819   5.335
 5111SOL    HW116232   2.033   0.880   5.411
 5111SOL    HW216233   1.922   0.847   5.296
 5112SOL     OW16234   1.256   0.206   2.749
 5112SOL    HW116235   1.284   0.227   2.843
 5112SOL    HW216236   1.165   0.245   2.732
 5113SOL     OW16237   2.274   6.810   1.007
 5113SOL    HW116238   2.297   6.755   0.927
 5113SOL    HW216239   2.237   6.750   1.078
 5114SOL     OW16240   2.984   1.128   0.507
 5114SOL    HW116241   3.029   1.207   0.465
 5114SOL    HW216242   2.907   1.159   0.563
 5115SOL     OW16243   2.379   4.961   4.458
 5115SOL    HW116244   2.397   4.998   4.549
 5115SOL    HW216245   2.376   4.861   4.463
 5116SOL     OW16246   6.394   0.098   6.521
 5116SOL    HW116247   6.383   0.176   6.459
 5116SOL    HW216248   6.405   0.132   6.615
 5117SOL     OW16249   2.743   4.727   4.541
 5117SOL    HW116250   2.708   4.715   4.634
 5117SOL    HW216251   2.685   4.677   4.477
 5118SOL     OW16252   4.853   0.588   0.221
 5118SOL    HW116253   4.887   0.572   0.129
 5118SOL    HW216254   4.810   0.678   0.226
 5119SOL     OW16255   5.270   0.734   1.790
 5119SOL    HW116256   5.315   0.769   1.872
 5119SOL    HW216257   5.230   0.810   1.739
 5120SOL     OW16258   4.262   1.273   3.878
 5120SOL    HW116259   4.289   1.213   3.803
 5120SOL    HW216260   4.240   1.218   3.958
 5121SOL     OW16261   2.921   1.996   6.719
 5121SOL    HW116262   2.981   2.076   6.716
 5121SOL    HW216263   2.973   1.914   6.696
 5122SOL     OW16264   3.153   6.887   2.458
 5122SOL    HW116265   3.125   6.820   2.390
 5122SOL    HW216266   3.117   6.860   2.548
 5123SOL     OW16267   4.587   1.700   5.198
 5123SOL    HW116268   4.583   1.716   5.297
 5123SOL    HW216269   4.595   1.787   5.150
 5124SOL     OW16270   3.324   5.163   5.060
 5124SOL    HW116271   3.350   5.150   4.964
 5124SOL    HW216272   3.356   5.085   5.114
 5125SOL     OW16273   6.309   3.262   4.199
 5125SOL    HW116274   6.241   3.198   4.234
 5125SOL    HW216275   6.343   3.230   4.110
 5126SOL     OW16276   6.540   5.227   5.515
 5126SOL    HW116277   6.526   5.326   5.511
 5126SOL    HW216278   6.630   5.204   5.477
 5127SOL     OW16279   0.813   3.641   0.105
 5127SOL    HW116280   0.746   3.587   0.157
 5127SOL    HW216281   0.801   3.738   0.126
 5128SOL     OW16282   6.563   0.659   6.323
 5128SOL    HW116283   6.469   0.649   6.354
 5128SOL    HW216284   6.625   0.660   6.402
 5129SOL     OW16285   5.143   0.598   2.898
 5129SOL    HW116286   5.197   0.522   2.933
 5129SOL    HW216287   5.046   0.579   2.910
 5130SOL     OW16288   1.737   5.258   3.911
 5130SOL    HW116289   1.659   5.207   3.876
 5130SOL    HW216290   1.820   5.203   3.900
 5131SOL     OW16291   2.639   5.586   3.647
 5131SOL    HW116292   2.731   5.547   3.638
 5131SOL    HW216293   2.603   5.564   3.738
 5132SOL     OW16294   3.092   2.133   5.883
 5132SOL    HW116295   3.170   2.095   5.933
 5132SOL    HW216296   3.063   2.218   5.927
 5133SOL     OW16297   1.612   5.381   6.663
 5133SOL    HW116298   1.580   5.380   6.568
 5133SOL    HW216299   1.619   5.287   6.697
 5134SOL     OW16300   6.547   0.955   2.094
 5134SOL    HW116301   6.614   0.936   2.166
 5134SOL    HW216302   6.511   1.047   2.105
 5135SOL     OW16303   5.158   3.632   4.344
 5135SOL    HW116304   5.128   3.574   4.420
 5135SOL    HW216305   5.168   3.726   4.376
 5136SOL     OW16306   5.508   0.573   6.808
 5136SOL    HW116307   5.511   0.561   6.908
 5136SOL    HW216308   5.444   0.646   6.786
 5137SOL     OW16309   4.463   3.555   5.584
 5137SOL    HW116310   4.475   3.604   5.498
 5137SOL    HW216311   4.526   3.591   5.652
 5138SOL     OW16312   3.624   2.947   4.802
 5138SOL    HW116313   3.539   2.970   4.850
 5138SOL    HW216314   3.686   2.900   4.864
 5139SOL     OW16315   0.808   0.185   3.967
 5139SOL    HW116316   0.780   0.099   4.011
 5139SOL    HW216317   0.819   0.256   4.037
 5140SOL     OW16318   4.043   2.068   5.333
 5140SOL    HW116319   4.024   1.979   5.376
 5140SOL    HW216320   3.965   2.128   5.345
 5141SOL     OW16321   6.421   3.971   0.663
 5141SOL    HW116322   6.481   4.051   0.660
 5141SOL    HW216323   6.326   4.001   0.656
 5142SOL     OW16324   5.338   6.309   3.698
 5142SOL    HW116325   5.298   6.327   3.609
 5142SOL    HW216326   5.411   6.241   3.689
 5143SOL     OW16327   6.822   4.589   4.024
 5143SOL    HW116328   6.861   4.679   4.010
 5143SOL    HW216329   6.722   4.594   4.015
 5144SOL     OW16330   1.320   4.892   5.346
 5144SOL    HW116331   1.414   4.902   5.314
 5144SOL    HW216332   1.315   4.818   5.413
 5145SOL     OW16333   3.703   5.977   6.506
 5145SOL    HW116334   3.665   5.951   6.595
 5145SOL    HW216335   3.795   5.938   6.496
 5146SOL     OW16336   3.237   3.365   5.050
 5146SOL    HW116337   3.308   3.430   5.022
 5146SOL    HW216338   3.267   3.318   5.134
 5147SOL     OW16339   6.626   5.631   3.278
 5147SOL    HW116340   6.713   5.659   3.318
 5147SOL    HW216341   6.561   5.707   3.282
 5148SOL     OW16342   0.335   1.190   1.756
 5148SOL    HW116343   0.373   1.264   1.812
 5148SOL    HW216344   0.260   1.225   1.701
 5149SOL     OW16345   6.572   5.489   3.666
 5149SOL    HW116346   6.642   5.511   3.599
 5149SOL    HW216347   6.579   5.550   3.745
 5150SOL     OW16348   2.398   5.451   3.192
 5150SOL    HW116349   2.398   5.543   3.153
 5150SOL    HW216350   2.306   5.426   3.221
 5151SOL     OW16351   0.073   3.944   2.520
 5151SOL    HW116352   0.128   4.006   2.465
 5151SOL    HW216353   7.006   3.940   2.482
 5152SOL     OW16354   1.340   5.256   0.221
 5152SOL    HW116355   1.340   5.156   0.210
 5152SOL    HW216356   1.245   5.288   0.226
 5153SOL     OW16357   0.895   2.247   0.261
 5153SOL    HW116358   0.926   2.157   0.293
 5153SOL    HW216359   0.863   2.301   0.339
 5154SOL     OW16360   0.665   2.750   6.308
 5154SOL    HW116361   0.749   2.696   6.316
 5154SOL    HW216362   0.650   2.799   6.393
 5155SOL     OW16363   4.059   6.506   2.278
 5155SOL    HW116364   4.087   6.483   2.371
 5155SOL    HW216365   4.008   6.592   2.278
 5156SOL     OW16366   5.549   4.919   5.873
 5156SOL    HW116367   5.513   4.918   5.966
 5156SOL    HW216368   5.548   5.013   5.838
 5157SOL     OW16369   3.298   1.727   3.332
 5157SOL    HW116370   3.223   1.782   3.368
 5157SOL    HW216371   3.262   1.661   3.265
 5158SOL     OW16372   3.847   1.893   0.750
 5158SOL    HW116373   3.868   1.982   0.789
 5158SOL    HW216374   3.802   1.836   0.819
 5159SOL     OW16375   5.495   3.449   5.993
 5159SOL    HW116376   5.521   3.546   5.996
 5159SOL    HW216377   5.403   3.437   6.029
 5160SOL     OW16378   0.404   5.144   3.087
 5160SOL    HW116379   0.422   5.063   3.143
 5160SOL    HW216380   0.376   5.116   2.995
 5161SOL     OW16381   1.725   3.559   0.102
 5161SOL    HW116382   1.808   3.504   0.107
 5161SOL    HW216383   1.748   3.656   0.114
 5162SOL     OW16384   0.994   5.845   2.951
 5162SOL    HW116385   0.960   5.789   2.875
 5162SOL    HW216386   1.003   5.940   2.920
 5163SOL     OW16387   2.951   6.818   0.806
 5163SOL    HW116388   2.856   6.791   0.824
 5163SOL    HW216389   2.990   6.860   0.887
 5164SOL     OW16390   3.799   2.287   0.133
 5164SOL    HW116391   3.728   2.295   0.203
 5164SOL    HW216392   3.848   2.201   0.146
 5165SOL     OW16393   0.407   4.039   6.064
 5165SOL    HW116394   0.476   3.979   6.105
 5165SOL    HW216395   0.320   3.990   6.058
 5166SOL     OW16396   1.433   5.836   2.725
 5166SOL    HW116397   1.466   5.754   2.678
 5166SOL    HW216398   1.469   5.917   2.679
 5167SOL     OW16399   6.726   4.976   5.779
 5167SOL    HW116400   6.795   4.904   5.768
 5167SOL    HW216401   6.745   5.050   5.715
 5168SOL     OW16402   5.310   3.636   1.509
 5168SOL    HW116403   5.326   3.537   1.511
 5168SOL    HW216404   5.215   3.653   1.482
 5169SOL     OW16405   4.104   1.901   4.031
 5169SOL    HW116406   4.196   1.929   4.057
 5169SOL    HW216407   4.059   1.975   3.982
 5170SOL     OW16408   1.259   3.761   4.710
 5170SOL    HW116409   1.336   3.758   4.647
 5170SOL    HW216410   1.293   3.783   4.802
 5171SOL     OW16411   0.675   4.060   5.660
 5171SOL    HW116412   0.669   4.076   5.758
 5171SOL    HW216413   0.765   4.090   5.627
 5172SOL     OW16414   1.533   3.321   2.537
 5172SOL    HW116415   1.470   3.375   2.593
 5172SOL    HW216416   1.496   3.229   2.524
 5173SOL     OW16417   5.065   5.295   4.717
 5173SOL    HW116418   5.047   5.214   4.661
 5173SOL    HW216419   5.072   5.269   4.813
 5174SOL     OW16420   2.375   4.862   3.563
 5174SOL    HW116421   2.330   4.886   3.649
 5174SOL    HW216422   2.346   4.925   3.491
 5175SOL     OW16423   2.984   4.048   6.733
 5175SOL    HW116424   2.891   4.078   6.751
 5175SOL    HW216425   3.040   4.126   6.706
 5176SOL     OW16426   5.932   3.416   0.134
 5176SOL    HW116427   5.966   3.387   0.045
 5176SOL    HW216428   5.837   3.385   0.145
 5177SOL     OW16429   5.716   6.841   0.962
 5177SOL    HW116430   5.694   6.904   1.037
 5177SOL    HW216431   5.679   6.751   0.983
 5178SOL     OW16432   0.662   3.438   2.734
 5178SOL    HW116433   0.587   3.484   2.782
 5178SOL    HW216434   0.729   3.505   2.704
 5179SOL     OW16435   4.917   4.605   4.279
 5179SOL    HW116436   4.863   4.566   4.205
 5179SOL    HW216437   5.000   4.646   4.242
 5180SOL     OW16438   2.519   1.540   0.908
 5180SOL    HW116439   2.503   1.554   0.810
 5180SOL    HW216440   2.513   1.628   0.955
 5181SOL     OW16441   4.977   0.917   2.311
 5181SOL    HW116442   4.951   0.994   2.253
 5181SOL    HW216443   5.004   0.840   2.254
 5182SOL     OW16444   4.023   4.758   1.828
 5182SOL    HW116445   4.099   4.730   1.769
 5182SOL    HW216446   3.943   4.703   1.805
 5183SOL     OW16447   3.677   1.886   2.663
 5183SOL    HW116448   3.760   1.927   2.702
 5183SOL    HW216449   3.699   1.847   2.573
 5184SOL     OW16450   0.487   2.239   3.695
 5184SOL    HW116451   0.527   2.319   3.739
 5184SOL    HW216452   0.530   2.156   3.730
 5185SOL     OW16453   5.445   1.020   2.574
 5185SOL    HW116454   5.392   0.949   2.621
 5185SOL    HW216455   5.437   1.007   2.475
 5186SOL     OW16456   6.193   1.926   0.267
 5186SOL    HW116457   6.234   1.972   0.189
 5186SOL    HW216458   6.145   1.843   0.236
 5187SOL     OW16459   1.346   5.944   4.501
 5187SOL    HW116460   1.298   5.934   4.588
 5187SOL    HW216461   1.365   5.853   4.464
 5188SOL     OW16462   6.755   5.853   1.527
 5188SOL    HW116463   6.763   5.861   1.427
 5188SOL    HW216464   6.843   5.876   1.569
 5189SOL     OW16465   4.062   5.032   0.761
 5189SOL    HW116466   4.097   4.947   0.723
 5189SOL    HW216467   3.966   5.021   0.787
 5190SOL     OW16468   0.392   2.775   4.453
 5190SOL    HW116469   0.355   2.719   4.527
 5190SOL    HW216470   0.472   2.825   4.487
 5191SOL     OW16471   3.862   6.936   2.115
 5191SOL    HW116472   3.765   6.927   2.136
 5191SOL    HW216473   3.876   6.925   2.016
 5192SOL     OW16474   1.791   5.421   1.188
 5192SOL    HW116475   1.780   5.382   1.096
 5192SOL    HW216476   1.732   5.501   1.197
 5193SOL     OW16477   5.533   5.518   5.228
 5193SOL    HW116478   5.477   5.553   5.153
 5193SOL    HW216479   5.475   5.469   5.293
 5194SOL     OW16480   4.169   2.034   0.237
 5194SOL    HW116481   4.215   1.987   0.162
 5194SOL    HW216482   4.174   2.133   0.223
 5195SOL     OW16483   6.742   0.101   3.940
 5195SOL    HW116484   6.700   0.133   3.855
 5195SOL    HW216485   6.716   0.006   3.957
 5196SOL     OW16486   4.158   6.360   1.615
 5196SOL    HW116487   4.184   6.411   1.697
 5196SOL    HW216488   4.091   6.290   1.639
 5197SOL     OW16489   2.400   3.917   5.849
 5197SOL    HW116490   2.482   3.973   5.833
 5197SOL    HW216491   2.428   3.823   5.870
 5198SOL     OW16492   4.746   6.033   3.173
 5198SOL    HW116493   4.674   5.966   3.189
 5198SOL    HW216494   4.820   6.017   3.239
 5199SOL     OW16495   1.360   6.121   0.258
 5199SOL    HW116496   1.284   6.133   0.194
 5199SOL    HW216497   1.332   6.059   0.331
 5200SOL     OW16498   0.228   3.986   5.487
 5200SOL    HW116499   0.140   3.939   5.486
 5200SOL    HW216500   0.243   4.030   5.398
 5201SOL     OW16501   0.043   0.273   3.012
 5201SOL    HW116502   0.111   0.219   3.062
 5201SOL    HW216503   6.977   0.246   3.042
 5202SOL     OW16504   5.751   2.841   6.419
 5202SOL    HW116505   5.784   2.833   6.325
 5202SOL    HW216506   5.827   2.833   6.482
 5203SOL     OW16507   2.209   2.602   6.778
 5203SOL    HW116508   2.176   2.672   6.842
 5203SOL    HW216509   2.169   2.514   6.803
 5204SOL     OW16510   3.715   4.982   6.499
 5204SOL    HW116511   3.726   5.082   6.502
 5204SOL    HW216512   3.703   4.948   6.592
 5205SOL     OW16513   0.750   6.149   0.574
 5205SOL    HW116514   0.666   6.188   0.612
 5205SOL    HW216515   0.765   6.187   0.482
 5206SOL     OW16516   0.549   4.203   5.871
 5206SOL    HW116517   0.486   4.148   5.925
 5206SOL    HW216518   0.589   4.274   5.929
 5207SOL     OW16519   1.360   5.676   3.794
 5207SOL    HW116520   1.293   5.642   3.728
 5207SOL    HW216521   1.314   5.707   3.877
 5208SOL     OW16522   3.827   2.076   6.040
 5208SOL    HW116523   3.851   1.980   6.029
 5208SOL    HW216524   3.819   2.097   6.138
 5209SOL     OW16525   5.495   5.723   3.387
 5209SOL    HW116526   5.580   5.708   3.337
 5209SOL    HW216527   5.501   5.681   3.478
 5210SOL     OW16528   4.302   2.664   5.937
 5210SOL    HW116529   4.283   2.758   5.968
 5210SOL    HW216530   4.218   2.609   5.946
 5211SOL     OW16531   3.090   2.990   5.322
 5211SOL    HW116532   3.161   3.005   5.391
 5211SOL    HW216533   3.068   3.077   5.277
 5212SOL     OW16534   6.905   2.084   0.925
 5212SOL    HW116535   6.964   2.157   0.890
 5212SOL    HW216536   6.953   1.997   0.921
 5213SOL     OW16537   4.693   3.694   6.743
 5213SOL    HW116538   4.651   3.677   6.654
 5213SOL    HW216539   4.790   3.670   6.739
 5214SOL     OW16540   4.884   1.878   5.879
 5214SOL    HW116541   4.965   1.862   5.824
 5214SOL    HW216542   4.830   1.793   5.884
 5215SOL     OW16543   6.577   4.790   3.369
 5215SOL    HW116544   6.588   4.857   3.441
 5215SOL    HW216545   6.572   4.698   3.408
 5216SOL     OW16546   5.223   5.069   1.927
 5216SOL    HW116547   5.292   4.998   1.913
 5216SOL    HW216548   5.132   5.029   1.924
 5217SOL     OW16549   3.795   5.449   4.679
 5217SOL    HW116550   3.874   5.395   4.707
 5217SOL    HW216551   3.811   5.486   4.587
 5218SOL     OW16552   0.624   0.829   3.832
 5218SOL    HW116553   0.699   0.764   3.827
 5218SOL    HW216554   0.580   0.837   3.742
 5219SOL     OW16555   3.968   1.136   5.795
 5219SOL    HW116556   4.038   1.064   5.795
 5219SOL    HW216557   4.001   1.215   5.846
 5220SOL     OW16558   1.644   5.697   2.853
 5220SOL    HW116559   1.625   5.599   2.865
 5220SOL    HW216560   1.568   5.741   2.805
 5221SOL     OW16561   5.772   2.256   3.785
 5221SOL    HW116562   5.851   2.216   3.831
 5221SOL    HW216563   5.784   2.250   3.686
 5222SOL     OW16564   3.399   5.914   3.346
 5222SOL    HW116565   3.328   5.980   3.368
 5222SOL    HW216566   3.489   5.958   3.355
 5223SOL     OW16567   6.587   2.442   1.002
 5223SOL    HW116568   6.686   2.446   0.989
 5223SOL    HW216569   6.561   2.497   1.081
 5224SOL     OW16570   0.209   2.369   4.146
 5224SOL    HW116571   0.248   2.369   4.054
 5224SOL    HW216572   0.137   2.300   4.152
 5225SOL     OW16573   0.277   0.215   3.460
 5225SOL    HW116574   0.187   0.187   3.425
 5225SOL    HW216575   0.345   0.146   3.436
 5226SOL     OW16576   0.411   6.283   4.541
 5226SOL    HW116577   0.501   6.294   4.499
 5226SOL    HW216578   0.369   6.199   4.508
 5227SOL     OW16579   1.175   3.163   4.242
 5227SOL    HW116580   1.189   3.137   4.337
 5227SOL    HW216581   1.205   3.257   4.228
 5228SOL     OW16582   6.321   2.780   1.366
 5228SOL    HW116583   6.245   2.779   1.301
 5228SOL    HW216584   6.375   2.862   1.352
 5229SOL     OW16585   1.617   5.645   6.831
 5229SOL    HW116586   1.577   5.556   6.811
 5229SOL    HW216587   1.709   5.634   6.868
 5230SOL     OW16588   0.865   6.431   0.817
 5230SOL    HW116589   0.876   6.333   0.801
 5230SOL    HW216590   0.853   6.448   0.915
 5231SOL     OW16591   4.061   3.224   5.867
 5231SOL    HW116592   4.053   3.292   5.793
 5231SOL    HW216593   4.112   3.145   5.834
 5232SOL     OW16594   3.527   2.203   5.888
 5232SOL    HW116595   3.452   2.137   5.890
 5232SOL    HW216596   3.594   2.175   5.820
 5233SOL     OW16597   5.088   0.756   2.524
 5233SOL    HW116598   5.039   0.765   2.437
 5233SOL    HW216599   5.022   0.736   2.597
 5234SOL     OW16600   2.505   0.891   6.995
 5234SOL    HW116601   2.579   0.828   7.021
 5234SOL    HW216602   2.473   0.869   6.903
 5235SOL     OW16603   1.375   2.625   1.325
 5235SOL    HW116604   1.330   2.638   1.413
 5235SOL    HW216605   1.310   2.644   1.251
 5236SOL     OW16606   5.657   3.986   2.545
 5236SOL    HW116607   5.621   3.941   2.627
 5236SOL    HW216608   5.582   4.032   2.498
 5237SOL     OW16609   1.820   1.043   5.347
 5237SOL    HW116610   1.859   1.127   5.385
 5237SOL    HW216611   1.761   1.065   5.270
 5238SOL     OW16612   1.328   4.368   0.695
 5238SOL    HW116613   1.399   4.411   0.640
 5238SOL    HW216614   1.284   4.436   0.753
 5239SOL     OW16615   3.373   3.219   3.789
 5239SOL    HW116616   3.318   3.135   3.796
 5239SOL    HW216617   3.436   3.223   3.866
 5240SOL     OW16618   3.077   1.529   6.142
 5240SOL    HW116619   3.047   1.571   6.056
 5240SOL    HW216620   3.093   1.431   6.127
 5241SOL     OW16621   1.191   5.488   5.234
 5241SOL    HW116622   1.124   5.505   5.161
 5241SOL    HW216623   1.256   5.564   5.238
 5242SOL     OW16624   0.163   6.040   6.310
 5242SOL    HW116625   0.190   5.977   6.237
 5242SOL    HW216626   0.179   6.134   6.281
 5243SOL     OW16627   0.956   5.528   1.858
 5243SOL    HW116628   0.975   5.457   1.927
 5243SOL    HW216629   0.893   5.491   1.790
 5244SOL     OW16630   3.724   4.515   6.406
 5244SOL    HW116631   3.702   4.559   6.319
 5244SOL    HW216632   3.640   4.483   6.449
 5245SOL     OW16633   4.089   4.140   0.616
 5245SOL    HW116634   4.100   4.203   0.694
 5245SOL    HW216635   4.167   4.150   0.554
 5246SOL     OW16636   5.882   4.143   2.566
 5246SOL    HW116637   5.894   4.168   2.662
 5246SOL    HW216638   5.799   4.089   2.556
 5247SOL     OW16639   0.937   0.409   0.113
 5247SOL    HW116640   0.934   0.385   0.210
 5247SOL    HW216641   0.985   0.338   0.062
 5248SOL     OW16642   5.963   0.537   4.439
 5248SOL    HW116643   5.898   0.538   4.364
 5248SOL    HW216644   6.052   0.571   4.407
 5249SOL     OW16645   6.796   4.413   5.101
 5249SOL    HW116646   6.716   4.428   5.043
 5249SOL    HW216647   6.876   4.395   5.044
 5250SOL     OW16648   1.501   0.217   5.193
 5250SOL    HW116649   1.419   0.172   5.227
 5250SOL    HW216650   1.566   0.229   5.268
 5251SOL     OW16651   0.800   3.366   0.476
 5251SOL    HW116652   0.752   3.301   0.535
 5251SOL    HW216653   0.864   3.420   0.530
 5252SOL     OW16654   1.912   5.708   0.333
 5252SOL    HW116655   2.009   5.725   0.312
 5252SOL    HW216656   1.902   5.690   0.431
 5253SOL     OW16657   5.537   4.017   4.293
 5253SOL    HW116658   5.566   3.929   4.332
 5253SOL    HW216659   5.510   4.079   4.367
 5254SOL     OW16660   4.120   1.457   2.815
 5254SOL    HW116661   4.068   1.459   2.901
 5254SOL    HW216662   4.217   1.470   2.835
 5255SOL     OW16663   4.948   0.852   6.163
 5255SOL    HW116664   4.916   0.811   6.077
 5255SOL    HW216665   4.985   0.781   6.222
 5256SOL     OW16666   4.548   0.916   2.900
 5256SOL    HW116667   4.643   0.919   2.929
 5256SOL    HW216668   4.519   1.008   2.872
 5257SOL     OW16669   4.947   6.016   2.373
 5257SOL    HW116670   4.922   6.006   2.276
 5257SOL    HW216671   4.981   5.928   2.407
 5258SOL     OW16672   5.902   3.578   1.882
 5258SOL    HW116673   5.875   3.574   1.786
 5258SOL    HW216674   5.828   3.619   1.936
 5259SOL     OW16675   5.152   6.468   0.509
 5259SOL    HW116676   5.096   6.472   0.426
 5259SOL    HW216677   5.101   6.507   0.586
 5260SOL     OW16678   5.756   3.875   1.168
 5260SOL    HW116679   5.767   3.815   1.246
 5260SOL    HW216680   5.758   3.821   1.083
 5261SOL     OW16681   1.370   3.509   6.777
 5261SOL    HW116682   1.397   3.516   6.681
 5261SOL    HW216683   1.447   3.476   6.831
 5262SOL     OW16684   3.020   0.515   2.792
 5262SOL    HW116685   2.951   0.467   2.737
 5262SOL    HW216686   3.111   0.485   2.762
 5263SOL     OW16687   2.154   1.339   5.368
 5263SOL    HW116688   2.092   1.317   5.293
 5263SOL    HW216689   2.222   1.406   5.337
 5264SOL     OW16690   5.770   1.512   2.473
 5264SOL    HW116691   5.833   1.458   2.418
 5264SOL    HW216692   5.772   1.607   2.441
 5265SOL     OW16693   5.457   4.188   4.076
 5265SOL    HW116694   5.456   4.285   4.100
 5265SOL    HW216695   5.463   4.132   4.159
 5266SOL     OW16696   2.650   6.215   1.715
 5266SOL    HW116697   2.663   6.266   1.801
 5266SOL    HW216698   2.568   6.159   1.723
 5267SOL     OW16699   4.818   4.322   5.048
 5267SOL    HW116700   4.860   4.233   5.029
 5267SOL    HW216701   4.889   4.385   5.082
 5268SOL     OW16702   6.335   0.572   6.467
 5268SOL    HW116703   6.367   0.542   6.557
 5268SOL    HW216704   6.236   0.564   6.463
 5269SOL     OW16705   2.133   0.258   3.946
 5269SOL    HW116706   2.055   0.217   3.898
 5269SOL    HW216707   2.218   0.224   3.906
 5270SOL     OW16708   5.133   1.705   1.366
 5270SOL    HW116709   5.067   1.759   1.314
 5270SOL    HW216710   5.146   1.616   1.322
 5271SOL     OW16711   5.871   5.906   4.855
 5271SOL    HW116712   5.774   5.907   4.879
 5271SOL    HW216713   5.920   5.976   4.906
 5272SOL     OW16714   2.326   5.729   1.827
 5272SOL    HW116715   2.244   5.761   1.876
 5272SOL    HW216716   2.319   5.755   1.731
 5273SOL     OW16717   6.673   3.116   3.531
 5273SOL    HW116718   6.672   3.210   3.496
 5273SOL    HW216719   6.579   3.082   3.536
 5274SOL     OW16720   6.677   6.551   1.998
 5274SOL    HW116721   6.625   6.475   1.958
 5274SOL    HW216722   6.742   6.586   1.930
 5275SOL     OW16723   3.796   1.736   6.750
 5275SOL    HW116724   3.709   1.711   6.708
 5275SOL    HW216725   3.869   1.679   6.712
 5276SOL     OW16726   1.151   0.220   0.653
 5276SOL    HW116727   1.088   0.250   0.582
 5276SOL    HW216728   1.132   0.270   0.738
 5277SOL     OW16729   2.221   2.354   3.053
 5277SOL    HW116730   2.230   2.451   3.073
 5277SOL    HW216731   2.297   2.304   3.095
 5278SOL     OW16732   4.835   0.309   4.272
 5278SOL    HW116733   4.934   0.303   4.267
 5278SOL    HW216734   4.805   0.393   4.226
 5279SOL     OW16735   1.405   5.187   6.503
 5279SOL    HW116736   1.431   5.271   6.456
 5279SOL    HW216737   1.348   5.131   6.442
 5280SOL     OW16738   3.324   6.336   5.365
 5280SOL    HW116739   3.227   6.312   5.359
 5280SOL    HW216740   3.374   6.261   5.408
 5281SOL     OW16741   0.678   1.652   2.862
 5281SOL    HW116742   0.615   1.586   2.903
 5281SOL    HW216743   0.631   1.739   2.848
 5282SOL     OW16744   2.211   1.770   3.097
 5282SOL    HW116745   2.131   1.786   3.155
 5282SOL    HW216746   2.196   1.809   3.006
 5283SOL     OW16747   3.973   6.579   1.802
 5283SOL    HW116748   4.027   6.580   1.886
 5283SOL    HW216749   4.027   6.619   1.728
 5284SOL     OW16750   5.233   3.738   3.323
 5284SOL    HW116751   5.279   3.652   3.303
 5284SOL    HW216752   5.135   3.729   3.305
 5285SOL     OW16753   2.028   4.131   4.055
 5285SOL    HW116754   1.973   4.205   4.093
 5285SOL    HW216755   1.999   4.044   4.097
 5286SOL     OW16756   0.637   3.812   1.358
 5286SOL    HW116757   0.587   3.879   1.413
 5286SOL    HW216758   0.725   3.792   1.401
 5287SOL     OW16759   1.654   5.839   1.716
 5287SOL    HW116760   1.751   5.840   1.690
 5287SOL    HW216761   1.599   5.871   1.638
 5288SOL     OW16762   4.150   0.347   2.047
 5288SOL    HW116763   4.064   0.374   2.004
 5288SOL    HW216764   4.147   0.370   2.145
 5289SOL     OW16765   1.867   5.652   6.209
 5289SOL    HW116766   1.927   5.587   6.254
 5289SOL    HW216767   1.868   5.637   6.110
 5290SOL     OW16768   1.841   4.799   5.638
 5290SOL    HW116769   1.756   4.774   5.593
 5290SOL    HW216770   1.842   4.898   5.655
 5291SOL     OW16771   2.913   4.968   5.414
 5291SOL    HW116772   2.892   4.921   5.329
 5291SOL    HW216773   2.886   4.911   5.492
 5292SOL     OW16774   6.657   4.439   0.208
 5292SOL    HW116775   6.661   4.538   0.220
 5292SOL    HW216776   6.625   4.418   0.115
 5293SOL     OW16777   0.982   0.631   4.071
 5293SOL    HW116778   1.074   0.645   4.035
 5293SOL    HW216779   0.986   0.619   4.171
 5294SOL     OW16780   4.843   3.105   4.996
 5294SOL    HW116781   4.917   3.092   5.063
 5294SOL    HW216782   4.831   3.202   4.978
 5295SOL     OW16783   4.382   0.171   2.562
 5295SOL    HW116784   4.462   0.217   2.522
 5295SOL    HW216785   4.303   0.185   2.503
 5296SOL     OW16786   1.869   5.233   0.287
 5296SOL    HW116787   1.873   5.284   0.372
 5296SOL    HW216788   1.961   5.228   0.247
 5297SOL     OW16789   2.976   1.724   1.201
 5297SOL    HW116790   3.011   1.807   1.244
 5297SOL    HW216791   2.949   1.744   1.107
 5298SOL     OW16792   1.512   6.050   6.160
 5298SOL    HW116793   1.443   6.028   6.091
 5298SOL    HW216794   1.506   5.984   6.235
 5299SOL     OW16795   2.820   2.622   0.950
 5299SOL    HW116796   2.849   2.580   1.036
 5299SOL    HW216797   2.850   2.718   0.947
 5300SOL     OW16798   0.393   6.359   1.470
 5300SOL    HW116799   0.444   6.386   1.552
 5300SOL    HW216800   0.357   6.267   1.481
 5301SOL     OW16801   4.417   2.691   6.801
 5301SOL    HW116802   4.423   2.789   6.822
 5301SOL    HW216803   4.411   2.639   6.887
 5302SOL     OW16804   5.940   4.916   3.444
 5302SOL    HW116805   5.924   4.913   3.543
 5302SOL    HW216806   5.854   4.936   3.397
 5303SOL     OW16807   0.035   5.935   2.740
 5303SOL    HW116808   0.010   5.841   2.714
 5303SOL    HW216809   6.977   5.986   2.763
 5304SOL     OW16810   5.809   1.598   6.936
 5304SOL    HW116811   5.804   1.603   6.837
 5304SOL    HW216812   5.861   1.675   6.971
 5305SOL     OW16813   1.662   5.229   4.168
 5305SOL    HW116814   1.706   5.230   4.078
 5305SOL    HW216815   1.585   5.293   4.168
 5306SOL     OW16816   0.519   5.061   4.780
 5306SOL    HW116817   0.472   5.086   4.865
 5306SOL    HW216818   0.462   4.998   4.728
 5307SOL     OW16819   4.293   6.931   0.687
 5307SOL    HW116820   4.227   7.001   0.715
 5307SOL    HW216821   4.341   6.961   0.604
 5308SOL     OW16822   1.447   6.296   3.643
 5308SOL    HW116823   1.486   6.236   3.574
 5308SOL    HW216824   1.513   6.310   3.717
 5309SOL     OW16825   3.828   4.564   1.686
 5309SOL    HW116826   3.737   4.566   1.727
 5309SOL    HW216827   3.821   4.589   1.589
 5310SOL     OW16828   6.044   3.349   1.911
 5310SOL    HW116829   6.136   3.358   1.948
 5310SOL    HW216830   5.996   3.437   1.917
 5311SOL     OW16831   0.230   6.378   0.369
 5311SOL    HW116832   0.239   6.386   0.468
 5311SOL    HW216833   0.206   6.467   0.331
 5312SOL     OW16834   0.749   4.478   1.917
 5312SOL    HW116835   0.685   4.480   1.993
 5312SOL    HW216836   0.752   4.386   1.878
 5313SOL     OW16837   1.440   4.605   6.602
 5313SOL    HW116838   1.396   4.527   6.559
 5313SOL    HW216839   1.373   4.655   6.658
 5314SOL     OW16840   3.809   6.740   0.047
 5314SOL    HW116841   3.861   6.690   7.004
 5314SOL    HW216842   3.864   6.750   0.130
 5315SOL     OW16843   4.643   3.632   1.717
 5315SOL    HW116844   4.582   3.707   1.742
 5315SOL    HW216845   4.686   3.652   1.629
 5316SOL     OW16846   6.778   4.857   4.737
 5316SOL    HW116847   6.822   4.770   4.714
 5316SOL    HW216848   6.843   4.932   4.726
 5317SOL     OW16849   6.741   7.006   4.628
 5317SOL    HW116850   6.725   0.059   4.687
 5317SOL    HW216851   6.761   6.926   4.684
 5318SOL     OW16852   6.983   2.068   6.158
 5318SOL    HW116853   7.012   1.991   6.216
 5318SOL    HW216854   0.003   2.152   6.189
 5319SOL     OW16855   4.535   6.726   6.562
 5319SOL    HW116856   4.613   6.751   6.620
 5319SOL    HW216857   4.541   6.774   6.475
 5320SOL     OW16858   5.800   5.102   0.445
 5320SOL    HW116859   5.704   5.085   0.424
 5320SOL    HW216860   5.854   5.094   0.361
 5321SOL     OW16861   1.143   3.941   3.054
 5321SOL    HW116862   1.142   3.867   3.122
 5321SOL    HW216863   1.051   3.980   3.046
 5322SOL     OW16864   3.698   6.126   6.163
 5322SOL    HW116865   3.722   6.029   6.166
 5322SOL    HW216866   3.743   6.169   6.085
 5323SOL     OW16867   3.802   3.400   6.930
 5323SOL    HW116868   3.830   3.465   7.002
 5323SOL    HW216869   3.853   3.315   6.941
 5324SOL     OW16870   3.978   2.843   1.661
 5324SOL    HW116871   3.910   2.776   1.631
 5324SOL    HW216872   4.059   2.795   1.694
 5325SOL     OW16873   5.168   0.452   4.016
 5325SOL    HW116874   5.252   0.409   3.983
 5325SOL    HW216875   5.097   0.441   3.946
 5326SOL     OW16876   0.193   5.276   3.319
 5326SOL    HW116877   0.277   5.243   3.360
 5326SOL    HW216878   0.174   5.225   3.236
 5327SOL     OW16879   5.842   4.199   5.047
 5327SOL    HW116880   5.877   4.278   5.097
 5327SOL    HW216881   5.822   4.125   5.111
 5328SOL     OW16882   4.248   3.027   5.752
 5328SOL    HW116883   4.174   2.965   5.726
 5328SOL    HW216884   4.324   3.018   5.688
 5329SOL     OW16885   6.909   4.123   0.749
 5329SOL    HW116886   6.960   4.037   0.752
 5329SOL    HW216887   6.869   4.136   0.658
 5330SOL     OW16888   3.865   3.701   5.971
 5330SOL    HW116889   3.780   3.722   5.921
 5330SOL    HW216890   3.844   3.638   6.046
 5331SOL     OW16891   5.437   0.773   1.465
 5331SOL    HW116892   5.360   0.836   1.455
 5331SOL    HW216893   5.422   0.714   1.545
 5332SOL     OW16894   0.387   3.650   0.491
 5332SOL    HW116895   0.380   3.638   0.590
 5332SOL    HW216896   0.465   3.599   0.456
 5333SOL     OW16897   0.777   0.384   3.562
 5333SOL    HW116898   0.810   0.477   3.549
 5333SOL    HW216899   0.730   0.376   3.649
 5334SOL     OW16900   4.100   6.670   4.895
 5334SOL    HW116901   4.133   6.576   4.886
 5334SOL    HW216902   4.010   6.669   4.938
 5335SOL     OW16903   0.002   5.258   2.709
 5335SOL    HW116904   7.025   5.307   2.796
 5335SOL    HW216905   0.064   5.306   2.646
 5336SOL     OW16906   2.386   1.808   3.494
 5336SOL    HW116907   2.448   1.732   3.472
 5336SOL    HW216908   2.394   1.879   3.424
 5337SOL     OW16909   5.378   4.843   1.867
 5337SOL    HW116910   5.476   4.841   1.851
 5337SOL    HW216911   5.352   4.765   1.925
 5338SOL     OW16912   5.964   0.749   6.031
 5338SOL    HW116913   5.912   0.829   6.058
 5338SOL    HW216914   5.946   0.728   5.934
 5339SOL     OW16915   5.780   1.861   3.244
 5339SOL    HW116916   5.742   1.770   3.225
 5339SOL    HW216917   5.753   1.890   3.336
 5340SOL     OW16918   5.741   3.708   1.394
 5340SOL    HW116919   5.741   3.752   1.484
 5340SOL    HW216920   5.647   3.695   1.363
 5341SOL     OW16921   3.632   5.664   5.419
 5341SOL    HW116922   3.712   5.720   5.444
 5341SOL    HW216923   3.593   5.697   5.333
 5342SOL     OW16924   4.496   0.468   4.907
 5342SOL    HW116925   4.563   0.489   4.979
 5342SOL    HW216926   4.544   0.433   4.827
 5343SOL     OW16927   4.133   3.843   5.096
 5343SOL    HW116928   4.052   3.895   5.120
 5343SOL    HW216929   4.177   3.884   5.016
 5344SOL     OW16930   1.560   1.899   1.239
 5344SOL    HW116931   1.522   1.885   1.148
 5344SOL    HW216932   1.486   1.911   1.305
 5345SOL     OW16933   4.832   6.352   0.443
 5345SOL    HW116934   4.874   6.348   0.353
 5345SOL    HW216935   4.734   6.333   0.435
 5346SOL     OW16936   2.536   5.524   3.902
 5346SOL    HW116937   2.592   5.442   3.890
 5346SOL    HW216938   2.497   5.525   3.994
 5347SOL     OW16939   0.349   3.112   2.472
 5347SOL    HW116940   0.290   3.172   2.525
 5347SOL    HW216941   0.445   3.135   2.489
 5348SOL     OW16942   6.878   1.492   0.554
 5348SOL    HW116943   6.788   1.457   0.528
 5348SOL    HW216944   6.947   1.456   0.492
 5349SOL     OW16945   2.214   3.249   0.287
 5349SOL    HW116946   2.240   3.343   0.266
 5349SOL    HW216947   2.236   3.190   0.209
 5350SOL     OW16948   1.486   0.059   4.549
 5350SOL    HW116949   1.429   7.010   4.583
 5350SOL    HW216950   1.510   0.042   4.454
 5351SOL     OW16951   6.490   5.471   1.876
 5351SOL    HW116952   6.425   5.545   1.892
 5351SOL    HW216953   6.583   5.506   1.881
 5352SOL     OW16954   2.330   4.988   2.717
 5352SOL    HW116955   2.274   4.976   2.799
 5352SOL    HW216956   2.323   4.907   2.660
 5353SOL     OW16957   3.527   5.400   4.685
 5353SOL    HW116958   3.505   5.336   4.611
 5353SOL    HW216959   3.626   5.409   4.694
 5354SOL     OW16960   2.329   4.237   0.630
 5354SOL    HW116961   2.292   4.329   0.633
 5354SOL    HW216962   2.420   4.239   0.588
 5355SOL     OW16963   5.794   4.504   4.833
 5355SOL    HW116964   5.793   4.538   4.927
 5355SOL    HW216965   5.866   4.551   4.782
 5356SOL     OW16966   6.391   3.749   2.290
 5356SOL    HW116967   6.483   3.711   2.297
 5356SOL    HW216968   6.335   3.688   2.234
 5357SOL     OW16969   2.779   5.322   0.357
 5357SOL    HW116970   2.861   5.288   0.403
 5357SOL    HW216971   2.805   5.366   0.271
 5358SOL     OW16972   4.320   1.590   0.611
 5358SOL    HW116973   4.252   1.616   0.542
 5358SOL    HW216974   4.307   1.493   0.635
 5359SOL     OW16975   2.361   1.347   5.957
 5359SOL    HW116976   2.403   1.285   6.023
 5359SOL    HW216977   2.350   1.438   5.998
 5360SOL     OW16978   3.377   6.263   3.103
 5360SOL    HW116979   3.368   6.178   3.051
 5360SOL    HW216980   3.352   6.247   3.199
 5361SOL     OW16981   2.552   0.589   4.727
 5361SOL    HW116982   2.542   0.591   4.627
 5361SOL    HW216983   2.504   0.509   4.763
 5362SOL     OW16984   6.281   6.551   2.558
 5362SOL    HW116985   6.327   6.639   2.547
 5362SOL    HW216986   6.212   6.558   2.629
 5363SOL     OW16987   6.206   6.412   5.764
 5363SOL    HW116988   6.171   6.477   5.697
 5363SOL    HW216989   6.283   6.362   5.725
 5364SOL     OW16990   6.412   7.019   2.255
 5364SOL    HW116991   6.381   6.928   2.228
 5364SOL    HW216992   6.446   0.043   2.176
 5365SOL     OW16993   3.806   3.278   1.494
 5365SOL    HW116994   3.899   3.288   1.530
 5365SOL    HW216995   3.765   3.369   1.482
 5366SOL     OW16996   5.974   6.401   1.132
 5366SOL    HW116997   5.883   6.363   1.148
 5366SOL    HW216998   5.983   6.425   1.035
 5367SOL     OW16999   0.084   0.301   1.515
 5367SOL    HW117000   0.119   0.209   1.535
 5367SOL    HW217001   0.091   0.358   1.597
 5368SOL     OW17002   5.739   0.076   2.429
 5368SOL    HW117003   5.812   0.017   2.463
 5368SOL    HW217004   5.678   0.023   2.369
 5369SOL     OW17005   2.660   6.794   0.864
 5369SOL    HW117006   2.631   6.839   0.949
 5369SOL    HW217007   2.606   6.828   0.788
 5370SOL     OW17008   4.749   3.212   0.795
 5370SOL    HW117009   4.840   3.217   0.753
 5370SOL    HW217010   4.747   3.138   0.862
 5371SOL     OW17011   0.543   4.230   5.468
 5371SOL    HW117012   0.566   4.189   5.556
 5371SOL    HW217013   0.615   4.210   5.401
 5372SOL     OW17014   1.271   5.883   2.961
 5372SOL    HW117015   1.318   5.847   2.881
 5372SOL    HW217016   1.174   5.858   2.957
 5373SOL     OW17017   3.926   6.528   5.306
 5373SOL    HW117018   3.958   6.458   5.244
 5373SOL    HW217019   3.875   6.598   5.255
 5374SOL     OW17020   2.102   4.079   0.437
 5374SOL    HW117021   2.052   4.004   0.395
 5374SOL    HW217022   2.149   4.046   0.520
 5375SOL     OW17023   0.411   6.468   4.768
 5375SOL    HW117024   0.409   6.567   4.751
 5375SOL    HW217025   0.423   6.420   4.681
 5376SOL     OW17026   1.247   1.993   1.377
 5376SOL    HW117027   1.222   1.905   1.418
 5376SOL    HW217028   1.236   2.066   1.445
 5377SOL     OW17029   0.607   0.093   2.039
 5377SOL    HW117030   0.513   0.096   2.075
 5377SOL    HW217031   0.606   0.115   1.941
 5378SOL     OW17032   6.746   0.025   2.589
 5378SOL    HW117033   6.653   0.062   2.587
 5378SOL    HW217034   6.800   0.067   2.516
 5379SOL     OW17035   0.692   3.862   4.879
 5379SOL    HW117036   0.737   3.867   4.790
 5379SOL    HW217037   0.596   3.889   4.871
 5380SOL     OW17038   3.152   0.080   2.253
 5380SOL    HW117039   3.143   0.004   2.318
 5380SOL    HW217040   3.088   0.153   2.277
 5381SOL     OW17041   6.546   5.377   2.139
 5381SOL    HW117042   6.548   5.398   2.041
 5381SOL    HW217043   6.594   5.449   2.189
 5382SOL     OW17044   2.793   1.571   2.025
 5382SOL    HW117045   2.765   1.624   1.944
 5382SOL    HW217046   2.815   1.478   1.997
 5383SOL     OW17047   1.639   2.581   4.963
 5383SOL    HW117048   1.656   2.673   4.927
 5383SOL    HW217049   1.545   2.554   4.943
 5384SOL     OW17050   5.566   0.404   5.264
 5384SOL    HW117051   5.589   0.486   5.317
 5384SOL    HW217052   5.643   0.380   5.205
 5385SOL     OW17053   3.718   3.494   5.118
 5385SOL    HW117054   3.787   3.446   5.171
 5385SOL    HW217055   3.701   3.444   5.033
 5386SOL     OW17056   4.739   1.297   4.264
 5386SOL    HW117057   4.643   1.321   4.279
 5386SOL    HW217058   4.746   1.200   4.241
 5387SOL     OW17059   1.974   6.850   3.404
 5387SOL    HW117060   1.910   6.868   3.478
 5387SOL    HW217061   2.005   6.936   3.365
 5388SOL     OW17062   1.136   0.994   2.982
 5388SOL    HW117063   1.185   0.966   3.065
 5388SOL    HW217064   1.062   1.056   3.007
 5389SOL     OW17065   3.638   1.558   3.343
 5389SOL    HW117066   3.719   1.616   3.339
 5389SOL    HW217067   3.585   1.570   3.259
 5390SOL     OW17068   5.103   4.258   3.819
 5390SOL    HW117069   5.040   4.247   3.897
 5390SOL    HW217070   5.167   4.181   3.817
 5391SOL     OW17071   2.509   1.616   0.657
 5391SOL    HW117072   2.552   1.700   0.691
 5391SOL    HW217073   2.444   1.638   0.585
 5392SOL     OW17074   6.217   3.434   1.229
 5392SOL    HW117075   6.171   3.498   1.291
 5392SOL    HW217076   6.162   3.423   1.146
 5393SOL     OW17077   5.274   0.697   5.377
 5393SOL    HW117078   5.296   0.603   5.353
 5393SOL    HW217079   5.224   0.698   5.464
 5394SOL     OW17080   0.335   5.653   0.958
 5394SOL    HW117081   0.237   5.636   0.971
 5394SOL    HW217082   0.348   5.728   0.893
 5395SOL     OW17083   4.825   0.975   1.018
 5395SOL    HW117084   4.731   0.960   1.047
 5395SOL    HW217085   4.837   0.944   0.924
 5396SOL     OW17086   5.710   4.797   1.159
 5396SOL    HW117087   5.778   4.764   1.225
 5396SOL    HW217088   5.618   4.785   1.197
 5397SOL     OW17089   6.953   2.477   1.435
 5397SOL    HW117090   6.910   2.391   1.408
 5397SOL    HW217091   6.904   2.553   1.392
 5398SOL     OW17092   2.995   2.255   3.693
 5398SOL    HW117093   2.969   2.264   3.789
 5398SOL    HW217094   3.074   2.194   3.685
 5399SOL     OW17095   2.678   6.441   0.110
 5399SOL    HW117096   2.747   6.481   0.170
 5399SOL    HW217097   2.693   6.343   0.103
 5400SOL     OW17098   3.179   3.408   6.532
 5400SOL    HW117099   3.109   3.477   6.552
 5400SOL    HW217100   3.224   3.380   6.616
 5401SOL     OW17101   6.177   4.538   2.801
 5401SOL    HW117102   6.253   4.591   2.840
 5401SOL    HW217103   6.201   4.441   2.802
 5402SOL     OW17104   2.130   5.692   1.523
 5402SOL    HW117105   2.208   5.755   1.518
 5402SOL    HW217106   2.137   5.624   1.450
 5403SOL     OW17107   5.136   3.749   5.726
 5403SOL    HW117108   5.212   3.687   5.706
 5403SOL    HW217109   5.053   3.716   5.680
 5404SOL     OW17110   0.753   0.520   2.468
 5404SOL    HW117111   0.695   0.490   2.393
 5404SOL    HW217112   0.792   0.610   2.446
 5405SOL     OW17113   5.250   5.451   0.065
 5405SOL    HW117114   5.213   5.539   0.036
 5405SOL    HW217115   5.189   5.378   0.035
 5406SOL     OW17116   1.836   0.462   5.283
 5406SOL    HW117117   1.853   0.369   5.251
 5406SOL    HW217118   1.878   0.475   5.372
 5407SOL     OW17119   3.010   1.882   0.969
 5407SOL    HW117120   2.976   1.976   0.959
 5407SOL    HW217121   3.103   1.876   0.934
 5408SOL     OW17122   3.889   0.283   5.498
 5408SOL    HW117123   3.844   0.288   5.587
 5408SOL    HW217124   3.854   0.354   5.438
 5409SOL     OW17125   6.750   1.767   3.481
 5409SOL    HW117126   6.740   1.856   3.526
 5409SOL    HW217127   6.788   1.780   3.390
 5410SOL     OW17128   0.798   2.326   6.320
 5410SOL    HW117129   0.708   2.350   6.282
 5410SOL    HW217130   0.801   2.229   6.341
 5411SOL     OW17131   6.068   5.458   5.864
 5411SOL    HW117132   6.120   5.387   5.912
 5411SOL    HW217133   6.131   5.512   5.808
 5412SOL     OW17134   3.682   1.320   0.034
 5412SOL    HW117135   3.615   1.254   0.069
 5412SOL    HW217136   3.774   1.289   0.056
 5413SOL     OW17137   6.986   0.523   0.903
 5413SOL    HW117138   6.952   0.617   0.905
 5413SOL    HW217139   0.052   0.519   0.941
 5414SOL     OW17140   6.240   4.326   4.671
 5414SOL    HW117141   6.173   4.331   4.745
 5414SOL    HW217142   6.273   4.418   4.650
 5415SOL     OW17143   1.692   6.297   2.030
 5415SOL    HW117144   1.661   6.368   2.094
 5415SOL    HW217145   1.614   6.241   2.003
 5416SOL     OW17146   3.399   5.226   5.580
 5416SOL    HW117147   3.389   5.127   5.590
 5416SOL    HW217148   3.330   5.260   5.515
 5417SOL     OW17149   4.454   6.639   4.922
 5417SOL    HW117150   4.449   6.633   5.022
 5417SOL    HW217151   4.416   6.726   4.892
 5418SOL     OW17152   5.149   0.509   4.609
 5418SOL    HW117153   5.069   0.461   4.646
 5418SOL    HW217154   5.185   0.457   4.532
 5419SOL     OW17155   3.255   5.150   0.285
 5419SOL    HW117156   3.339   5.203   0.290
 5419SOL    HW217157   3.265   5.066   0.339
 5420SOL     OW17158   2.049   2.466   1.425
 5420SOL    HW117159   2.148   2.475   1.433
 5420SOL    HW217160   2.005   2.495   1.510
 5421SOL     OW17161   3.034   5.198   3.078
 5421SOL    HW117162   2.944   5.225   3.044
 5421SOL    HW217163   3.075   5.274   3.128
 5422SOL     OW17164   0.523   5.525   4.131
 5422SOL    HW117165   0.621   5.542   4.140
 5422SOL    HW217166   0.501   5.506   4.035
 5423SOL     OW17167   5.967   4.353   0.426
 5423SOL    HW117168   6.014   4.425   0.476
 5423SOL    HW217169   6.026   4.319   0.353
 5424SOL     OW17170   5.641   3.814   4.476
 5424SOL    HW117171   5.732   3.845   4.450
 5424SOL    HW217172   5.637   3.803   4.576
 5425SOL     OW17173   4.967   2.312   4.337
 5425SOL    HW117174   4.921   2.238   4.385
 5425SOL    HW217175   5.066   2.304   4.351
 5426SOL     OW17176   6.118   5.874   3.299
 5426SOL    HW117177   6.111   5.795   3.238
 5426SOL    HW217178   6.131   5.957   3.244
 5427SOL     OW17179   5.510   3.891   0.711
 5427SOL    HW117180   5.591   3.833   0.712
 5427SOL    HW217181   5.434   3.842   0.754
 5428SOL     OW17182   6.166   6.855   2.481
 5428SOL    HW117183   6.257   6.821   2.459
 5428SOL    HW217184   6.098   6.809   2.423
 5429SOL     OW17185   2.142   1.005   6.158
 5429SOL    HW117186   2.239   1.029   6.161
 5429SOL    HW217187   2.115   0.964   6.245
 5430SOL     OW17188   2.444   2.648   6.067
 5430SOL    HW117189   2.486   2.684   5.983
 5430SOL    HW217190   2.376   2.579   6.044
 5431SOL     OW17191   3.519   4.183   6.372
 5431SOL    HW117192   3.531   4.110   6.439
 5431SOL    HW217193   3.488   4.144   6.285
 5432SOL     OW17194   3.589   5.669   6.693
 5432SOL    HW117195   3.632   5.733   6.756
 5432SOL    HW217196   3.490   5.670   6.706
 5433SOL     OW17197   0.425   0.739   3.002
 5433SOL    HW117198   0.430   0.838   3.017
 5433SOL    HW217199   0.505   0.709   2.950
 5434SOL     OW17200   4.073   0.918   4.465
 5434SOL    HW117201   4.091   0.820   4.467
 5434SOL    HW217202   4.083   0.952   4.372
 5435SOL     OW17203   5.886   2.180   1.180
 5435SOL    HW117204   5.971   2.158   1.228
 5435SOL    HW217205   5.808   2.163   1.240
 5436SOL     OW17206   5.959   4.569   4.286
 5436SOL    HW117207   5.969   4.504   4.210
 5436SOL    HW217208   5.874   4.551   4.334
 5437SOL     OW17209   2.951   5.591   5.810
 5437SOL    HW117210   2.967   5.686   5.836
 5437SOL    HW217211   3.038   5.542   5.806
 5438SOL     OW17212   6.273   2.940   1.885
 5438SOL    HW117213   6.347   3.006   1.892
 5438SOL    HW217214   6.187   2.988   1.864
 5439SOL     OW17215   0.218   2.343   0.178
 5439SOL    HW117216   0.288   2.282   0.216
 5439SOL    HW217217   0.255   2.389   0.097
 5440SOL     OW17218   6.772   6.643   3.435
 5440SOL    HW117219   6.724   6.604   3.514
 5440SOL    HW217220   6.784   6.572   3.366
 5441SOL     OW17221   4.860   2.745   3.377
 5441SOL    HW117222   4.848   2.826   3.434
 5441SOL    HW217223   4.797   2.673   3.407
 5442SOL     OW17224   3.564   6.951   2.818
 5442SOL    HW117225   3.575   6.865   2.769
 5442SOL    HW217226   3.554   6.932   2.916
 5443SOL     OW17227   3.703   5.359   3.697
 5443SOL    HW117228   3.704   5.399   3.605
 5443SOL    HW217229   3.754   5.273   3.696
 5444SOL     OW17230   0.151   0.470   3.807
 5444SOL    HW117231   0.098   0.385   3.806
 5444SOL    HW217232   0.151   0.510   3.715
 5445SOL     OW17233   6.189   3.899   4.017
 5445SOL    HW117234   6.274   3.940   3.984
 5445SOL    HW217235   6.161   3.943   4.102
 5446SOL     OW17236   5.720   5.115   5.014
 5446SOL    HW117237   5.769   5.157   5.091
 5446SOL    HW217238   5.632   5.081   5.046
 5447SOL     OW17239   1.401   1.629   0.645
 5447SOL    HW117240   1.315   1.677   0.623
 5447SOL    HW217241   1.381   1.553   0.708
 5448SOL     OW17242   5.514   5.018   4.510
 5448SOL    HW117243   5.578   5.061   4.446
 5448SOL    HW217244   5.565   4.959   4.573
 5449SOL     OW17245   1.636   1.618   0.992
 5449SOL    HW117246   1.729   1.627   1.028
 5449SOL    HW217247   1.584   1.700   1.014
 5450SOL     OW17248   3.057   0.107   0.970
 5450SOL    HW117249   3.117   0.112   1.049
 5450SOL    HW217250   2.962   0.112   0.999
 5451SOL     OW17251   2.238   6.607   3.656
 5451SOL    HW117252   2.145   6.571   3.643
 5451SOL    HW217253   2.303   6.551   3.604
 5452SOL     OW17254   2.510   3.980   6.719
 5452SOL    HW117255   2.555   3.985   6.630
 5452SOL    HW217256   2.411   3.978   6.706
 5453SOL     OW17257   5.131   4.334   2.372
 5453SOL    HW117258   5.173   4.371   2.455
 5453SOL    HW217259   5.200   4.287   2.317
 5454SOL     OW17260   4.787   5.811   6.978
 5454SOL    HW117261   4.864   5.834   6.918
 5454SOL    HW217262   4.817   5.814   0.048
 5455SOL     OW17263   0.428   2.730   2.928
 5455SOL    HW117264   0.511   2.769   2.888
 5455SOL    HW217265   0.450   2.648   2.980
 5456SOL     OW17266   3.118   0.278   0.115
 5456SOL    HW117267   3.020   0.263   0.100
 5456SOL    HW217268   3.147   0.358   0.063
 5457SOL     OW17269   6.325   1.697   1.559
 5457SOL    HW117270   6.333   1.776   1.620
 5457SOL    HW217271   6.330   1.727   1.464
 5458SOL     OW17272   0.440   5.117   0.318
 5458SOL    HW117273   0.372   5.058   0.361
 5458SOL    HW217274   0.499   5.157   0.389
 5459SOL     OW17275   3.306   3.780   5.961
 5459SOL    HW117276   3.371   3.757   6.034
 5459SOL    HW217277   3.341   3.744   5.874
 5460SOL     OW17278   3.218   6.635   3.118
 5460SOL    HW117279   3.303   6.583   3.117
 5460SOL    HW217280   3.161   6.604   3.195
 5461SOL     OW17281   0.429   0.717   4.979
 5461SOL    HW117282   0.444   0.711   4.880
 5461SOL    HW217283   0.331   0.726   4.997
 5462SOL     OW17284   5.620   6.452   6.910
 5462SOL    HW117285   5.646   6.358   6.931
 5462SOL    HW217286   5.691   6.515   6.943
 5463SOL     OW17287   0.494   1.457   6.917
 5463SOL    HW117288   0.536   1.417   6.998
 5463SOL    HW217289   0.544   1.430   6.836
 5464SOL     OW17290   6.372   0.259   4.833
 5464SOL    HW117291   6.344   0.166   4.857
 5464SOL    HW217292   6.437   0.292   4.901
 5465SOL     OW17293   5.062   1.186   4.426
 5465SOL    HW117294   5.123   1.260   4.456
 5465SOL    HW217295   5.116   1.111   4.388
 5466SOL     OW17296   4.989   2.857   5.419
 5466SOL    HW117297   4.947   2.947   5.422
 5466SOL    HW217298   5.018   2.836   5.326
 5467SOL     OW17299   5.573   3.696   3.673
 5467SOL    HW117300   5.581   3.599   3.647
 5467SOL    HW217301   5.478   3.724   3.666
 5468SOL     OW17302   6.503   2.205   4.518
 5468SOL    HW117303   6.574   2.208   4.587
 5468SOL    HW217304   6.539   2.239   4.431
 5469SOL     OW17305   2.932   6.388   5.618
 5469SOL    HW117306   2.946   6.487   5.618
 5469SOL    HW217307   2.965   6.350   5.704
 5470SOL     OW17308   3.706   5.464   3.458
 5470SOL    HW117309   3.650   5.399   3.405
 5470SOL    HW217310   3.673   5.557   3.442
 5471SOL     OW17311   6.447   0.602   3.534
 5471SOL    HW117312   6.355   0.565   3.519
 5471SOL    HW217313   6.479   0.647   3.451
 5472SOL     OW17314   2.964   3.574   5.939
 5472SOL    HW117315   2.924   3.643   6.000
 5472SOL    HW217316   2.993   3.495   5.993
 5473SOL     OW17317   1.417   3.546   1.905
 5473SOL    HW117318   1.411   3.646   1.909
 5473SOL    HW217319   1.330   3.508   1.872
 5474SOL     OW17320   0.890   3.999   4.242
 5474SOL    HW117321   0.850   3.945   4.315
 5474SOL    HW217322   0.969   4.049   4.277
 5475SOL     OW17323   1.985   2.450   1.026
 5475SOL    HW117324   1.938   2.475   1.111
 5475SOL    HW217325   2.079   2.482   1.029
 5476SOL     OW17326   1.917   4.637   5.285
 5476SOL    HW117327   1.982   4.590   5.225
 5476SOL    HW217328   1.841   4.672   5.230
 5477SOL     OW17329   2.330   4.223   2.442
 5477SOL    HW117330   2.306   4.127   2.453
 5477SOL    HW217331   2.357   4.261   2.530
 5478SOL     OW17332   3.086   6.767   4.957
 5478SOL    HW117333   3.174   6.747   4.914
 5478SOL    HW217334   3.021   6.693   4.935
 5479SOL     OW17335   5.885   1.811   5.671
 5479SOL    HW117336   5.833   1.880   5.721
 5479SOL    HW217337   5.928   1.853   5.592
 5480SOL     OW17338   5.714   5.990   4.027
 5480SOL    HW117339   5.771   5.937   3.964
 5480SOL    HW217340   5.618   5.962   4.017
 5481SOL     OW17341   4.866   0.702   4.381
 5481SOL    HW117342   4.840   0.664   4.292
 5481SOL    HW217343   4.855   0.802   4.380
 5482SOL     OW17344   3.490   4.223   1.358
 5482SOL    HW117345   3.559   4.151   1.367
 5482SOL    HW217346   3.398   4.183   1.364
 5483SOL     OW17347   6.992   2.764   5.396
 5483SOL    HW117348   0.025   2.798   5.323
 5483SOL    HW217349   6.944   2.682   5.364
 5484SOL     OW17350   4.346   0.950   3.399
 5484SOL    HW117351   4.442   0.978   3.391
 5484SOL    HW217352   4.341   0.858   3.438
 5485SOL     OW17353   4.069   0.052   4.693
 5485SOL    HW117354   3.972   0.073   4.678
 5485SOL    HW217355   4.089   6.985   4.661
 5486SOL     OW17356   2.217   6.048   5.264
 5486SOL    HW117357   2.138   6.092   5.222
 5486SOL    HW217358   2.215   5.950   5.244
 5487SOL     OW17359   5.731   3.185   6.886
 5487SOL    HW117360   5.755   3.089   6.904
 5487SOL    HW217361   5.752   3.207   6.790
 5488SOL     OW17362   6.016   0.623   0.766
 5488SOL    HW117363   6.015   0.714   0.724
 5488SOL    HW217364   5.945   0.618   0.836
 5489SOL     OW17365   0.923   3.889   1.548
 5489SOL    HW117366   0.983   3.846   1.481
 5489SOL    HW217367   0.876   3.967   1.507
 5490SOL     OW17368   3.079   6.801   1.080
 5490SOL    HW117369   3.176   6.808   1.058
 5490SOL    HW217370   3.059   6.853   1.163
 5491SOL     OW17371   1.880   4.063   0.801
 5491SOL    HW117372   1.954   4.033   0.862
 5491SOL    HW217373   1.907   4.148   0.756
 5492SOL     OW17374   0.072   2.990   6.036
 5492SOL    HW117375   0.038   2.902   6.004
 5492SOL    HW217376   7.024   3.058   6.031
 5493SOL     OW17377   3.887   3.984   4.123
 5493SOL    HW117378   3.802   4.036   4.129
 5493SOL    HW217379   3.907   3.962   4.028
 5494SOL     OW17380   6.331   2.962   6.212
 5494SOL    HW117381   6.301   3.021   6.286
 5494SOL    HW217382   6.354   3.017   6.132
 5495SOL     OW17383   3.228   1.847   0.784
 5495SOL    HW117384   3.144   1.874   0.737
 5495SOL    HW217385   3.306   1.891   0.738
 5496SOL     OW17386   3.604   0.597   3.583
 5496SOL    HW117387   3.615   0.534   3.506
 5496SOL    HW217388   3.692   0.614   3.626
 5497SOL     OW17389   0.436   2.177   4.154
 5497SOL    HW117390   0.410   2.107   4.220
 5497SOL    HW217391   0.368   2.182   4.081
 5498SOL     OW17392   6.218   6.375   1.265
 5498SOL    HW117393   6.250   6.468   1.249
 5498SOL    HW217394   6.128   6.362   1.223
 5499SOL     OW17395   0.566   0.268   4.671
 5499SOL    HW117396   0.525   0.320   4.595
 5499SOL    HW217397   0.539   0.310   4.758
 5500SOL     OW17398   1.045   0.373   0.399
 5500SOL    HW117399   1.076   0.464   0.427
 5500SOL    HW217400   1.122   0.323   0.360
 5501SOL     OW17401   3.631   0.516   0.384
 5501SOL    HW117402   3.722   0.508   0.343
 5501SOL    HW217403   3.573   0.441   0.352
 5502SOL     OW17404   5.345   3.261   0.481
 5502SOL    HW117405   5.275   3.191   0.465
 5502SOL    HW217406   5.301   3.350   0.490
 5503SOL     OW17407   0.855   5.010   2.083
 5503SOL    HW117408   0.893   5.065   2.157
 5503SOL    HW217409   0.918   4.936   2.061
 5504SOL     OW17410   3.753   1.120   4.955
 5504SOL    HW117411   3.834   1.177   4.938
 5504SOL    HW217412   3.672   1.167   4.919
 5505SOL     OW17413   1.928   5.082   4.492
 5505SOL    HW117414   1.905   5.121   4.582
 5505SOL    HW217415   1.977   4.996   4.505
 5506SOL     OW17416   1.212   2.235   6.703
 5506SOL    HW117417   1.303   2.266   6.674
 5506SOL    HW217418   1.221   2.153   6.759
 5507SOL     OW17419   3.833   1.082   4.224
 5507SOL    HW117420   3.853   1.165   4.172
 5507SOL    HW217421   3.767   1.026   4.173
 5508SOL     OW17422   1.912   1.031   6.402
 5508SOL    HW117423   1.923   0.950   6.459
 5508SOL    HW217424   1.848   1.010   6.327
 5509SOL     OW17425   6.799   6.501   0.005
 5509SOL    HW117426   6.747   6.554   0.072
 5509SOL    HW217427   6.821   6.560   6.953
 5510SOL     OW17428   4.760   5.151   6.830
 5510SOL    HW117429   4.773   5.249   6.818
 5510SOL    HW217430   4.848   5.108   6.852
 5511SOL     OW17431   2.366   1.542   4.155
 5511SOL    HW117432   2.280   1.497   4.178
 5511SOL    HW217433   2.439   1.509   4.216
 5512SOL     OW17434   5.791   2.317   1.487
 5512SOL    HW117435   5.726   2.261   1.436
 5512SOL    HW217436   5.810   2.275   1.576
 5513SOL     OW17437   4.543   4.669   6.642
 5513SOL    HW117438   4.531   4.696   6.547
 5513SOL    HW217439   4.510   4.742   6.702
 5514SOL     OW17440   4.122   6.658   4.266
 5514SOL    HW117441   4.145   6.561   4.272
 5514SOL    HW217442   4.134   6.689   4.172
 5515SOL     OW17443   0.788   5.868   1.915
 5515SOL    HW117444   0.846   5.932   1.865
 5515SOL    HW217445   0.846   5.811   1.974
 5516SOL     OW17446   1.897   4.099   6.369
 5516SOL    HW117447   1.865   4.083   6.275
 5516SOL    HW217448   1.892   4.196   6.390
 5517SOL     OW17449   2.160   3.028   1.714
 5517SOL    HW117450   2.233   3.096   1.723
 5517SOL    HW217451   2.156   2.996   1.619
 5518SOL     OW17452   5.946   6.403   6.587
 5518SOL    HW117453   5.889   6.435   6.512
 5518SOL    HW217454   5.932   6.304   6.600
 5519SOL     OW17455   5.518   3.443   3.551
 5519SOL    HW117456   5.574   3.489   3.483
 5519SOL    HW217457   5.576   3.401   3.620
 5520SOL     OW17458   5.980   6.300   2.545
 5520SOL    HW117459   6.005   6.271   2.637
 5520SOL    HW217460   6.047   6.263   2.479
 5521SOL     OW17461   5.696   6.031   1.832
 5521SOL    HW117462   5.662   5.950   1.880
 5521SOL    HW217463   5.779   6.008   1.781
 5522SOL     OW17464   6.863   5.081   0.374
 5522SOL    HW117465   6.942   5.038   0.418
 5522SOL    HW217466   6.894   5.150   0.309
 5523SOL     OW17467   3.940   0.735   1.938
 5523SOL    HW117468   4.013   0.666   1.940
 5523SOL    HW217469   3.966   0.808   1.875
 5524SOL     OW17470   5.439   0.076   4.866
 5524SOL    HW117471   5.417   7.008   4.840
 5524SOL    HW217472   5.355   0.125   4.890
 5525SOL     OW17473   0.062   1.814   1.142
 5525SOL    HW117474   0.040   1.811   1.045
 5525SOL    HW217475   0.121   1.737   1.166
 5526SOL     OW17476   4.897   5.637   3.518
 5526SOL    HW117477   4.835   5.608   3.446
 5526SOL    HW217478   4.925   5.732   3.503
 5527SOL     OW17479   4.916   3.575   3.981
 5527SOL    HW117480   5.003   3.578   3.931
 5527SOL    HW217481   4.893   3.481   4.003
 5528SOL     OW17482   1.422   1.054   6.639
 5528SOL    HW117483   1.359   1.089   6.708
 5528SOL    HW217484   1.449   1.129   6.578
 5529SOL     OW17485   2.861   0.308   3.472
 5529SOL    HW117486   2.854   0.320   3.373
 5529SOL    HW217487   2.957   0.318   3.499
 5530SOL     OW17488   5.795   2.173   1.736
 5530SOL    HW117489   5.699   2.147   1.734
 5530SOL    HW217490   5.833   2.158   1.827
 5531SOL     OW17491   3.213   3.531   2.129
 5531SOL    HW117492   3.236   3.436   2.110
 5531SOL    HW217493   3.294   3.580   2.160
 5532SOL     OW17494   1.840   3.059   0.582
 5532SOL    HW117495   1.896   2.976   0.588
 5532SOL    HW217496   1.882   3.122   0.517
 5533SOL     OW17497   3.535   1.623   3.086
 5533SOL    HW117498   3.604   1.618   3.014
 5533SOL    HW217499   3.469   1.694   3.064
 5534SOL     OW17500   0.335   1.074   6.303
 5534SOL    HW117501   0.306   1.167   6.282
 5534SOL    HW217502   0.321   1.056   6.401
 5535SOL     OW17503   7.011   2.710   3.492
 5535SOL    HW117504   6.922   2.755   3.482
 5535SOL    HW217505   0.031   2.744   3.574
 5536SOL     OW17506   3.083   1.365   4.203
 5536SOL    HW117507   3.166   1.358   4.259
 5536SOL    HW217508   3.107   1.362   4.106
 5537SOL     OW17509   2.916   0.751   2.486
 5537SOL    HW117510   2.998   0.800   2.518
 5537SOL    HW217511   2.850   0.745   2.561
 5538SOL     OW17512   2.398   6.245   6.084
 5538SOL    HW117513   2.382   6.158   6.038
 5538SOL    HW217514   2.474   6.293   6.041
 5539SOL     OW17515   1.352   3.089   1.329
 5539SOL    HW117516   1.278   3.022   1.328
 5539SOL    HW217517   1.346   3.144   1.413
 5540SOL     OW17518   4.969   4.601   3.688
 5540SOL    HW117519   4.895   4.550   3.732
 5540SOL    HW217520   4.942   4.696   3.675
 5541SOL     OW17521   6.037   0.321   6.162
 5541SOL    HW117522   6.122   0.363   6.129
 5541SOL    HW217523   6.058   0.233   6.205
 5542SOL     OW17524   5.382   3.821   6.199
 5542SOL    HW117525   5.373   3.780   6.290
 5542SOL    HW217526   5.297   3.809   6.148
 5543SOL     OW17527   3.833   4.969   5.425
 5543SOL    HW117528   3.795   5.058   5.450
 5543SOL    HW217529   3.897   4.939   5.497
 5544SOL     OW17530   4.748   5.925   6.227
 5544SOL    HW117531   4.838   5.957   6.258
 5544SOL    HW217532   4.686   6.003   6.219
 5545SOL     OW17533   3.689   1.009   1.635
 5545SOL    HW117534   3.718   0.988   1.541
 5545SOL    HW217535   3.713   0.934   1.695
 5546SOL     OW17536   0.956   5.016   4.798
 5546SOL    HW117537   1.036   5.055   4.844
 5546SOL    HW217538   0.894   4.977   4.867
 5547SOL     OW17539   2.138   0.145   5.186
 5547SOL    HW117540   2.187   0.216   5.134
 5547SOL    HW217541   2.169   0.147   5.281
 5548SOL     OW17542   5.611   3.000   5.029
 5548SOL    HW117543   5.665   2.922   4.999
 5548SOL    HW217544   5.576   3.050   4.949
 5549SOL     OW17545   4.500   3.798   6.506
 5549SOL    HW117546   4.450   3.801   6.420
 5549SOL    HW217547   4.582   3.855   6.499
 5550SOL     OW17548   2.568   4.972   1.871
 5550SOL    HW117549   2.559   5.071   1.869
 5550SOL    HW217550   2.657   4.947   1.908
 5551SOL     OW17551   2.307   0.784   3.513
 5551SOL    HW117552   2.341   0.714   3.576
 5551SOL    HW217553   2.304   0.872   3.560
 5552SOL     OW17554   6.967   0.556   0.177
 5552SOL    HW117555   7.003   0.465   0.199
 5552SOL    HW217556   0.017   0.621   0.172
 5553SOL     OW17557   4.666   6.666   0.167
 5553SOL    HW117558   4.722   6.619   0.099
 5553SOL    HW217559   4.573   6.678   0.133
 5554SOL     OW17560   3.962   1.342   5.366
 5554SOL    HW117561   3.900   1.404   5.318
 5554SOL    HW217562   4.031   1.308   5.302
 5555SOL     OW17563   1.174   4.423   4.501
 5555SOL    HW117564   1.118   4.403   4.420
 5555SOL    HW217565   1.269   4.400   4.483
 5556SOL     OW17566   6.676   2.011   3.796
 5556SOL    HW117567   6.752   2.024   3.732
 5556SOL    HW217568   6.661   2.096   3.847
 5557SOL     OW17569   3.470   6.518   3.136
 5557SOL    HW117570   3.465   6.419   3.146
 5557SOL    HW217571   3.525   6.541   3.056
 5558SOL     OW17572   5.325   3.375   6.625
 5558SOL    HW117573   5.410   3.424   6.604
 5558SOL    HW217574   5.261   3.438   6.670
 5559SOL     OW17575   2.941   6.830   1.815
 5559SOL    HW117576   2.853   6.876   1.833
 5559SOL    HW217577   3.012   6.873   1.871
 5560SOL     OW17578   0.979   6.621   3.396
 5560SOL    HW117579   0.963   6.656   3.304
 5560SOL    HW217580   1.053   6.673   3.439
 5561SOL     OW17581   2.071   2.891   4.254
 5561SOL    HW117582   2.085   2.808   4.199
 5561SOL    HW217583   2.117   2.968   4.210
 5562SOL     OW17584   2.955   2.685   6.904
 5562SOL    HW117585   2.982   2.646   6.992
 5562SOL    HW217586   3.032   2.684   6.841
 5563SOL     OW17587   4.428   6.270   2.693
 5563SOL    HW117588   4.498   6.328   2.651
 5563SOL    HW217589   4.437   6.176   2.659
 5564SOL     OW17590   4.525   1.376   1.764
 5564SOL    HW117591   4.519   1.475   1.778
 5564SOL    HW217592   4.618   1.346   1.783
 5565SOL     OW17593   5.160   1.815   6.761
 5565SOL    HW117594   5.080   1.771   6.722
 5565SOL    HW217595   5.187   1.768   6.845
 5566SOL     OW17596   1.699   5.360   0.488
 5566SOL    HW117597   1.751   5.439   0.519
 5566SOL    HW217598   1.601   5.379   0.495
 5567SOL     OW17599   0.568   4.484   2.128
 5567SOL    HW117600   0.557   4.580   2.155
 5567SOL    HW217601   0.478   4.442   2.119
 5568SOL     OW17602   4.589   2.569   2.865
 5568SOL    HW117603   4.631   2.660   2.861
 5568SOL    HW217604   4.574   2.535   2.772
 5569SOL     OW17605   2.550   1.159   1.620
 5569SOL    HW117606   2.634   1.116   1.587
 5569SOL    HW217607   2.522   1.230   1.556
 5570SOL     OW17608   5.484   5.053   5.105
 5570SOL    HW117609   5.456   5.098   5.190
 5570SOL    HW217610   5.470   4.955   5.113
 5571SOL     OW17611   0.422   6.595   0.186
 5571SOL    HW117612   0.334   6.642   0.187
 5571SOL    HW217613   0.416   6.514   0.127
 5572SOL     OW17614   1.765   2.954   5.196
 5572SOL    HW117615   1.682   2.951   5.141
 5572SOL    HW217616   1.845   2.957   5.136
 5573SOL     OW17617   2.008   3.071   7.018
 5573SOL    HW117618   1.967   2.994   0.041
 5573SOL    HW217619   2.103   3.081   0.020
 5574SOL     OW17620   6.056   1.691   3.913
 5574SOL    HW117621   6.057   1.716   3.816
 5574SOL    HW217622   6.146   1.654   3.938
 5575SOL     OW17623   0.554   1.378   1.978
 5575SOL    HW117624   0.634   1.318   1.978
 5575SOL    HW217625   0.547   1.423   1.889
 5576SOL     OW17626   0.545   6.267   1.735
 5576SOL    HW117627   0.506   6.265   1.827
 5576SOL    HW217628   0.513   6.187   1.684
 5577SOL     OW17629   3.062   2.337   6.202
 5577SOL    HW117630   3.084   2.267   6.270
 5577SOL    HW217631   2.964   2.353   6.202
 5578SOL     OW17632   4.328   3.909   0.575
 5578SOL    HW117633   4.315   3.823   0.625
 5578SOL    HW217634   4.419   3.910   0.535
 5579SOL     OW17635   6.492   3.931   6.378
 5579SOL    HW117636   6.518   4.027   6.387
 5579SOL    HW217637   6.511   3.900   6.285
 5580SOL     OW17638   5.051   1.911   6.236
 5580SOL    HW117639   5.009   1.973   6.169
 5580SOL    HW217640   4.997   1.827   6.241
 5581SOL     OW17641   2.133   6.750   1.266
 5581SOL    HW117642   2.042   6.777   1.298
 5581SOL    HW217643   2.202   6.788   1.328
 5582SOL     OW17644   3.650   3.213   3.266
 5582SOL    HW117645   3.590   3.172   3.197
 5582SOL    HW217646   3.719   3.147   3.294
 5583SOL     OW17647   4.299   6.942   2.655
 5583SOL    HW117648   4.344   0.000   2.625
 5583SOL    HW217649   4.200   6.958   2.661
 5584SOL     OW17650   5.579   3.843   4.769
 5584SOL    HW117651   5.654   3.894   4.812
 5584SOL    HW217652   5.493   3.891   4.785
 5585SOL     OW17653   4.576   0.258   3.979
 5585SOL    HW117654   4.574   0.173   3.926
 5585SOL    HW217655   4.562   0.238   4.076
 5586SOL     OW17656   1.039   2.228   6.500
 5586SOL    HW117657   1.107   2.221   6.573
 5586SOL    HW217658   0.948   2.209   6.538
 5587SOL     OW17659   4.707   6.564   2.193
 5587SOL    HW117660   4.749   6.593   2.107
 5587SOL    HW217661   4.611   6.592   2.195
 5588SOL     OW17662   1.443   6.862   3.885
 5588SOL    HW117663   1.522   6.889   3.941
 5588SOL    HW217664   1.430   6.929   3.812
 5589SOL     OW17665   5.719   3.154   6.556
 5589SOL    HW117666   5.624   3.136   6.582
 5589SOL    HW217667   5.728   3.148   6.457
 5590SOL     OW17668   0.152   5.568   3.067
 5590SOL    HW117669   0.238   5.598   3.107
 5590SOL    HW217670   0.155   5.580   2.968
 5591SOL     OW17671   5.927   1.060   6.708
 5591SOL    HW117672   5.864   1.134   6.685
 5591SOL    HW217673   5.877   0.974   6.715
 5592SOL     OW17674   2.115   4.515   2.902
 5592SOL    HW117675   2.018   4.523   2.875
 5592SOL    HW217676   2.168   4.582   2.850
 5593SOL     OW17677   6.710   2.086   6.211
 5593SOL    HW117678   6.799   2.083   6.165
 5593SOL    HW217679   6.637   2.077   6.143
 5594SOL     OW17680   2.603   1.435   6.792
 5594SOL    HW117681   2.548   1.362   6.752
 5594SOL    HW217682   2.545   1.496   6.845
 5595SOL     OW17683   6.471   1.280   5.352
 5595SOL    HW117684   6.534   1.299   5.277
 5595SOL    HW217685   6.377   1.301   5.323
 5596SOL     OW17686   5.003   0.270   2.156
 5596SOL    HW117687   4.948   0.349   2.130
 5596SOL    HW217688   5.013   0.269   2.256
 5597SOL     OW17689   5.405   2.035   4.924
 5597SOL    HW117690   5.466   2.099   4.877
 5597SOL    HW217691   5.458   1.956   4.954
 5598SOL     OW17692   4.948   2.384   3.681
 5598SOL    HW117693   4.915   2.337   3.763
 5598SOL    HW217694   4.876   2.384   3.612
 5599SOL     OW17695   6.567   3.604   2.029
 5599SOL    HW117696   6.607   3.564   1.947
 5599SOL    HW217697   6.515   3.686   2.003
 5600SOL     OW17698   1.683   0.183   2.547
 5600SOL    HW117699   1.719   0.197   2.639
 5600SOL    HW217700   1.589   0.219   2.542
 5601SOL     OW17701   4.534   2.104   6.337
 5601SOL    HW117702   4.509   2.109   6.433
 5601SOL    HW217703   4.595   2.179   6.313
 5602SOL     OW17704   0.195   0.893   2.819
 5602SOL    HW117705   0.207   0.816   2.756
 5602SOL    HW217706   0.117   0.874   2.880
 5603SOL     OW17707   5.197   2.339   5.454
 5603SOL    HW117708   5.107   2.369   5.424
 5603SOL    HW217709   5.261   2.344   5.377
 5604SOL     OW17710   0.660   2.199   4.731
 5604SOL    HW117711   0.655   2.124   4.797
 5604SOL    HW217712   0.633   2.166   4.641
 5605SOL     OW17713   1.546   7.019   5.048
 5605SOL    HW117714   1.635   6.975   5.044
 5605SOL    HW217715   1.547   0.064   5.119
 5606SOL     OW17716   4.359   0.609   0.560
 5606SOL    HW117717   4.282   0.609   0.496
 5606SOL    HW217718   4.441   0.641   0.514
 5607SOL     OW17719   5.230   2.120   3.864
 5607SOL    HW117720   5.220   2.031   3.820
 5607SOL    HW217721   5.327   2.139   3.879
 5608SOL     OW17722   5.863   1.426   3.405
 5608SOL    HW117723   5.790   1.408   3.471
 5608SOL    HW217724   5.944   1.372   3.430
 5609SOL     OW17725   4.951   5.606   0.202
 5609SOL    HW117726   4.966   5.567   0.111
 5609SOL    HW217727   4.969   5.704   0.200
 5610SOL     OW17728   6.154   4.018   1.296
 5610SOL    HW117729   6.204   4.099   1.266
 5610SOL    HW217730   6.180   3.996   1.390
 5611SOL     OW17731   0.886   5.305   2.120
 5611SOL    HW117732   0.788   5.285   2.120
 5611SOL    HW217733   0.911   5.349   2.206
 5612SOL     OW17734   3.431   2.875   0.573
 5612SOL    HW117735   3.402   2.841   0.663
 5612SOL    HW217736   3.502   2.815   0.536
 5613SOL     OW17737   6.675   4.724   5.169
 5613SOL    HW117738   6.625   4.774   5.240
 5613SOL    HW217739   6.744   4.665   5.211
 5614SOL     OW17740   5.832   2.918   4.646
 5614SOL    HW117741   5.867   2.989   4.584
 5614SOL    HW217742   5.886   2.918   4.730
 5615SOL     OW17743   0.268   1.406   3.319
 5615SOL    HW117744   0.264   1.481   3.253
 5615SOL    HW217745   0.330   1.429   3.393
 5616SOL     OW17746   2.354   2.797   4.894
 5616SOL    HW117747   2.438   2.743   4.891
 5616SOL    HW217748   2.360   2.863   4.969
 5617SOL     OW17749   1.844   3.724   4.944
 5617SOL    HW117750   1.932   3.679   4.959
 5617SOL    HW217751   1.841   3.762   4.851
 5618SOL     OW17752   6.856   4.834   3.361
 5618SOL    HW117753   6.897   4.758   3.311
 5618SOL    HW217754   6.758   4.839   3.339
 5619SOL     OW17755   3.581   3.458   3.384
 5619SOL    HW117756   3.628   3.386   3.333
 5619SOL    HW217757   3.648   3.527   3.412
 5620SOL     OW17758   5.013   3.785   6.417
 5620SOL    HW117759   5.057   3.701   6.384
 5620SOL    HW217760   4.919   3.788   6.384
 5621SOL     OW17761   1.223   2.969   6.139
 5621SOL    HW117762   1.178   2.909   6.205
 5621SOL    HW217763   1.159   2.992   6.066
 5622SOL     OW17764   4.975   6.704   5.680
 5622SOL    HW117765   4.922   6.652   5.612
 5622SOL    HW217766   4.930   6.792   5.696
 5623SOL     OW17767   4.780   6.311   5.315
 5623SOL    HW117768   4.784   6.261   5.228
 5623SOL    HW217769   4.873   6.331   5.346
 5624SOL     OW17770   0.652   5.225   3.814
 5624SOL    HW117771   0.744   5.194   3.790
 5624SOL    HW217772   0.632   5.311   3.767
 5625SOL     OW17773   0.467   4.690   5.336
 5625SOL    HW117774   0.451   4.601   5.379
 5625SOL    HW217775   0.448   4.763   5.401
 5626SOL     OW17776   2.756   5.882   4.251
 5626SOL    HW117777   2.733   5.926   4.165
 5626SOL    HW217778   2.684   5.818   4.277
 5627SOL     OW17779   0.032   5.504   5.981
 5627SOL    HW117780   0.005   5.600   5.973
 5627SOL    HW217781   0.073   5.473   5.895
 5628SOL     OW17782   2.564   2.607   1.402
 5628SOL    HW117783   2.658   2.620   1.431
 5628SOL    HW217784   2.529   2.522   1.441
 5629SOL     OW17785   4.790   2.599   1.592
 5629SOL    HW117786   4.843   2.594   1.677
 5629SOL    HW217787   4.768   2.694   1.571
 5630SOL     OW17788   1.794   3.629   6.433
 5630SOL    HW117789   1.893   3.637   6.443
 5630SOL    HW217790   1.767   3.660   6.342
 5631SOL     OW17791   5.499   1.373   0.873
 5631SOL    HW117792   5.481   1.448   0.936
 5631SOL    HW217793   5.413   1.337   0.838
 5632SOL     OW17794   5.318   2.054   5.465
 5632SOL    HW117795   5.239   1.995   5.479
 5632SOL    HW217796   5.288   2.144   5.433
 5633SOL     OW17797   6.625   5.163   4.651
 5633SOL    HW117798   6.608   5.142   4.554
 5633SOL    HW217799   6.543   5.142   4.704
 5634SOL     OW17800   2.285   4.861   3.841
 5634SOL    HW117801   2.378   4.867   3.878
 5634SOL    HW217802   2.238   4.784   3.884
 5635SOL     OW17803   2.428   6.103   6.813
 5635SOL    HW117804   2.521   6.083   6.844
 5635SOL    HW217805   2.372   6.129   6.891
 5636SOL     OW17806   6.152   0.694   5.384
 5636SOL    HW117807   6.226   0.628   5.374
 5636SOL    HW217808   6.134   0.711   5.480
 5637SOL     OW17809   4.382   6.944   3.455
 5637SOL    HW117810   4.330   6.858   3.454
 5637SOL    HW217811   4.318   7.021   3.443
 5638SOL     OW17812   6.444   5.207   0.865
 5638SOL    HW117813   6.410   5.259   0.786
 5638SOL    HW217814   6.458   5.269   0.942
 5639SOL     OW17815   2.157   0.584   1.407
 5639SOL    HW117816   2.221   0.617   1.477
 5639SOL    HW217817   2.173   0.486   1.393
 5640SOL     OW17818   3.059   7.008   1.993
 5640SOL    HW117819   2.997   0.060   1.994
 5640SOL    HW217820   3.069   6.971   2.085
 5641SOL     OW17821   6.880   4.822   6.127
 5641SOL    HW117822   6.873   4.790   6.222
 5641SOL    HW217823   6.831   4.759   6.067
 5642SOL     OW17824   1.293   5.237   5.291
 5642SOL    HW117825   1.241   5.157   5.320
 5642SOL    HW217826   1.231   5.313   5.269
 5643SOL     OW17827   3.849   1.074   4.498
 5643SOL    HW117828   3.839   1.081   4.399
 5643SOL    HW217829   3.937   1.031   4.520
 5644SOL     OW17830   3.927   0.593   3.699
 5644SOL    HW117831   3.914   0.674   3.757
 5644SOL    HW217832   4.019   0.592   3.662
 5645SOL     OW17833   6.062   4.173   3.155
 5645SOL    HW117834   6.033   4.102   3.091
 5645SOL    HW217835   6.144   4.219   3.120
 5646SOL     OW17836   2.196   5.756   3.512
 5646SOL    HW117837   2.234   5.673   3.553
 5646SOL    HW217838   2.126   5.795   3.572
 5647SOL     OW17839   6.245   6.506   0.297
 5647SOL    HW117840   6.245   6.579   0.228
 5647SOL    HW217841   6.293   6.538   0.379
 5648SOL     OW17842   1.987   1.336   2.803
 5648SOL    HW117843   2.070   1.282   2.797
 5648SOL    HW217844   1.953   1.356   2.710
 5649SOL     OW17845   0.383   6.710   5.712
 5649SOL    HW117846   0.463   6.652   5.727
 5649SOL    HW217847   0.340   6.687   5.625
 5650SOL     OW17848   0.532   5.983   0.958
 5650SOL    HW117849   0.539   6.082   0.962
 5650SOL    HW217850   0.601   5.946   0.895
 5651SOL     OW17851   0.757   1.359   1.575
 5651SOL    HW117852   0.772   1.309   1.660
 5651SOL    HW217853   0.777   1.456   1.590
 5652SOL     OW17854   5.772   6.482   2.590
 5652SOL    HW117855   5.706   6.528   2.531
 5652SOL    HW217856   5.828   6.419   2.535
 5653SOL     OW17857   0.314   6.024   6.536
 5653SOL    HW117858   0.384   5.961   6.503
 5653SOL    HW217859   0.245   6.036   6.464
 5654SOL     OW17860   6.585   6.668   5.563
 5654SOL    HW117861   6.531   6.749   5.585
 5654SOL    HW217862   6.608   6.619   5.648
 5655SOL     OW17863   1.088   3.312   4.702
 5655SOL    HW117864   1.160   3.303   4.633
 5655SOL    HW217865   1.051   3.222   4.723
 5656SOL     OW17866   1.359   3.124   0.276
 5656SOL    HW117867   1.330   3.116   0.181
 5656SOL    HW217868   1.312   3.201   0.319
 5657SOL     OW17869   5.564   0.608   0.858
 5657SOL    HW117870   5.492   0.676   0.841
 5657SOL    HW217871   5.527   0.534   0.914
 5658SOL     OW17872   3.205   5.514   5.866
 5658SOL    HW117873   3.216   5.416   5.849
 5658SOL    HW217874   3.248   5.566   5.792
 5659SOL     OW17875   4.058   3.878   3.641
 5659SOL    HW117876   3.979   3.892   3.701
 5659SOL    HW217877   4.094   3.966   3.612
 5660SOL     OW17878   5.717   0.271   5.607
 5660SOL    HW117879   5.725   0.248   5.704
 5660SOL    HW217880   5.635   0.228   5.569
 5661SOL     OW17881   0.355   4.123   5.271
 5661SOL    HW117882   0.315   4.209   5.238
 5661SOL    HW217883   0.396   4.138   5.361
 5662SOL     OW17884   2.607   5.534   3.346
 5662SOL    HW117885   2.593   5.541   3.445
 5662SOL    HW217886   2.545   5.466   3.308
 5663SOL     OW17887   1.974   3.108   6.760
 5663SOL    HW117888   1.985   3.111   6.859
 5663SOL    HW217889   2.040   3.044   6.721
 5664SOL     OW17890   6.915   4.618   4.709
 5664SOL    HW117891   6.966   4.587   4.629
 5664SOL    HW217892   6.957   4.581   4.792
 5665SOL     OW17893   1.491   1.838   6.772
 5665SOL    HW117894   1.392   1.824   6.772
 5665SOL    HW217895   1.525   1.837   6.678
 5666SOL     OW17896   5.976   5.845   1.147
 5666SOL    HW117897   6.018   5.810   1.063
 5666SOL    HW217898   5.908   5.914   1.123
 5667SOL     OW17899   1.406   4.550   3.631
 5667SOL    HW117900   1.369   4.643   3.634
 5667SOL    HW217901   1.331   4.484   3.634
 5668SOL     OW17902   4.837   1.902   4.914
 5668SOL    HW117903   4.887   1.832   4.964
 5668SOL    HW217904   4.874   1.992   4.938
 5669SOL     OW17905   0.834   2.812   6.871
 5669SOL    HW117906   0.933   2.804   6.880
 5669SOL    HW217907   0.811   2.903   6.837
 5670SOL     OW17908   0.129   2.512   3.830
 5670SOL    HW117909   0.197   2.576   3.866
 5670SOL    HW217910   0.152   2.488   3.735
 5671SOL     OW17911   0.556   6.159   6.317
 5671SOL    HW117912   0.482   6.225   6.332
 5671SOL    HW217913   0.578   6.113   6.403
 5672SOL     OW17914   4.306   4.593   6.800
 5672SOL    HW117915   4.401   4.623   6.815
 5672SOL    HW217916   4.247   4.673   6.789
 5673SOL     OW17917   0.863   6.379   1.585
 5673SOL    HW117918   0.821   6.289   1.571
 5673SOL    HW217919   0.807   6.433   1.647
 5674SOL     OW17920   6.551   4.639   4.035
 5674SOL    HW117921   6.506   4.619   3.948
 5674SOL    HW217922   6.490   4.691   4.094
 5675SOL     OW17923   4.805   2.463   5.700
 5675SOL    HW117924   4.834   2.407   5.778
 5675SOL    HW217925   4.861   2.441   5.620
 5676SOL     OW17926   1.692   2.458   2.360
 5676SOL    HW117927   1.764   2.508   2.407
 5676SOL    HW217928   1.609   2.515   2.356
 5677SOL     OW17929   0.770   2.193   3.183
 5677SOL    HW117930   0.867   2.180   3.198
 5677SOL    HW217931   0.718   2.129   3.240
 5678SOL     OW17932   3.388   6.357   2.708
 5678SOL    HW117933   3.328   6.412   2.650
 5678SOL    HW217934   3.345   6.341   2.797
 5679SOL     OW17935   1.341   0.721   3.754
 5679SOL    HW117936   1.320   0.817   3.736
 5679SOL    HW217937   1.349   0.672   3.666
 5680SOL     OW17938   1.301   5.634   0.913
 5680SOL    HW117939   1.274   5.694   0.989
 5680SOL    HW217940   1.365   5.683   0.854
 5681SOL     OW17941   0.255   3.545   0.131
 5681SOL    HW117942   0.317   3.624   0.136
 5681SOL    HW217943   0.260   3.494   0.217
 5682SOL     OW17944   2.161   4.451   5.823
 5682SOL    HW117945   2.229   4.479   5.756
 5682SOL    HW217946   2.194   4.472   5.915
 5683SOL     OW17947   3.137   0.963   0.323
 5683SOL    HW117948   3.141   1.021   0.404
 5683SOL    HW217949   3.087   1.009   0.251
 5684SOL     OW17950   3.392   3.042   4.924
 5684SOL    HW117951   3.368   2.992   5.007
 5684SOL    HW217952   3.317   3.103   4.898
 5685SOL     OW17953   1.837   3.078   2.525
 5685SOL    HW117954   1.902   3.005   2.507
 5685SOL    HW217955   1.814   3.125   2.439
 5686SOL     OW17956   2.778   6.926   6.503
 5686SOL    HW117957   2.811   7.008   6.457
 5686SOL    HW217958   2.780   6.849   6.439
 5687SOL     OW17959   0.901   4.298   5.788
 5687SOL    HW117960   0.838   4.370   5.759
 5687SOL    HW217961   0.921   4.238   5.711
 5688SOL     OW17962   6.891   1.715   0.199
 5688SOL    HW117963   6.960   1.733   0.270
 5688SOL    HW217964   6.934   1.722   0.109
 5689SOL     OW17965   4.302   0.325   0.556
 5689SOL    HW117966   4.327   0.401   0.616
 5689SOL    HW217967   4.364   0.322   0.478
 5690SOL     OW17968   2.320   5.799   0.675
 5690SOL    HW117969   2.240   5.858   0.667
 5690SOL    HW217970   2.397   5.852   0.711
 5691SOL     OW17971   2.678   5.883   1.828
 5691SOL    HW117972   2.600   5.941   1.852
 5691SOL    HW217973   2.676   5.864   1.730
 5692SOL     OW17974   6.922   3.430   6.230
 5692SOL    HW117975   6.894   3.353   6.174
 5692SOL    HW217976   6.853   3.448   6.300
 5693SOL     OW17977   5.837   2.498   2.321
 5693SOL    HW117978   5.766   2.554   2.280
 5693SOL    HW217979   5.797   2.413   2.354
 5694SOL     OW17980   1.269   2.241   3.985
 5694SOL    HW117981   1.212   2.223   4.065
 5694SOL    HW217982   1.358   2.276   4.014
 5695SOL     OW17983   1.399   2.634   3.497
 5695SOL    HW117984   1.493   2.661   3.474
 5695SOL    HW217985   1.399   2.585   3.585
 5696SOL     OW17986   1.726   0.436   3.423
 5696SOL    HW117987   1.631   0.464   3.409
 5696SOL    HW217988   1.786   0.515   3.409
 5697SOL     OW17989   6.048   2.797   1.516
 5697SOL    HW117990   6.105   2.815   1.436
 5697SOL    HW217991   6.099   2.822   1.599
 5698SOL     OW17992   0.496   3.136   2.842
 5698SOL    HW117993   0.582   3.120   2.890
 5698SOL    HW217994   0.502   3.222   2.790
 5699SOL     OW17995   6.419   2.247   2.580
 5699SOL    HW117996   6.338   2.199   2.546
 5699SOL    HW217997   6.392   2.338   2.612
 5700SOL     OW17998   6.814   6.651   3.964
 5700SOL    HW117999   6.910   6.661   3.936
 5700SOL    HW218000   6.802   6.563   4.010
 5701SOL     OW18001   1.356   6.569   3.259
 5701SOL    HW118002   1.426   6.551   3.328
 5701SOL    HW218003   1.342   6.488   3.203
 5702SOL     OW18004   2.068   6.994   5.880
 5702SOL    HW118005   2.124   6.934   5.823
 5702SOL    HW218006   2.061   6.956   5.972
 5703SOL     OW18007   5.689   4.820   1.525
 5703SOL    HW118008   5.787   4.806   1.516
 5703SOL    HW218009   5.671   4.913   1.555
 5704SOL     OW18010   4.284   5.627   1.929
 5704SOL    HW118011   4.241   5.584   2.009
 5704SOL    HW218012   4.381   5.642   1.948
 5705SOL     OW18013   4.831   0.860   1.348
 5705SOL    HW118014   4.832   0.942   1.406
 5705SOL    HW218015   4.907   0.864   1.284
 5706SOL     OW18016   0.437   2.633   0.118
 5706SOL    HW118017   0.456   2.600   0.211
 5706SOL    HW218018   0.522   2.650   0.070
 5707SOL     OW18019   6.997   0.056   0.249
 5707SOL    HW118020   0.029   7.019   0.302
 5707SOL    HW218021   0.002   0.150   0.264
 5708SOL     OW18022   5.306   6.421   1.276
 5708SOL    HW118023   5.344   6.335   1.310
 5708SOL    HW218024   5.230   6.450   1.335
 5709SOL     OW18025   1.915   0.162   3.810
 5709SOL    HW118026   1.898   0.188   3.715
 5709SOL    HW218027   1.837   0.187   3.866
 5710SOL     OW18028   2.446   2.900   6.470
 5710SOL    HW118029   2.437   2.981   6.412
 5710SOL    HW218030   2.373   2.835   6.448
 5711SOL     OW18031   4.723   1.248   2.695
 5711SOL    HW118032   4.693   1.155   2.673
 5711SOL    HW218033   4.782   1.283   2.622
 5712SOL     OW18034   1.069   5.526   5.702
 5712SOL    HW118035   1.041   5.433   5.679
 5712SOL    HW218036   1.145   5.553   5.643
 5713SOL     OW18037   1.962   2.353   1.808
 5713SOL    HW118038   1.969   2.292   1.886
 5713SOL    HW218039   2.042   2.342   1.749
 5714SOL     OW18040   0.473   6.024   6.077
 5714SOL    HW118041   0.566   5.999   6.051
 5714SOL    HW218042   0.474   6.073   6.164
 5715SOL     OW18043   1.368   6.659   2.939
 5715SOL    HW118044   1.310   6.582   2.967
 5715SOL    HW218045   1.371   6.663   2.839
 5716SOL     OW18046   1.584   4.796   0.160
 5716SOL    HW118047   1.626   4.883   0.135
 5716SOL    HW218048   1.620   4.723   0.101
 5717SOL     OW18049   1.812   5.833   0.764
 5717SOL    HW118050   1.849   5.742   0.784
 5717SOL    HW218051   1.714   5.834   0.784
 5718SOL     OW18052   1.303   3.728   5.887
 5718SOL    HW118053   1.283   3.676   5.804
 5718SOL    HW218054   1.218   3.740   5.939
 5719SOL     OW18055   2.570   1.330   6.375
 5719SOL    HW118056   2.576   1.246   6.320
 5719SOL    HW218057   2.635   1.397   6.340
 5720SOL     OW18058   1.227   5.057   4.515
 5720SOL    HW118059   1.323   5.059   4.487
 5720SOL    HW218060   1.219   5.003   4.599
 5721SOL     OW18061   0.509   3.483   1.047
 5721SOL    HW118062   0.496   3.481   0.948
 5721SOL    HW218063   0.502   3.577   1.080
 5722SOL     OW18064   6.383   1.824   5.317
 5722SOL    HW118065   6.434   1.846   5.234
 5722SOL    HW218066   6.309   1.761   5.295
 5723SOL     OW18067   4.658   3.247   6.686
 5723SOL    HW118068   4.692   3.331   6.645
 5723SOL    HW218069   4.558   3.250   6.692
 5724SOL     OW18070   4.151   2.771   5.325
 5724SOL    HW118071   4.074   2.763   5.388
 5724SOL    HW218072   4.151   2.694   5.261
 5725SOL     OW18073   6.308   5.996   4.051
 5725SOL    HW118074   6.257   6.043   4.123
 5725SOL    HW218075   6.315   5.899   4.073
 5726SOL     OW18076   6.843   4.341   4.193
 5726SOL    HW118077   6.825   4.282   4.114
 5726SOL    HW218078   6.820   4.436   4.169
 5727SOL     OW18079   0.996   2.625   3.924
 5727SOL    HW118080   0.981   2.527   3.935
 5727SOL    HW218081   1.040   2.662   4.006
 5728SOL     OW18082   4.375   1.425   6.949
 5728SOL    HW118083   4.305   1.369   6.994
 5728SOL    HW218084   4.413   1.489   7.015
 5729SOL     OW18085   1.049   1.404   0.365
 5729SOL    HW118086   1.113   1.367   0.432
 5729SOL    HW218087   1.026   1.498   0.389
 5730SOL     OW18088   4.365   5.322   5.494
 5730SOL    HW118089   4.287   5.376   5.463
 5730SOL    HW218090   4.446   5.380   5.500
 5731SOL     OW18091   1.829   6.432   4.053
 5731SOL    HW118092   1.905   6.404   3.995
 5731SOL    HW218093   1.837   6.530   4.073
 5732SOL     OW18094   6.876   5.231   5.365
 5732SOL    HW118095   6.880   5.148   5.309
 5732SOL    HW218096   6.865   5.310   5.305
 5733SOL     OW18097   3.627   0.351   5.687
 5733SOL    HW118098   3.608   0.359   5.589
 5733SOL    HW218099   3.646   0.441   5.725
 5734SOL     OW18100   1.540   5.773   5.869
 5734SOL    HW118101   1.486   5.708   5.923
 5734SOL    HW218102   1.570   5.848   5.928
 5735SOL     OW18103   3.796   1.434   2.638
 5735SOL    HW118104   3.723   1.417   2.572
 5735SOL    HW218105   3.823   1.531   2.632
 5736SOL     OW18106   6.860   4.619   1.325
 5736SOL    HW118107   6.871   4.714   1.297
 5736SOL    HW218108   6.784   4.613   1.391
 5737SOL     OW18109   4.776   5.433   6.810
 5737SOL    HW118110   4.804   5.492   6.734
 5737SOL    HW218111   4.678   5.443   6.825
 5738SOL     OW18112   3.210   2.297   6.493
 5738SOL    HW118113   3.230   2.374   6.431
 5738SOL    HW218114   3.294   2.271   6.541
 5739SOL     OW18115   0.885   0.018   5.421
 5739SOL    HW118116   0.973   0.012   5.469
 5739SOL    HW218117   0.810   0.000   5.485
 5740SOL     OW18118   3.926   3.688   1.023
 5740SOL    HW118119   3.899   3.782   0.999
 5740SOL    HW218120   3.873   3.657   1.102
 5741SOL     OW18121   6.541   3.970   4.769
 5741SOL    HW118122   6.462   3.916   4.738
 5741SOL    HW218123   6.513   4.026   4.847
 5742SOL     OW18124   4.443   6.611   2.227
 5742SOL    HW118125   4.417   6.602   2.323
 5742SOL    HW218126   4.423   6.704   2.196
 5743SOL     OW18127   2.390   5.469   5.726
 5743SOL    HW118128   2.482   5.507   5.716
 5743SOL    HW218129   2.337   5.526   5.789
 5744SOL     OW18130   4.710   1.553   0.655
 5744SOL    HW118131   4.693   1.615   0.731
 5744SOL    HW218132   4.768   1.477   0.685
 5745SOL     OW18133   2.297   1.554   3.812
 5745SOL    HW118134   2.389   1.579   3.783
 5745SOL    HW218135   2.297   1.531   3.909
 5746SOL     OW18136   5.144   6.844   1.961
 5746SOL    HW118137   5.098   6.851   1.872
 5746SOL    HW218138   5.079   6.861   2.034
 5747SOL     OW18139   1.068   4.732   2.234
 5747SOL    HW118140   1.148   4.695   2.280
 5747SOL    HW218141   1.093   4.816   2.185
 5748SOL     OW18142   1.059   0.361   0.903
 5748SOL    HW118143   1.070   0.315   0.991
 5748SOL    HW218144   0.976   0.329   0.859
 5749SOL     OW18145   1.312   6.275   4.796
 5749SOL    HW118146   1.388   6.306   4.738
 5749SOL    HW218147   1.240   6.236   4.738
 5750SOL     OW18148   6.607   6.449   5.065
 5750SOL    HW118149   6.611   6.542   5.104
 5750SOL    HW218150   6.684   6.436   5.004
 5751SOL     OW18151   2.225   3.078   4.840
 5751SOL    HW118152   2.292   3.055   4.910
 5751SOL    HW218153   2.273   3.101   4.755
 5752SOL     OW18154   6.288   0.368   0.326
 5752SOL    HW118155   6.299   0.422   0.243
 5752SOL    HW218156   6.339   0.410   0.401
 5753SOL     OW18157   4.111   3.495   4.167
 5753SOL    HW118158   4.107   3.516   4.069
 5753SOL    HW218159   4.079   3.574   4.219
 5754SOL     OW18160   0.274   5.541   1.651
 5754SOL    HW118161   0.263   5.598   1.733
 5754SOL    HW218162   0.237   5.588   1.572
 5755SOL     OW18163   2.508   2.235   6.704
 5755SOL    HW118164   2.588   2.202   6.754
 5755SOL    HW218165   2.456   2.157   6.669
 5756SOL     OW18166   6.634   0.413   3.585
 5756SOL    HW118167   6.659   0.418   3.488
 5756SOL    HW218168   6.565   0.482   3.605
 5757SOL     OW18169   0.390   6.117   3.099
 5757SOL    HW118170   0.315   6.106   3.035
 5757SOL    HW218171   0.381   6.204   3.148
 5758SOL     OW18172   2.453   1.172   4.621
 5758SOL    HW118173   2.520   1.207   4.556
 5758SOL    HW218174   2.391   1.108   4.575
 5759SOL     OW18175   4.925   1.125   6.709
 5759SOL    HW118176   4.949   1.030   6.728
 5759SOL    HW218177   4.900   1.135   6.613
 5760SOL     OW18178   6.832   3.052   0.661
 5760SOL    HW118179   6.734   3.071   0.661
 5760SOL    HW218180   6.849   2.965   0.615
 5761SOL     OW18181   5.863   5.521   6.230
 5761SOL    HW118182   5.863   5.578   6.148
 5761SOL    HW218183   5.946   5.537   6.282
 5762SOL     OW18184   5.259   4.454   0.782
 5762SOL    HW118185   5.221   4.485   0.695
 5762SOL    HW218186   5.223   4.363   0.804
 5763SOL     OW18187   6.429   6.309   0.625
 5763SOL    HW118188   6.457   6.398   0.589
 5763SOL    HW218189   6.406   6.318   0.722
 5764SOL     OW18190   5.187   5.035   5.559
 5764SOL    HW118191   5.104   4.979   5.557
 5764SOL    HW218192   5.217   5.047   5.653
 5765SOL     OW18193   6.505   2.607   0.652
 5765SOL    HW118194   6.567   2.681   0.675
 5765SOL    HW218195   6.493   2.602   0.553
 5766SOL     OW18196   1.840   1.715   6.545
 5766SOL    HW118197   1.760   1.763   6.510
 5766SOL    HW218198   1.923   1.755   6.504
 5767SOL     OW18199   1.604   0.926   0.194
 5767SOL    HW118200   1.637   0.991   0.126
 5767SOL    HW218201   1.681   0.880   0.238
 5768SOL     OW18202   1.274   5.762   4.050
 5768SOL    HW118203   1.195   5.823   4.039
 5768SOL    HW218204   1.358   5.815   4.038
 5769SOL     OW18205   2.636   6.050   4.632
 5769SOL    HW118206   2.662   5.993   4.710
 5769SOL    HW218207   2.713   6.053   4.567
 5770SOL     OW18208   6.168   5.908   0.192
 5770SOL    HW118209   6.137   5.999   0.219
 5770SOL    HW218210   6.265   5.912   0.169
 5771SOL     OW18211   1.453   0.207   4.294
 5771SOL    HW118212   1.363   0.201   4.335
 5771SOL    HW218213   1.450   0.169   4.201
 5772SOL     OW18214   5.329   1.879   1.532
 5772SOL    HW118215   5.282   1.797   1.500
 5772SOL    HW218216   5.270   1.958   1.519
 5773SOL     OW18217   4.010   0.362   2.931
 5773SOL    HW118218   3.920   0.404   2.919
 5773SOL    HW218219   4.042   0.377   3.024
 5774SOL     OW18220   2.548   6.365   3.776
 5774SOL    HW118221   2.593   6.326   3.695
 5774SOL    HW218222   2.449   6.361   3.764
 5775SOL     OW18223   1.838   0.356   2.344
 5775SOL    HW118224   1.792   0.365   2.432
 5775SOL    HW218225   1.826   0.264   2.309
 5776SOL     OW18226   0.010   0.790   4.547
 5776SOL    HW118227   0.058   0.877   4.552
 5776SOL    HW218228   0.001   0.762   4.451
 5777SOL     OW18229   6.533   0.279   5.073
 5777SOL    HW118230   6.471   0.251   5.146
 5777SOL    HW218231   6.567   0.198   5.026
 5778SOL     OW18232   1.594   0.941   1.330
 5778SOL    HW118233   1.594   0.869   1.399
 5778SOL    HW218234   1.670   0.927   1.266
 5779SOL     OW18235   4.484   3.200   1.074
 5779SOL    HW118236   4.414   3.256   1.029
 5779SOL    HW218237   4.570   3.251   1.078
 5780SOL     OW18238   5.833   5.855   3.791
 5780SOL    HW118239   5.909   5.804   3.832
 5780SOL    HW218240   5.856   5.880   3.698
 5781SOL     OW18241   6.809   4.594   4.307
 5781SOL    HW118242   6.722   4.589   4.356
 5781SOL    HW218243   6.791   4.612   4.210
 5782SOL     OW18244   0.937   1.698   0.391
 5782SOL    HW118245   0.955   1.771   0.325
 5782SOL    HW218246   0.902   1.739   0.476
 5783SOL     OW18247   2.282   0.261   1.760
 5783SOL    HW118248   2.342   0.338   1.779
 5783SOL    HW218249   2.236   0.275   1.673
 5784SOL     OW18250   6.749   5.781   6.994
 5784SOL    HW118251   6.772   5.800   6.899
 5784SOL    HW218252   6.679   5.846   7.025
 5785SOL     OW18253   2.131   1.562   0.685
 5785SOL    HW118254   2.143   1.653   0.725
 5785SOL    HW218255   2.184   1.556   0.600
 5786SOL     OW18256   0.804   3.688   0.465
 5786SOL    HW118257   0.811   3.701   0.564
 5786SOL    HW218258   0.740   3.613   0.446
 5787SOL     OW18259   3.975   1.289   5.015
 5787SOL    HW118260   4.032   1.222   5.062
 5787SOL    HW218261   3.908   1.326   5.080
 5788SOL     OW18262   3.211   1.741   1.537
 5788SOL    HW118263   3.297   1.770   1.580
 5788SOL    HW218264   3.231   1.687   1.455
 5789SOL     OW18265   2.685   4.372   0.046
 5789SOL    HW118266   2.757   4.335   7.013
 5789SOL    HW218267   2.603   4.315   0.040
 5790SOL     OW18268   0.424   4.288   4.958
 5790SOL    HW118269   0.411   4.328   5.049
 5790SOL    HW218270   0.362   4.332   4.893
 5791SOL     OW18271   2.926   1.626   2.605
 5791SOL    HW118272   2.982   1.697   2.647
 5791SOL    HW218273   2.844   1.667   2.566
 5792SOL     OW18274   5.838   2.828   2.583
 5792SOL    HW118275   5.807   2.923   2.586
 5792SOL    HW218276   5.765   2.770   2.545
 5793SOL     OW18277   5.442   0.816   3.500
 5793SOL    HW118278   5.441   0.813   3.599
 5793SOL    HW218279   5.348   0.821   3.465
 5794SOL     OW18280   2.172   0.978   7.014
 5794SOL    HW118281   2.213   0.962   0.078
 5794SOL    HW218282   2.162   0.891   6.966
 5795SOL     OW18283   6.381   0.165   6.774
 5795SOL    HW118284   6.340   0.133   6.859
 5795SOL    HW218285   6.332   0.246   6.742
 5796SOL     OW18286   4.898   1.314   6.069
 5796SOL    HW118287   4.972   1.256   6.104
 5796SOL    HW218288   4.827   1.256   6.028
 5797SOL     OW18289   4.736   2.079   0.164
 5797SOL    HW118290   4.780   2.130   0.091
 5797SOL    HW218291   4.655   2.128   0.195
 5798SOL     OW18292   0.794   5.593   4.462
 5798SOL    HW118293   0.708   5.626   4.501
 5798SOL    HW218294   0.775   5.515   4.403
 5799SOL     OW18295   0.520   0.826   3.559
 5799SOL    HW118296   0.554   0.899   3.499
 5799SOL    HW218297   0.431   0.852   3.597
 5800SOL     OW18298   6.268   6.366   1.853
 5800SOL    HW118299   6.184   6.316   1.832
 5800SOL    HW218300   6.328   6.308   1.909
 5801SOL     OW18301   1.614   2.688   3.350
 5801SOL    HW118302   1.692   2.631   3.326
 5801SOL    HW218303   1.643   2.784   3.357
 5802SOL     OW18304   0.352   3.497   2.482
 5802SOL    HW118305   0.362   3.596   2.472
 5802SOL    HW218306   0.283   3.463   2.417
 5803SOL     OW18307   2.282   5.212   1.476
 5803SOL    HW118308   2.300   5.173   1.386
 5803SOL    HW218309   2.281   5.138   1.544
 5804SOL     OW18310   0.435   5.155   3.469
 5804SOL    HW118311   0.420   5.066   3.513
 5804SOL    HW218312   0.442   5.226   3.540
 5805SOL     OW18313   2.362   3.225   0.560
 5805SOL    HW118314   2.286   3.289   0.559
 5805SOL    HW218315   2.428   3.251   0.490
 5806SOL     OW18316   7.008   5.063   5.110
 5806SOL    HW118317   6.942   5.101   5.046
 5806SOL    HW218318   0.060   5.026   5.060
 5807SOL     OW18319   0.866   4.089   0.455
 5807SOL    HW118320   0.910   4.086   0.365
 5807SOL    HW218321   0.936   4.096   0.526
 5808SOL     OW18322   6.330   5.237   3.933
 5808SOL    HW118323   6.345   5.240   4.031
 5808SOL    HW218324   6.321   5.330   3.897
 5809SOL     OW18325   6.767   2.488   4.743
 5809SOL    HW118326   6.731   2.399   4.716
 5809SOL    HW218327   6.731   2.512   4.833
 5810SOL     OW18328   4.206   1.530   5.068
 5810SOL    HW118329   4.241   1.514   5.160
 5810SOL    HW218330   4.157   1.448   5.037
 5811SOL     OW18331   3.314   0.731   5.242
 5811SOL    HW118332   3.246   0.691   5.181
 5811SOL    HW218333   3.308   0.831   5.240
 5812SOL     OW18334   5.995   3.085   5.038
 5812SOL    HW118335   5.933   3.160   5.016
 5812SOL    HW218336   6.022   3.037   4.954
 5813SOL     OW18337   1.627   1.403   1.405
 5813SOL    HW118338   1.637   1.368   1.498
 5813SOL    HW218339   1.713   1.444   1.375
 5814SOL     OW18340   6.081   4.111   2.180
 5814SOL    HW118341   6.096   4.120   2.278
 5814SOL    HW218342   6.158   4.152   2.131
 5815SOL     OW18343   4.459   1.359   4.446
 5815SOL    HW118344   4.465   1.433   4.513
 5815SOL    HW218345   4.384   1.378   4.382
 5816SOL     OW18346   4.900   4.586   0.544
 5816SOL    HW118347   4.954   4.563   0.463
 5816SOL    HW218348   4.803   4.574   0.523
 5817SOL     OW18349   5.694   4.540   5.733
 5817SOL    HW118350   5.793   4.545   5.716
 5817SOL    HW218351   5.647   4.607   5.675
 5818SOL     OW18352   6.944   5.618   5.219
 5818SOL    HW118353   6.931   5.710   5.182
 5818SOL    HW218354   0.016   5.600   5.230
 5819SOL     OW18355   3.602   0.235   6.635
 5819SOL    HW118356   3.502   0.235   6.627
 5819SOL    HW218357   3.630   0.174   6.709
 5820SOL     OW18358   4.811   4.787   3.324
 5820SOL    HW118359   4.778   4.879   3.344
 5820SOL    HW218360   4.798   4.729   3.405
 5821SOL     OW18361   0.291   0.251   1.933
 5821SOL    HW118362   0.200   0.245   1.892
 5821SOL    HW218363   0.296   0.191   2.012
 5822SOL     OW18364   1.261   2.652   1.554
 5822SOL    HW118365   1.183   2.598   1.588
 5822SOL    HW218366   1.280   2.726   1.617
 5823SOL     OW18367   2.768   0.258   4.997
 5823SOL    HW118368   2.854   0.272   5.046
 5823SOL    HW218369   2.749   0.159   4.992
 5824SOL     OW18370   6.924   5.725   2.429
 5824SOL    HW118371   6.965   5.721   2.520
 5824SOL    HW218372   6.832   5.688   2.431
 5825SOL     OW18373   7.009   1.082   5.141
 5825SOL    HW118374   6.955   1.001   5.163
 5825SOL    HW218375   0.077   1.068   5.170
 5826SOL     OW18376   0.188   5.031   5.649
 5826SOL    HW118377   0.223   5.109   5.597
 5826SOL    HW218378   0.152   5.062   5.736
 5827SOL     OW18379   1.971   4.182   4.760
 5827SOL    HW118380   1.965   4.178   4.661
 5827SOL    HW218381   1.883   4.212   4.798
 5828SOL     OW18382   5.947   1.584   1.733
 5828SOL    HW118383   5.986   1.501   1.773
 5828SOL    HW218384   6.008   1.661   1.752
 5829SOL     OW18385   1.101   0.522   3.564
 5829SOL    HW118386   1.107   0.473   3.651
 5829SOL    HW218387   1.043   0.603   3.575
 5830SOL     OW18388   5.027   6.323   5.990
 5830SOL    HW118389   5.083   6.370   6.058
 5830SOL    HW218390   5.084   6.297   5.912
 5831SOL     OW18391   1.475   1.456   5.414
 5831SOL    HW118392   1.476   1.363   5.452
 5831SOL    HW218393   1.498   1.522   5.486
 5832SOL     OW18394   2.898   4.849   6.783
 5832SOL    HW118395   2.891   4.931   6.726
 5832SOL    HW218396   2.910   4.876   6.878
 5833SOL     OW18397   3.350   4.163   4.744
 5833SOL    HW118398   3.260   4.199   4.722
 5833SOL    HW218399   3.360   4.071   4.705
 5834SOL     OW18400   0.088   2.377   0.428
 5834SOL    HW118401   0.094   2.380   0.328
 5834SOL    HW218402   0.002   2.333   0.455
 5835SOL     OW18403   5.543   3.540   3.015
 5835SOL    HW118404   5.592   3.568   2.932
 5835SOL    HW218405   5.581   3.588   3.094
 5836SOL     OW18406   2.507   6.889   1.773
 5836SOL    HW118407   2.456   6.953   1.716
 5836SOL    HW218408   2.444   6.824   1.815
 5837SOL     OW18409   3.406   4.093   6.943
 5837SOL    HW118410   3.385   4.185   6.975
 5837SOL    HW218411   3.501   4.090   6.910
 5838SOL     OW18412   2.604   1.863   0.789
 5838SOL    HW118413   2.574   1.947   0.742
 5838SOL    HW218414   2.601   1.877   0.888
 5839SOL     OW18415   0.747   1.842   2.611
 5839SOL    HW118416   0.748   1.914   2.542
 5839SOL    HW218417   0.681   1.772   2.585
 5840SOL     OW18418   0.828   4.787   6.876
 5840SOL    HW118419   0.793   4.697   6.850
 5840SOL    HW218420   0.893   4.818   6.807
 5841SOL     OW18421   5.225   1.670   2.230
 5841SOL    HW118422   5.292   1.681   2.304
 5841SOL    HW218423   5.229   1.750   2.170
 5842SOL     OW18424   5.074   3.547   1.378
 5842SOL    HW118425   5.093   3.483   1.453
 5842SOL    HW218426   5.109   3.509   1.293
 5843SOL     OW18427   1.303   3.920   2.692
 5843SOL    HW118428   1.205   3.906   2.709
 5843SOL    HW218429   1.315   3.976   2.610
 5844SOL     OW18430   2.019   6.127   5.945
 5844SOL    HW118431   1.958   6.151   5.869
 5844SOL    HW218432   1.968   6.130   6.031
 5845SOL     OW18433   0.447   0.329   2.499
 5845SOL    HW118434   0.438   0.230   2.500
 5845SOL    HW218435   0.480   0.361   2.588
 5846SOL     OW18436   6.173   2.872   5.428
 5846SOL    HW118437   6.186   2.777   5.456
 5846SOL    HW218438   6.081   2.884   5.391
 5847SOL     OW18439   2.992   2.246   1.730
 5847SOL    HW118440   2.911   2.204   1.688
 5847SOL    HW218441   2.964   2.310   1.801
 5848SOL     OW18442   1.364   5.510   2.796
 5848SOL    HW118443   1.374   5.486   2.699
 5848SOL    HW218444   1.441   5.474   2.848
 5849SOL     OW18445   1.018   0.735   5.481
 5849SOL    HW118446   0.948   0.779   5.537
 5849SOL    HW218447   0.997   0.637   5.473
 5850SOL     OW18448   6.580   4.160   1.880
 5850SOL    HW118449   6.649   4.089   1.866
 5850SOL    HW218450   6.491   4.127   1.847
 5851SOL     OW18451   5.075   3.447   2.777
 5851SOL    HW118452   5.170   3.417   2.770
 5851SOL    HW218453   5.023   3.412   2.698
 5852SOL     OW18454   5.719   6.614   3.223
 5852SOL    HW118455   5.721   6.636   3.320
 5852SOL    HW218456   5.657   6.676   3.175
 5853SOL     OW18457   3.375   5.606   4.653
 5853SOL    HW118458   3.440   5.536   4.679
 5853SOL    HW218459   3.310   5.568   4.586
 5854SOL     OW18460   4.856   4.528   6.054
 5854SOL    HW118461   4.826   4.487   6.140
 5854SOL    HW218462   4.936   4.586   6.071
 5855SOL     OW18463   0.739   1.532   4.895
 5855SOL    HW118464   0.833   1.504   4.878
 5855SOL    HW218465   0.701   1.574   4.813
 5856SOL     OW18466   1.820   5.791   3.916
 5856SOL    HW118467   1.752   5.750   3.976
 5856SOL    HW218468   1.894   5.831   3.971
 5857SOL     OW18469   6.099   2.560   6.182
 5857SOL    HW118470   6.087   2.559   6.083
 5857SOL    HW218471   6.029   2.503   6.225
 5858SOL     OW18472   2.789   2.141   3.102
 5858SOL    HW118473   2.807   2.109   3.196
 5858SOL    HW218474   2.741   2.070   3.051
 5859SOL     OW18475   6.052   6.211   2.092
 5859SOL    HW118476   6.066   6.309   2.079
 5859SOL    HW218477   5.959   6.187   2.065
 5860SOL     OW18478   0.548   3.276   2.113
 5860SOL    HW118479   0.588   3.242   2.198
 5860SOL    HW218480   0.455   3.308   2.130
 5861SOL     OW18481   4.716   1.454   4.522
 5861SOL    HW118482   4.705   1.384   4.452
 5861SOL    HW218483   4.812   1.480   4.529
 5862SOL     OW18484   6.265   5.561   0.970
 5862SOL    HW118485   6.237   5.656   0.985
 5862SOL    HW218486   6.361   5.550   0.995
 5863SOL     OW18487   3.241   1.927   5.274
 5863SOL    HW118488   3.248   2.025   5.255
 5863SOL    HW218489   3.252   1.911   5.372
 5864SOL     OW18490   3.924   3.868   2.278
 5864SOL    HW118491   3.863   3.939   2.313
 5864SOL    HW218492   3.955   3.811   2.354
 5865SOL     OW18493   5.938   0.141   4.911
 5865SOL    HW118494   5.899   0.141   5.003
 5865SOL    HW218495   6.001   0.218   4.901
 5866SOL     OW18496   4.067   4.342   0.246
 5866SOL    HW118497   4.015   4.256   0.239
 5866SOL    HW218498   4.110   4.361   0.158
 5867SOL     OW18499   2.228   2.929   1.058
 5867SOL    HW118500   2.136   2.967   1.057
 5867SOL    HW218501   2.246   2.886   1.147
 5868SOL     OW18502   0.669   1.657   5.354
 5868SOL    HW118503   0.714   1.742   5.379
 5868SOL    HW218504   0.686   1.587   5.423
 5869SOL     OW18505   2.032   6.390   3.648
 5869SOL    HW118506   1.977   6.307   3.644
 5869SOL    HW218507   2.032   6.435   3.559
 5870SOL     OW18508   4.399   6.443   4.727
 5870SOL    HW118509   4.354   6.363   4.766
 5870SOL    HW218510   4.425   6.506   4.801
 5871SOL     OW18511   3.410   3.388   1.352
 5871SOL    HW118512   3.313   3.411   1.352
 5871SOL    HW218513   3.458   3.444   1.418
 5872SOL     OW18514   4.388   5.695   1.346
 5872SOL    HW118515   4.457   5.665   1.280
 5872SOL    HW218516   4.325   5.759   1.301
 5873SOL     OW18517   3.395   1.736   1.917
 5873SOL    HW118518   3.411   1.775   1.827
 5873SOL    HW218519   3.297   1.738   1.937
 5874SOL     OW18520   3.320   4.356   6.441
 5874SOL    HW118521   3.334   4.443   6.393
 5874SOL    HW218522   3.397   4.296   6.424
 5875SOL     OW18523   4.380   1.010   6.898
 5875SOL    HW118524   4.286   0.978   6.887
 5875SOL    HW218525   4.402   1.074   6.824
 5876SOL     OW18526   3.747   3.176   0.200
 5876SOL    HW118527   3.734   3.267   0.238
 5876SOL    HW218528   3.658   3.139   0.171
 5877SOL     OW18529   0.775   0.596   1.215
 5877SOL    HW118530   0.767   0.595   1.116
 5877SOL    HW218531   0.799   0.688   1.246
 5878SOL     OW18532   5.915   5.146   3.897
 5878SOL    HW118533   5.910   5.225   3.958
 5878SOL    HW218534   5.835   5.087   3.914
 5879SOL     OW18535   1.581   4.202   6.944
 5879SOL    HW118536   1.635   4.123   6.917
 5879SOL    HW218537   1.487   4.192   6.911
 5880SOL     OW18538   4.979   4.662   6.346
 5880SOL    HW118539   4.939   4.735   6.402
 5880SOL    HW218540   4.956   4.678   6.250
 5881SOL     OW18541   0.735   0.250   2.717
 5881SOL    HW118542   0.639   0.233   2.740
 5881SOL    HW218543   0.768   0.330   2.767
 5882SOL     OW18544   0.392   5.528   0.199
 5882SOL    HW118545   0.393   5.628   0.194
 5882SOL    HW218546   0.440   5.490   0.120
 5883SOL     OW18547   0.664   1.439   6.431
 5883SOL    HW118548   0.716   1.520   6.405
 5883SOL    HW218549   0.727   1.363   6.450
 5884SOL     OW18550   4.574   1.083   4.458
 5884SOL    HW118551   4.563   1.181   4.473
 5884SOL    HW218552   4.503   1.051   4.395
 5885SOL     OW18553   0.598   6.517   2.218
 5885SOL    HW118554   0.618   6.603   2.172
 5885SOL    HW218555   0.638   6.518   2.310
 5886SOL     OW18556   0.066   2.212   3.772
 5886SOL    HW118557   7.016   2.153   3.744
 5886SOL    HW218558   0.151   2.181   3.727
 5887SOL     OW18559   2.865   2.049   1.940
 5887SOL    HW118560   2.866   2.147   1.961
 5887SOL    HW218561   2.947   2.025   1.889
 5888SOL     OW18562   2.015   0.633   1.152
 5888SOL    HW118563   2.072   0.629   1.233
 5888SOL    HW218564   1.922   0.604   1.174
 5889SOL     OW18565   0.314   0.617   0.385
 5889SOL    HW118566   0.306   0.542   0.451
 5889SOL    HW218567   0.375   0.589   0.310
 5890SOL     OW18568   2.413   1.255   3.142
 5890SOL    HW118569   2.426   1.202   3.226
 5890SOL    HW218570   2.440   1.350   3.159
 5891SOL     OW18571   3.296   3.285   6.807
 5891SOL    HW118572   3.212   3.338   6.814
 5891SOL    HW218573   3.328   3.261   6.899
 5892SOL     OW18574   0.948   4.875   2.497
 5892SOL    HW118575   0.860   4.856   2.454
 5892SOL    HW218576   0.996   4.790   2.515
 5893SOL     OW18577   1.956   4.034   3.773
 5893SOL    HW118578   1.937   4.086   3.856
 5893SOL    HW218579   1.925   3.939   3.786
 5894SOL     OW18580   0.185   5.996   4.210
 5894SOL    HW118581   0.087   5.981   4.196
 5894SOL    HW218582   0.236   5.923   4.165
 5895SOL     OW18583   5.269   3.202   3.902
 5895SOL    HW118584   5.274   3.160   3.992
 5895SOL    HW218585   5.289   3.133   3.832
 5896SOL     OW18586   3.551   0.696   1.214
 5896SOL    HW118587   3.493   0.747   1.150
 5896SOL    HW218588   3.496   0.663   1.290
 5897SOL     OW18589   4.142   6.694   1.600
 5897SOL    HW118590   4.216   6.719   1.537
 5897SOL    HW218591   4.065   6.756   1.585
 5898SOL     OW18592   2.863   0.355   4.250
 5898SOL    HW118593   2.813   0.284   4.298
 5898SOL    HW218594   2.905   0.318   4.167
 5899SOL     OW18595   6.625   5.107   0.047
 5899SOL    HW118596   6.688   5.182   0.064
 5899SOL    HW218597   6.594   5.069   0.135
 5900SOL     OW18598   6.228   5.210   3.573
 5900SOL    HW118599   6.214   5.274   3.497
 5900SOL    HW218600   6.321   5.222   3.609
 5901SOL     OW18601   2.259   0.955   0.235
 5901SOL    HW118602   2.198   0.904   0.295
 5901SOL    HW218603   2.324   1.007   0.290
 5902SOL     OW18604   5.814   2.266   5.194
 5902SOL    HW118605   5.809   2.185   5.253
 5902SOL    HW218606   5.824   2.236   5.099
 5903SOL     OW18607   4.932   3.571   6.775
 5903SOL    HW118608   4.963   3.560   6.681
 5903SOL    HW218609   4.959   3.491   6.829
 5904SOL     OW18610   1.862   4.625   1.217
 5904SOL    HW118611   1.782   4.685   1.216
 5904SOL    HW218612   1.908   4.633   1.305
 5905SOL     OW18613   6.252   0.115   4.078
 5905SOL    HW118614   6.169   0.070   4.113
 5905SOL    HW218615   6.330   0.054   4.093
 5906SOL     OW18616   3.735   1.922   3.285
 5906SOL    HW118617   3.648   1.890   3.249
 5906SOL    HW218618   3.719   2.000   3.346
 5907SOL     OW18619   0.979   5.979   0.211
 5907SOL    HW118620   1.005   6.069   0.248
 5907SOL    HW218621   1.040   5.909   0.250
 5908SOL     OW18622   0.030   3.049   0.277
 5908SOL    HW118623   0.042   3.096   0.190
 5908SOL    HW218624   7.014   3.111   0.343
 5909SOL     OW18625   6.957   4.837   0.816
 5909SOL    HW118626   0.008   4.864   0.758
 5909SOL    HW218627   6.885   4.798   0.759
 5910SOL     OW18628   0.686   4.301   3.184
 5910SOL    HW118629   0.674   4.214   3.134
 5910SOL    HW218630   0.642   4.294   3.273
 5911SOL     OW18631   6.926   5.097   6.179
 5911SOL    HW118632   6.960   5.103   6.273
 5911SOL    HW218633   6.905   5.001   6.158
 5912SOL     OW18634   5.909   2.674   6.697
 5912SOL    HW118635   5.891   2.600   6.631
 5912SOL    HW218636   5.985   2.730   6.664
 5913SOL     OW18637   5.146   3.061   6.259
 5913SOL    HW118638   5.179   3.023   6.173
 5913SOL    HW218639   5.223   3.077   6.321
 5914SOL     OW18640   1.524   5.080   6.721
 5914SOL    HW118641   1.464   5.044   6.792
 5914SOL    HW218642   1.468   5.109   6.643
 5915SOL     OW18643   5.161   5.316   1.407
 5915SOL    HW118644   5.189   5.389   1.345
 5915SOL    HW218645   5.063   5.324   1.425
 5916SOL     OW18646   4.171   5.508   4.411
 5916SOL    HW118647   4.241   5.559   4.460
 5916SOL    HW218648   4.199   5.412   4.402
 5917SOL     OW18649   3.194   3.404   4.086
 5917SOL    HW118650   3.235   3.402   4.177
 5917SOL    HW218651   3.095   3.404   4.094
 5918SOL     OW18652   1.742   3.625   5.907
 5918SOL    HW118653   1.694   3.668   5.831
 5918SOL    HW218654   1.839   3.646   5.902
 5919SOL     OW18655   3.796   3.473   1.762
 5919SOL    HW118656   3.786   3.505   1.668
 5919SOL    HW218657   3.711   3.430   1.792
 5920SOL     OW18658   4.160   0.473   6.926
 5920SOL    HW118659   4.151   0.512   6.835
 5920SOL    HW218660   4.095   0.398   6.938
 5921SOL     OW18661   3.986   5.363   6.046
 5921SOL    HW118662   3.942   5.377   5.957
 5921SOL    HW218663   3.925   5.396   6.118
 5922SOL     OW18664   6.759   5.171   2.682
 5922SOL    HW118665   6.857   5.183   2.697
 5922SOL    HW218666   6.743   5.138   2.588
 5923SOL     OW18667   5.403   1.041   1.724
 5923SOL    HW118668   5.319   1.094   1.709
 5923SOL    HW218669   5.477   1.080   1.669
 5924SOL     OW18670   0.155   1.330   3.691
 5924SOL    HW118671   0.163   1.425   3.660
 5924SOL    HW218672   0.142   1.271   3.612
 5925SOL     OW18673   3.819   5.281   1.534
 5925SOL    HW118674   3.917   5.291   1.550
 5925SOL    HW218675   3.770   5.359   1.573
 5926SOL     OW18676   4.162   5.496   1.406
 5926SOL    HW118677   4.155   5.521   1.502
 5926SOL    HW218678   4.240   5.543   1.365
 5927SOL     OW18679   1.027   3.984   2.741
 5927SOL    HW118680   0.938   3.965   2.699
 5927SOL    HW218681   1.024   4.074   2.784
 5928SOL     OW18682   3.206   0.162   0.741
 5928SOL    HW118683   3.155   0.136   0.822
 5928SOL    HW218684   3.219   0.261   0.739
 5929SOL     OW18685   0.645   6.771   6.539
 5929SOL    HW118686   0.622   6.674   6.532
 5929SOL    HW218687   0.742   6.784   6.519
 5930SOL     OW18688   6.404   3.062   3.593
 5930SOL    HW118689   6.342   3.008   3.536
 5930SOL    HW218690   6.354   3.139   3.633
 5931SOL     OW18691   0.087   5.877   3.173
 5931SOL    HW118692   0.014   5.810   3.168
 5931SOL    HW218693   0.174   5.830   3.188
 5932SOL     OW18694   2.049   6.854   0.828
 5932SOL    HW118695   2.085   6.862   0.921
 5932SOL    HW218696   2.073   6.765   0.790
 5933SOL     OW18697   0.290   6.182   3.586
 5933SOL    HW118698   0.209   6.149   3.536
 5933SOL    HW218699   0.303   6.127   3.668
 5934SOL     OW18700   3.579   2.942   4.266
 5934SOL    HW118701   3.564   2.916   4.361
 5934SOL    HW218702   3.592   3.041   4.260
 5935SOL     OW18703   4.704   4.385   6.318
 5935SOL    HW118704   4.658   4.300   6.342
 5935SOL    HW218705   4.780   4.401   6.381
 5936SOL     OW18706   3.615   2.928   0.883
 5936SOL    HW118707   3.560   2.848   0.859
 5936SOL    HW218708   3.656   2.967   0.800
 5937SOL     OW18709   0.843   4.452   2.804
 5937SOL    HW118710   0.894   4.368   2.821
 5937SOL    HW218711   0.903   4.531   2.816
 5938SOL     OW18712   0.923   5.131   3.307
 5938SOL    HW118713   0.860   5.188   3.360
 5938SOL    HW218714   0.904   5.141   3.210
 5939SOL     OW18715   2.616   6.477   3.327
 5939SOL    HW118716   2.619   6.529   3.241
 5939SOL    HW218717   2.660   6.530   3.400
 5940SOL     OW18718   4.529   5.522   0.685
 5940SOL    HW118719   4.512   5.485   0.594
 5940SOL    HW218720   4.499   5.617   0.689
 5941SOL     OW18721   5.918   3.281   2.185
 5941SOL    HW118722   5.887   3.228   2.264
 5941SOL    HW218723   6.015   3.262   2.169
 5942SOL     OW18724   4.999   3.185   0.682
 5942SOL    HW118725   5.053   3.177   0.766
 5942SOL    HW218726   5.047   3.141   0.607
 5943SOL     OW18727   3.650   5.037   0.399
 5943SOL    HW118728   3.574   5.070   0.455
 5943SOL    HW218729   3.667   4.941   0.420
 5944SOL     OW18730   6.458   3.013   1.339
 5944SOL    HW118731   6.433   3.085   1.274
 5944SOL    HW218732   6.554   2.990   1.329
 5945SOL     OW18733   6.244   5.226   5.503
 5945SOL    HW118734   6.335   5.186   5.497
 5945SOL    HW218735   6.188   5.193   5.427
 5946SOL     OW18736   3.659   2.922   6.346
 5946SOL    HW118737   3.701   2.832   6.342
 5946SOL    HW218738   3.703   2.976   6.418
 5947SOL     OW18739   3.928   3.658   1.921
 5947SOL    HW118740   3.864   3.599   1.873
 5947SOL    HW218741   4.010   3.670   1.865
 5948SOL     OW18742   4.717   5.068   3.411
 5948SOL    HW118743   4.811   5.076   3.443
 5948SOL    HW218744   4.679   5.159   3.393
 5949SOL     OW18745   4.793   4.007   1.732
 5949SOL    HW118746   4.835   4.042   1.816
 5949SOL    HW218747   4.727   4.074   1.697
 5950SOL     OW18748   4.612   2.003   6.086
 5950SOL    HW118749   4.665   2.074   6.040
 5950SOL    HW218750   4.572   2.039   6.170
 5951SOL     OW18751   0.731   5.676   3.851
 5951SOL    HW118752   0.759   5.737   3.925
 5951SOL    HW218753   0.772   5.586   3.864
 5952SOL     OW18754   5.771   4.734   3.959
 5952SOL    HW118755   5.754   4.638   3.981
 5952SOL    HW218756   5.856   4.764   4.002
 5953SOL     OW18757   6.387   3.352   5.471
 5953SOL    HW118758   6.430   3.400   5.395
 5953SOL    HW218759   6.343   3.269   5.437
 5954SOL     OW18760   0.644   4.433   5.959
 5954SOL    HW118761   0.736   4.465   5.940
 5954SOL    HW218762   0.591   4.509   5.999
 5955SOL     OW18763   5.180   6.026   2.762
 5955SOL    HW118764   5.210   5.932   2.751
 5955SOL    HW218765   5.099   6.029   2.820
 5956SOL     OW18766   4.691   1.097   6.029
 5956SOL    HW118767   4.726   1.091   6.123
 5956SOL    HW218768   4.612   1.036   6.019
 5957SOL     OW18769   4.250   0.606   5.166
 5957SOL    HW118770   4.337   0.615   5.214
 5957SOL    HW218771   4.258   0.646   5.074
 5958SOL     OW18772   5.722   6.964   3.041
 5958SOL    HW118773   5.699   7.019   2.961
 5958SOL    HW218774   5.821   6.964   3.054
 5959SOL     OW18775   4.006   2.520   5.435
 5959SOL    HW118776   3.920   2.476   5.406
 5959SOL    HW218777   4.068   2.524   5.357
 5960SOL     OW18778   3.498   5.110   4.827
 5960SOL    HW118779   3.565   5.061   4.771
 5960SOL    HW218780   3.541   5.191   4.867
 5961SOL     OW18781   5.386   1.434   2.987
 5961SOL    HW118782   5.373   1.341   3.022
 5961SOL    HW218783   5.481   1.446   2.958
 5962SOL     OW18784   5.581   6.599   0.582
 5962SOL    HW118785   5.612   6.551   0.664
 5962SOL    HW218786   5.642   6.677   0.565
 5963SOL     OW18787   3.720   3.598   5.506
 5963SOL    HW118788   3.740   3.681   5.454
 5963SOL    HW218789   3.733   3.518   5.448
 5964SOL     OW18790   0.414   5.369   5.332
 5964SOL    HW118791   0.391   5.391   5.237
 5964SOL    HW218792   0.403   5.271   5.346
 5965SOL     OW18793   1.245   2.037   6.867
 5965SOL    HW118794   1.170   2.030   6.932
 5965SOL    HW218795   1.282   1.946   6.848
 5966SOL     OW18796   3.237   5.955   5.346
 5966SOL    HW118797   3.323   5.999   5.373
 5966SOL    HW218798   3.194   5.916   5.427
 5967SOL     OW18799   4.032   6.858   6.470
 5967SOL    HW118800   4.022   6.762   6.497
 5967SOL    HW218801   4.030   6.865   6.370
 5968SOL     OW18802   4.578   1.605   1.117
 5968SOL    HW118803   4.645   1.598   1.191
 5968SOL    HW218804   4.493   1.645   1.152
 5969SOL     OW18805   0.355   6.312   6.438
 5969SOL    HW118806   0.327   6.386   6.376
 5969SOL    HW218807   0.274   6.272   6.481
 5970SOL     OW18808   0.296   4.377   2.365
 5970SOL    HW118809   0.271   4.428   2.283
 5970SOL    HW218810   0.348   4.436   2.427
 5971SOL     OW18811   1.369   0.730   2.454
 5971SOL    HW118812   1.343   0.760   2.546
 5971SOL    HW218813   1.349   0.632   2.444
 5972SOL     OW18814   5.392   5.021   0.041
 5972SOL    HW118815   5.306   5.053   0.082
 5972SOL    HW218816   5.386   5.027   6.967
 5973SOL     OW18817   1.970   3.559   2.703
 5973SOL    HW118818   2.002   3.530   2.613
 5973SOL    HW218819   1.870   3.560   2.704
 5974SOL     OW18820   5.682   5.472   6.512
 5974SOL    HW118821   5.781   5.485   6.522
 5974SOL    HW218822   5.653   5.397   6.571
 5975SOL     OW18823   3.588   1.152   0.618
 5975SOL    HW118824   3.555   1.234   0.572
 5975SOL    HW218825   3.627   1.090   0.551
 5976SOL     OW18826   3.380   3.409   5.737
 5976SOL    HW118827   3.289   3.452   5.741
 5976SOL    HW218828   3.418   3.402   5.829
 5977SOL     OW18829   2.596   5.400   6.717
 5977SOL    HW118830   2.541   5.349   6.783
 5977SOL    HW218831   2.653   5.336   6.665
 5978SOL     OW18832   5.123   5.759   2.897
 5978SOL    HW118833   5.204   5.755   2.955
 5978SOL    HW218834   5.062   5.682   2.918
 5979SOL     OW18835   5.554   0.671   2.654
 5979SOL    HW118836   5.601   0.655   2.742
 5979SOL    HW218837   5.487   0.744   2.666
 5980SOL     OW18838   3.772   3.869   0.892
 5980SOL    HW118839   3.811   3.875   0.800
 5980SOL    HW218840   3.675   3.843   0.885
 5981SOL     OW18841   5.626   2.166   1.312
 5981SOL    HW118842   5.579   2.192   1.227
 5981SOL    HW218843   5.605   2.071   1.334
 5982SOL     OW18844   6.906   3.294   2.202
 5982SOL    HW118845   6.984   3.233   2.217
 5982SOL    HW218846   6.894   3.353   2.282
 5983SOL     OW18847   0.910   2.060   3.934
 5983SOL    HW118848   0.981   2.049   3.864
 5983SOL    HW218849   0.941   2.018   4.019
 5984SOL     OW18850   6.521   5.663   3.896
 5984SOL    HW118851   6.563   5.753   3.893
 5984SOL    HW218852   6.547   5.616   3.980
 5985SOL     OW18853   6.881   2.824   4.185
 5985SOL    HW118854   6.904   2.787   4.095
 5985SOL    HW218855   6.826   2.907   4.174
 5986SOL     OW18856   3.083   3.646   4.762
 5986SOL    HW118857   3.110   3.551   4.771
 5986SOL    HW218858   3.012   3.654   4.692
 5987SOL     OW18859   4.592   0.375   4.675
 5987SOL    HW118860   4.626   0.306   4.612
 5987SOL    HW218861   4.606   0.466   4.636
 5988SOL     OW18862   4.810   6.923   5.682
 5988SOL    HW118863   4.815   7.022   5.668
 5988SOL    HW218864   4.762   6.881   5.604
 5989SOL     OW18865   2.484   6.722   6.749
 5989SOL    HW118866   2.547   6.654   6.788
 5989SOL    HW218867   2.441   6.684   6.667
 5990SOL     OW18868   3.556   4.476   0.138
 5990SOL    HW118869   3.501   4.426   0.071
 5990SOL    HW218870   3.643   4.503   0.097
 5991SOL     OW18871   3.379   4.972   6.950
 5991SOL    HW118872   3.391   4.884   6.996
 5991SOL    HW218873   3.378   4.958   6.851
 5992SOL     OW18874   3.750   0.010   2.499
 5992SOL    HW118875   3.650   0.009   2.497
 5992SOL    HW218876   3.785   6.947   2.472
 5993SOL     OW18877   3.054   6.115   6.669
 5993SOL    HW118878   3.026   6.142   6.761
 5993SOL    HW218879   2.990   6.151   6.602
 5994SOL     OW18880   5.682   2.639   2.109
 5994SOL    HW118881   5.656   2.554   2.062
 5994SOL    HW218882   5.755   2.684   2.057
 5995SOL     OW18883   5.482   4.774   3.088
 5995SOL    HW118884   5.469   4.859   3.037
 5995SOL    HW218885   5.453   4.696   3.031
 5996SOL     OW18886   1.300   6.400   0.645
 5996SOL    HW118887   1.259   6.476   0.695
 5996SOL    HW218888   1.324   6.430   0.553
 5997SOL     OW18889   0.823   5.415   2.403
 5997SOL    HW118890   0.800   5.321   2.428
 5997SOL    HW218891   0.817   5.473   2.485
 5998SOL     OW18892   5.761   1.588   3.215
 5998SOL    HW118893   5.812   1.533   3.281
 5998SOL    HW218894   5.810   1.589   3.128
 5999SOL     OW18895   1.417   1.624   2.680
 5999SOL    HW118896   1.501   1.590   2.637
 5999SOL    HW218897   1.370   1.686   2.618
 6000SOL     OW18898   4.525   6.638   0.648
 6000SOL    HW118899   4.471   6.637   0.563
 6000SOL    HW218900   4.463   6.638   0.726
 6001SOL     OW18901   0.965   4.003   6.703
 6001SOL    HW118902   1.036   4.030   6.638
 6001SOL    HW218903   0.920   3.920   6.671
 6002SOL     OW18904   6.509   6.936   1.116
 6002SOL    HW118905   6.424   6.884   1.116
 6002SOL    HW218906   6.518   6.986   1.030
 6003SOL     OW18907   6.409   2.442   3.999
 6003SOL    HW118908   6.328   2.432   3.940
 6003SOL    HW218909   6.384   2.425   4.094
 6004SOL     OW18910   0.412   3.552   2.834
 6004SOL    HW118911   0.401   3.595   2.745
 6004SOL    HW218912   0.346   3.477   2.845
 6005SOL     OW18913   5.315   5.655   4.661
 6005SOL    HW118914   5.269   5.618   4.742
 6005SOL    HW218915   5.385   5.720   4.691
 6006SOL     OW18916   2.568   0.930   5.948
 6006SOL    HW118917   2.560   0.849   5.890
 6006SOL    HW218918   2.665   0.952   5.961
 6007SOL     OW18919   4.826   3.525   5.400
 6007SOL    HW118920   4.778   3.529   5.312
 6007SOL    HW218921   4.815   3.434   5.440
 6008SOL     OW18922   1.917   4.525   6.023
 6008SOL    HW118923   1.832   4.474   6.012
 6008SOL    HW218924   1.944   4.565   5.935
 6009SOL     OW18925   3.552   0.268   3.656
 6009SOL    HW118926   3.621   0.337   3.637
 6009SOL    HW218927   3.597   0.182   3.680
 6010SOL     OW18928   1.453   4.527   4.209
 6010SOL    HW118929   1.519   4.513   4.135
 6010SOL    HW218930   1.392   4.603   4.185
 6011SOL     OW18931   5.009   3.445   2.292
 6011SOL    HW118932   5.012   3.376   2.220
 6011SOL    HW218933   4.978   3.532   2.254
 6012SOL     OW18934   5.018   1.414   0.273
 6012SOL    HW118935   4.992   1.448   0.183
 6012SOL    HW218936   4.959   1.337   0.297
 6013SOL     OW18937   4.575   2.041   3.348
 6013SOL    HW118938   4.553   1.950   3.381
 6013SOL    HW218939   4.675   2.050   3.341
 6014SOL     OW18940   3.911   3.777   1.386
 6014SOL    HW118941   3.844   3.770   1.312
 6014SOL    HW218942   3.998   3.808   1.348
 6015SOL     OW18943   5.434   2.909   4.113
 6015SOL    HW118944   5.357   2.961   4.151
 6015SOL    HW218945   5.516   2.925   4.169
 6016SOL     OW18946   6.481   2.270   6.090
 6016SOL    HW118947   6.427   2.311   6.164
 6016SOL    HW218948   6.455   2.175   6.079
 6017SOL     OW18949   6.586   4.238   2.932
 6017SOL    HW118950   6.486   4.225   2.934
 6017SOL    HW218951   6.629   4.177   2.998
 6018SOL     OW18952   3.122   0.653   6.474
 6018SOL    HW118953   3.059   0.694   6.540
 6018SOL    HW218954   3.104   0.690   6.383
 6019SOL     OW18955   6.831   2.031   4.179
 6019SOL    HW118956   6.875   2.004   4.265
 6019SOL    HW218957   6.814   1.949   4.124
 6020SOL     OW18958   1.268   4.571   0.872
 6020SOL    HW118959   1.301   4.618   0.791
 6020SOL    HW218960   1.335   4.580   0.946
 6021SOL     OW18961   4.803   0.436   2.340
 6021SOL    HW118962   4.749   0.488   2.407
 6021SOL    HW218963   4.742   0.392   2.275
 6022SOL     OW18964   4.199   2.334   4.036
 6022SOL    HW118965   4.236   2.316   4.127
 6022SOL    HW218966   4.253   2.406   3.992
 6023SOL     OW18967   6.497   0.130   2.497
 6023SOL    HW118968   6.427   0.200   2.493
 6023SOL    HW218969   6.478   0.059   2.429
 6024SOL     OW18970   1.245   5.127   3.374
 6024SOL    HW118971   1.301   5.092   3.450
 6024SOL    HW218972   1.228   5.054   3.309
 6025SOL     OW18973   3.554   1.572   2.746
 6025SOL    HW118974   3.521   1.645   2.687
 6025SOL    HW218975   3.619   1.609   2.812
 6026SOL     OW18976   0.042   4.220   5.070
 6026SOL    HW118977   0.080   4.293   5.127
 6026SOL    HW218978   7.021   4.153   5.128
 6027SOL     OW18979   1.575   4.360   6.668
 6027SOL    HW118980   1.591   4.458   6.672
 6027SOL    HW218981   1.660   4.311   6.689
 6028SOL     OW18982   0.455   5.022   6.615
 6028SOL    HW118983   0.478   4.982   6.703
 6028SOL    HW218984   0.449   5.121   6.624
 6029SOL     OW18985   2.605   6.273   5.354
 6029SOL    HW118986   2.687   6.265   5.411
 6029SOL    HW218987   2.546   6.194   5.371
 6030SOL     OW18988   3.434   5.952   2.950
 6030SOL    HW118989   3.425   5.861   2.910
 6030SOL    HW218990   3.522   5.958   2.998
 6031SOL     OW18991   3.436   5.632   3.387
 6031SOL    HW118992   3.347   5.592   3.410
 6031SOL    HW218993   3.429   5.732   3.392
 6032SOL     OW18994   2.487   4.495   3.068
 6032SOL    HW118995   2.418   4.427   3.047
 6032SOL    HW218996   2.534   4.469   3.153
 6033SOL     OW18997   3.176   1.955   3.124
 6033SOL    HW118998   3.242   1.990   3.191
 6033SOL    HW218999   3.163   2.023   3.051
 6034SOL     OW19000   0.681   4.913   4.966
 6034SOL    HW119001   0.614   4.958   4.906
 6034SOL    HW219002   0.708   4.826   4.926
 6035SOL     OW19003   6.885   0.857   2.502
 6035SOL    HW119004   6.854   0.894   2.590
 6035SOL    HW219005   6.820   0.789   2.469
 6036SOL     OW19006   6.314   5.554   3.581
 6036SOL    HW119007   6.405   5.515   3.598
 6036SOL    HW219008   6.311   5.648   3.614
 6037SOL     OW19009   4.356   5.093   6.261
 6037SOL    HW119010   4.383   5.189   6.258
 6037SOL    HW219011   4.421   5.037   6.210
 6038SOL     OW19012   1.595   2.493   5.888
 6038SOL    HW119013   1.690   2.513   5.914
 6038SOL    HW219014   1.561   2.566   5.828
 6039SOL     OW19015   2.963   3.752   2.478
 6039SOL    HW119016   2.959   3.800   2.565
 6039SOL    HW219017   3.007   3.663   2.490
 6040SOL     OW19018   0.793   2.171   6.598
 6040SOL    HW119019   0.695   2.167   6.578
 6040SOL    HW219020   0.821   2.088   6.644
 6041SOL     OW19021   2.274   0.138   5.402
 6041SOL    HW119022   2.246   0.058   5.456
 6041SOL    HW219023   2.310   0.209   5.463
 6042SOL     OW19024   5.363   5.592   1.811
 6042SOL    HW119025   5.328   5.513   1.760
 6042SOL    HW219026   5.304   5.671   1.795
 6043SOL     OW19027   0.759   4.556   5.569
 6043SOL    HW119028   0.680   4.593   5.618
 6043SOL    HW219029   0.841   4.606   5.595
 6044SOL     OW19030   1.230   1.730   2.082
 6044SOL    HW119031   1.322   1.769   2.079
 6044SOL    HW219032   1.222   1.670   2.162
 6045SOL     OW19033   6.474   4.674   2.394
 6045SOL    HW119034   6.424   4.707   2.314
 6045SOL    HW219035   6.509   4.582   2.377
 6046SOL     OW19036   3.992   2.176   0.504
 6046SOL    HW119037   4.066   2.115   0.532
 6046SOL    HW219038   4.028   2.247   0.443
 6047SOL     OW19039   5.186   2.221   1.807
 6047SOL    HW119040   5.116   2.172   1.858
 6047SOL    HW219041   5.221   2.297   1.862
 6048SOL     OW19042   4.702   5.691   4.648
 6048SOL    HW119043   4.745   5.601   4.652
 6048SOL    HW219044   4.603   5.682   4.661
 6049SOL     OW19045   5.742   4.070   6.034
 6049SOL    HW119046   5.805   4.146   6.022
 6049SOL    HW219047   5.793   3.986   6.049
 6050SOL     OW19048   3.377   6.162   4.372
 6050SOL    HW119049   3.410   6.249   4.334
 6050SOL    HW219050   3.297   6.132   4.320
 6051SOL     OW19051   2.983   0.713   4.107
 6051SOL    HW119052   2.968   0.718   4.206
 6051SOL    HW219053   3.004   0.804   4.072
 6052SOL     OW19054   6.161   0.359   0.869
 6052SOL    HW119055   6.087   0.292   0.875
 6052SOL    HW219056   6.124   0.451   0.878
 6053SOL     OW19057   4.540   1.730   6.494
 6053SOL    HW119058   4.475   1.669   6.448
 6053SOL    HW219059   4.504   1.756   6.583
 6054SOL     OW19060   2.938   3.419   0.712
 6054SOL    HW119061   2.959   3.325   0.687
 6054SOL    HW219062   2.843   3.439   0.689
 6055SOL     OW19063   4.914   0.867   5.370
 6055SOL    HW119064   4.839   0.908   5.319
 6055SOL    HW219065   4.966   0.806   5.309
 6056SOL     OW19066   4.678   2.695   4.466
 6056SOL    HW119067   4.702   2.784   4.428
 6056SOL    HW219068   4.759   2.637   4.469
 6057SOL     OW19069   5.220   2.857   3.461
 6057SOL    HW119070   5.301   2.828   3.512
 6057SOL    HW219071   5.139   2.815   3.501
 6058SOL     OW19072   4.786   3.073   1.062
 6058SOL    HW119073   4.839   3.155   1.083
 6058SOL    HW219074   4.716   3.060   1.133
 6059SOL     OW19075   4.938   5.339   5.047
 6059SOL    HW119076   4.921   5.425   4.998
 6059SOL    HW219077   4.918   5.352   5.144
 6060SOL     OW19078   2.605   4.035   6.477
 6060SOL    HW119079   2.701   4.033   6.448
 6060SOL    HW219080   2.566   4.125   6.455
 6061SOL     OW19081   3.360   2.179   1.285
 6061SOL    HW119082   3.380   2.084   1.305
 6061SOL    HW219083   3.440   2.236   1.307
 6062SOL     OW19084   2.210   1.768   5.008
 6062SOL    HW119085   2.290   1.752   5.066
 6062SOL    HW219086   2.144   1.694   5.021
 6063SOL     OW19087   3.247   1.915   6.019
 6063SOL    HW119088   3.195   1.912   6.104
 6063SOL    HW219089   3.345   1.913   6.040
 6064SOL     OW19090   1.724   5.954   1.118
 6064SOL    HW119091   1.822   5.943   1.134
 6064SOL    HW219092   1.677   5.868   1.138
 6065SOL     OW19093   6.452   0.113   2.015
 6065SOL    HW119094   6.524   0.165   1.968
 6065SOL    HW219095   6.365   0.126   1.968
 6066SOL     OW19096   5.231   1.680   6.046
 6066SOL    HW119097   5.191   1.640   5.964
 6066SOL    HW219098   5.248   1.778   6.031
 6067SOL     OW19099   5.560   1.869   5.761
 6067SOL    HW119100   5.500   1.805   5.713
 6067SOL    HW219101   5.606   1.822   5.836
 6068SOL     OW19102   5.551   2.969   4.665
 6068SOL    HW119103   5.560   3.049   4.723
 6068SOL    HW219104   5.642   2.941   4.632
 6069SOL     OW19105   6.770   3.423   4.701
 6069SOL    HW119106   6.836   3.373   4.757
 6069SOL    HW219107   6.813   3.453   4.617
 6070SOL     OW19108   2.271   2.841   0.625
 6070SOL    HW119109   2.309   2.759   0.582
 6070SOL    HW219110   2.235   2.817   0.716
 6071SOL     OW19111   6.321   5.677   4.569
 6071SOL    HW119112   6.278   5.717   4.488
 6071SOL    HW219113   6.251   5.644   4.632
 6072SOL     OW19114   0.833   0.412   1.888
 6072SOL    HW119115   0.864   0.332   1.837
 6072SOL    HW219116   0.795   0.383   1.976
 6073SOL     OW19117   6.270   4.109   0.341
 6073SOL    HW119118   6.365   4.097   0.313
 6073SOL    HW219119   6.219   4.026   0.319
 6074SOL     OW19120   1.286   6.362   4.285
 6074SOL    HW119121   1.256   6.448   4.324
 6074SOL    HW219122   1.242   6.348   4.196
 6075SOL     OW19123   6.620   1.411   6.579
 6075SOL    HW119124   6.678   1.355   6.519
 6075SOL    HW219125   6.525   1.380   6.572
 6076SOL     OW19126   2.329   5.565   4.583
 6076SOL    HW119127   2.394   5.636   4.611
 6076SOL    HW219128   2.375   5.477   4.579
 6077SOL     OW19129   5.853   5.740   1.778
 6077SOL    HW119130   5.880   5.715   1.871
 6077SOL    HW219131   5.873   5.664   1.716
 6078SOL     OW19132   3.803   4.950   0.798
 6078SOL    HW119133   3.758   4.933   0.885
 6078SOL    HW219134   3.734   4.961   0.726
 6079SOL     OW19135   4.058   3.096   6.504
 6079SOL    HW119136   3.971   3.069   6.545
 6079SOL    HW219137   4.041   3.158   6.427
 6080SOL     OW19138   6.958   1.266   1.675
 6080SOL    HW119139   6.895   1.325   1.624
 6080SOL    HW219140   6.908   1.221   1.749
 6081SOL     OW19141   6.086   3.238   5.551
 6081SOL    HW119142   6.119   3.186   5.473
 6081SOL    HW219143   6.095   3.336   5.533
 6082SOL     OW19144   2.033   2.005   3.666
 6082SOL    HW119145   2.124   1.964   3.663
 6082SOL    HW219146   1.980   1.976   3.586
 6083SOL     OW19147   0.281   4.640   6.883
 6083SOL    HW119148   0.184   4.646   6.909
 6083SOL    HW219149   0.293   4.680   6.792
 6084SOL     OW19150   0.582   6.481   3.229
 6084SOL    HW119151   0.659   6.465   3.167
 6084SOL    HW219152   0.571   6.403   3.290
 6085SOL     OW19153   0.985   4.470   0.531
 6085SOL    HW119154   1.053   4.418   0.479
 6085SOL    HW219155   0.956   4.416   0.610
 6086SOL     OW19156   3.764   1.480   5.992
 6086SOL    HW119157   3.695   1.553   5.992
 6086SOL    HW219158   3.725   1.398   5.952
 6087SOL     OW19159   4.116   5.516   0.950
 6087SOL    HW119160   4.038   5.535   0.891
 6087SOL    HW219161   4.183   5.461   0.900
 6088SOL     OW19162   6.270   5.579   4.242
 6088SOL    HW119163   6.201   5.585   4.313
 6088SOL    HW219164   6.298   5.484   4.230
 6089SOL     OW19165   6.307   3.278   0.750
 6089SOL    HW119166   6.279   3.183   0.734
 6089SOL    HW219167   6.298   3.330   0.666
 6090SOL     OW19168   2.226   6.177   5.727
 6090SOL    HW119169   2.230   6.276   5.714
 6090SOL    HW219170   2.161   6.156   5.801
 6091SOL     OW19171   1.481   1.232   1.598
 6091SOL    HW119172   1.402   1.260   1.652
 6091SOL    HW219173   1.450   1.194   1.511
 6092SOL     OW19174   3.673   6.666   2.986
 6092SOL    HW119175   3.768   6.690   3.009
 6092SOL    HW219176   3.614   6.746   3.000
 6093SOL     OW19177   1.850   3.154   2.978
 6093SOL    HW119178   1.853   3.227   3.047
 6093SOL    HW219179   1.919   3.172   2.908
 6094SOL     OW19180   3.873   0.661   1.434
 6094SOL    HW119181   3.781   0.625   1.450
 6094SOL    HW219182   3.881   0.688   1.338
 6095SOL     OW19183   4.700   3.418   0.212
 6095SOL    HW119184   4.616   3.429   0.265
 6095SOL    HW219185   4.778   3.450   0.266
 6096SOL     OW19186   6.612   0.756   3.717
 6096SOL    HW119187   6.634   0.832   3.655
 6096SOL    HW219188   6.543   0.698   3.674
 6097SOL     OW19189   2.010   6.575   2.035
 6097SOL    HW119190   2.099   6.610   2.008
 6097SOL    HW219191   1.951   6.651   2.062
 6098SOL     OW19192   1.389   2.358   6.000
 6098SOL    HW119193   1.437   2.311   6.074
 6098SOL    HW219194   1.454   2.416   5.950
 6099SOL     OW19195   6.634   6.102   0.652
 6099SOL    HW119196   6.689   6.143   0.724
 6099SOL    HW219197   6.566   6.169   0.621
 6100SOL     OW19198   4.498   3.714   0.382
 6100SOL    HW119199   4.428   3.643   0.376
 6100SOL    HW219200   4.539   3.729   0.292
 6101SOL     OW19201   6.234   2.250   4.483
 6101SOL    HW119202   6.328   2.233   4.511
 6101SOL    HW219203   6.211   2.192   4.406
 6102SOL     OW19204   3.155   6.454   3.355
 6102SOL    HW119205   3.243   6.476   3.397
 6102SOL    HW219206   3.127   6.362   3.383
 6103SOL     OW19207   6.920   2.966   2.663
 6103SOL    HW119208   6.918   2.948   2.565
 6103SOL    HW219209   6.826   2.974   2.698
 6104SOL     OW19210   6.175   1.211   5.389
 6104SOL    HW119211   6.204   1.144   5.457
 6104SOL    HW219212   6.152   1.164   5.303
 6105SOL     OW19213   2.118   0.313   5.823
 6105SOL    HW119214   2.075   0.232   5.862
 6105SOL    HW219215   2.083   0.328   5.730
 6106SOL     OW19216   2.165   4.101   5.367
 6106SOL    HW119217   2.166   4.160   5.287
 6106SOL    HW219218   2.190   4.008   5.340
 6107SOL     OW19219   2.546   4.654   4.763
 6107SOL    HW119220   2.494   4.585   4.712
 6107SOL    HW219221   2.532   4.641   4.861
 6108SOL     OW19222   0.379   2.211   2.103
 6108SOL    HW119223   0.410   2.266   2.181
 6108SOL    HW219224   0.372   2.115   2.131
 6109SOL     OW19225   5.302   2.654   5.617
 6109SOL    HW119226   5.236   2.727   5.635
 6109SOL    HW219227   5.266   2.568   5.655
 6110SOL     OW19228   4.222   3.362   0.283
 6110SOL    HW119229   4.293   3.361   0.212
 6110SOL    HW219230   4.205   3.456   0.312
 6111SOL     OW19231   2.112   4.124   2.199
 6111SOL    HW119232   2.118   4.026   2.218
 6111SOL    HW219233   2.104   4.138   2.100
 6112SOL     OW19234   4.030   0.008   2.665
 6112SOL    HW119235   4.003   0.092   2.619
 6112SOL    HW219236   3.980   6.956   2.627
 6113SOL     OW19237   1.660   1.510   6.550
 6113SOL    HW119238   1.725   1.584   6.537
 6113SOL    HW219239   1.656   1.486   6.647
 6114SOL     OW19240   5.194   5.460   1.182
 6114SOL    HW119241   5.203   5.438   1.085
 6114SOL    HW219242   5.132   5.538   1.194
 6115SOL     OW19243   4.404   0.388   3.653
 6115SOL    HW119244   4.437   0.423   3.741
 6115SOL    HW219245   4.456   0.306   3.628
 6116SOL     OW19246   2.873   6.998   0.298
 6116SOL    HW119247   2.921   6.996   0.211
 6116SOL    HW219248   2.841   6.906   0.320
 6117SOL     OW19249   0.686   0.839   5.351
 6117SOL    HW119250   0.663   0.823   5.447
 6117SOL    HW219251   0.734   0.760   5.313
 6118SOL     OW19252   6.436   0.340   2.256
 6118SOL    HW119253   6.481   0.257   2.223
 6118SOL    HW219254   6.388   0.319   2.342
 6119SOL     OW19255   1.430   3.498   5.723
 6119SOL    HW119256   1.333   3.501   5.697
 6119SOL    HW219257   1.469   3.410   5.696
 6120SOL     OW19258   3.792   6.811   4.617
 6120SOL    HW119259   3.784   6.787   4.520
 6120SOL    HW219260   3.889   6.821   4.640
 6121SOL     OW19261   0.698   2.902   5.662
 6121SOL    HW119262   0.688   2.955   5.578
 6121SOL    HW219263   0.626   2.832   5.666
 6122SOL     OW19264   4.088   6.522   1.011
 6122SOL    HW119265   4.112   6.559   1.101
 6122SOL    HW219266   4.049   6.431   1.022
 6123SOL     OW19267   6.238   0.411   6.771
 6123SOL    HW119268   6.254   0.458   6.857
 6123SOL    HW219269   6.140   0.405   6.754
 6124SOL     OW19270   1.927   0.736   6.202
 6124SOL    HW119271   2.006   0.718   6.144
 6124SOL    HW219272   1.957   0.752   6.296
 6125SOL     OW19273   1.222   5.761   0.354
 6125SOL    HW119274   1.292   5.818   0.397
 6125SOL    HW219275   1.265   5.683   0.308
 6126SOL     OW19276   0.349   6.896   3.904
 6126SOL    HW119277   0.388   6.921   3.992
 6126SOL    HW219278   0.253   6.926   3.900
 6127SOL     OW19279   3.828   0.330   1.705
 6127SOL    HW119280   3.867   0.261   1.645
 6127SOL    HW219281   3.729   0.320   1.708
 6128SOL     OW19282   6.802   3.013   6.842
 6128SOL    HW119283   6.833   2.919   6.860
 6128SOL    HW219284   6.796   3.063   6.929
 6129SOL     OW19285   6.223   3.819   3.264
 6129SOL    HW119286   6.226   3.916   3.288
 6129SOL    HW219287   6.129   3.793   3.243
 6130SOL     OW19288   5.935   2.433   3.412
 6130SOL    HW119289   5.925   2.407   3.316
 6130SOL    HW219290   5.850   2.416   3.461
 6131SOL     OW19291   6.652   0.979   4.936
 6131SOL    HW119292   6.681   0.951   5.027
 6131SOL    HW219293   6.730   1.015   4.885
 6132SOL     OW19294   4.548   1.352   0.557
 6132SOL    HW119295   4.602   1.429   0.592
 6132SOL    HW219296   4.464   1.344   0.611
 6133SOL     OW19297   1.216   2.404   2.600
 6133SOL    HW119298   1.249   2.404   2.506
 6133SOL    HW219299   1.247   2.487   2.646
 6134SOL     OW19300   4.036   4.593   6.254
 6134SOL    HW119301   3.971   4.668   6.267
 6134SOL    HW219302   4.106   4.597   6.326
 6135SOL     OW19303   0.775   0.271   2.185
 6135SOL    HW119304   0.741   0.206   2.117
 6135SOL    HW219305   0.699   0.312   2.234
 6136SOL     OW19306   1.100   2.351   2.963
 6136SOL    HW119307   1.073   2.447   2.954
 6136SOL    HW219308   1.163   2.327   2.889
 6137SOL     OW19309   6.049   2.642   3.685
 6137SOL    HW119310   6.026   2.614   3.592
 6137SOL    HW219311   5.966   2.655   3.738
 6138SOL     OW19312   4.503   6.229   2.977
 6138SOL    HW119313   4.566   6.152   2.980
 6138SOL    HW219314   4.477   6.248   2.882
 6139SOL     OW19315   1.356   1.665   5.893
 6139SOL    HW119316   1.421   1.741   5.886
 6139SOL    HW219317   1.275   1.695   5.943
 6140SOL     OW19318   0.584   6.558   1.287
 6140SOL    HW119319   0.546   6.530   1.199
 6140SOL    HW219320   0.551   6.496   1.358
 6141SOL     OW19321   6.506   5.597   5.908
 6141SOL    HW119322   6.456   5.538   5.972
 6141SOL    HW219323   6.586   5.548   5.873
 6142SOL     OW19324   0.947   5.812   1.196
 6142SOL    HW119325   0.872   5.749   1.176
 6142SOL    HW219326   0.951   5.830   1.295
 6143SOL     OW19327   6.767   4.361   1.137
 6143SOL    HW119328   6.803   4.454   1.134
 6143SOL    HW219329   6.678   4.362   1.183
 6144SOL     OW19330   6.371   4.144   3.340
 6144SOL    HW119331   6.434   4.221   3.343
 6144SOL    HW219332   6.316   4.142   3.423
 6145SOL     OW19333   4.479   5.416   3.817
 6145SOL    HW119334   4.484   5.359   3.735
 6145SOL    HW219335   4.569   5.455   3.836
 6146SOL     OW19336   3.001   6.631   4.101
 6146SOL    HW119337   2.998   6.584   4.014
 6146SOL    HW219338   2.912   6.626   4.146
 6147SOL     OW19339   1.333   3.386   4.592
 6147SOL    HW119340   1.320   3.424   4.500
 6147SOL    HW219341   1.330   3.460   4.659
 6148SOL     OW19342   6.726   0.339   4.074
 6148SOL    HW119343   6.764   0.416   4.023
 6148SOL    HW219344   6.750   0.253   4.027
 6149SOL     OW19345   3.462   5.152   1.288
 6149SOL    HW119346   3.379   5.133   1.341
 6149SOL    HW219347   3.518   5.069   1.284
 6150SOL     OW19348   4.657   5.056   6.596
 6150SOL    HW119349   4.723   5.085   6.665
 6150SOL    HW219350   4.705   5.037   6.510
 6151SOL     OW19351   5.803   4.746   5.341
 6151SOL    HW119352   5.769   4.655   5.317
 6151SOL    HW219353   5.860   4.739   5.423
 6152SOL     OW19354   6.731   5.802   5.025
 6152SOL    HW119355   6.649   5.762   5.065
 6152SOL    HW219356   6.762   5.746   4.949
 6153SOL     OW19357   5.711   3.779   1.651
 6153SOL    HW119358   5.745   3.867   1.684
 6153SOL    HW219359   5.620   3.762   1.690
 6154SOL     OW19360   5.773   2.247   2.411
 6154SOL    HW119361   5.701   2.179   2.425
 6154SOL    HW219362   5.801   2.284   2.500
 6155SOL     OW19363   1.975   2.213   4.470
 6155SOL    HW119364   1.972   2.133   4.410
 6155SOL    HW219365   1.883   2.249   4.482
 6156SOL     OW19366   4.191   4.649   1.645
 6156SOL    HW119367   4.207   4.550   1.646
 6156SOL    HW219368   4.276   4.696   1.622
 6157SOL     OW19369   0.906   0.908   3.902
 6157SOL    HW119370   0.883   0.982   3.965
 6157SOL    HW219371   0.952   0.835   3.952
 6158SOL     OW19372   4.759   1.012   6.265
 6158SOL    HW119373   4.828   0.967   6.208
 6158SOL    HW219374   4.744   0.958   6.347
 6159SOL     OW19375   5.072   2.433   1.322
 6159SOL    HW119376   5.165   2.409   1.348
 6159SOL    HW219377   5.073   2.514   1.263
 6160SOL     OW19378   5.208   0.474   6.424
 6160SOL    HW119379   5.248   0.419   6.351
 6160SOL    HW219380   5.169   0.413   6.494
 6161SOL     OW19381   5.214   1.703   4.567
 6161SOL    HW119382   5.226   1.749   4.655
 6161SOL    HW219383   5.158   1.759   4.507
 6162SOL     OW19384   1.483   6.572   3.532
 6162SOL    HW119385   1.413   6.546   3.598
 6162SOL    HW219386   1.532   6.652   3.567
 6163SOL     OW19387   6.357   6.171   1.134
 6163SOL    HW119388   6.321   6.257   1.171
 6163SOL    HW219389   6.323   6.095   1.190
 6164SOL     OW19390   3.263   2.700   1.713
 6164SOL    HW119391   3.269   2.749   1.626
 6164SOL    HW219392   3.354   2.690   1.753
 6165SOL     OW19393   4.728   0.844   6.474
 6165SOL    HW119394   4.687   0.858   6.564
 6165SOL    HW219395   4.720   0.748   6.449
 6166SOL     OW19396   4.748   1.490   6.235
 6166SOL    HW119397   4.792   1.571   6.274
 6166SOL    HW219398   4.819   1.426   6.205
 6167SOL     OW19399   0.952   4.234   3.770
 6167SOL    HW119400   0.862   4.275   3.780
 6167SOL    HW219401   1.003   4.244   3.855
 6168SOL     OW19402   0.802   3.560   0.856
 6168SOL    HW119403   0.752   3.587   0.938
 6168SOL    HW219404   0.858   3.637   0.824
 6169SOL     OW19405   1.640   2.696   1.333
 6169SOL    HW119406   1.652   2.794   1.321
 6169SOL    HW219407   1.542   2.675   1.340
 6170SOL     OW19408   0.944   3.963   5.356
 6170SOL    HW119409   0.870   3.896   5.348
 6170SOL    HW219410   0.959   4.008   5.268
 6171SOL     OW19411   0.638   2.794   0.707
 6171SOL    HW119412   0.676   2.863   0.770
 6171SOL    HW219413   0.697   2.713   0.707
 6172SOL     OW19414   2.292   2.819   2.179
 6172SOL    HW119415   2.266   2.898   2.123
 6172SOL    HW219416   2.350   2.758   2.125
 6173SOL     OW19417   0.158   5.677   2.271
 6173SOL    HW119418   0.069   5.660   2.314
 6173SOL    HW219419   0.203   5.754   2.316
 6174SOL     OW19420   4.877   5.836   4.152
 6174SOL    HW119421   4.884   5.840   4.052
 6174SOL    HW219422   4.903   5.744   4.183
 6175SOL     OW19423   3.664   0.118   3.065
 6175SOL    HW119424   3.695   0.212   3.078
 6175SOL    HW219425   3.628   0.107   2.972
 6176SOL     OW19426   4.881   4.983   5.501
 6176SOL    HW119427   4.855   4.904   5.557
 6176SOL    HW219428   4.799   5.024   5.462
 6177SOL     OW19429   5.417   1.358   1.567
 6177SOL    HW119430   5.339   1.360   1.630
 6177SOL    HW219431   5.413   1.437   1.506
 6178SOL     OW19432   5.055   4.688   2.083
 6178SOL    HW119433   5.154   4.672   2.084
 6178SOL    HW219434   5.007   4.600   2.079
 6179SOL     OW19435   6.642   4.371   3.847
 6179SOL    HW119436   6.574   4.432   3.807
 6179SOL    HW219437   6.734   4.401   3.820
 6180SOL     OW19438   2.887   4.356   0.408
 6180SOL    HW119439   2.806   4.340   0.465
 6180SOL    HW219440   2.900   4.278   0.347
 6181SOL     OW19441   4.669   6.654   6.025
 6181SOL    HW119442   4.759   6.699   6.021
 6181SOL    HW219443   4.606   6.701   5.963
 6182SOL     OW19444   4.890   2.959   4.696
 6182SOL    HW119445   4.820   2.906   4.744
 6182SOL    HW219446   4.980   2.922   4.717
 6183SOL     OW19447   1.424   2.404   3.677
 6183SOL    HW119448   1.385   2.426   3.767
 6183SOL    HW219449   1.523   2.420   3.679
 6184SOL     OW19450   2.733   6.181   0.075
 6184SOL    HW119451   2.671   6.106   0.053
 6184SOL    HW219452   2.794   6.153   0.150
 6185SOL     OW19453   0.051   4.045   6.721
 6185SOL    HW119454   0.034   4.144   6.721
 6185SOL    HW219455   0.126   4.025   6.657
 6186SOL     OW19456   6.717   1.131   0.403
 6186SOL    HW119457   6.670   1.180   0.477
 6186SOL    HW219458   6.677   1.157   0.315
 6187SOL     OW19459   5.342   4.412   3.859
 6187SOL    HW119460   5.372   4.330   3.908
 6187SOL    HW219461   5.244   4.406   3.841
 6188SOL     OW19462   1.635   1.910   6.461
 6188SOL    HW119463   1.599   1.960   6.381
 6188SOL    HW219464   1.705   1.965   6.506
 6189SOL     OW19465   4.296   4.725   2.513
 6189SOL    HW119466   4.332   4.714   2.421
 6189SOL    HW219467   4.310   4.640   2.565
 6190SOL     OW19468   0.480   3.863   5.545
 6190SOL    HW119469   0.395   3.907   5.516
 6190SOL    HW219470   0.547   3.933   5.568
 6191SOL     OW19471   2.791   2.759   6.702
 6191SOL    HW119472   2.762   2.687   6.638
 6191SOL    HW219473   2.862   2.723   6.762
 6192SOL     OW19474   2.860   2.169   5.726
 6192SOL    HW119475   2.854   2.232   5.649
 6192SOL    HW219476   2.954   2.164   5.758
 6193SOL     OW19477   4.875   5.981   1.516
 6193SOL    HW119478   4.828   5.894   1.530
 6193SOL    HW219479   4.900   6.020   1.605
 6194SOL     OW19480   0.079   0.769   6.677
 6194SOL    HW119481   0.060   0.683   6.631
 6194SOL    HW219482   0.120   0.750   6.766
 6195SOL     OW19483   4.454   5.848   4.251
 6195SOL    HW119484   4.469   5.803   4.163
 6195SOL    HW219485   4.520   5.814   4.318
 6196SOL     OW19486   5.993   3.932   1.559
 6196SOL    HW119487   5.964   3.935   1.464
 6196SOL    HW219488   5.992   4.024   1.598
 6197SOL     OW19489   3.371   5.377   0.933
 6197SOL    HW119490   3.432   5.455   0.919
 6197SOL    HW219491   3.425   5.295   0.953
 6198SOL     OW19492   4.065   6.831   0.920
 6198SOL    HW119493   4.027   6.743   0.949
 6198SOL    HW219494   4.154   6.844   0.963
 6199SOL     OW19495   0.958   0.650   0.489
 6199SOL    HW119496   0.976   0.651   0.390
 6199SOL    HW219497   0.860   0.658   0.505
 6200SOL     OW19498   1.339   1.245   5.687
 6200SOL    HW119499   1.389   1.307   5.747
 6200SOL    HW219500   1.391   1.228   5.604
 6201SOL     OW19501   1.038   3.840   6.014
 6201SOL    HW119502   0.964   3.893   5.972
 6201SOL    HW219503   1.069   3.885   6.097
 6202SOL     OW19504   4.772   1.304   1.158
 6202SOL    HW119505   4.686   1.334   1.198
 6202SOL    HW219506   4.832   1.383   1.144
 6203SOL     OW19507   6.449   5.893   2.277
 6203SOL    HW119508   6.449   5.953   2.357
 6203SOL    HW219509   6.366   5.837   2.278
 6204SOL     OW19510   0.280   6.045   4.471
 6204SOL    HW119511   0.251   5.966   4.525
 6204SOL    HW219512   0.242   6.037   4.379
 6205SOL     OW19513   6.549   5.578   1.471
 6205SOL    HW119514   6.570   5.518   1.548
 6205SOL    HW219515   6.628   5.635   1.450
 6206SOL     OW19516   6.158   2.015   2.810
 6206SOL    HW119517   6.156   1.962   2.895
 6206SOL    HW219518   6.136   1.956   2.733
 6207SOL     OW19519   1.836   5.487   5.084
 6207SOL    HW119520   1.871   5.545   5.158
 6207SOL    HW219521   1.738   5.472   5.098
 6208SOL     OW19522   3.723   2.421   5.400
 6208SOL    HW119523   3.702   2.518   5.390
 6208SOL    HW219524   3.642   2.371   5.429
 6209SOL     OW19525   3.428   5.629   6.955
 6209SOL    HW119526   3.356   5.606   7.021
 6209SOL    HW219527   3.482   5.705   6.990
 6210SOL     OW19528   4.970   3.806   3.252
 6210SOL    HW119529   4.935   3.712   3.255
 6210SOL    HW219530   4.929   3.853   3.174
 6211SOL     OW19531   2.764   6.415   6.241
 6211SOL    HW119532   2.847   6.367   6.271
 6211SOL    HW219533   2.715   6.358   6.175
 6212SOL     OW19534   2.944   4.852   4.865
 6212SOL    HW119535   2.902   4.768   4.898
 6212SOL    HW219536   2.882   4.929   4.882
 6213SOL     OW19537   5.340   0.292   0.135
 6213SOL    HW119538   5.243   0.292   0.161
 6213SOL    HW219539   5.391   0.230   0.195
 6214SOL     OW19540   5.558   5.785   5.238
 6214SOL    HW119541   5.483   5.826   5.186
 6214SOL    HW219542   5.542   5.687   5.248
 6215SOL     OW19543   3.679   2.188   6.928
 6215SOL    HW119544   3.580   2.179   6.939
 6215SOL    HW219545   3.714   2.254   6.994
 6216SOL     OW19546   6.001   2.237   2.866
 6216SOL    HW119547   5.939   2.213   2.941
 6216SOL    HW219548   6.064   2.161   2.849
 6217SOL     OW19549   0.988   3.276   2.004
 6217SOL    HW119550   0.965   3.333   2.083
 6217SOL    HW219551   0.996   3.181   2.033
 6218SOL     OW19552   3.556   6.826   6.807
 6218SOL    HW119553   3.520   6.754   6.747
 6218SOL    HW219554   3.555   6.794   6.901
 6219SOL     OW19555   0.588   1.909   4.837
 6219SOL    HW119556   0.559   1.891   4.931
 6219SOL    HW219557   0.646   1.835   4.804
 6220SOL     OW19558   2.792   1.317   5.508
 6220SOL    HW119559   2.819   1.367   5.426
 6220SOL    HW219560   2.698   1.285   5.498
 6221SOL     OW19561   5.443   6.895   0.237
 6221SOL    HW119562   5.385   6.947   0.175
 6221SOL    HW219563   5.416   6.799   0.235
 6222SOL     OW19564   1.494   6.794   1.919
 6222SOL    HW119565   1.438   6.811   1.838
 6222SOL    HW219566   1.511   6.696   1.927
 6223SOL     OW19567   2.099   5.168   3.205
 6223SOL    HW119568   2.080   5.261   3.236
 6223SOL    HW219569   2.016   5.113   3.213
 6224SOL     OW19570   3.892   1.697   5.974
 6224SOL    HW119571   3.864   1.601   5.981
 6224SOL    HW219572   3.991   1.703   5.983
 6225SOL     OW19573   3.682   2.139   6.283
 6225SOL    HW119574   3.650   2.068   6.346
 6225SOL    HW219575   3.747   2.198   6.330
 6226SOL     OW19576   0.858   1.423   4.343
 6226SOL    HW119577   0.946   1.469   4.351
 6226SOL    HW219578   0.851   1.351   4.412
 6227SOL     OW19579   3.368   4.866   5.501
 6227SOL    HW119580   3.386   4.797   5.431
 6227SOL    HW219581   3.272   4.894   5.496
 6228SOL     OW19582   0.284   2.840   2.513
 6228SOL    HW119583   0.290   2.801   2.421
 6228SOL    HW219584   0.301   2.938   2.509
 6229SOL     OW19585   0.560   2.137   5.230
 6229SOL    HW119586   0.624   2.139   5.153
 6229SOL    HW219587   0.510   2.224   5.233
 6230SOL     OW19588   0.711   2.162   4.149
 6230SOL    HW119589   0.766   2.152   4.066
 6230SOL    HW219590   0.614   2.161   4.125
 6231SOL     OW19591   6.121   5.695   0.340
 6231SOL    HW119592   6.107   5.769   0.274
 6231SOL    HW219593   6.111   5.607   0.294
 6232SOL     OW19594   6.690   1.133   0.915
 6232SOL    HW119595   6.626   1.065   0.951
 6232SOL    HW219596   6.666   1.224   0.951
 6233SOL     OW19597   6.539   3.054   1.616
 6233SOL    HW119598   6.506   3.039   1.523
 6233SOL    HW219599   6.508   2.980   1.675
 6234SOL     OW19600   0.003   6.767   5.718
 6234SOL    HW119601   0.052   6.719   5.645
 6234SOL    HW219602   0.052   6.756   5.804
 6235SOL     OW19603   7.021   0.336   1.230
 6235SOL    HW119604   6.953   0.268   1.201
 6235SOL    HW219605   0.019   0.320   1.326
 6236SOL     OW19606   0.415   4.185   0.732
 6236SOL    HW119607   0.367   4.248   0.793
 6236SOL    HW219608   0.510   4.214   0.721
 6237SOL     OW19609   3.303   0.119   6.885
 6237SOL    HW119610   3.211   0.108   6.848
 6237SOL    HW219611   3.316   0.057   6.962
 6238SOL     OW19612   5.100   5.719   2.443
 6238SOL    HW119613   5.015   5.667   2.432
 6238SOL    HW219614   5.166   5.664   2.495
 6239SOL     OW19615   3.472   1.415   1.192
 6239SOL    HW119616   3.476   1.456   1.283
 6239SOL    HW219617   3.398   1.348   1.188
 6240SOL     OW19618   2.889   3.726   4.980
 6240SOL    HW119619   2.971   3.764   4.939
 6240SOL    HW219620   2.809   3.749   4.924
 6241SOL     OW19621   3.380   0.700   2.337
 6241SOL    HW119622   3.363   0.797   2.322
 6241SOL    HW219623   3.353   0.675   2.430
 6242SOL     OW19624   3.904   6.837   3.051
 6242SOL    HW119625   3.939   6.845   3.144
 6242SOL    HW219626   3.907   6.927   3.006
 6243SOL     OW19627   0.310   6.644   5.335
 6243SOL    HW119628   0.401   6.604   5.345
 6243SOL    HW219629   0.317   6.728   5.282
 6244SOL     OW19630   4.933   3.430   3.641
 6244SOL    HW119631   5.033   3.426   3.645
 6244SOL    HW219632   4.902   3.522   3.665
 6245SOL     OW19633   1.578   4.087   1.738
 6245SOL    HW119634   1.626   4.119   1.657
 6245SOL    HW219635   1.642   4.081   1.815
 6246SOL     OW19636   1.230   1.509   4.905
 6246SOL    HW119637   1.225   1.580   4.976
 6246SOL    HW219638   1.138   1.488   4.873
 6247SOL     OW19639   1.397   6.088   3.372
 6247SOL    HW119640   1.466   6.040   3.426
 6247SOL    HW219641   1.306   6.073   3.411
 6248SOL     OW19642   3.670   3.825   0.029
 6248SOL    HW119643   3.610   3.902   0.053
 6248SOL    HW219644   3.755   3.861   7.016
 6249SOL     OW19645   6.950   3.255   0.478
 6249SOL    HW119646   6.883   3.229   0.547
 6249SOL    HW219647   0.016   3.227   0.507
 6250SOL     OW19648   6.338   6.635   1.212
 6250SOL    HW119649   6.407   6.608   1.144
 6250SOL    HW219650   6.383   6.663   1.296
 6251SOL     OW19651   4.250   5.862   5.548
 6251SOL    HW119652   4.173   5.813   5.590
 6251SOL    HW219653   4.242   5.858   5.448
 6252SOL     OW19654   2.744   4.827   6.072
 6252SOL    HW119655   2.760   4.730   6.054
 6252SOL    HW219656   2.774   4.849   6.165
 6253SOL     OW19657   2.867   5.064   4.200
 6253SOL    HW119658   2.783   5.028   4.158
 6253SOL    HW219659   2.879   5.023   4.290
 6254SOL     OW19660   6.042   0.763   1.317
 6254SOL    HW119661   6.129   0.724   1.287
 6254SOL    HW219662   5.967   0.715   1.273
 6255SOL     OW19663   2.398   1.574   1.219
 6255SOL    HW119664   2.334   1.559   1.295
 6255SOL    HW219665   2.491   1.580   1.255
 6256SOL     OW19666   3.823   5.336   1.876
 6256SOL    HW119667   3.837   5.237   1.863
 6256SOL    HW219668   3.812   5.355   1.973
 6257SOL     OW19669   4.333   2.877   0.161
 6257SOL    HW119670   4.412   2.867   0.100
 6257SOL    HW219671   4.359   2.935   0.238
 6258SOL     OW19672   3.426   6.754   4.456
 6258SOL    HW119673   3.337   6.713   4.442
 6258SOL    HW219674   3.450   6.750   4.553
 6259SOL     OW19675   2.165   0.650   6.561
 6259SOL    HW119676   2.112   0.573   6.597
 6259SOL    HW219677   2.257   0.648   6.600
 6260SOL     OW19678   3.534   6.265   0.090
 6260SOL    HW119679   3.594   6.189   0.115
 6260SOL    HW219680   3.480   6.292   0.169
 6261SOL     OW19681   5.499   0.510   0.037
 6261SOL    HW119682   5.587   0.527   0.079
 6261SOL    HW219683   5.464   0.421   0.066
 6262SOL     OW19684   2.003   5.667   1.752
 6262SOL    HW119685   2.050   5.719   1.823
 6262SOL    HW219686   2.050   5.679   1.665
 6263SOL     OW19687   1.163   6.733   4.782
 6263SOL    HW119688   1.232   6.686   4.837
 6263SOL    HW219689   1.109   6.666   4.732
 6264SOL     OW19690   2.291   0.003   2.249
 6264SOL    HW119691   2.324   0.053   2.170
 6264SOL    HW219692   2.205   0.042   2.280
 6265SOL     OW19693   3.882   3.533   0.490
 6265SOL    HW119694   3.880   3.574   0.581
 6265SOL    HW219695   3.930   3.445   0.494
 6266SOL     OW19696   4.547   0.394   3.225
 6266SOL    HW119697   4.484   0.319   3.248
 6266SOL    HW219698   4.497   0.480   3.219
 6267SOL     OW19699   2.080   6.914   5.204
 6267SOL    HW119700   2.108   7.006   5.176
 6267SOL    HW219701   2.151   6.848   5.177
 6268SOL     OW19702   2.690   0.601   1.854
 6268SOL    HW119703   2.717   0.694   1.829
 6268SOL    HW219704   2.674   0.596   1.952
 6269SOL     OW19705   6.842   0.127   2.359
 6269SOL    HW119706   6.780   0.173   2.294
 6269SOL    HW219707   6.911   0.192   2.390
 6270SOL     OW19708   0.385   0.055   6.830
 6270SOL    HW119709   0.328   0.136   6.816
 6270SOL    HW219710   0.412   0.017   6.741
 6271SOL     OW19711   5.843   2.531   5.692
 6271SOL    HW119712   5.764   2.576   5.733
 6271SOL    HW219713   5.926   2.578   5.720
 6272SOL     OW19714   0.560   2.226   0.967
 6272SOL    HW119715   0.592   2.157   1.032
 6272SOL    HW219716   0.615   2.223   0.884
 6273SOL     OW19717   0.699   6.455   2.633
 6273SOL    HW119718   0.604   6.486   2.635
 6273SOL    HW219719   0.754   6.521   2.582
 6274SOL     OW19720   3.387   0.010   4.366
 6274SOL    HW119721   3.462   0.046   4.422
 6274SOL    HW219722   3.359   6.947   4.401
 6275SOL     OW19723   2.057   6.305   0.255
 6275SOL    HW119724   2.026   6.398   0.236
 6275SOL    HW219725   1.999   6.239   0.208
 6276SOL     OW19726   2.404   5.708   3.106
 6276SOL    HW119727   2.337   5.749   3.044
 6276SOL    HW219728   2.431   5.775   3.175
 6277SOL     OW19729   4.433   3.595   0.717
 6277SOL    HW119730   4.427   3.603   0.817
 6277SOL    HW219731   4.341   3.605   0.678
 6278SOL     OW19732   4.068   0.106   4.976
 6278SOL    HW119733   4.120   0.188   4.999
 6278SOL    HW219734   4.074   0.090   4.877
 6279SOL     OW19735   3.361   6.302   0.294
 6279SOL    HW119736   3.317   6.213   0.303
 6279SOL    HW219737   3.391   6.333   0.385
 6280SOL     OW19738   0.285   0.956   6.571
 6280SOL    HW119739   0.204   0.899   6.584
 6280SOL    HW219740   0.350   0.939   6.646
 6281SOL     OW19741   6.857   4.907   4.282
 6281SOL    HW119742   6.855   4.820   4.331
 6281SOL    HW219743   6.951   4.929   4.257
 6282SOL     OW19744   6.374   4.428   5.618
 6282SOL    HW119745   6.396   4.482   5.699
 6282SOL    HW219746   6.409   4.475   5.536
 6283SOL     OW19747   0.083   3.942   3.986
 6283SOL    HW119748   0.164   3.893   3.955
 6283SOL    HW219749   0.076   3.937   4.085
 6284SOL     OW19750   1.831   4.864   5.980
 6284SOL    HW119751   1.764   4.791   5.997
 6284SOL    HW219752   1.801   4.921   5.904
 6285SOL     OW19753   1.189   3.265   3.353
 6285SOL    HW119754   1.250   3.186   3.356
 6285SOL    HW219755   1.137   3.264   3.268
 6286SOL     OW19756   6.980   2.648   4.399
 6286SOL    HW119757   7.024   2.737   4.396
 6286SOL    HW219758   6.951   2.622   4.307
 6287SOL     OW19759   3.384   4.828   5.136
 6287SOL    HW119760   3.312   4.839   5.204
 6287SOL    HW219761   3.343   4.804   5.047
 6288SOL     OW19762   5.651   4.810   1.840
 6288SOL    HW119763   5.641   4.727   1.896
 6288SOL    HW219764   5.748   4.827   1.823
 6289SOL     OW19765   2.212   5.029   6.769
 6289SOL    HW119766   2.297   4.992   6.731
 6289SOL    HW219767   2.209   5.128   6.755
 6290SOL     OW19768   6.086   5.043   5.830
 6290SOL    HW119769   6.048   5.107   5.763
 6290SOL    HW219770   6.172   5.080   5.867
 6291SOL     OW19771   3.877   3.923   3.851
 6291SOL    HW119772   3.802   3.858   3.845
 6291SOL    HW219773   3.846   4.013   3.818
 6292SOL     OW19774   2.456   2.778   5.535
 6292SOL    HW119775   2.425   2.766   5.441
 6292SOL    HW219776   2.532   2.843   5.536
 6293SOL     OW19777   4.436   1.798   0.807
 6293SOL    HW119778   4.392   1.729   0.750
 6293SOL    HW219779   4.525   1.764   0.838
 6294SOL     OW19780   4.098   0.462   3.187
 6294SOL    HW119781   4.088   0.560   3.169
 6294SOL    HW219782   4.051   0.439   3.272
 6295SOL     OW19783   5.346   4.287   4.351
 6295SOL    HW119784   5.345   4.367   4.291
 6295SOL    HW219785   5.252   4.261   4.373
 6296SOL     OW19786   6.844   4.721   5.690
 6296SOL    HW119787   6.806   4.645   5.637
 6296SOL    HW219788   6.917   4.765   5.639
 6297SOL     OW19789   6.189   0.365   5.241
 6297SOL    HW119790   6.181   0.354   5.142
 6297SOL    HW219791   6.102   0.345   5.285
 6298SOL     OW19792   0.908   3.578   6.468
 6298SOL    HW119793   0.981   3.617   6.524
 6298SOL    HW219794   0.946   3.504   6.411
 6299SOL     OW19795   6.137   2.746   1.780
 6299SOL    HW119796   6.179   2.816   1.837
 6299SOL    HW219797   6.063   2.702   1.830
 6300SOL     OW19798   6.310   0.908   0.353
 6300SOL    HW119799   6.330   0.882   0.447
 6300SOL    HW219800   6.395   0.930   0.305
 6301SOL     OW19801   2.739   6.746   0.275
 6301SOL    HW119802   2.791   6.661   0.281
 6301SOL    HW219803   2.739   6.777   0.180
 6302SOL     OW19804   1.813   2.094   4.753
 6302SOL    HW119805   1.779   2.102   4.659
 6302SOL    HW219806   1.820   2.184   4.794
 6303SOL     OW19807   0.482   0.399   5.706
 6303SOL    HW119808   0.563   0.435   5.659
 6303SOL    HW219809   0.475   0.301   5.689
 6304SOL     OW19810   3.931   1.279   1.737
 6304SOL    HW119811   3.894   1.266   1.645
 6304SOL    HW219812   3.982   1.365   1.741
 6305SOL     OW19813   5.872   6.315   0.357
 6305SOL    HW119814   5.921   6.365   0.428
 6305SOL    HW219815   5.816   6.243   0.399
 6306SOL     OW19816   0.164   3.672   4.297
 6306SOL    HW119817   0.088   3.659   4.360
 6306SOL    HW219818   0.170   3.594   4.235
 6307SOL     OW19819   3.125   3.399   3.593
 6307SOL    HW119820   3.185   3.447   3.657
 6307SOL    HW219821   3.177   3.373   3.512
 6308SOL     OW19822   1.553   2.558   4.633
 6308SOL    HW119823   1.519   2.465   4.636
 6308SOL    HW219824   1.653   2.557   4.622
 6309SOL     OW19825   6.937   6.410   4.509
 6309SOL    HW119826   6.852   6.362   4.533
 6309SOL    HW219827   7.015   6.363   4.549
 6310SOL     OW19828   1.100   6.693   2.615
 6310SOL    HW119829   1.196   6.665   2.614
 6310SOL    HW219830   1.095   6.793   2.622
 6311SOL     OW19831   5.074   1.905   5.469
 6311SOL    HW119832   5.025   1.986   5.435
 6311SOL    HW219833   5.069   1.903   5.569
 6312SOL     OW19834   0.585   6.977   5.490
 6312SOL    HW119835   0.586   0.027   5.425
 6312SOL    HW219836   0.521   6.907   5.459
 6313SOL     OW19837   6.418   6.050   3.773
 6313SOL    HW119838   6.494   6.115   3.782
 6313SOL    HW219839   6.362   6.053   3.855
 6314SOL     OW19840   3.693   6.633   1.790
 6314SOL    HW119841   3.776   6.580   1.809
 6314SOL    HW219842   3.707   6.728   1.817
 6315SOL     OW19843   3.157   1.747   5.814
 6315SOL    HW119844   3.162   1.828   5.873
 6315SOL    HW219845   3.227   1.681   5.840
 6316SOL     OW19846   5.239   2.394   5.720
 6316SOL    HW119847   5.320   2.361   5.770
 6316SOL    HW219848   5.247   2.367   5.624
 6317SOL     OW19849   4.818   4.759   1.803
 6317SOL    HW119850   4.855   4.683   1.750
 6317SOL    HW219851   4.726   4.782   1.770
 6318SOL     OW19852   4.567   0.702   6.182
 6318SOL    HW119853   4.519   0.788   6.166
 6318SOL    HW219854   4.596   0.663   6.095
 6319SOL     OW19855   6.463   2.471   5.379
 6319SOL    HW119856   6.445   2.410   5.457
 6319SOL    HW219857   6.553   2.512   5.388
 6320SOL     OW19858   0.072   6.805   4.945
 6320SOL    HW119859   0.162   6.849   4.944
 6320SOL    HW219860   0.042   6.788   4.851
 6321SOL     OW19861   4.309   3.321   0.900
 6321SOL    HW119862   4.335   3.305   0.804
 6321SOL    HW219863   4.252   3.402   0.906
 6322SOL     OW19864   2.913   2.499   0.440
 6322SOL    HW119865   3.013   2.498   0.430
 6322SOL    HW219866   2.878   2.588   0.412
 6323SOL     OW19867   1.258   2.057   2.358
 6323SOL    HW119868   1.329   2.125   2.374
 6323SOL    HW219869   1.213   2.035   2.445
 6324SOL     OW19870   4.066   0.533   0.640
 6324SOL    HW119871   4.104   0.584   0.717
 6324SOL    HW219872   4.140   0.509   0.577
 6325SOL     OW19873   2.010   3.201   2.705
 6325SOL    HW119874   1.938   3.154   2.654
 6325SOL    HW219875   1.984   3.297   2.719
 6326SOL     OW19876   5.501   5.060   0.365
 6326SOL    HW119877   5.445   5.128   0.317
 6326SOL    HW219878   5.529   4.989   0.300
 6327SOL     OW19879   0.155   1.798   4.347
 6327SOL    HW119880   0.132   1.728   4.415
 6327SOL    HW219881   0.079   1.862   4.338
 6328SOL     OW19882   4.496   3.102   0.229
 6328SOL    HW119883   4.477   3.189   0.183
 6328SOL    HW219884   4.569   3.054   0.182
 6329SOL     OW19885   1.401   2.730   4.784
 6329SOL    HW119886   1.447   2.674   4.715
 6329SOL    HW219887   1.370   2.672   4.859
 6330SOL     OW19888   6.002   6.783   2.257
 6330SOL    HW119889   5.999   6.857   2.190
 6330SOL    HW219890   5.942   6.709   2.227
 6331SOL     OW19891   6.909   3.944   4.734
 6331SOL    HW119892   6.842   3.881   4.773
 6331SOL    HW219893   6.987   3.952   4.795
 6332SOL     OW19894   0.497   2.870   1.198
 6332SOL    HW119895   0.509   2.959   1.242
 6332SOL    HW219896   0.577   2.813   1.216
 6333SOL     OW19897   5.100   0.129   5.711
 6333SOL    HW119898   5.156   0.202   5.672
 6333SOL    HW219899   5.004   0.144   5.685
 6334SOL     OW19900   3.112   0.846   2.128
 6334SOL    HW119901   3.040   0.902   2.087
 6334SOL    HW219902   3.151   0.895   2.206
 6335SOL     OW19903   3.908   0.677   0.267
 6335SOL    HW119904   3.878   0.588   0.233
 6335SOL    HW219905   3.896   0.680   0.367
 6336SOL     OW19906   0.530   1.977   6.349
 6336SOL    HW119907   0.535   2.007   6.254
 6336SOL    HW219908   0.529   2.056   6.410
 6337SOL     OW19909   3.835   5.057   4.807
 6337SOL    HW119910   3.760   5.040   4.743
 6337SOL    HW219911   3.801   5.108   4.886
 6338SOL     OW19912   2.540   2.569   4.384
 6338SOL    HW119913   2.567   2.550   4.289
 6338SOL    HW219914   2.476   2.646   4.386
 6339SOL     OW19915   0.586   3.256   4.210
 6339SOL    HW119916   0.508   3.286   4.265
 6339SOL    HW219917   0.567   3.165   4.173
 6340SOL     OW19918   2.857   4.276   1.042
 6340SOL    HW119919   2.818   4.368   1.051
 6340SOL    HW219920   2.831   4.221   1.122
 6341SOL     OW19921   6.556   3.268   4.639
 6341SOL    HW119922   6.465   3.282   4.679
 6341SOL    HW219923   6.615   3.346   4.662
 6342SOL     OW19924   2.710   1.665   1.265
 6342SOL    HW119925   2.681   1.684   1.358
 6342SOL    HW219926   2.809   1.676   1.257
 6343SOL     OW19927   3.786   0.433   6.672
 6343SOL    HW119928   3.851   0.439   6.597
 6343SOL    HW219929   3.729   0.352   6.661
 6344SOL     OW19930   4.771   2.301   3.914
 6344SOL    HW119931   4.828   2.369   3.960
 6344SOL    HW219932   4.700   2.269   3.977
 6345SOL     OW19933   4.909   2.549   1.845
 6345SOL    HW119934   4.904   2.449   1.841
 6345SOL    HW219935   5.002   2.578   1.865
 6346SOL     OW19936   0.125   5.230   4.836
 6346SOL    HW119937   0.114   5.322   4.873
 6346SOL    HW219938   0.074   5.223   4.750
 6347SOL     OW19939   1.664   1.633   0.655
 6347SOL    HW119940   1.569   1.617   0.682
 6347SOL    HW219941   1.667   1.659   0.558
 6348SOL     OW19942   1.414   2.859   6.946
 6348SOL    HW119943   1.351   2.788   6.980
 6348SOL    HW219944   1.390   2.883   6.853
 6349SOL     OW19945   1.983   1.265   0.954
 6349SOL    HW119946   2.019   1.355   0.977
 6349SOL    HW219947   1.936   1.227   1.034
 6350SOL     OW19948   0.750   5.406   4.265
 6350SOL    HW119949   0.819   5.385   4.196
 6350SOL    HW219950   0.684   5.331   4.271
 6351SOL     OW19951   5.923   3.272   3.729
 6351SOL    HW119952   5.952   3.367   3.718
 6351SOL    HW219953   5.941   3.242   3.822
 6352SOL     OW19954   3.181   0.309   4.772
 6352SOL    HW119955   3.131   0.368   4.836
 6352SOL    HW219956   3.276   0.338   4.766
 6353SOL     OW19957   1.057   6.002   5.607
 6353SOL    HW119958   0.960   5.983   5.594
 6353SOL    HW219959   1.070   6.050   5.694
 6354SOL     OW19960   3.491   6.085   2.715
 6354SOL    HW119961   3.427   6.034   2.773
 6354SOL    HW219962   3.451   6.174   2.692
 6355SOL     OW19963   2.725   5.721   6.706
 6355SOL    HW119964   2.645   5.683   6.751
 6355SOL    HW219965   2.808   5.678   6.742
 6356SOL     OW19966   5.734   4.767   0.885
 6356SOL    HW119967   5.658   4.827   0.909
 6356SOL    HW219968   5.806   4.777   0.953
 6357SOL     OW19969   5.770   3.447   2.491
 6357SOL    HW119970   5.690   3.466   2.548
 6357SOL    HW219971   5.833   3.388   2.541
 6358SOL     OW19972   0.234   1.865   6.139
 6358SOL    HW119973   0.318   1.853   6.192
 6358SOL    HW219974   0.157   1.881   6.202
 6359SOL     OW19975   5.955   6.926   7.001
 6359SOL    HW119976   5.982   6.995   6.933
 6359SOL    HW219977   5.895   6.968   0.043
 6360SOL     OW19978   1.127   3.829   5.006
 6360SOL    HW119979   1.081   3.876   5.081
 6360SOL    HW219980   1.079   3.744   4.984
 6361SOL     OW19981   1.129   0.810   0.989
 6361SOL    HW119982   1.208   0.854   0.946
 6361SOL    HW219983   1.088   0.747   0.923
 6362SOL     OW19984   0.416   5.531   5.956
 6362SOL    HW119985   0.411   5.548   6.055
 6362SOL    HW219986   0.452   5.612   5.910
 6363SOL     OW19987   2.466   5.790   3.468
 6363SOL    HW119988   2.477   5.716   3.534
 6363SOL    HW219989   2.370   5.797   3.441
 6364SOL     OW19990   2.799   2.375   5.536
 6364SOL    HW119991   2.707   2.393   5.503
 6364SOL    HW219992   2.865   2.387   5.461
 6365SOL     OW19993   4.774   6.369   3.983
 6365SOL    HW119994   4.843   6.434   3.951
 6365SOL    HW219995   4.792   6.279   3.944
 6366SOL     OW19996   0.817   5.727   5.171
 6366SOL    HW119997   0.855   5.670   5.244
 6366SOL    HW219998   0.876   5.806   5.155
 6367SOL     OW19999   3.724   2.145   3.442
 6367SOL    HW120000   3.786   2.109   3.513
 6367SOL    HW220001   3.629   2.129   3.469
 6368SOL     OW20002   3.702   4.887   4.224
 6368SOL    HW120003   3.775   4.859   4.162
 6368SOL    HW220004   3.729   4.870   4.319
 6369SOL     OW20005   1.512   0.695   4.679
 6369SOL    HW120006   1.604   0.724   4.707
 6369SOL    HW220007   1.470   0.641   4.751
 6370SOL     OW20008   5.329   3.766   3.588
 6370SOL    HW120009   5.239   3.783   3.629
 6370SOL    HW220010   5.318   3.750   3.490
 6371SOL     OW20011   5.668   4.511   3.121
 6371SOL    HW120012   5.653   4.529   3.218
 6371SOL    HW220013   5.580   4.502   3.074
 6372SOL     OW20014   1.380   1.043   2.051
 6372SOL    HW120015   1.367   0.997   2.138
 6372SOL    HW220016   1.308   1.015   1.987
 6373SOL     OW20017   5.223   4.608   2.868
 6373SOL    HW120018   5.191   4.702   2.879
 6373SOL    HW220019   5.165   4.560   2.802
 6374SOL     OW20020   4.163   3.244   1.410
 6374SOL    HW120021   4.253   3.203   1.404
 6374SOL    HW220022   4.158   3.303   1.491
 6375SOL     OW20023   0.157   2.425   2.469
 6375SOL    HW120024   0.143   2.392   2.562
 6375SOL    HW220025   0.116   2.516   2.460
 6376SOL     OW20026   4.781   2.081   6.647
 6376SOL    HW120027   4.750   2.000   6.696
 6376SOL    HW220028   4.819   2.053   6.559
 6377SOL     OW20029   6.325   1.474   5.163
 6377SOL    HW120030   6.261   1.529   5.217
 6377SOL    HW220031   6.307   1.488   5.066
 6378SOL     OW20032   5.471   5.012   3.430
 6378SOL    HW120033   5.561   4.974   3.452
 6378SOL    HW220034   5.480   5.078   3.355
 6379SOL     OW20035   0.289   3.838   4.753
 6379SOL    HW120036   0.244   3.911   4.806
 6379SOL    HW220037   0.257   3.749   4.785
 6380SOL     OW20038   0.042   1.684   4.981
 6380SOL    HW120039   7.016   1.754   4.932
 6380SOL    HW220040   0.140   1.705   4.977
 6381SOL     OW20041   4.187   3.080   1.045
 6381SOL    HW120042   4.224   3.161   0.999
 6381SOL    HW220043   4.262   3.030   1.089
 6382SOL     OW20044   3.295   1.527   0.187
 6382SOL    HW120045   3.347   1.610   0.166
 6382SOL    HW220046   3.238   1.502   0.109
 6383SOL     OW20047   2.240   2.334   2.488
 6383SOL    HW120048   2.170   2.304   2.424
 6383SOL    HW220049   2.256   2.432   2.477
 6384SOL     OW20050   5.732   3.868   2.959
 6384SOL    HW120051   5.825   3.897   2.935
 6384SOL    HW220052   5.672   3.887   2.881
 6385SOL     OW20053   6.656   3.632   3.455
 6385SOL    HW120054   6.721   3.683   3.512
 6385SOL    HW220055   6.570   3.684   3.449
 6386SOL     OW20056   2.739   3.378   6.459
 6386SOL    HW120057   2.665   3.311   6.460
 6386SOL    HW220058   2.739   3.428   6.546
 6387SOL     OW20059   6.552   1.657   6.981
 6387SOL    HW120060   6.566   1.748   7.021
 6387SOL    HW220061   6.487   1.606   0.011
 6388SOL     OW20062   5.194   5.912   1.041
 6388SOL    HW120063   5.227   5.903   0.946
 6388SOL    HW220064   5.125   5.985   1.045
 6389SOL     OW20065   0.540   6.727   0.698
 6389SOL    HW120066   0.452   6.764   0.728
 6389SOL    HW220067   0.588   6.686   0.775
 6390SOL     OW20068   6.375   0.549   5.301
 6390SOL    HW120069   6.425   0.617   5.248
 6390SOL    HW220070   6.334   0.482   5.240
 6391SOL     OW20071   1.918   0.784   6.495
 6391SOL    HW120072   2.003   0.738   6.520
 6391SOL    HW220073   1.875   0.822   6.577
 6392SOL     OW20074   3.061   4.830   2.769
 6392SOL    HW120075   3.001   4.768   2.717
 6392SOL    HW220076   3.046   4.816   2.867
 6393SOL     OW20077   0.226   6.118   2.003
 6393SOL    HW120078   0.320   6.153   2.012
 6393SOL    HW220079   0.162   6.187   2.039
 6394SOL     OW20080   1.446   5.322   0.925
 6394SOL    HW120081   1.353   5.284   0.917
 6394SOL    HW220082   1.441   5.416   0.958
 6395SOL     OW20083   6.945   3.063   1.541
 6395SOL    HW120084   6.860   3.102   1.578
 6395SOL    HW220085   6.971   2.984   1.595
 6396SOL     OW20086   6.442   3.470   6.398
 6396SOL    HW120087   6.439   3.405   6.474
 6396SOL    HW220088   6.349   3.490   6.367
 6397SOL     OW20089   5.577   1.148   1.532
 6397SOL    HW120090   5.670   1.183   1.522
 6397SOL    HW220091   5.517   1.221   1.564
 6398SOL     OW20092   2.951   6.556   1.845
 6398SOL    HW120093   2.864   6.520   1.812
 6398SOL    HW220094   2.955   6.654   1.828
 6399SOL     OW20095   1.560   0.689   6.942
 6399SOL    HW120096   1.653   0.694   6.977
 6399SOL    HW220097   1.519   0.602   6.969
 6400SOL     OW20098   2.046   4.962   2.541
 6400SOL    HW120099   2.093   5.040   2.584
 6400SOL    HW220100   2.106   4.921   2.473
 6401SOL     OW20101   5.530   5.326   2.940
 6401SOL    HW120102   5.502   5.395   3.007
 6401SOL    HW220103   5.629   5.327   2.931
 6402SOL     OW20104   2.126   3.169   3.506
 6402SOL    HW120105   2.071   3.249   3.528
 6402SOL    HW220106   2.214   3.175   3.553
 6403SOL     OW20107   5.876   6.187   5.626
 6403SOL    HW120108   5.941   6.229   5.563
 6403SOL    HW220109   5.796   6.245   5.636
 6404SOL     OW20110   4.198   1.101   2.545
 6404SOL    HW120111   4.116   1.123   2.599
 6404SOL    HW220112   4.259   1.180   2.543
 6405SOL     OW20113   4.275   0.715   4.232
 6405SOL    HW120114   4.291   0.633   4.177
 6405SOL    HW220115   4.219   0.779   4.180
 6406SOL     OW20116   0.664   2.866   2.811
 6406SOL    HW120117   0.742   2.898   2.865
 6406SOL    HW220118   0.672   2.901   2.718
 6407SOL     OW20119   2.482   0.097   4.744
 6407SOL    HW120120   2.568   0.049   4.755
 6407SOL    HW220121   2.488   0.158   4.664
 6408SOL     OW20122   4.932   1.530   1.104
 6408SOL    HW120123   4.958   1.513   1.009
 6408SOL    HW220124   4.941   1.628   1.124
 6409SOL     OW20125   6.580   4.314   3.321
 6409SOL    HW120126   6.634   4.385   3.367
 6409SOL    HW220127   6.640   4.257   3.265
 6410SOL     OW20128   1.793   1.349   6.024
 6410SOL    HW120129   1.776   1.430   5.969
 6410SOL    HW220130   1.892   1.335   6.035
 6411SOL     OW20131   0.680   2.532   2.498
 6411SOL    HW120132   0.701   2.609   2.559
 6411SOL    HW220133   0.612   2.561   2.430
 6412SOL     OW20134   1.918   0.905   5.876
 6412SOL    HW120135   1.962   0.957   5.804
 6412SOL    HW220136   1.985   0.884   5.948
 6413SOL     OW20137   3.860   4.854   3.998
 6413SOL    HW120138   3.799   4.879   3.923
 6413SOL    HW220139   3.928   4.789   3.966
 6414SOL     OW20140   5.020   0.854   6.770
 6414SOL    HW120141   5.107   0.903   6.783
 6414SOL    HW220142   5.034   0.757   6.785
 6415SOL     OW20143   1.613   3.126   4.114
 6415SOL    HW120144   1.582   3.058   4.181
 6415SOL    HW220145   1.683   3.086   4.055
 6416SOL     OW20146   2.442   6.725   6.308
 6416SOL    HW120147   2.422   6.655   6.377
 6416SOL    HW220148   2.454   6.681   6.219
 6417SOL     OW20149   5.998   3.975   0.441
 6417SOL    HW120150   5.910   4.013   0.411
 6417SOL    HW220151   6.041   3.928   0.365
 6418SOL     OW20152   4.851   4.018   3.132
 6418SOL    HW120153   4.796   4.034   3.050
 6418SOL    HW220154   4.810   4.067   3.210
 6419SOL     OW20155   1.443   5.354   3.086
 6419SOL    HW120156   1.360   5.409   3.076
 6419SOL    HW220157   1.477   5.329   2.996
 6420SOL     OW20158   2.690   0.800   4.243
 6420SOL    HW120159   2.777   0.850   4.236
 6420SOL    HW220160   2.615   0.859   4.214
 6421SOL     OW20161   4.941   0.231   1.761
 6421SOL    HW120162   4.953   0.263   1.667
 6421SOL    HW220163   5.025   0.247   1.813
 6422SOL     OW20164   6.520   1.210   4.938
 6422SOL    HW120165   6.599   1.272   4.946
 6422SOL    HW220166   6.552   1.116   4.933
 6423SOL     OW20167   5.229   5.095   4.235
 6423SOL    HW120168   5.231   5.022   4.303
 6423SOL    HW220169   5.286   5.171   4.266
 6424SOL     OW20170   0.477   3.823   4.543
 6424SOL    HW120171   0.413   3.838   4.618
 6424SOL    HW220172   0.434   3.849   4.456
 6425SOL     OW20173   6.827   6.072   2.835
 6425SOL    HW120174   6.764   6.031   2.768
 6425SOL    HW220175   6.798   6.166   2.854
 6426SOL     OW20176   7.022   5.350   2.989
 6426SOL    HW120177   6.931   5.385   3.013
 6426SOL    HW220178   0.066   5.414   3.023
 6427SOL     OW20179   3.724   4.072   3.646
 6427SOL    HW120180   3.648   4.032   3.595
 6427SOL    HW220181   3.689   4.118   3.728
 6428SOL     OW20182   6.051   3.496   0.370
 6428SOL    HW120183   5.991   3.456   0.440
 6428SOL    HW220184   6.031   3.455   0.281
 6429SOL     OW20185   6.934   0.641   5.782
 6429SOL    HW120186   7.024   0.684   5.781
 6429SOL    HW220187   6.864   0.711   5.770
 6430SOL     OW20188   6.576   1.277   3.843
 6430SOL    HW120189   6.638   1.356   3.847
 6430SOL    HW220190   6.505   1.287   3.912
 6431SOL     OW20191   3.871   6.134   3.705
 6431SOL    HW120192   3.801   6.171   3.644
 6431SOL    HW220193   3.908   6.050   3.665
 6432SOL     OW20194   4.377   4.870   5.645
 6432SOL    HW120195   4.339   4.962   5.652
 6432SOL    HW220196   4.368   4.823   5.733
 6433SOL     OW20197   2.592   5.034   6.422
 6433SOL    HW120198   2.528   5.094   6.374
 6433SOL    HW220199   2.628   4.966   6.359
 6434SOL     OW20200   3.147   0.121   6.436
 6434SOL    HW120201   3.138   0.078   6.525
 6434SOL    HW220202   3.208   0.199   6.442
 6435SOL     OW20203   5.887   6.908   0.735
 6435SOL    HW120204   5.892   7.007   0.728
 6435SOL    HW220205   5.800   6.882   0.779
 6436SOL     OW20206   1.354   3.478   2.709
 6436SOL    HW120207   1.371   3.393   2.760
 6436SOL    HW220208   1.375   3.556   2.768
 6437SOL     OW20209   1.626   2.258   0.653
 6437SOL    HW120210   1.556   2.301   0.596
 6437SOL    HW220211   1.639   2.163   0.624
 6438SOL     OW20212   0.383   4.450   5.435
 6438SOL    HW120213   0.452   4.380   5.452
 6438SOL    HW220214   0.313   4.446   5.506
 6439SOL     OW20215   5.245   0.852   2.064
 6439SOL    HW120216   5.204   0.903   1.989
 6439SOL    HW220217   5.175   0.802   2.114
 6440SOL     OW20218   2.465   1.567   5.748
 6440SOL    HW120219   2.397   1.572   5.675
 6440SOL    HW220220   2.458   1.479   5.794
 6441SOL     OW20221   0.507   0.852   1.185
 6441SOL    HW120222   0.569   0.930   1.189
 6441SOL    HW220223   0.461   0.841   1.273
 6442SOL     OW20224   2.705   1.749   5.259
 6442SOL    HW120225   2.733   1.785   5.348
 6442SOL    HW220226   2.787   1.724   5.207
 6443SOL     OW20227   3.326   3.037   5.524
 6443SOL    HW120228   3.356   3.128   5.494
 6443SOL    HW220229   3.400   2.971   5.508
 6444SOL     OW20230   5.403   2.780   4.819
 6444SOL    HW120231   5.450   2.702   4.861
 6444SOL    HW220232   5.465   2.827   4.756
 6445SOL     OW20233   4.165   3.458   3.374
 6445SOL    HW120234   4.250   3.405   3.375
 6445SOL    HW220235   4.095   3.408   3.424
 6446SOL     OW20236   0.754   1.888   0.218
 6446SOL    HW120237   0.692   1.818   0.183
 6446SOL    HW220238   0.734   1.904   0.315
 6447SOL     OW20239   6.988   4.322   2.989
 6447SOL    HW120240   7.007   4.227   3.014
 6447SOL    HW220241   0.044   4.364   2.951
 6448SOL     OW20242   5.046   5.125   1.207
 6448SOL    HW120243   5.107   5.175   1.269
 6448SOL    HW220244   4.957   5.113   1.250
 6449SOL     OW20245   3.532   5.699   1.666
 6449SOL    HW120246   3.601   5.757   1.710
 6449SOL    HW220247   3.493   5.637   1.734
 6450SOL     OW20248   1.562   2.750   0.823
 6450SOL    HW120249   1.523   2.830   0.867
 6450SOL    HW220250   1.662   2.754   0.828
 6451SOL     OW20251   2.411   0.565   6.102
 6451SOL    HW120252   2.335   0.577   6.166
 6451SOL    HW220253   2.378   0.583   6.009
 6452SOL     OW20254   4.719   4.078   2.910
 6452SOL    HW120255   4.712   4.003   2.844
 6452SOL    HW220256   4.717   4.165   2.861
 6453SOL     OW20257   2.151   6.919   1.841
 6453SOL    HW120258   2.176   6.842   1.900
 6453SOL    HW220259   2.176   6.897   1.746
 6454SOL     OW20260   1.268   1.301   2.928
 6454SOL    HW120261   1.254   1.337   3.021
 6454SOL    HW220262   1.340   1.233   2.930
 6455SOL     OW20263   6.921   3.148   3.998
 6455SOL    HW120264   6.858   3.116   4.069
 6455SOL    HW220265   6.886   3.120   3.908
 6456SOL     OW20266   1.380   1.466   3.607
 6456SOL    HW120267   1.335   1.378   3.592
 6456SOL    HW220268   1.460   1.473   3.548
 6457SOL     OW20269   5.173   0.380   1.846
 6457SOL    HW120270   5.116   0.434   1.784
 6457SOL    HW220271   5.204   0.438   1.921
 6458SOL     OW20272   1.431   5.347   4.103
 6458SOL    HW120273   1.423   5.345   4.004
 6458SOL    HW220274   1.341   5.358   4.144
 6459SOL     OW20275   6.482   3.107   1.912
 6459SOL    HW120276   6.458   3.168   1.836
 6459SOL    HW220277   6.537   3.157   1.979
 6460SOL     OW20278   5.739   5.759   6.391
 6460SOL    HW120279   5.770   5.768   6.485
 6460SOL    HW220280   5.742   5.663   6.363
 6461SOL     OW20281   2.454   4.220   6.997
 6461SOL    HW120282   2.381   4.160   0.004
 6461SOL    HW220283   2.435   4.247   6.902
 6462SOL     OW20284   1.509   3.198   4.466
 6462SOL    HW120285   1.445   3.233   4.535
 6462SOL    HW220286   1.589   3.257   4.462
 6463SOL     OW20287   5.649   0.918   0.798
 6463SOL    HW120288   5.612   0.999   0.844
 6463SOL    HW220289   5.734   0.890   0.842
 6464SOL     OW20290   1.799   5.319   5.417
 6464SOL    HW120291   1.710   5.365   5.416
 6464SOL    HW220292   1.785   5.220   5.406
 6465SOL     OW20293   6.787   3.245   2.544
 6465SOL    HW120294   6.817   3.149   2.544
 6465SOL    HW220295   6.775   3.276   2.639
 6466SOL     OW20296   6.098   1.718   6.382
 6466SOL    HW120297   6.053   1.629   6.370
 6466SOL    HW220298   6.194   1.710   6.358
 6467SOL     OW20299   3.635   0.306   0.674
 6467SOL    HW120300   3.709   0.332   0.735
 6467SOL    HW220301   3.576   0.385   0.657
 6468SOL     OW20302   2.915   6.068   1.177
 6468SOL    HW120303   2.863   6.128   1.116
 6468SOL    HW220304   2.998   6.115   1.208
 6469SOL     OW20305   3.983   2.211   3.295
 6469SOL    HW120306   3.892   2.210   3.337
 6469SOL    HW220307   4.043   2.270   3.349
 6470SOL     OW20308   5.578   3.022   0.962
 6470SOL    HW120309   5.545   2.963   0.888
 6470SOL    HW220310   5.676   3.008   0.976
 6471SOL     OW20311   0.306   6.128   5.492
 6471SOL    HW120312   0.366   6.055   5.461
 6471SOL    HW220313   0.266   6.104   5.580
 6472SOL     OW20314   6.908   6.133   2.009
 6472SOL    HW120315   6.810   6.112   2.010
 6472SOL    HW220316   6.953   6.078   1.938
 6473SOL     OW20317   2.979   1.897   5.209
 6473SOL    HW120318   2.950   1.986   5.244
 6473SOL    HW220319   3.078   1.888   5.220
 6474SOL     OW20320   4.326   5.749   5.793
 6474SOL    HW120321   4.248   5.778   5.848
 6474SOL    HW220322   4.323   5.794   5.704
 6475SOL     OW20323   5.972   4.599   3.639
 6475SOL    HW120324   5.933   4.611   3.548
 6475SOL    HW220325   5.960   4.682   3.693
 6476SOL     OW20326   5.270   2.851   0.776
 6476SOL    HW120327   5.364   2.818   0.771
 6476SOL    HW220328   5.236   2.869   0.683
 6477SOL     OW20329   6.469   5.300   0.358
 6477SOL    HW120330   6.374   5.292   0.326
 6477SOL    HW220331   6.515   5.211   0.350
 6478SOL     OW20332   3.792   6.341   2.466
 6478SOL    HW120333   3.815   6.270   2.400
 6478SOL    HW220334   3.740   6.413   2.421
 6479SOL     OW20335   3.980   5.545   3.999
 6479SOL    HW120336   4.067   5.523   3.954
 6479SOL    HW220337   3.998   5.593   4.085
 6480SOL     OW20338   2.446   1.380   0.138
 6480SOL    HW120339   2.493   1.405   0.222
 6480SOL    HW220340   2.484   1.295   0.103
 6481SOL     OW20341   3.290   2.047   2.116
 6481SOL    HW120342   3.244   1.958   2.115
 6481SOL    HW220343   3.345   2.054   2.199
 6482SOL     OW20344   6.470   1.868   6.380
 6482SOL    HW120345   6.425   1.918   6.307
 6482SOL    HW220346   6.450   1.771   6.372
 6483SOL     OW20347   7.010   0.114   3.389
 6483SOL    HW120348   6.960   0.070   3.314
 6483SOL    HW220349   6.944   0.156   3.452
 6484SOL     OW20350   3.689   0.495   2.085
 6484SOL    HW120351   3.604   0.546   2.099
 6484SOL    HW220352   3.673   0.398   2.102
 6485SOL     OW20353   1.988   5.092   3.871
 6485SOL    HW120354   1.988   5.005   3.822
 6485SOL    HW220355   2.062   5.150   3.837
 6486SOL     OW20356   0.793   4.713   2.338
 6486SOL    HW120357   0.869   4.718   2.274
 6486SOL    HW220358   0.737   4.632   2.316
 6487SOL     OW20359   1.312   6.676   5.661
 6487SOL    HW120360   1.244   6.749   5.673
 6487SOL    HW220361   1.341   6.672   5.566
 6488SOL     OW20362   3.893   6.180   4.337
 6488SOL    HW120363   3.825   6.220   4.399
 6488SOL    HW220364   3.984   6.194   4.375
 6489SOL     OW20365   3.399   3.608   6.397
 6489SOL    HW120366   3.412   3.665   6.478
 6489SOL    HW220367   3.442   3.519   6.411
 6490SOL     OW20368   4.285   1.375   6.459
 6490SOL    HW120369   4.319   1.442   6.526
 6490SOL    HW220370   4.205   1.413   6.413
 6491SOL     OW20371   2.984   0.380   1.277
 6491SOL    HW120372   2.975   0.478   1.297
 6491SOL    HW220373   2.935   0.358   1.194
 6492SOL     OW20374   3.473   4.187   5.667
 6492SOL    HW120375   3.495   4.258   5.734
 6492SOL    HW220376   3.546   4.183   5.598
 6493SOL     OW20377   1.526   4.394   6.091
 6493SOL    HW120378   1.609   4.344   6.068
 6493SOL    HW220379   1.476   4.344   6.161
 6494SOL     OW20380   6.807   0.159   2.911
 6494SOL    HW120381   6.833   0.109   2.829
 6494SOL    HW220382   6.745   0.234   2.887
 6495SOL     OW20383   6.693   0.488   4.497
 6495SOL    HW120384   6.679   0.585   4.516
 6495SOL    HW220385   6.671   0.469   4.401
 6496SOL     OW20386   5.896   0.809   2.821
 6496SOL    HW120387   5.852   0.874   2.760
 6496SOL    HW220388   5.910   0.722   2.773
 6497SOL     OW20389   1.009   0.572   1.487
 6497SOL    HW120390   1.007   0.643   1.417
 6497SOL    HW220391   0.959   0.492   1.454
 6498SOL     OW20392   1.304   2.985   4.913
 6498SOL    HW120393   1.275   3.063   4.969
 6498SOL    HW220394   1.303   3.012   4.817
 6499SOL     OW20395   5.324   4.277   5.499
 6499SOL    HW120396   5.404   4.218   5.484
 6499SOL    HW220397   5.241   4.226   5.476
 6500SOL     OW20398   6.631   3.803   3.888
 6500SOL    HW120399   6.664   3.710   3.903
 6500SOL    HW220400   6.591   3.838   3.973
 6501SOL     OW20401   6.650   0.930   0.050
 6501SOL    HW120402   6.668   1.028   0.052
 6501SOL    HW220403   6.736   0.880   0.056
 6502SOL     OW20404   6.696   3.681   2.263
 6502SOL    HW120405   6.657   3.657   2.174
 6502SOL    HW220406   6.737   3.601   2.305
 6503SOL     OW20407   5.222   1.395   3.809
 6503SOL    HW120408   5.309   1.420   3.767
 6503SOL    HW220409   5.240   1.340   3.891
 6504SOL     OW20410   3.723   6.517   6.307
 6504SOL    HW120411   3.635   6.470   6.318
 6504SOL    HW220412   3.714   6.611   6.339
 6505SOL     OW20413   5.054   5.955   6.153
 6505SOL    HW120414   5.042   6.046   6.193
 6505SOL    HW220415   5.072   5.889   6.227
 6506SOL     OW20416   0.293   2.793   3.200
 6506SOL    HW120417   0.315   2.782   3.103
 6506SOL    HW220418   0.195   2.804   3.211
 6507SOL     OW20419   2.399   5.571   6.655
 6507SOL    HW120420   2.395   5.580   6.555
 6507SOL    HW220421   2.474   5.510   6.679
 6508SOL     OW20422   1.620   0.447   3.076
 6508SOL    HW120423   1.565   0.433   3.158
 6508SOL    HW220424   1.586   0.527   3.026
 6509SOL     OW20425   4.470   2.019   4.607
 6509SOL    HW120426   4.441   2.009   4.702
 6509SOL    HW220427   4.416   1.958   4.549
 6510SOL     OW20428   6.033   5.499   0.156
 6510SOL    HW120429   6.105   5.431   0.169
 6510SOL    HW220430   5.944   5.456   0.174
 6511SOL     OW20431   4.122   0.454   4.192
 6511SOL    HW120432   4.051   0.424   4.129
 6511SOL    HW220433   4.136   0.383   4.262
 6512SOL     OW20434   3.707   6.248   2.041
 6512SOL    HW120435   3.615   6.287   2.052
 6512SOL    HW220436   3.729   6.240   1.944
 6513SOL     OW20437   2.369   5.241   3.026
 6513SOL    HW120438   2.396   5.312   3.090
 6513SOL    HW220439   2.334   5.283   2.943
 6514SOL     OW20440   5.648   1.445   4.550
 6514SOL    HW120441   5.740   1.406   4.541
 6514SOL    HW220442   5.600   1.437   4.463
 6515SOL     OW20443   1.154   3.851   3.522
 6515SOL    HW120444   1.113   3.816   3.606
 6515SOL    HW220445   1.156   3.779   3.453
 6516SOL     OW20446   0.532   2.916   1.690
 6516SOL    HW120447   0.519   2.996   1.749
 6516SOL    HW220448   0.498   2.834   1.737
 6517SOL     OW20449   0.035   1.497   1.905
 6517SOL    HW120450   0.046   1.402   1.933
 6517SOL    HW220451   0.084   1.513   1.819
 6518SOL     OW20452   0.178   0.074   0.882
 6518SOL    HW120453   0.126   0.074   0.967
 6518SOL    HW220454   0.115   0.068   0.805
 6519SOL     OW20455   1.030   1.818   2.760
 6519SOL    HW120456   1.077   1.730   2.759
 6519SOL    HW220457   0.976   1.828   2.676
 6520SOL     OW20458   6.994   5.489   6.755
 6520SOL    HW120459   6.993   5.578   6.710
 6520SOL    HW220460   6.901   5.464   6.782
 6521SOL     OW20461   1.852   2.504   4.275
 6521SOL    HW120462   1.915   2.516   4.352
 6521SOL    HW220463   1.882   2.428   4.218
 6522SOL     OW20464   3.062   4.720   5.500
 6522SOL    HW120465   3.100   4.689   5.588
 6522SOL    HW220466   2.965   4.695   5.495
 6523SOL     OW20467   3.875   1.097   6.843
 6523SOL    HW120468   3.779   1.101   6.817
 6523SOL    HW220469   3.890   1.149   6.926
 6524SOL     OW20470   2.495   3.473   1.294
 6524SOL    HW120471   2.396   3.482   1.282
 6524SOL    HW220472   2.514   3.446   1.388
 6525SOL     OW20473   2.290   4.619   2.683
 6525SOL    HW120474   2.297   4.644   2.587
 6525SOL    HW220475   2.376   4.577   2.714
 6526SOL     OW20476   1.879   0.684   1.641
 6526SOL    HW120477   1.917   0.713   1.553
 6526SOL    HW220478   1.828   0.760   1.681
 6527SOL     OW20479   6.629   1.638   6.250
 6527SOL    HW120480   6.643   1.659   6.153
 6527SOL    HW220481   6.707   1.586   6.285
 6528SOL     OW20482   5.745   1.810   5.168
 6528SOL    HW120483   5.645   1.818   5.173
 6528SOL    HW220484   5.772   1.716   5.187
 6529SOL     OW20485   2.031   0.507   2.681
 6529SOL    HW120486   2.067   0.415   2.671
 6529SOL    HW220487   1.936   0.509   2.649
 6530SOL     OW20488   6.442   1.746   0.981
 6530SOL    HW120489   6.439   1.758   1.080
 6530SOL    HW220490   6.360   1.698   0.951
 6531SOL     OW20491   5.035   3.403   4.796
 6531SOL    HW120492   4.990   3.407   4.885
 6531SOL    HW220493   5.094   3.483   4.785
 6532SOL     OW20494   0.432   1.051   1.526
 6532SOL    HW120495   0.499   1.104   1.473
 6532SOL    HW220496   0.412   1.099   1.611
 6533SOL     OW20497   4.658   6.760   0.430
 6533SOL    HW120498   4.580   6.706   0.461
 6533SOL    HW220499   4.682   6.733   0.337
 6534SOL     OW20500   5.011   4.538   1.750
 6534SOL    HW120501   5.090   4.598   1.743
 6534SOL    HW220502   5.031   4.463   1.813
 6535SOL     OW20503   6.965   4.435   3.781
 6535SOL    HW120504   7.009   4.383   3.854
 6535SOL    HW220505   6.941   4.526   3.814
 6536SOL     OW20506   0.398   1.570   5.351
 6536SOL    HW120507   0.363   1.487   5.395
 6536SOL    HW220508   0.496   1.579   5.369
 6537SOL     OW20509   6.951   4.580   0.151
 6537SOL    HW120510   6.921   4.673   0.175
 6537SOL    HW220511   6.922   4.516   0.222
 6538SOL     OW20512   1.866   3.383   5.939
 6538SOL    HW120513   1.854   3.310   6.006
 6538SOL    HW220514   1.805   3.459   5.961
 6539SOL     OW20515   4.901   0.545   6.988
 6539SOL    HW120516   4.961   0.536   6.908
 6539SOL    HW220517   4.852   0.459   7.002
 6540SOL     OW20518   4.207   2.460   6.835
 6540SOL    HW120519   4.236   2.554   6.817
 6540SOL    HW220520   4.266   2.420   6.905
 6541SOL     OW20521   5.119   1.508   5.355
 6541SOL    HW120522   5.050   1.446   5.392
 6541SOL    HW220523   5.168   1.463   5.280
 6542SOL     OW20524   6.950   2.666   3.929
 6542SOL    HW120525   7.011   2.593   3.899
 6542SOL    HW220526   6.873   2.673   3.865
 6543SOL     OW20527   4.170   3.055   5.346
 6543SOL    HW120528   4.166   2.957   5.323
 6543SOL    HW220529   4.079   3.095   5.336
 6544SOL     OW20530   1.665   6.374   3.485
 6544SOL    HW120531   1.696   6.382   3.390
 6544SOL    HW220532   1.597   6.445   3.503
 6545SOL     OW20533   4.447   0.182   1.203
 6545SOL    HW120534   4.525   0.125   1.177
 6545SOL    HW220535   4.452   0.270   1.156
 6546SOL     OW20536   2.538   4.614   6.240
 6546SOL    HW120537   2.543   4.672   6.159
 6546SOL    HW220538   2.630   4.599   6.276
 6547SOL     OW20539   4.414   1.096   0.140
 6547SOL    HW120540   4.339   1.157   0.164
 6547SOL    HW220541   4.402   1.062   0.046
 6548SOL     OW20542   1.089   3.710   1.027
 6548SOL    HW120543   1.178   3.721   0.983
 6548SOL    HW220544   1.048   3.800   1.042
 6549SOL     OW20545   4.763   1.015   1.781
 6549SOL    HW120546   4.770   0.967   1.868
 6549SOL    HW220547   4.679   0.985   1.734
 6550SOL     OW20548   0.039   6.713   3.896
 6550SOL    HW120549   0.043   6.813   3.888
 6550SOL    HW220550   0.098   6.671   3.827
 6551SOL     OW20551   1.873   4.056   1.682
 6551SOL    HW120552   1.810   4.134   1.685
 6551SOL    HW220553   1.876   4.011   1.771
 6552SOL     OW20554   1.285   0.246   0.315
 6552SOL    HW120555   1.372   0.229   0.268
 6552SOL    HW220556   1.301   0.263   0.412
 6553SOL     OW20557   6.881   2.096   3.611
 6553SOL    HW120558   6.893   2.190   3.579
 6553SOL    HW220559   6.949   2.036   3.567
 6554SOL     OW20560   0.807   0.154   4.275
 6554SOL    HW120561   0.901   0.124   4.287
 6554SOL    HW220562   0.805   0.248   4.241
 6555SOL     OW20563   4.970   2.217   3.083
 6555SOL    HW120564   4.923   2.305   3.077
 6555SOL    HW220565   4.976   2.176   2.992
 6556SOL     OW20566   5.708   4.436   3.391
 6556SOL    HW120567   5.711   4.390   3.479
 6556SOL    HW220568   5.668   4.527   3.402
 6557SOL     OW20569   3.224   0.165   2.641
 6557SOL    HW120570   3.141   0.161   2.585
 6557SOL    HW220571   3.263   0.257   2.636
 6558SOL     OW20572   0.059   4.989   0.521
 6558SOL    HW120573   0.121   4.988   0.442
 6558SOL    HW220574   0.105   5.033   0.598
 6559SOL     OW20575   1.171   4.316   0.343
 6559SOL    HW120576   1.270   4.325   0.334
 6559SOL    HW220577   1.141   4.232   0.299
 6560SOL     OW20578   4.436   4.758   1.567
 6560SOL    HW120579   4.478   4.849   1.561
 6560SOL    HW220580   4.499   4.690   1.529
 6561SOL     OW20581   3.236   4.344   1.518
 6561SOL    HW120582   3.229   4.244   1.521
 6561SOL    HW220583   3.145   4.384   1.526
 6562SOL     OW20584   6.365   2.444   0.859
 6562SOL    HW120585   6.429   2.430   0.935
 6562SOL    HW220586   6.409   2.499   0.789
 6563SOL     OW20587   5.098   5.321   6.087
 6563SOL    HW120588   5.046   5.243   6.054
 6563SOL    HW220589   5.196   5.298   6.088
 6564SOL     OW20590   6.730   3.607   2.868
 6564SOL    HW120591   6.783   3.538   2.820
 6564SOL    HW220592   6.700   3.572   2.957
 6565SOL     OW20593   5.337   1.562   2.635
 6565SOL    HW120594   5.283   1.567   2.719
 6565SOL    HW220595   5.434   1.562   2.658
 6566SOL     OW20596   3.990   6.150   1.666
 6566SOL    HW120597   4.023   6.173   1.758
 6566SOL    HW220598   3.995   6.051   1.653
 6567SOL     OW20599   4.639   0.855   2.263
 6567SOL    HW120600   4.543   0.875   2.240
 6567SOL    HW220601   4.699   0.906   2.202
 6568SOL     OW20602   3.225   1.710   4.220
 6568SOL    HW120603   3.321   1.684   4.234
 6568SOL    HW220604   3.220   1.784   4.154
 6569SOL     OW20605   2.592   3.254   0.396
 6569SOL    HW120606   2.580   3.177   0.333
 6569SOL    HW220607   2.597   3.339   0.343
 6570SOL     OW20608   3.076   0.586   2.284
 6570SOL    HW120609   3.026   0.637   2.354
 6570SOL    HW220610   3.115   0.650   2.218
 6571SOL     OW20611   3.182   5.173   1.705
 6571SOL    HW120612   3.280   5.177   1.684
 6571SOL    HW220613   3.158   5.248   1.766
 6572SOL     OW20614   6.544   4.601   4.462
 6572SOL    HW120615   6.487   4.636   4.388
 6572SOL    HW220616   6.552   4.502   4.454
 6573SOL     OW20617   0.992   1.632   2.424
 6573SOL    HW120618   0.983   1.729   2.405
 6573SOL    HW220619   0.931   1.580   2.365
 6574SOL     OW20620   2.263   5.769   2.549
 6574SOL    HW120621   2.326   5.786   2.626
 6574SOL    HW220622   2.280   5.837   2.478
 6575SOL     OW20623   0.590   6.802   3.413
 6575SOL    HW120624   0.613   6.734   3.343
 6575SOL    HW220625   0.673   6.838   3.454
 6576SOL     OW20626   2.257   5.887   0.015
 6576SOL    HW120627   2.221   5.863   6.951
 6576SOL    HW220628   2.260   5.986   0.025
 6577SOL     OW20629   0.700   1.897   3.582
 6577SOL    HW120630   0.646   1.935   3.658
 6577SOL    HW220631   0.797   1.896   3.607
 6578SOL     OW20632   0.685   5.986   3.020
 6578SOL    HW120633   0.765   6.029   2.977
 6578SOL    HW220634   0.610   6.052   3.025
 6579SOL     OW20635   0.476   3.079   3.865
 6579SOL    HW120636   0.412   3.034   3.803
 6579SOL    HW220637   0.479   3.177   3.846
 6580SOL     OW20638   0.450   2.038   0.542
 6580SOL    HW120639   0.409   2.128   0.524
 6580SOL    HW220640   0.438   2.015   0.639
 6581SOL     OW20641   2.555   0.474   0.153
 6581SOL    HW120642   2.501   0.424   0.085
 6581SOL    HW220643   2.652   0.465   0.131
 6582SOL     OW20644   0.055   1.445   3.010
 6582SOL    HW120645   0.024   1.351   2.998
 6582SOL    HW220646   0.145   1.456   2.969
 6583SOL     OW20647   4.463   0.620   5.904
 6583SOL    HW120648   4.389   0.641   5.967
 6583SOL    HW220649   4.447   0.665   5.816
 6584SOL     OW20650   4.463   2.901   0.726
 6584SOL    HW120651   4.484   2.804   0.740
 6584SOL    HW220652   4.364   2.914   0.734
 6585SOL     OW20653   6.209   6.233   0.263
 6585SOL    HW120654   6.223   6.258   0.167
 6585SOL    HW220655   6.211   6.316   0.319
 6586SOL     OW20656   5.718   1.116   5.837
 6586SOL    HW120657   5.768   1.201   5.823
 6586SOL    HW220658   5.681   1.084   5.750
 6587SOL     OW20659   2.009   5.201   5.696
 6587SOL    HW120660   2.031   5.295   5.668
 6587SOL    HW220661   2.068   5.138   5.646
 6588SOL     OW20662   0.242   2.552   2.185
 6588SOL    HW120663   0.170   2.492   2.221
 6588SOL    HW220664   0.226   2.567   2.087
 6589SOL     OW20665   4.680   0.389   1.358
 6589SOL    HW120666   4.632   0.459   1.306
 6589SOL    HW220667   4.615   0.344   1.420
 6590SOL     OW20668   0.219   1.229   6.767
 6590SOL    HW120669   0.254   1.164   6.699
 6590SOL    HW220670   0.125   1.204   6.790
 6591SOL     OW20671   6.422   5.900   2.981
 6591SOL    HW120672   6.432   5.908   2.881
 6591SOL    HW220673   6.439   5.805   3.008
 6592SOL     OW20674   5.342   0.269   3.164
 6592SOL    HW120675   5.430   0.221   3.159
 6592SOL    HW220676   5.269   0.204   3.185
 6593SOL     OW20677   2.150   2.292   2.766
 6593SOL    HW120678   2.080   2.249   2.710
 6593SOL    HW220679   2.173   2.232   2.842
 6594SOL     OW20680   3.721   1.422   6.323
 6594SOL    HW120681   3.770   1.495   6.275
 6594SOL    HW220682   3.638   1.398   6.273
 6595SOL     OW20683   1.049   4.516   0.005
 6595SOL    HW120684   1.026   4.533   6.935
 6595SOL    HW220685   1.111   4.438   0.010
 6596SOL     OW20686   3.316   0.257   4.273
 6596SOL    HW120687   3.398   0.309   4.296
 6596SOL    HW220688   3.329   0.161   4.299
 6597SOL     OW20689   1.107   5.250   1.364
 6597SOL    HW120690   1.014   5.243   1.400
 6597SOL    HW220691   1.173   5.238   1.438
 6598SOL     OW20692   1.682   5.062   4.364
 6598SOL    HW120693   1.673   5.119   4.283
 6598SOL    HW220694   1.758   5.095   4.419
 6599SOL     OW20695   4.149   6.319   6.252
 6599SOL    HW120696   4.179   6.372   6.331
 6599SOL    HW220697   4.057   6.282   6.269
 6600SOL     OW20698   4.021   5.699   5.558
 6600SOL    HW120699   3.980   5.662   5.641
 6600SOL    HW220700   3.955   5.760   5.513
 6601SOL     OW20701   1.659   1.802   4.852
 6601SOL    HW120702   1.673   1.900   4.838
 6601SOL    HW220703   1.634   1.785   4.947
 6602SOL     OW20704   1.907   1.229   2.022
 6602SOL    HW120705   1.834   1.214   1.954
 6602SOL    HW220706   1.904   1.156   2.090
 6603SOL     OW20707   0.273   2.721   3.471
 6603SOL    HW120708   0.308   2.756   3.385
 6603SOL    HW220709   0.173   2.712   3.465
 6604SOL     OW20710   1.329   0.179   1.296
 6604SOL    HW120711   1.423   0.154   1.276
 6604SOL    HW220712   1.269   0.144   1.223
 6605SOL     OW20713   5.883   5.515   1.600
 6605SOL    HW120714   5.909   5.431   1.647
 6605SOL    HW220715   5.831   5.494   1.518
 6606SOL     OW20716   0.448   5.761   2.105
 6606SOL    HW120717   0.538   5.716   2.105
 6606SOL    HW220718   0.392   5.724   2.031
 6607SOL     OW20719   1.936   4.189   2.412
 6607SOL    HW120720   1.979   4.235   2.490
 6607SOL    HW220721   2.002   4.182   2.337
 6608SOL     OW20722   6.702   6.652   0.213
 6608SOL    HW120723   6.656   6.646   0.302
 6608SOL    HW220724   6.751   6.739   0.206
 6609SOL     OW20725   5.285   1.052   0.321
 6609SOL    HW120726   5.308   1.132   0.265
 6609SOL    HW220727   5.271   0.972   0.262
 6610SOL     OW20728   2.543   6.246   0.358
 6610SOL    HW120729   2.617   6.313   0.371
 6610SOL    HW220730   2.478   6.281   0.291
 6611SOL     OW20731   4.885   3.332   2.936
 6611SOL    HW120732   4.946   3.380   2.874
 6611SOL    HW220733   4.823   3.273   2.884
 6612SOL     OW20734   6.264   1.987   0.011
 6612SOL    HW120735   6.245   1.912   6.975
 6612SOL    HW220736   6.215   2.069   7.007
 6613SOL     OW20737   6.859   6.401   5.208
 6613SOL    HW120738   6.796   6.324   5.215
 6613SOL    HW220739   6.864   6.432   5.113
 6614SOL     OW20740   4.110   5.320   6.859
 6614SOL    HW120741   4.193   5.355   6.816
 6614SOL    HW220742   4.131   5.237   6.910
 6615SOL     OW20743   1.617   5.711   1.136
 6615SOL    HW120744   1.587   5.691   1.230
 6615SOL    HW220745   1.553   5.670   1.071
 6616SOL     OW20746   4.690   0.583   6.378
 6616SOL    HW120747   4.660   0.488   6.383
 6616SOL    HW220748   4.641   0.630   6.305
 6617SOL     OW20749   4.616   5.316   3.314
 6617SOL    HW120750   4.661   5.404   3.331
 6617SOL    HW220751   4.517   5.326   3.324
 6618SOL     OW20752   1.646   2.005   2.634
 6618SOL    HW120753   1.653   1.974   2.729
 6618SOL    HW220754   1.587   2.086   2.630
 6619SOL     OW20755   5.340   0.201   3.821
 6619SOL    HW120756   5.286   0.179   3.739
 6619SOL    HW220757   5.296   0.159   3.901
 6620SOL     OW20758   1.350   3.191   5.310
 6620SOL    HW120759   1.257   3.214   5.281
 6620SOL    HW220760   1.403   3.160   5.230
 6621SOL     OW20761   3.300   3.081   6.149
 6621SOL    HW120762   3.286   2.986   6.178
 6621SOL    HW220763   3.295   3.086   6.049
 6622SOL     OW20764   5.768   6.546   2.209
 6622SOL    HW120765   5.714   6.483   2.264
 6622SOL    HW220766   5.707   6.608   2.160
 6623SOL     OW20767   3.556   3.176   5.310
 6623SOL    HW120768   3.557   3.255   5.249
 6623SOL    HW220769   3.520   3.203   5.399
 6624SOL     OW20770   7.003   4.148   5.576
 6624SOL    HW120771   0.048   4.212   5.606
 6624SOL    HW220772   6.947   4.122   5.655
 6625SOL     OW20773   5.204   2.071   5.098
 6625SOL    HW120774   5.285   2.064   5.040
 6625SOL    HW220775   5.189   1.984   5.145
 6626SOL     OW20776   3.832   5.861   5.445
 6626SOL    HW120777   3.763   5.890   5.511
 6626SOL    HW220778   3.885   5.941   5.416
 6627SOL     OW20779   1.849   6.637   5.925
 6627SOL    HW120780   1.922   6.595   5.872
 6627SOL    HW220781   1.766   6.581   5.917
 6628SOL     OW20782   6.053   5.199   4.234
 6628SOL    HW120783   6.062   5.223   4.331
 6628SOL    HW220784   5.992   5.265   4.190
 6629SOL     OW20785   4.590   6.555   6.252
 6629SOL    HW120786   4.671   6.532   6.306
 6629SOL    HW220787   4.619   6.594   6.164
 6630SOL     OW20788   3.489   1.607   0.993
 6630SOL    HW120789   3.469   1.548   1.072
 6630SOL    HW220790   3.426   1.586   0.919
 6631SOL     OW20791   2.466   5.816   3.966
 6631SOL    HW120792   2.494   5.738   3.910
 6631SOL    HW220793   2.437   5.785   4.056
 6632SOL     OW20794   0.931   0.172   1.110
 6632SOL    HW120795   0.928   0.256   1.164
 6632SOL    HW220796   1.010   0.117   1.138
 6633SOL     OW20797   1.659   4.759   6.626
 6633SOL    HW120798   1.574   4.708   6.612
 6633SOL    HW220799   1.673   4.822   6.549
 6634SOL     OW20800   5.001   1.443   5.088
 6634SOL    HW120801   4.915   1.412   5.127
 6634SOL    HW220802   5.005   1.417   4.992
 6635SOL     OW20803   4.599   4.358   3.106
 6635SOL    HW120804   4.545   4.385   3.186
 6635SOL    HW220805   4.601   4.259   3.100
 6636SOL     OW20806   4.952   1.683   6.680
 6636SOL    HW120807   4.990   1.680   6.588
 6636SOL    HW220808   4.861   1.643   6.680
 6637SOL     OW20809   0.172   6.896   6.598
 6637SOL    HW120810   0.107   6.947   6.654
 6637SOL    HW220811   0.234   6.845   6.658
 6638SOL     OW20812   3.241   3.770   3.089
 6638SOL    HW120813   3.298   3.706   3.141
 6638SOL    HW220814   3.296   3.848   3.059
 6639SOL     OW20815   4.797   4.813   6.705
 6639SOL    HW120816   4.729   4.740   6.702
 6639SOL    HW220817   4.779   4.873   6.783
 6640SOL     OW20818   0.031   1.891   4.718
 6640SOL    HW120819   0.126   1.922   4.724
 6640SOL    HW220820   0.029   1.797   4.682
 6641SOL     OW20821   2.400   0.906   6.463
 6641SOL    HW120822   2.308   0.945   6.462
 6641SOL    HW220823   2.465   0.974   6.495
 6642SOL     OW20824   2.001   6.055   6.776
 6642SOL    HW120825   2.066   5.981   6.793
 6642SOL    HW220826   1.948   6.035   6.694
 6643SOL     OW20827   5.508   5.865   0.155
 6643SOL    HW120828   5.459   5.845   0.240
 6643SOL    HW220829   5.606   5.875   0.175
 6644SOL     OW20830   2.332   4.797   1.238
 6644SOL    HW120831   2.373   4.718   1.194
 6644SOL    HW220832   2.393   4.876   1.231
 6645SOL     OW20833   6.136   4.022   0.683
 6645SOL    HW120834   6.111   3.949   0.747
 6645SOL    HW220835   6.073   4.021   0.606
 6646SOL     OW20836   4.521   0.644   5.257
 6646SOL    HW120837   4.579   0.573   5.217
 6646SOL    HW220838   4.526   0.727   5.200
 6647SOL     OW20839   5.154   0.523   1.129
 6647SOL    HW120840   5.125   0.449   1.069
 6647SOL    HW220841   5.084   0.539   1.199
 6648SOL     OW20842   3.086   6.243   3.508
 6648SOL    HW120843   3.099   6.304   3.586
 6648SOL    HW220844   3.060   6.152   3.541
 6649SOL     OW20845   5.485   1.749   6.886
 6649SOL    HW120846   5.471   1.720   6.791
 6649SOL    HW220847   5.544   1.684   6.933
 6650SOL     OW20848   4.048   1.516   5.554
 6650SOL    HW120849   4.024   1.441   5.491
 6650SOL    HW220850   4.138   1.552   5.529
 6651SOL     OW20851   2.846   0.806   6.332
 6651SOL    HW120852   2.749   0.791   6.313
 6651SOL    HW220853   2.898   0.801   6.246
 6652SOL     OW20854   0.468   4.210   6.939
 6652SOL    HW120855   0.534   4.138   6.960
 6652SOL    HW220856   0.503   4.298   6.971
 6653SOL     OW20857   4.033   4.106   1.390
 6653SOL    HW120858   4.080   4.194   1.383
 6653SOL    HW220859   4.056   4.050   1.310
 6654SOL     OW20860   1.629   4.882   1.024
 6654SOL    HW120861   1.532   4.861   1.039
 6654SOL    HW220862   1.670   4.914   1.109
 6655SOL     OW20863   1.048   6.548   3.816
 6655SOL    HW120864   1.010   6.522   3.905
 6655SOL    HW220865   1.002   6.497   3.744
 6656SOL     OW20866   5.010   1.984   3.518
 6656SOL    HW120867   5.050   1.901   3.480
 6656SOL    HW220868   4.934   2.015   3.460
 6657SOL     OW20869   5.968   4.670   6.053
 6657SOL    HW120870   5.925   4.754   6.021
 6657SOL    HW220871   5.946   4.655   6.149
 6658SOL     OW20872   5.794   1.156   4.332
 6658SOL    HW120873   5.699   1.138   4.357
 6658SOL    HW220874   5.798   1.183   4.235
 6659SOL     OW20875   2.274   3.101   0.035
 6659SOL    HW120876   2.319   3.015   0.008
 6659SOL    HW220877   2.300   3.173   6.998
 6660SOL     OW20878   1.330   4.872   1.064
 6660SOL    HW120879   1.329   4.969   1.090
 6660SOL    HW220880   1.310   4.863   0.967
 6661SOL     OW20881   1.695   0.163   5.389
 6661SOL    HW120882   1.730   0.175   5.481
 6661SOL    HW220883   1.767   0.182   5.322
 6662SOL     OW20884   0.905   0.022   0.393
 6662SOL    HW120885   0.829   0.067   0.439
 6662SOL    HW220886   0.880   6.952   0.374
 6663SOL     OW20887   6.504   6.023   4.427
 6663SOL    HW120888   6.472   6.111   4.463
 6663SOL    HW220889   6.570   5.984   4.491
 6664SOL     OW20890   2.323   6.634   0.796
 6664SOL    HW120891   2.305   6.536   0.805
 6664SOL    HW220892   2.386   6.650   0.721
 6665SOL     OW20893   1.519   6.148   4.460
 6665SOL    HW120894   1.497   6.237   4.501
 6665SOL    HW220895   1.444   6.085   4.478
 6666SOL     OW20896   5.875   6.213   6.101
 6666SOL    HW120897   5.945   6.216   6.030
 6666SOL    HW220898   5.917   6.235   6.189
 6667SOL     OW20899   6.075   6.625   6.227
 6667SOL    HW120900   6.136   6.619   6.306
 6667SOL    HW220901   6.130   6.627   6.143
 6668SOL     OW20902   6.779   5.447   0.860
 6668SOL    HW120903   6.782   5.359   0.812
 6668SOL    HW220904   6.811   5.519   0.799
 6669SOL     OW20905   2.294   2.161   2.145
 6669SOL    HW120906   2.358   2.234   2.121
 6669SOL    HW220907   2.322   2.120   2.232
 6670SOL     OW20908   3.116   1.505   5.346
 6670SOL    HW120909   3.095   1.560   5.265
 6670SOL    HW220910   3.215   1.506   5.361
 6671SOL     OW20911   4.900   6.658   0.494
 6671SOL    HW120912   4.900   6.565   0.459
 6671SOL    HW220913   4.814   6.703   0.470
 6672SOL     OW20914   6.595   2.726   6.685
 6672SOL    HW120915   6.521   2.685   6.632
 6672SOL    HW220916   6.658   2.655   6.717
 6673SOL     OW20917   4.632   4.670   3.979
 6673SOL    HW120918   4.626   4.609   3.900
 6673SOL    HW220919   4.664   4.618   4.059
 6674SOL     OW20920   0.799   3.810   6.624
 6674SOL    HW120921   0.819   3.747   6.549
 6674SOL    HW220922   0.735   3.767   6.688
 6675SOL     OW20923   5.919   3.698   0.146
 6675SOL    HW120924   5.982   3.743   0.210
 6675SOL    HW220925   5.940   3.600   0.141
 6676SOL     OW20926   0.966   4.098   5.584
 6676SOL    HW120927   0.934   4.054   5.500
 6676SOL    HW220928   1.027   4.035   5.634
 6677SOL     OW20929   1.167   1.771   6.058
 6677SOL    HW120930   1.111   1.851   6.037
 6677SOL    HW220931   1.109   1.698   6.095
 6678SOL     OW20932   3.066   3.466   6.804
 6678SOL    HW120933   3.018   3.417   6.877
 6678SOL    HW220934   3.058   3.564   6.818
 6679SOL     OW20935   3.397   1.078   4.118
 6679SOL    HW120936   3.449   0.994   4.135
 6679SOL    HW220937   3.417   1.145   4.190
 6680SOL     OW20938   4.750   6.620   6.763
 6680SOL    HW120939   4.716   6.714   6.771
 6680SOL    HW220940   4.774   6.586   6.854
 6681SOL     OW20941   4.241   5.090   1.247
 6681SOL    HW120942   4.315   5.025   1.260
 6681SOL    HW220943   4.235   5.150   1.326
 6682SOL     OW20944   1.702   4.110   1.282
 6682SOL    HW120945   1.755   4.057   1.349
 6682SOL    HW220946   1.699   4.059   1.195
 6683SOL     OW20947   5.661   3.784   5.113
 6683SOL    HW120948   5.654   3.730   5.197
 6683SOL    HW220949   5.583   3.764   5.054
 6684SOL     OW20950   3.235   5.957   1.660
 6684SOL    HW120951   3.315   6.005   1.695
 6684SOL    HW220952   3.188   6.015   1.593
 6685SOL     OW20953   6.070   2.707   5.707
 6685SOL    HW120954   6.142   2.669   5.648
 6685SOL    HW220955   6.085   2.805   5.718
 6686SOL     OW20956   4.893   5.807   3.870
 6686SOL    HW120957   4.850   5.858   3.796
 6686SOL    HW220958   4.962   5.745   3.833
 6687SOL     OW20959   1.064   3.327   1.368
 6687SOL    HW120960   1.161   3.330   1.394
 6687SOL    HW220961   1.047   3.393   1.295
 6688SOL     OW20962   6.265   4.380   1.908
 6688SOL    HW120963   6.330   4.317   1.950
 6688SOL    HW220964   6.220   4.335   1.831
 6689SOL     OW20965   3.728   3.521   6.668
 6689SOL    HW120966   3.774   3.488   6.750
 6689SOL    HW220967   3.630   3.530   6.685
 6690SOL     OW20968   0.476   0.887   0.844
 6690SOL    HW120969   0.441   0.795   0.859
 6690SOL    HW220970   0.405   0.943   0.801
 6691SOL     OW20971   2.702   6.777   2.169
 6691SOL    HW120972   2.603   6.764   2.181
 6691SOL    HW220973   2.726   6.871   2.195
 6692SOL     OW20974   3.549   3.167   3.995
 6692SOL    HW120975   3.625   3.198   3.938
 6692SOL    HW220976   3.570   3.185   4.091
 6693SOL     OW20977   3.753   2.146   5.321
 6693SOL    HW120978   3.753   2.244   5.337
 6693SOL    HW220979   3.661   2.110   5.335
 6694SOL     OW20980   4.557   5.531   1.204
 6694SOL    HW120981   4.539   5.461   1.273
 6694SOL    HW220982   4.523   5.500   1.115
 6695SOL     OW20983   2.957   2.373   6.883
 6695SOL    HW120984   2.895   2.413   6.816
 6695SOL    HW220985   2.980   2.442   6.953
 6696SOL     OW20986   3.124   3.375   4.755
 6696SOL    HW120987   3.131   3.351   4.851
 6696SOL    HW220988   3.068   3.307   4.707
 6697SOL     OW20989   4.582   1.999   3.072
 6697SOL    HW120990   4.499   1.998   3.016
 6697SOL    HW220991   4.560   2.037   3.163
 6698SOL     OW20992   2.863   2.090   0.528
 6698SOL    HW120993   2.907   2.092   0.438
 6698SOL    HW220994   2.800   2.167   0.537
 6699SOL     OW20995   2.627   5.563   5.599
 6699SOL    HW120996   2.636   5.653   5.557
 6699SOL    HW220997   2.707   5.507   5.577
 6700SOL     OW20998   1.069   0.793   1.312
 6700SOL    HW120999   0.982   0.841   1.310
 6700SOL    HW221000   1.144   0.858   1.300
 6701SOL     OW21001   5.564   4.904   2.291
 6701SOL    HW121002   5.592   4.943   2.203
 6701SOL    HW221003   5.474   4.940   2.316
 6702SOL     OW21004   2.799   2.013   1.547
 6702SOL    HW121005   2.849   1.982   1.466
 6702SOL    HW221006   2.747   2.095   1.524
 6703SOL     OW21007   5.839   1.125   0.170
 6703SOL    HW121008   5.932   1.117   0.206
 6703SOL    HW221009   5.831   1.071   0.086
 6704SOL     OW21010   4.136   1.985   3.361
 6704SOL    HW121011   4.077   2.048   3.311
 6704SOL    HW221012   4.220   1.970   3.310
 6705SOL     OW21013   6.419   4.008   1.460
 6705SOL    HW121014   6.463   4.096   1.447
 6705SOL    HW221015   6.440   3.949   1.382
 6706SOL     OW21016   1.508   4.585   1.245
 6706SOL    HW121017   1.571   4.512   1.272
 6706SOL    HW221018   1.515   4.661   1.310
 6707SOL     OW21019   6.189   6.525   3.757
 6707SOL    HW121020   6.207   6.443   3.704
 6707SOL    HW221021   6.215   6.606   3.704
 6708SOL     OW21022   0.193   4.785   0.662
 6708SOL    HW121023   0.197   4.820   0.569
 6708SOL    HW221024   0.258   4.834   0.720
 6709SOL     OW21025   2.340   6.164   2.478
 6709SOL    HW121026   2.288   6.205   2.403
 6709SOL    HW221027   2.355   6.233   2.549
 6710SOL     OW21028   3.953   1.722   6.251
 6710SOL    HW121029   3.996   1.797   6.302
 6710SOL    HW221030   3.939   1.750   6.156
 6711SOL     OW21031   4.671   6.013   5.899
 6711SOL    HW121032   4.769   5.990   5.899
 6711SOL    HW221033   4.639   6.025   5.806
 6712SOL     OW21034   5.553   4.109   0.552
 6712SOL    HW121035   5.541   4.153   0.641
 6712SOL    HW221036   5.539   4.011   0.561
 6713SOL     OW21037   2.356   0.257   2.521
 6713SOL    HW121038   2.393   0.279   2.431
 6713SOL    HW221039   2.424   0.277   2.592
 6714SOL     OW21040   6.777   0.897   5.790
 6714SOL    HW121041   6.711   0.918   5.862
 6714SOL    HW221042   6.817   0.982   5.755
 6715SOL     OW21043   0.460   0.231   0.201
 6715SOL    HW121044   0.424   0.137   0.198
 6715SOL    HW221045   0.403   0.290   0.144
 6716SOL     OW21046   0.072   5.876   1.962
 6716SOL    HW121047   0.002   5.868   2.032
 6716SOL    HW221048   0.122   5.962   1.975
 6717SOL     OW21049   3.985   2.440   0.016
 6717SOL    HW121050   3.925   2.373   0.059
 6717SOL    HW221051   4.007   2.411   6.949
 6718SOL     OW21052   5.190   0.912   0.793
 6718SOL    HW121053   5.217   0.856   0.871
 6718SOL    HW221054   5.238   0.882   0.711
 6719SOL     OW21055   2.744   6.653   6.400
 6719SOL    HW121056   2.718   6.591   6.326
 6719SOL    HW221057   2.693   6.629   6.483
 6720SOL     OW21058   1.510   0.613   4.423
 6720SOL    HW121059   1.545   0.520   4.417
 6720SOL    HW221060   1.482   0.632   4.517
 6721SOL     OW21061   6.624   6.618   0.468
 6721SOL    HW121062   6.524   6.621   0.467
 6721SOL    HW221063   6.655   6.578   0.555
 6722SOL     OW21064   0.296   3.011   1.449
 6722SOL    HW121065   0.224   2.943   1.443
 6722SOL    HW221066   0.335   3.010   1.541
 6723SOL     OW21067   2.018   6.312   4.273
 6723SOL    HW121068   1.952   6.270   4.210
 6723SOL    HW221069   2.032   6.408   4.248
 6724SOL     OW21070   1.851   3.344   6.260
 6724SOL    HW121071   1.806   3.277   6.320
 6724SOL    HW221072   1.819   3.436   6.283
 6725SOL     OW21073   0.206   3.703   1.744
 6725SOL    HW121074   0.256   3.694   1.658
 6725SOL    HW221075   0.271   3.706   1.820
 6726SOL     OW21076   0.861   2.372   5.186
 6726SOL    HW121077   0.899   2.462   5.209
 6726SOL    HW221078   0.870   2.311   5.265
 6727SOL     OW21079   0.694   4.995   5.386
 6727SOL    HW121080   0.762   4.943   5.334
 6727SOL    HW221081   0.737   5.034   5.468
 6728SOL     OW21082   3.418   2.129   2.353
 6728SOL    HW121083   3.434   2.228   2.357
 6728SOL    HW221084   3.371   2.099   2.435
 6729SOL     OW21085   6.353   0.912   2.881
 6729SOL    HW121086   6.376   0.946   2.790
 6729SOL    HW221087   6.319   0.819   2.875
 6730SOL     OW21088   1.799   6.525   1.306
 6730SOL    HW121089   1.776   6.473   1.388
 6730SOL    HW221090   1.866   6.474   1.252
 6731SOL     OW21091   1.134   6.355   1.019
 6731SOL    HW121092   1.231   6.367   0.998
 6731SOL    HW221093   1.084   6.337   0.934
 6732SOL     OW21094   5.696   4.673   5.042
 6732SOL    HW121095   5.690   4.623   5.129
 6732SOL    HW221096   5.607   4.713   5.022
 6733SOL     OW21097   3.807   5.502   6.189
 6733SOL    HW121098   3.712   5.522   6.215
 6733SOL    HW221099   3.866   5.513   6.268
 6734SOL     OW21100   5.667   3.015   4.262
 6734SOL    HW121101   5.749   3.042   4.211
 6734SOL    HW221102   5.644   3.086   4.328
 6735SOL     OW21103   6.490   4.182   4.960
 6735SOL    HW121104   6.540   4.264   4.931
 6735SOL    HW221105   6.512   4.161   5.055
 6736SOL     OW21106   3.232   3.721   0.391
 6736SOL    HW121107   3.297   3.783   0.436
 6736SOL    HW221108   3.183   3.770   0.319
 6737SOL     OW21109   1.419   2.503   0.856
 6737SOL    HW121110   1.423   2.602   0.845
 6737SOL    HW221111   1.509   2.468   0.881
 6738SOL     OW21112   1.616   5.754   3.180
 6738SOL    HW121113   1.523   5.791   3.185
 6738SOL    HW221114   1.666   5.800   3.107
 6739SOL     OW21115   4.478   6.036   4.503
 6739SOL    HW121116   4.400   5.990   4.461
 6739SOL    HW221117   4.497   6.121   4.455
 6740SOL     OW21118   1.064   0.408   4.845
 6740SOL    HW121119   1.129   0.387   4.918
 6740SOL    HW221120   1.023   0.323   4.812
 6741SOL     OW21121   4.362   1.905   5.332
 6741SOL    HW121122   4.383   2.001   5.317
 6741SOL    HW221123   4.423   1.868   5.403
 6742SOL     OW21124   5.563   5.914   2.697
 6742SOL    HW121125   5.589   5.822   2.667
 6742SOL    HW221126   5.559   5.916   2.797
 6743SOL     OW21127   4.223   4.957   6.604
 6743SOL    HW121128   4.314   4.949   6.645
 6743SOL    HW221129   4.162   4.888   6.645
 6744SOL     OW21130   5.600   4.540   6.006
 6744SOL    HW121131   5.666   4.559   5.934
 6744SOL    HW221132   5.511   4.520   5.966
 6745SOL     OW21133   0.098   6.614   3.418
 6745SOL    HW121134   0.095   6.711   3.394
 6745SOL    HW221135   0.025   6.565   3.370
 6746SOL     OW21136   1.222   1.236   3.563
 6746SOL    HW121137   1.229   1.182   3.647
 6746SOL    HW221138   1.189   1.177   3.489
 6747SOL     OW21139   5.393   1.334   4.902
 6747SOL    HW121140   5.424   1.355   4.995
 6747SOL    HW221141   5.314   1.392   4.880
 6748SOL     OW21142   3.080   1.784   4.457
 6748SOL    HW121143   3.120   1.771   4.366
 6748SOL    HW221144   3.141   1.842   4.512
 6749SOL     OW21145   3.466   4.811   0.311
 6749SOL    HW121146   3.373   4.841   0.329
 6749SOL    HW221147   3.511   4.786   0.396
 6750SOL     OW21148   3.958   1.863   5.029
 6750SOL    HW121149   3.928   1.958   5.034
 6750SOL    HW221150   4.057   1.858   5.043
 6751SOL     OW21151   4.611   6.909   3.251
 6751SOL    HW121152   4.544   6.983   3.263
 6751SOL    HW221153   4.703   6.946   3.261
 6752SOL     OW21154   1.376   1.178   3.353
 6752SOL    HW121155   1.369   1.252   3.287
 6752SOL    HW221156   1.333   1.205   3.439
 6753SOL     OW21157   2.946   0.790   6.648
 6753SOL    HW121158   2.872   0.756   6.591
 6753SOL    HW221159   2.951   0.890   6.640
 6754SOL     OW21160   6.998   1.766   0.845
 6754SOL    HW121161   6.898   1.767   0.852
 6754SOL    HW221162   0.002   1.676   0.814
 6755SOL     OW21163   4.042   0.665   2.864
 6755SOL    HW121164   4.141   0.653   2.866
 6755SOL    HW221165   4.004   0.637   2.953
 6756SOL     OW21166   3.945   5.512   5.026
 6756SOL    HW121167   4.039   5.538   5.049
 6756SOL    HW221168   3.915   5.437   5.086
 6757SOL     OW21169   4.168   2.412   0.766
 6757SOL    HW121170   4.235   2.339   0.748
 6757SOL    HW221171   4.208   2.479   0.828
 6758SOL     OW21172   6.176   1.450   2.014
 6758SOL    HW121173   6.149   1.523   2.077
 6758SOL    HW221174   6.193   1.489   1.923
 6759SOL     OW21175   1.086   4.125   4.387
 6759SOL    HW121176   1.179   4.111   4.353
 6759SOL    HW221177   1.084   4.114   4.486
 6760SOL     OW21178   6.571   4.211   2.485
 6760SOL    HW121179   6.655   4.158   2.472
 6760SOL    HW221180   6.507   4.160   2.542
 6761SOL     OW21181   6.631   2.732   5.364
 6761SOL    HW121182   6.568   2.795   5.410
 6761SOL    HW221183   6.679   2.677   5.433
 6762SOL     OW21184   0.906   5.263   5.057
 6762SOL    HW121185   0.979   5.195   5.057
 6762SOL    HW221186   0.879   5.282   5.152
 6763SOL     OW21187   0.925   5.372   3.077
 6763SOL    HW121188   0.858   5.422   3.132
 6763SOL    HW221189   1.017   5.387   3.113
 6764SOL     OW21190   1.233   5.142   1.147
 6764SOL    HW121191   1.196   5.187   1.065
 6764SOL    HW221192   1.193   5.184   1.228
 6765SOL     OW21193   5.683   4.481   4.009
 6765SOL    HW121194   5.684   4.393   3.962
 6765SOL    HW221195   5.618   4.478   4.085
 6766SOL     OW21196   5.116   6.464   6.200
 6766SOL    HW121197   5.057   6.433   6.275
 6766SOL    HW221198   5.094   6.558   6.177
 6767SOL     OW21199   1.829   2.055   1.323
 6767SOL    HW121200   1.866   2.074   1.232
 6767SOL    HW221201   1.743   2.005   1.314
 6768SOL     OW21202   1.529   6.719   4.273
 6768SOL    HW121203   1.615   6.747   4.316
 6768SOL    HW221204   1.549   6.672   4.187
 6769SOL     OW21205   3.094   0.731   5.902
 6769SOL    HW121206   3.111   0.664   5.975
 6769SOL    HW221207   3.170   0.730   5.837
 6770SOL     OW21208   5.382   2.080   3.113
 6770SOL    HW121209   5.318   2.074   3.037
 6770SOL    HW221210   5.412   2.175   3.123
 6771SOL     OW21211   3.772   1.736   2.432
 6771SOL    HW121212   3.864   1.708   2.404
 6771SOL    HW221213   3.704   1.688   2.376
 6772SOL     OW21214   4.619   2.606   2.340
 6772SOL    HW121215   4.574   2.534   2.287
 6772SOL    HW221216   4.640   2.683   2.280
 6773SOL     OW21217   0.350   6.102   1.542
 6773SOL    HW121218   0.369   6.035   1.613
 6773SOL    HW221219   0.290   6.062   1.473
 6774SOL     OW21220   1.256   4.242   5.408
 6774SOL    HW121221   1.241   4.144   5.423
 6774SOL    HW221222   1.206   4.271   5.327
 6775SOL     OW21223   2.227   2.569   2.751
 6775SOL    HW121224   2.199   2.473   2.763
 6775SOL    HW221225   2.229   2.615   2.839
 6776SOL     OW21226   4.420   3.085   0.480
 6776SOL    HW121227   4.438   3.098   0.382
 6776SOL    HW221228   4.505   3.056   0.525
 6777SOL     OW21229   4.999   4.778   0.738
 6777SOL    HW121230   5.044   4.832   0.667
 6777SOL    HW221231   4.952   4.700   0.697
 6778SOL     OW21232   7.015   5.859   1.602
 6778SOL    HW121233   0.054   5.809   1.545
 6778SOL    HW221234   0.025   5.865   1.696
 6779SOL     OW21235   5.331   5.596   5.817
 6779SOL    HW121236   5.239   5.555   5.814
 6779SOL    HW221237   5.325   5.689   5.854
 6780SOL     OW21238   1.662   2.865   2.382
 6780SOL    HW121239   1.757   2.894   2.399
 6780SOL    HW221240   1.600   2.922   2.434
 6781SOL     OW21241   6.186   2.504   4.604
 6781SOL    HW121242   6.184   2.429   4.538
 6781SOL    HW221243   6.186   2.592   4.555
 6782SOL     OW21244   1.037   1.095   3.364
 6782SOL    HW121245   0.985   1.100   3.278
 6782SOL    HW221246   0.983   1.138   3.437
 6783SOL     OW21247   7.004   1.461   6.123
 6783SOL    HW121248   6.964   1.387   6.068
 6783SOL    HW221249   6.968   1.456   6.216
 6784SOL     OW21250   1.648   3.402   0.814
 6784SOL    HW121251   1.689   3.469   0.752
 6784SOL    HW221252   1.550   3.421   0.822
 6785SOL     OW21253   6.220   5.932   5.058
 6785SOL    HW121254   6.151   5.978   5.002
 6785SOL    HW221255   6.176   5.866   5.118
 6786SOL     OW21256   1.692   1.857   0.815
 6786SOL    HW121257   1.784   1.875   0.851
 6786SOL    HW221258   1.695   1.777   0.755
 6787SOL     OW21259   3.090   2.902   0.168
 6787SOL    HW121260   3.024   2.855   0.109
 6787SOL    HW221261   3.057   2.995   0.188
 6788SOL     OW21262   1.020   4.054   1.030
 6788SOL    HW121263   1.120   4.055   1.041
 6788SOL    HW221264   0.978   4.068   1.120
 6789SOL     OW21265   0.991   4.818   3.690
 6789SOL    HW121266   1.091   4.824   3.681
 6789SOL    HW221267   0.948   4.869   3.617
 6790SOL     OW21268   1.024   4.095   0.234
 6790SOL    HW121269   1.071   4.010   0.257
 6790SOL    HW221270   0.976   4.084   0.146
 6791SOL     OW21271   3.639   2.011   2.211
 6791SOL    HW121272   3.630   2.070   2.131
 6791SOL    HW221273   3.560   2.025   2.272
 6792SOL     OW21274   5.389   6.897   5.132
 6792SOL    HW121275   5.439   6.951   5.064
 6792SOL    HW221276   5.448   6.883   5.212
 6793SOL     OW21277   1.831   1.675   0.157
 6793SOL    HW121278   1.785   1.702   0.072
 6793SOL    HW221279   1.784   1.596   0.195
 6794SOL     OW21280   5.449   1.609   5.432
 6794SOL    HW121281   5.527   1.551   5.456
 6794SOL    HW221282   5.373   1.590   5.495
 6795SOL     OW21283   1.551   6.483   1.144
 6795SOL    HW121284   1.626   6.516   1.202
 6795SOL    HW221285   1.570   6.505   1.049
 6796SOL     OW21286   5.882   1.018   3.407
 6796SOL    HW121287   5.830   1.018   3.322
 6796SOL    HW221288   5.980   1.021   3.387
 6797SOL     OW21289   6.766   2.302   2.038
 6797SOL    HW121290   6.727   2.307   1.946
 6797SOL    HW221291   6.803   2.210   2.054
 6798SOL     OW21292   6.052   6.215   1.744
 6798SOL    HW121293   6.006   6.288   1.693
 6798SOL    HW221294   6.012   6.127   1.720
 6799SOL     OW21295   6.648   0.719   2.448
 6799SOL    HW121296   6.559   0.759   2.426
 6799SOL    HW221297   6.640   0.619   2.451
 6800SOL     OW21298   2.428   2.644   2.000
 6800SOL    HW121299   2.340   2.600   1.982
 6800SOL    HW221300   2.489   2.632   1.922
 6801SOL     OW21301   1.239   0.334   3.408
 6801SOL    HW121302   1.191   0.275   3.343
 6801SOL    HW221303   1.172   0.393   3.455
 6802SOL     OW21304   3.817   5.862   1.456
 6802SOL    HW121305   3.720   5.876   1.478
 6802SOL    HW221306   3.830   5.867   1.357
 6803SOL     OW21307   4.354   3.634   5.994
 6803SOL    HW121308   4.309   3.716   6.028
 6803SOL    HW221309   4.401   3.655   5.908
 6804SOL     OW21310   3.978   5.013   3.693
 6804SOL    HW121311   3.981   5.095   3.635
 6804SOL    HW221312   4.066   5.001   3.738
 6805SOL     OW21313   6.919   4.709   6.366
 6805SOL    HW121314   6.975   4.627   6.381
 6805SOL    HW221315   6.875   4.736   6.452
 6806SOL     OW21316   6.658   1.410   3.316
 6806SOL    HW121317   6.710   1.325   3.313
 6806SOL    HW221318   6.721   1.488   3.324
 6807SOL     OW21319   3.303   3.102   1.293
 6807SOL    HW121320   3.350   3.017   1.271
 6807SOL    HW221321   3.329   3.132   1.385
 6808SOL     OW21322   6.763   1.868   6.373
 6808SOL    HW121323   6.690   1.801   6.360
 6808SOL    HW221324   6.727   1.960   6.355
 6809SOL     OW21325   0.240   3.027   1.043
 6809SOL    HW121326   0.232   3.118   1.083
 6809SOL    HW221327   0.303   2.972   1.098
 6810SOL     OW21328   2.384   1.064   2.298
 6810SOL    HW121329   2.400   1.113   2.212
 6810SOL    HW221330   2.301   1.099   2.342
 6811SOL     OW21331   5.885   4.211   1.620
 6811SOL    HW121332   5.843   4.288   1.669
 6811SOL    HW221333   5.908   4.239   1.527
 6812SOL     OW21334   3.373   3.996   4.476
 6812SOL    HW121335   3.420   3.966   4.393
 6812SOL    HW221336   3.395   3.934   4.551
 6813SOL     OW21337   5.400   3.889   3.013
 6813SOL    HW121338   5.418   3.912   3.109
 6813SOL    HW221339   5.323   3.826   3.008
 6814SOL     OW21340   4.298   2.191   6.244
 6814SOL    HW121341   4.295   2.198   6.145
 6814SOL    HW221342   4.384   2.149   6.273
 6815SOL     OW21343   3.015   5.795   0.012
 6815SOL    HW121344   2.920   5.818   0.031
 6815SOL    HW221345   3.057   5.757   0.095
 6816SOL     OW21346   6.522   0.869   6.132
 6816SOL    HW121347   6.602   0.845   6.187
 6816SOL    HW221348   6.440   0.831   6.174
 6817SOL     OW21349   2.282   2.661   2.989
 6817SOL    HW121350   2.252   2.756   2.974
 6817SOL    HW221351   2.247   2.629   3.077
 6818SOL     OW21352   2.012   6.282   0.714
 6818SOL    HW121353   2.056   6.226   0.644
 6818SOL    HW221354   2.080   6.310   0.781
 6819SOL     OW21355   3.811   1.343   3.333
 6819SOL    HW121356   3.771   1.432   3.357
 6819SOL    HW221357   3.906   1.340   3.363
 6820SOL     OW21358   2.188   6.038   1.281
 6820SOL    HW121359   2.144   5.964   1.229
 6820SOL    HW221360   2.263   6.002   1.336
 6821SOL     OW21361   4.217   2.132   5.123
 6821SOL    HW121362   4.179   2.107   5.034
 6821SOL    HW221363   4.158   2.097   5.196
 6822SOL     OW21364   5.806   2.301   5.876
 6822SOL    HW121365   5.733   2.328   5.813
 6822SOL    HW221366   5.889   2.353   5.854
 6823SOL     OW21367   5.626   3.824   5.832
 6823SOL    HW121368   5.647   3.771   5.914
 6823SOL    HW221369   5.620   3.921   5.856
 6824SOL     OW21370   1.385   1.772   0.219
 6824SOL    HW121371   1.433   1.848   0.177
 6824SOL    HW221372   1.341   1.717   0.148
 6825SOL     OW21373   6.154   0.118   0.430
 6825SOL    HW121374   6.206   0.202   0.412
 6825SOL    HW221375   6.118   0.121   0.523
 6826SOL     OW21376   1.881   3.765   3.786
 6826SOL    HW121377   1.892   3.758   3.687
 6826SOL    HW221378   1.793   3.726   3.812
 6827SOL     OW21379   4.958   5.076   6.137
 6827SOL    HW121380   5.003   5.078   6.226
 6827SOL    HW221381   4.859   5.080   6.150
 6828SOL     OW21382   3.148   1.138   1.475
 6828SOL    HW121383   3.240   1.103   1.455
 6828SOL    HW221384   3.123   1.206   1.406
 6829SOL     OW21385   4.958   6.058   5.394
 6829SOL    HW121386   4.878   6.047   5.453
 6829SOL    HW221387   5.020   6.125   5.434
 6830SOL     OW21388   5.196   0.843   2.978
 6830SOL    HW121389   5.214   0.853   3.075
 6830SOL    HW221390   5.160   0.751   2.959
 6831SOL     OW21391   1.069   0.778   6.712
 6831SOL    HW121392   1.110   0.857   6.758
 6831SOL    HW221393   1.049   0.707   6.780
 6832SOL     OW21394   2.182   4.057   0.758
 6832SOL    HW121395   2.250   4.117   0.717
 6832SOL    HW221396   2.212   4.030   0.849
 6833SOL     OW21397   3.486   4.473   6.630
 6833SOL    HW121398   3.556   4.412   6.667
 6833SOL    HW221399   3.418   4.418   6.580
 6834SOL     OW21400   5.701   0.457   0.637
 6834SOL    HW121401   5.790   0.452   0.680
 6834SOL    HW221402   5.635   0.499   0.700
 6835SOL     OW21403   4.271   0.679   4.908
 6835SOL    HW121404   4.369   0.696   4.904
 6835SOL    HW221405   4.246   0.610   4.840
 6836SOL     OW21406   3.283   4.004   0.264
 6836SOL    HW121407   3.308   3.973   0.172
 6836SOL    HW221408   3.193   3.967   0.289
 6837SOL     OW21409   1.085   1.980   2.970
 6837SOL    HW121410   1.051   1.926   2.894
 6837SOL    HW221411   1.091   2.076   2.943
 6838SOL     OW21412   3.606   6.213   6.760
 6838SOL    HW121413   3.606   6.250   6.667
 6838SOL    HW221414   3.527   6.153   6.773
 6839SOL     OW21415   5.681   1.549   5.903
 6839SOL    HW121416   5.593   1.563   5.857
 6839SOL    HW221417   5.752   1.534   5.834
 6840SOL     OW21418   3.550   0.283   3.997
 6840SOL    HW121419   3.602   0.311   3.916
 6840SOL    HW221420   3.453   0.301   3.983
 6841SOL     OW21421   3.782   4.385   0.309
 6841SOL    HW121422   3.858   4.449   0.298
 6841SOL    HW221423   3.695   4.434   0.302
 6842SOL     OW21424   2.520   3.299   0.915
 6842SOL    HW121425   2.549   3.354   0.836
 6842SOL    HW221426   2.449   3.235   0.886
 6843SOL     OW21427   6.006   6.606   1.857
 6843SOL    HW121428   6.023   6.686   1.800
 6843SOL    HW221429   5.928   6.555   1.821
 6844SOL     OW21430   4.752   0.714   3.396
 6844SOL    HW121431   4.762   0.614   3.398
 6844SOL    HW221432   4.793   0.750   3.312
 6845SOL     OW21433   6.344   4.920   3.188
 6845SOL    HW121434   6.358   5.000   3.129
 6845SOL    HW221435   6.383   4.939   3.278
 6846SOL     OW21436   4.082   2.803   0.228
 6846SOL    HW121437   4.028   2.883   0.254
 6846SOL    HW221438   4.161   2.832   0.174
 6847SOL     OW21439   0.121   4.605   3.271
 6847SOL    HW121440   0.173   4.688   3.255
 6847SOL    HW221441   0.040   4.604   3.212
 6848SOL     OW21442   4.094   7.009   3.611
 6848SOL    HW121443   4.015   6.948   3.606
 6848SOL    HW221444   4.133   7.005   3.703
 6849SOL     OW21445   3.903   5.142   5.131
 6849SOL    HW121446   3.868   5.057   5.169
 6849SOL    HW221447   3.962   5.122   5.053
 6850SOL     OW21448   5.999   3.842   2.179
 6850SOL    HW121449   5.963   3.821   2.270
 6850SOL    HW221450   6.030   3.937   2.178
 6851SOL     OW21451   0.920   2.614   3.324
 6851SOL    HW121452   0.827   2.578   3.326
 6851SOL    HW221453   0.918   2.711   3.299
 6852SOL     OW21454   2.668   5.125   0.730
 6852SOL    HW121455   2.694   5.090   0.639
 6852SOL    HW221456   2.614   5.056   0.777
 6853SOL     OW21457   6.619   3.664   0.212
 6853SOL    HW121458   6.565   3.589   0.251
 6853SOL    HW221459   6.649   3.726   0.285
 6854SOL     OW21460   5.308   1.851   6.348
 6854SOL    HW121461   5.273   1.942   6.371
 6854SOL    HW221462   5.343   1.853   6.254
 6855SOL     OW21463   3.559   5.552   3.145
 6855SOL    HW121464   3.536   5.608   3.066
 6855SOL    HW221465   3.529   5.597   3.229
 6856SOL     OW21466   4.937   3.765   5.456
 6856SOL    HW121467   4.889   3.678   5.466
 6856SOL    HW221468   4.903   3.812   5.374
 6857SOL     OW21469   3.041   2.516   0.080
 6857SOL    HW121470   2.986   2.454   0.136
 6857SOL    HW221471   3.138   2.493   0.091
 6858SOL     OW21472   3.760   3.488   3.737
 6858SOL    HW121473   3.723   3.546   3.810
 6858SOL    HW221474   3.729   3.394   3.750
 6859SOL     OW21475   0.734   0.806   0.756
 6859SOL    HW121476   0.801   0.862   0.707
 6859SOL    HW221477   0.663   0.865   0.793
 6860SOL     OW21478   6.732   5.201   1.164
 6860SOL    HW121479   6.738   5.164   1.071
 6860SOL    HW221480   6.823   5.203   1.205
 6861SOL     OW21481   4.299   4.982   0.268
 6861SOL    HW121482   4.363   5.016   0.337
 6861SOL    HW221483   4.205   4.996   0.301
 6862SOL     OW21484   1.790   4.527   5.735
 6862SOL    HW121485   1.847   4.607   5.715
 6862SOL    HW221486   1.776   4.475   5.651
 6863SOL     OW21487   5.211   6.964   6.101
 6863SOL    HW121488   5.287   0.003   6.104
 6863SOL    HW221489   5.128   7.011   6.071
 6864SOL     OW21490   3.151   5.719   4.010
 6864SOL    HW121491   3.213   5.781   3.962
 6864SOL    HW221492   3.204   5.655   4.066
 6865SOL     OW21493   1.376   6.288   3.172
 6865SOL    HW121494   1.428   6.234   3.107
 6865SOL    HW221495   1.371   6.240   3.259
 6866SOL     OW21496   6.432   5.083   2.988
 6866SOL    HW121497   6.430   5.180   2.964
 6866SOL    HW221498   6.432   5.028   2.905
 6867SOL     OW21499   2.459   4.016   1.351
 6867SOL    HW121500   2.543   4.009   1.405
 6867SOL    HW221501   2.382   4.033   1.412
 6868SOL     OW21502   0.977   5.491   5.972
 6868SOL    HW121503   1.029   5.468   6.054
 6868SOL    HW221504   1.038   5.493   5.893
 6869SOL     OW21505   5.848   1.339   5.753
 6869SOL    HW121506   5.858   1.415   5.689
 6869SOL    HW221507   5.891   1.257   5.715
 6870SOL     OW21508   0.457   4.728   2.132
 6870SOL    HW121509   0.423   4.737   2.038
 6870SOL    HW221510   0.515   4.806   2.155
 6871SOL     OW21511   5.973   4.648   3.368
 6871SOL    HW121512   5.948   4.744   3.360
 6871SOL    HW221513   5.915   4.593   3.307
 6872SOL     OW21514   0.024   2.540   1.149
 6872SOL    HW121515   7.017   2.448   1.168
 6872SOL    HW221516   0.123   2.537   1.132
 6873SOL     OW21517   6.913   3.764   5.626
 6873SOL    HW121518   6.890   3.861   5.640
 6873SOL    HW221519   6.966   3.755   5.541
 6874SOL     OW21520   0.491   6.149   2.277
 6874SOL    HW121521   0.514   6.137   2.374
 6874SOL    HW221522   0.405   6.199   2.269
 6875SOL     OW21523   2.464   2.592   3.441
 6875SOL    HW121524   2.527   2.547   3.379
 6875SOL    HW221525   2.427   2.674   3.396
 6876SOL     OW21526   3.417   6.656   3.775
 6876SOL    HW121527   3.500   6.658   3.831
 6876SOL    HW221528   3.339   6.633   3.832
 6877SOL     OW21529   2.469   3.823   1.163
 6877SOL    HW121530   2.547   3.769   1.193
 6877SOL    HW221531   2.464   3.908   1.216
 6878SOL     OW21532   3.166   1.176   5.039
 6878SOL    HW121533   3.083   1.122   5.046
 6878SOL    HW221534   3.165   1.229   4.954
 6879SOL     OW21535   0.667   2.223   0.740
 6879SOL    HW121536   0.633   2.294   0.677
 6879SOL    HW221537   0.765   2.209   0.723
 6880SOL     OW21538   1.527   4.654   4.836
 6880SOL    HW121539   1.533   4.696   4.745
 6880SOL    HW221540   1.540   4.724   4.906
 6881SOL     OW21541   1.692   4.033   1.005
 6881SOL    HW121542   1.639   4.105   0.961
 6881SOL    HW221543   1.778   4.020   0.956
 6882SOL     OW21544   3.011   0.598   6.847
 6882SOL    HW121545   2.993   0.670   6.780
 6882SOL    HW221546   2.934   0.591   6.910
 6883SOL     OW21547   4.418   0.877   0.648
 6883SOL    HW121548   4.383   0.785   0.636
 6883SOL    HW221549   4.518   0.875   0.655
 6884SOL     OW21550   2.557   4.621   4.358
 6884SOL    HW121551   2.473   4.636   4.410
 6884SOL    HW221552   2.546   4.539   4.302
 6885SOL     OW21553   3.986   5.261   3.583
 6885SOL    HW121554   4.055   5.322   3.544
 6885SOL    HW221555   3.909   5.252   3.520
 6886SOL     OW21556   6.710   0.811   4.539
 6886SOL    HW121557   6.756   0.855   4.463
 6886SOL    HW221558   6.774   0.797   4.614
 6887SOL     OW21559   5.072   5.714   6.345
 6887SOL    HW121560   5.172   5.715   6.349
 6887SOL    HW221561   5.039   5.620   6.348
 6888SOL     OW21562   5.436   6.134   0.075
 6888SOL    HW121563   5.448   6.169   0.167
 6888SOL    HW221564   5.471   6.040   0.071
 6889SOL     OW21565   1.889   2.313   5.320
 6889SOL    HW121566   1.798   2.344   5.293
 6889SOL    HW221567   1.886   2.276   5.413
 6890SOL     OW21568   4.512   6.381   1.500
 6890SOL    HW121569   4.466   6.327   1.571
 6890SOL    HW221570   4.444   6.416   1.436
 6891SOL     OW21571   2.007   4.526   3.455
 6891SOL    HW121572   1.982   4.504   3.361
 6891SOL    HW221573   2.107   4.532   3.462
 6892SOL     OW21574   3.231   2.111   3.673
 6892SOL    HW121575   3.291   2.131   3.751
 6892SOL    HW221576   3.281   2.125   3.588
 6893SOL     OW21577   4.085   4.029   0.121
 6893SOL    HW121578   4.166   4.084   0.102
 6893SOL    HW221579   4.107   3.962   0.193
 6894SOL     OW21580   6.382   4.689   0.818
 6894SOL    HW121581   6.388   4.739   0.904
 6894SOL    HW221582   6.463   4.632   0.807
 6895SOL     OW21583   3.060   5.275   6.920
 6895SOL    HW121584   3.086   5.185   6.953
 6895SOL    HW221585   3.135   5.315   6.867
 6896SOL     OW21586   2.383   0.169   3.853
 6896SOL    HW121587   2.432   0.176   3.939
 6896SOL    HW221588   2.432   0.107   3.792
 6897SOL     OW21589   4.471   4.112   6.166
 6897SOL    HW121590   4.453   4.021   6.129
 6897SOL    HW221591   4.526   4.164   6.101
 6898SOL     OW21592   3.684   1.478   1.725
 6898SOL    HW121593   3.678   1.547   1.652
 6898SOL    HW221594   3.738   1.515   1.801
 6899SOL     OW21595   5.665   6.302   1.518
 6899SOL    HW121596   5.677   6.216   1.469
 6899SOL    HW221597   5.575   6.304   1.561
 6900SOL     OW21598   6.577   6.572   5.816
 6900SOL    HW121599   6.589   6.632   5.896
 6900SOL    HW221600   6.566   6.478   5.847
 6901SOL     OW21601   0.035   6.165   6.032
 6901SOL    HW121602   6.962   6.150   6.036
 6901SOL    HW221603   0.061   6.232   6.101
 6902SOL     OW21604   5.569   6.008   6.847
 6902SOL    HW121605   5.481   6.019   6.802
 6902SOL    HW221606   5.570   5.923   6.899
 6903SOL     OW21607   2.986   5.773   4.582
 6903SOL    HW121608   3.019   5.802   4.671
 6903SOL    HW221609   3.063   5.753   4.522
 6904SOL     OW21610   5.812   0.644   4.637
 6904SOL    HW121611   5.855   0.579   4.574
 6904SOL    HW221612   5.769   0.718   4.584
 6905SOL     OW21613   5.610   6.651   6.026
 6905SOL    HW121614   5.570   6.580   5.967
 6905SOL    HW221615   5.670   6.608   6.094
 6906SOL     OW21616   4.700   1.255   3.554
 6906SOL    HW121617   4.675   1.306   3.472
 6906SOL    HW221618   4.799   1.241   3.556
 6907SOL     OW21619   5.501   2.830   1.424
 6907SOL    HW121620   5.576   2.880   1.466
 6907SOL    HW221621   5.423   2.828   1.487
 6908SOL     OW21622   0.634   5.542   6.128
 6908SOL    HW121623   0.698   5.617   6.113
 6908SOL    HW221624   0.636   5.480   6.049
 6909SOL     OW21625   5.735   4.521   1.306
 6909SOL    HW121626   5.666   4.585   1.339
 6909SOL    HW221627   5.721   4.502   1.209
 6910SOL     OW21628   6.594   2.154   3.394
 6910SOL    HW121629   6.510   2.105   3.417
 6910SOL    HW221630   6.594   2.243   3.439
 6911SOL     OW21631   4.064   6.023   4.038
 6911SOL    HW121632   4.076   6.006   3.941
 6911SOL    HW221633   3.970   6.002   4.065
 6912SOL     OW21634   3.725   4.607   7.012
 6912SOL    HW121635   3.698   4.629   6.918
 6912SOL    HW221636   3.824   4.594   7.015
 6913SOL     OW21637   4.791   5.427   4.683
 6913SOL    HW121638   4.749   5.345   4.643
 6913SOL    HW221639   4.889   5.412   4.692
 6914SOL     OW21640   5.944   3.713   5.353
 6914SOL    HW121641   6.017   3.649   5.328
 6914SOL    HW221642   5.855   3.670   5.337
 6915SOL     OW21643   6.090   3.089   1.792
 6915SOL    HW121644   6.088   3.068   1.694
 6915SOL    HW221645   6.093   3.188   1.805
 6916SOL     OW21646   6.617   2.571   0.125
 6916SOL    HW121647   6.666   2.655   0.147
 6916SOL    HW221648   6.682   2.496   0.115
 6917SOL     OW21649   3.002   5.327   1.130
 6917SOL    HW121650   3.086   5.309   1.078
 6917SOL    HW221651   2.936   5.254   1.113
 6918SOL     OW21652   0.118   2.931   3.991
 6918SOL    HW121653   0.161   2.915   4.080
 6918SOL    HW221654   0.078   3.022   3.989
 6919SOL     OW21655   0.205   6.320   2.650
 6919SOL    HW121656   0.129   6.309   2.586
 6919SOL    HW221657   0.244   6.230   2.671
 6920SOL     OW21658   4.445   5.821   4.909
 6920SOL    HW121659   4.514   5.872   4.961
 6920SOL    HW221660   4.367   5.801   4.969
 6921SOL     OW21661   5.496   5.594   3.616
 6921SOL    HW121662   5.426   5.537   3.659
 6921SOL    HW221663   5.525   5.665   3.679
 6922SOL     OW21664   2.148   5.800   5.594
 6922SOL    HW121665   2.074   5.757   5.647
 6922SOL    HW221666   2.184   5.734   5.529
 6923SOL     OW21667   4.588   5.805   3.181
 6923SOL    HW121668   4.572   5.726   3.122
 6923SOL    HW221669   4.517   5.809   3.251
 6924SOL     OW21670   2.738   4.168   6.799
 6924SOL    HW121671   2.699   4.258   6.777
 6924SOL    HW221672   2.676   4.096   6.770
 6925SOL     OW21673   4.603   6.098   4.716
 6925SOL    HW121674   4.538   6.128   4.786
 6925SOL    HW221675   4.555   6.050   4.643
 6926SOL     OW21676   3.471   2.520   1.004
 6926SOL    HW121677   3.549   2.541   1.064
 6926SOL    HW221678   3.389   2.508   1.059
 6927SOL     OW21679   4.499   2.948   6.438
 6927SOL    HW121680   4.481   2.918   6.344
 6927SOL    HW221681   4.589   2.991   6.443
 6928SOL     OW21682   6.125   5.820   0.849
 6928SOL    HW121683   6.184   5.895   0.881
 6928SOL    HW221684   6.114   5.826   0.750
 6929SOL     OW21685   5.909   5.319   1.104
 6929SOL    HW121686   5.884   5.222   1.111
 6929SOL    HW221687   5.830   5.371   1.070
 6930SOL     OW21688   0.288   7.002   2.397
 6930SOL    HW121689   0.342   6.965   2.472
 6930SOL    HW221690   0.217   0.036   2.434
 6931SOL     OW21691   2.244   0.683   2.356
 6931SOL    HW121692   2.338   0.655   2.376
 6931SOL    HW221693   2.230   0.685   2.257
 6932SOL     OW21694   4.396   6.550   0.421
 6932SOL    HW121695   4.367   6.630   0.368
 6932SOL    HW221696   4.315   6.506   0.460
 6933SOL     OW21697   3.323   6.089   4.716
 6933SOL    HW121698   3.392   6.019   4.737
 6933SOL    HW221699   3.352   6.177   4.756
 6934SOL     OW21700   5.026   3.364   5.729
 6934SOL    HW121701   4.970   3.281   5.721
 6934SOL    HW221702   4.967   3.441   5.753
 6935SOL     OW21703   4.436   4.942   3.284
 6935SOL    HW121704   4.510   4.994   3.243
 6935SOL    HW221705   4.410   4.866   3.224
 6936SOL     OW21706   6.128   2.010   3.508
 6936SOL    HW121707   6.058   2.031   3.575
 6936SOL    HW221708   6.089   2.018   3.416
 6937SOL     OW21709   6.875   6.289   0.116
 6937SOL    HW121710   6.855   6.378   0.075
 6937SOL    HW221711   6.797   6.229   0.103
 6938SOL     OW21712   5.054   3.165   5.153
 6938SOL    HW121713   5.014   3.253   5.129
 6938SOL    HW221714   5.148   3.161   5.118
 6939SOL     OW21715   1.172   4.478   2.093
 6939SOL    HW121716   1.113   4.530   2.031
 6939SOL    HW221717   1.215   4.541   2.158
 6940SOL     OW21718   4.192   0.849   6.584
 6940SOL    HW121719   4.189   0.753   6.611
 6940SOL    HW221720   4.278   0.868   6.537
 6941SOL     OW21721   3.754   4.086   1.946
 6941SOL    HW121722   3.841   4.049   1.977
 6941SOL    HW221723   3.707   4.130   2.023
 6942SOL     OW21724   5.499   0.658   1.204
 6942SOL    HW121725   5.478   0.695   1.295
 6942SOL    HW221726   5.475   0.561   1.202
 6943SOL     OW21727   4.462   6.263   0.241
 6943SOL    HW121728   4.509   6.291   0.325
 6943SOL    HW221729   4.404   6.184   0.260
 6944SOL     OW21730   0.450   4.116   6.523
 6944SOL    HW121731   0.438   4.208   6.560
 6944SOL    HW221732   0.523   4.069   6.573
 6945SOL     OW21733   6.382   1.256   6.592
 6945SOL    HW121734   6.320   1.181   6.570
 6945SOL    HW221735   6.334   1.324   6.649
 6946SOL     OW21736   5.713   6.329   1.216
 6946SOL    HW121737   5.631   6.280   1.186
 6946SOL    HW221738   5.694   6.377   1.301
 6947SOL     OW21739   3.291   6.372   6.621
 6947SOL    HW121740   3.317   6.304   6.689
 6947SOL    HW221741   3.194   6.395   6.633
 6948SOL     OW21742   7.025   0.114   0.692
 6948SOL    HW121743   0.074   0.143   0.632
 6948SOL    HW221744   6.981   0.195   0.731
 6949SOL     OW21745   4.697   0.043   2.562
 6949SOL    HW121746   4.751   0.068   2.642
 6949SOL    HW221747   4.646   6.985   2.581
 6950SOL     OW21748   2.168   1.760   4.583
 6950SOL    HW121749   2.071   1.781   4.597
 6950SOL    HW221750   2.220   1.789   4.663
 6951SOL     OW21751   6.571   5.783   5.730
 6951SOL    HW121752   6.529   5.716   5.791
 6951SOL    HW221753   6.582   5.870   5.777
 6952SOL     OW21754   0.988   6.355   3.350
 6952SOL    HW121755   0.995   6.452   3.375
 6952SOL    HW221756   1.047   6.337   3.271
 6953SOL     OW21757   4.671   6.397   0.769
 6953SOL    HW121758   4.749   6.335   0.759
 6953SOL    HW221759   4.690   6.482   0.720
 6954SOL     OW21760   6.854   3.411   3.332
 6954SOL    HW121761   6.795   3.492   3.329
 6954SOL    HW221762   6.828   3.348   3.258
 6955SOL     OW21763   5.954   7.012   2.573
 6955SOL    HW121764   5.886   6.950   2.612
 6955SOL    HW221765   6.033   6.959   2.543
 6956SOL     OW21766   5.688   5.417   3.519
 6956SOL    HW121767   5.773   5.448   3.561
 6956SOL    HW221768   5.618   5.488   3.530
 6957SOL     OW21769   6.603   5.013   0.718
 6957SOL    HW121770   6.662   4.960   0.780
 6957SOL    HW221771   6.578   5.100   0.762
 6958SOL     OW21772   3.206   2.968   4.375
 6958SOL    HW121773   3.242   2.961   4.282
 6958SOL    HW221774   3.256   2.904   4.434
 6959SOL     OW21775   1.990   1.808   4.057
 6959SOL    HW121776   1.933   1.745   4.004
 6959SOL    HW221777   2.086   1.784   4.047
 6960SOL     OW21778   2.432   4.437   1.486
 6960SOL    HW121779   2.355   4.501   1.494
 6960SOL    HW221780   2.468   4.417   1.577
 6961SOL     OW21781   5.730   1.904   3.525
 6961SOL    HW121782   5.731   1.988   3.579
 6961SOL    HW221783   5.805   1.845   3.553
 6962SOL     OW21784   4.852   6.015   1.805
 6962SOL    HW121785   4.755   6.011   1.831
 6962SOL    HW221786   4.885   6.108   1.817
 6963SOL     OW21787   5.528   6.195   1.082
 6963SOL    HW121788   5.472   6.132   1.137
 6963SOL    HW221789   5.481   6.215   0.996
 6964SOL     OW21790   3.613   0.577   5.020
 6964SOL    HW121791   3.573   0.657   5.064
 6964SOL    HW221792   3.712   0.580   5.029
 6965SOL     OW21793   0.965   2.319   1.030
 6965SOL    HW121794   1.045   2.285   1.079
 6965SOL    HW221795   0.888   2.326   1.094
 6966SOL     OW21796   0.122   2.181   3.142
 6966SOL    HW121797   0.156   2.114   3.077
 6966SOL    HW221798   0.040   2.145   3.187
 6967SOL     OW21799   2.653   0.196   5.328
 6967SOL    HW121800   2.701   0.224   5.245
 6967SOL    HW221801   2.606   0.109   5.312
 6968SOL     OW21802   4.424   6.608   2.498
 6968SOL    HW121803   4.491   6.536   2.511
 6968SOL    HW221804   4.451   6.689   2.549
 6969SOL     OW21805   3.211   2.487   1.068
 6969SOL    HW121806   3.130   2.544   1.074
 6969SOL    HW221807   3.190   2.395   1.100
 6970SOL     OW21808   4.038   4.300   6.245
 6970SOL    HW121809   4.011   4.391   6.213
 6970SOL    HW221810   3.956   4.249   6.273
 6971SOL     OW21811   6.860   4.122   2.320
 6971SOL    HW121812   6.863   4.031   2.277
 6971SOL    HW221813   6.940   4.174   2.292
 6972SOL     OW21814   4.732   4.144   3.346
 6972SOL    HW121815   4.741   4.074   3.416
 6972SOL    HW221816   4.693   4.227   3.386
 6973SOL     OW21817   0.761   3.121   4.582
 6973SOL    HW121818   0.798   3.151   4.494
 6973SOL    HW221819   0.681   3.175   4.605
 6974SOL     OW21820   2.977   3.786   3.031
 6974SOL    HW121821   2.963   3.776   3.129
 6974SOL    HW221822   3.073   3.773   3.008
 6975SOL     OW21823   2.204   6.434   6.102
 6975SOL    HW121824   2.277   6.370   6.079
 6975SOL    HW221825   2.140   6.391   6.165
 6976SOL     OW21826   5.416   5.359   4.784
 6976SOL    HW121827   5.360   5.277   4.793
 6976SOL    HW221828   5.402   5.399   4.693
 6977SOL     OW21829   3.874   3.069   1.776
 6977SOL    HW121830   3.910   2.981   1.746
 6977SOL    HW221831   3.875   3.073   1.876
 6978SOL     OW21832   5.395   1.418   1.875
 6978SOL    HW121833   5.391   1.452   1.969
 6978SOL    HW221834   5.445   1.483   1.818
 6979SOL     OW21835   0.370   4.319   1.309
 6979SOL    HW121836   0.377   4.223   1.285
 6979SOL    HW221837   0.297   4.362   1.256
 6980SOL     OW21838   1.900   0.886   4.106
 6980SOL    HW121839   1.932   0.976   4.076
 6980SOL    HW221840   1.924   0.873   4.202
 6981SOL     OW21841   3.500   2.296   5.501
 6981SOL    HW121842   3.514   2.238   5.582
 6981SOL    HW221843   3.459   2.382   5.529
 6982SOL     OW21844   1.431   0.496   4.851
 6982SOL    HW121845   1.342   0.484   4.895
 6982SOL    HW221846   1.498   0.437   4.894
 6983SOL     OW21847   3.761   2.080   3.932
 6983SOL    HW121848   3.848   2.128   3.924
 6983SOL    HW221849   3.772   1.984   3.905
 6984SOL     OW21850   2.456   1.939   3.224
 6984SOL    HW121851   2.542   1.923   3.175
 6984SOL    HW221852   2.381   1.895   3.176
 6985SOL     OW21853   5.712   5.075   1.624
 6985SOL    HW121854   5.781   5.074   1.552
 6985SOL    HW221855   5.757   5.067   1.714
 6986SOL     OW21856   2.001   0.092   5.613
 6986SOL    HW121857   1.979   0.020   5.546
 6986SOL    HW221858   2.006   0.052   5.704
 6987SOL     OW21859   5.899   1.399   6.044
 6987SOL    HW121860   5.806   1.418   6.077
 6987SOL    HW221861   5.895   1.361   5.952
 6988SOL     OW21862   0.396   0.664   5.722
 6988SOL    HW121863   0.410   0.568   5.701
 6988SOL    HW221864   0.479   0.715   5.702
 6989SOL     OW21865   1.059   3.717   3.234
 6989SOL    HW121866   1.065   3.632   3.287
 6989SOL    HW221867   0.989   3.776   3.275
 6990SOL     OW21868   4.640   2.454   1.058
 6990SOL    HW121869   4.566   2.450   0.991
 6990SOL    HW221870   4.707   2.523   1.028
 6991SOL     OW21871   4.062   4.764   3.133
 6991SOL    HW121872   3.991   4.803   3.193
 6991SOL    HW221873   4.029   4.764   3.038
 6992SOL     OW21874   4.977   6.192   6.240
 6992SOL    HW121875   4.955   6.229   6.150
 6992SOL    HW221876   4.963   6.262   6.310
 6993SOL     OW21877   5.288   0.758   2.711
 6993SOL    HW121878   5.213   0.748   2.645
 6993SOL    HW221879   5.251   0.757   2.804
 6994SOL     OW21880   0.527   2.097   4.469
 6994SOL    HW121881   0.576   2.159   4.408
 6994SOL    HW221882   0.452   2.054   4.420
 6995SOL     OW21883   6.628   4.512   6.147
 6995SOL    HW121884   6.640   4.415   6.129
 6995SOL    HW221885   6.642   4.564   6.063
 6996SOL     OW21886   1.192   6.893   6.844
 6996SOL    HW121887   1.197   6.993   6.838
 6996SOL    HW221888   1.283   6.855   6.829
 6997SOL     OW21889   0.015   6.157   4.960
 6997SOL    HW121890   0.034   6.063   4.989
 6997SOL    HW221891   6.955   6.188   5.001
 6998SOL     OW21892   2.119   0.639   1.807
 6998SOL    HW121893   2.053   0.663   1.735
 6998SOL    HW221894   2.099   0.692   1.889
 6999SOL     OW21895   2.743   2.203   6.478
 6999SOL    HW121896   2.688   2.224   6.559
 6999SOL    HW221897   2.684   2.164   6.408
 7000SOL     OW21898   5.285   6.791   1.041
 7000SOL    HW121899   5.304   6.783   1.139
 7000SOL    HW221900   5.307   6.883   1.010
 7001SOL     OW21901   1.578   3.281   5.681
 7001SOL    HW121902   1.651   3.220   5.710
 7001SOL    HW221903   1.585   3.297   5.583
 7002SOL     OW21904   2.145   5.364   4.512
 7002SOL    HW121905   2.144   5.307   4.594
 7002SOL    HW221906   2.185   5.453   4.534
 7003SOL     OW21907   4.019   5.182   0.418
 7003SOL    HW121908   4.093   5.215   0.476
 7003SOL    HW221909   4.027   5.221   0.327
 7004SOL     OW21910   1.339   4.823   2.550
 7004SOL    HW121911   1.391   4.838   2.466
 7004SOL    HW221912   1.257   4.770   2.529
 7005SOL     OW21913   1.562   0.247   0.981
 7005SOL    HW121914   1.473   0.293   0.978
 7005SOL    HW221915   1.631   0.304   0.936
 7006SOL     OW21916   5.105   4.951   3.723
 7006SOL    HW121917   5.201   4.962   3.699
 7006SOL    HW221918   5.091   4.981   3.818
 7007SOL     OW21919   4.401   0.703   3.517
 7007SOL    HW121920   4.412   0.606   3.540
 7007SOL    HW221921   4.377   0.754   3.600
 7008SOL     OW21922   0.613   3.501   4.856
 7008SOL    HW121923   0.695   3.546   4.892
 7008SOL    HW221924   0.599   3.414   4.903
 7009SOL     OW21925   5.789   6.203   2.054
 7009SOL    HW121926   5.758   6.193   2.148
 7009SOL    HW221927   5.755   6.126   2.000
 7010SOL     OW21928   5.507   4.442   4.206
 7010SOL    HW121929   5.485   4.538   4.226
 7010SOL    HW221930   5.552   4.401   4.284
 7011SOL     OW21931   3.162   6.819   6.416
 7011SOL    HW121932   3.209   6.859   6.495
 7011SOL    HW221933   3.132   6.893   6.355
 7012SOL     OW21934   0.497   2.078   1.706
 7012SOL    HW121935   0.594   2.072   1.729
 7012SOL    HW221936   0.485   2.132   1.623
 7013SOL     OW21937   0.309   0.407   0.049
 7013SOL    HW121938   0.288   0.371   6.984
 7013SOL    HW221939   0.394   0.459   0.046
 7014SOL     OW21940   4.194   3.682   0.637
 7014SOL    HW121941   4.146   3.594   0.640
 7014SOL    HW221942   4.130   3.755   0.614
 7015SOL     OW21943   6.226   4.781   2.539
 7015SOL    HW121944   6.189   4.688   2.541
 7015SOL    HW221945   6.323   4.778   2.515
 7016SOL     OW21946   3.411   4.971   1.615
 7016SOL    HW121947   3.350   4.925   1.550
 7016SOL    HW221948   3.485   4.909   1.641
 7017SOL     OW21949   2.283   5.006   2.349
 7017SOL    HW121950   2.329   5.023   2.262
 7017SOL    HW221951   2.296   5.084   2.409
 7018SOL     OW21952   5.270   3.804   4.554
 7018SOL    HW121953   5.318   3.889   4.531
 7018SOL    HW221954   5.268   3.792   4.653
 7019SOL     OW21955   3.602   4.002   0.253
 7019SOL    HW121956   3.596   3.908   0.287
 7019SOL    HW221957   3.544   4.061   0.307
 7020SOL     OW21958   6.628   5.395   6.476
 7020SOL    HW121959   6.629   5.492   6.501
 7020SOL    HW221960   6.660   5.341   6.554
 7021SOL     OW21961   1.114   1.918   5.547
 7021SOL    HW121962   1.197   1.864   5.561
 7021SOL    HW221963   1.133   1.991   5.482
 7022SOL     OW21964   4.907   6.808   5.988
 7022SOL    HW121965   4.951   6.743   5.926
 7022SOL    HW221966   4.908   6.899   5.946
 7023SOL     OW21967   0.061   2.150   4.085
 7023SOL    HW121968   7.004   2.122   4.134
 7023SOL    HW221969   0.038   2.168   3.989
 7024SOL     OW21970   2.613   3.830   5.257
 7024SOL    HW121971   2.534   3.881   5.224
 7024SOL    HW221972   2.694   3.859   5.206
 7025SOL     OW21973   2.759   0.901   0.723
 7025SOL    HW121974   2.848   0.858   0.705
 7025SOL    HW221975   2.701   0.837   0.774
 7026SOL     OW21976   2.964   1.657   2.216
 7026SOL    HW121977   3.009   1.570   2.232
 7026SOL    HW221978   2.892   1.646   2.147
 7027SOL     OW21979   2.906   5.602   4.291
 7027SOL    HW121980   2.857   5.537   4.349
 7027SOL    HW221981   2.864   5.693   4.300
 7028SOL     OW21982   3.283   2.122   4.468
 7028SOL    HW121983   3.294   2.054   4.541
 7028SOL    HW221984   3.200   2.175   4.484
 7029SOL     OW21985   5.061   5.103   5.255
 7029SOL    HW121986   5.029   5.098   5.349
 7029SOL    HW221987   5.066   5.198   5.226
 7030SOL     OW21988   1.274   0.733   4.888
 7030SOL    HW121989   1.270   0.713   4.790
 7030SOL    HW221990   1.212   0.809   4.908
 7031SOL     OW21991   3.299   5.619   5.602
 7031SOL    HW121992   3.256   5.593   5.516
 7031SOL    HW221993   3.398   5.607   5.595
 7032SOL     OW21994   3.886   1.003   3.473
 7032SOL    HW121995   3.837   1.081   3.512
 7032SOL    HW221996   3.962   1.035   3.418
 7033SOL     OW21997   1.692   2.445   3.722
 7033SOL    HW121998   1.742   2.461   3.638
 7033SOL    HW221999   1.705   2.523   3.784
 7034SOL     OW22000   6.686   0.578   3.932
 7034SOL    HW122001   6.598   0.533   3.950
 7034SOL    HW222002   6.670   0.657   3.872
 7035SOL     OW22003   1.590   6.550   0.885
 7035SOL    HW122004   1.546   6.460   0.880
 7035SOL    HW222005   1.551   6.610   0.815
 7036SOL     OW22006   0.290   0.604   3.189
 7036SOL    HW122007   0.344   0.652   3.120
 7036SOL    HW222008   0.337   0.608   3.278
 7037SOL     OW22009   1.761   1.546   6.856
 7037SOL    HW122010   1.839   1.483   6.857
 7037SOL    HW222011   1.786   1.631   6.902
 7038SOL     OW22012   2.334   3.059   5.366
 7038SOL    HW122013   2.261   2.991   5.368
 7038SOL    HW222014   2.400   3.035   5.294
 7039SOL     OW22015   1.975   5.289   1.800
 7039SOL    HW122016   1.999   5.228   1.875
 7039SOL    HW222017   1.952   5.379   1.837
 7040SOL     OW22018   6.077   1.619   6.040
 7040SOL    HW122019   6.078   1.639   5.942
 7040SOL    HW222020   6.027   1.535   6.057
 7041SOL     OW22021   6.387   1.238   1.970
 7041SOL    HW122022   6.442   1.264   2.049
 7041SOL    HW222023   6.314   1.304   1.957
 7042SOL     OW22024   4.640   4.821   5.034
 7042SOL    HW122025   4.564   4.885   5.045
 7042SOL    HW222026   4.720   4.870   5.001
 7043SOL     OW22027   2.546   4.519   2.768
 7043SOL    HW122028   2.578   4.601   2.816
 7043SOL    HW222029   2.545   4.441   2.831
 7044SOL     OW22030   5.603   5.182   4.080
 7044SOL    HW122031   5.621   5.175   4.178
 7044SOL    HW222032   5.540   5.258   4.063
 7045SOL     OW22033   5.256   5.602   3.326
 7045SOL    HW122034   5.350   5.567   3.327
 7045SOL    HW222035   5.195   5.535   3.369
 7046SOL     OW22036   3.148   0.972   3.178
 7046SOL    HW122037   3.148   0.874   3.196
 7046SOL    HW222038   3.079   1.016   3.236
 7047SOL     OW22039   6.263   1.433   2.295
 7047SOL    HW122040   6.327   1.399   2.226
 7047SOL    HW222041   6.278   1.531   2.309
 7048SOL     OW22042   5.169   0.011   3.231
 7048SOL    HW122043   5.263   7.008   3.212
 7048SOL    HW222044   5.106   6.967   3.198
 7049SOL     OW22045   3.130   1.641   0.416
 7049SOL    HW122046   3.216   1.606   0.379
 7049SOL    HW222047   3.122   1.739   0.398
 7050SOL     OW22048   4.434   3.499   1.528
 7050SOL    HW122049   4.447   3.498   1.627
 7050SOL    HW222050   4.513   3.541   1.484
 7051SOL     OW22051   6.112   6.775   0.917
 7051SOL    HW122052   6.133   6.800   1.011
 7051SOL    HW222053   6.026   6.818   0.889
 7052SOL     OW22054   5.697   2.140   3.206
 7052SOL    HW122055   5.688   2.041   3.197
 7052SOL    HW222056   5.629   2.185   3.148
 7053SOL     OW22057   1.137   3.340   5.408
 7053SOL    HW122058   1.062   3.399   5.438
 7053SOL    HW222059   1.170   3.285   5.485
 7054SOL     OW22060   0.124   6.604   0.233
 7054SOL    HW122061   0.089   6.657   0.156
 7054SOL    HW222062   0.049   6.584   0.296
 7055SOL     OW22063   2.672   6.958   5.933
 7055SOL    HW122064   2.675   6.931   6.030
 7055SOL    HW222065   2.586   6.925   5.893
 7056SOL     OW22066   0.028   4.318   2.254
 7056SOL    HW122067   0.114   4.281   2.288
 7056SOL    HW222068   0.022   4.415   2.278
 7057SOL     OW22069   2.523   5.351   4.391
 7057SOL    HW122070   2.436   5.321   4.353
 7057SOL    HW222071   2.519   5.346   4.491
 7058SOL     OW22072   5.542   4.313   5.108
 7058SOL    HW122073   5.443   4.327   5.111
 7058SOL    HW222074   5.562   4.215   5.102
 7059SOL     OW22075   0.085   1.646   3.870
 7059SOL    HW122076   0.071   1.557   3.913
 7059SOL    HW222077   0.146   1.702   3.927
 7060SOL     OW22078   3.533   0.079   1.274
 7060SOL    HW122079   3.492   0.109   1.360
 7060SOL    HW222080   3.576   7.015   1.288
 7061SOL     OW22081   0.446   3.357   3.889
 7061SOL    HW122082   0.363   3.373   3.943
 7061SOL    HW222083   0.497   3.442   3.880
 7062SOL     OW22084   4.227   1.128   5.467
 7062SOL    HW122085   4.262   1.188   5.539
 7062SOL    HW222086   4.273   1.039   5.472
 7063SOL     OW22087   1.516   7.016   2.082
 7063SOL    HW122088   1.581   0.058   2.046
 7063SOL    HW222089   1.519   6.934   2.024
 7064SOL     OW22090   3.612   2.018   0.185
 7064SOL    HW122091   3.706   2.041   0.160
 7064SOL    HW222092   3.604   1.920   0.199
 7065SOL     OW22093   5.261   3.975   5.633
 7065SOL    HW122094   5.197   3.901   5.653
 7065SOL    HW222095   5.268   4.036   5.711
 7066SOL     OW22096   4.736   0.179   6.851
 7066SOL    HW122097   4.766   0.197   6.945
 7066SOL    HW222098   4.664   0.244   6.827
 7067SOL     OW22099   1.391   2.932   5.733
 7067SOL    HW122100   1.435   2.945   5.644
 7067SOL    HW222101   1.458   2.899   5.799
 7068SOL     OW22102   6.520   4.754   4.737
 7068SOL    HW122103   6.608   4.798   4.757
 7068SOL    HW222104   6.529   4.696   4.656
 7069SOL     OW22105   5.257   2.226   4.251
 7069SOL    HW122106   5.194   2.196   4.179
 7069SOL    HW222107   5.314   2.148   4.280
 7070SOL     OW22108   0.651   0.032   5.001
 7070SOL    HW122109   0.665   6.974   5.055
 7070SOL    HW222110   0.684   0.018   4.908
 7071SOL     OW22111   3.065   5.956   5.132
 7071SOL    HW122112   3.132   5.949   5.206
 7071SOL    HW222113   3.054   6.052   5.106
 7072SOL     OW22114   1.745   6.516   0.248
 7072SOL    HW122115   1.802   6.496   0.168
 7072SOL    HW222116   1.714   6.611   0.244
 7073SOL     OW22117   5.409   6.927   4.177
 7073SOL    HW122118   5.499   6.924   4.220
 7073SOL    HW222119   5.368   6.836   4.177
 7074SOL     OW22120   5.689   2.689   1.741
 7074SOL    HW122121   5.756   2.650   1.678
 7074SOL    HW222122   5.618   2.622   1.761
 7075SOL     OW22123   1.786   4.246   5.138
 7075SOL    HW122124   1.836   4.186   5.076
 7075SOL    HW222125   1.788   4.208   5.231
 7076SOL     OW22126   5.867   2.534   6.433
 7076SOL    HW122127   5.917   2.462   6.385
 7076SOL    HW222128   5.807   2.581   6.368
 7077SOL     OW22129   2.521   4.787   4.050
 7077SOL    HW122130   2.520   4.689   4.031
 7077SOL    HW222131   2.590   4.807   4.120
 7078SOL     OW22132   6.478   6.740   1.814
 7078SOL    HW122133   6.386   6.719   1.846
 7078SOL    HW222134   6.506   6.670   1.747
 7079SOL     OW22135   6.974   5.825   4.588
 7079SOL    HW122136   0.034   5.858   4.628
 7079SOL    HW222137   6.965   5.862   4.495
 7080SOL     OW22138   3.431   1.020   4.866
 7080SOL    HW122139   3.495   0.968   4.808
 7080SOL    HW222140   3.439   1.117   4.845
 7081SOL     OW22141   2.250   6.159   7.020
 7081SOL    HW122142   2.300   6.226   0.049
 7081SOL    HW222143   2.161   6.197   6.993
 7082SOL     OW22144   6.551   4.392   6.898
 7082SOL    HW122145   6.585   4.471   6.846
 7082SOL    HW222146   6.615   4.315   6.886
 7083SOL     OW22147   1.833   6.772   1.262
 7083SOL    HW122148   1.797   6.680   1.281
 7083SOL    HW222149   1.860   6.815   1.348
 7084SOL     OW22150   0.271   4.933   5.177
 7084SOL    HW122151   0.220   4.919   5.092
 7084SOL    HW222152   0.211   4.918   5.255
 7085SOL     OW22153   1.008   1.208   2.149
 7085SOL    HW122154   1.003   1.299   2.188
 7085SOL    HW222155   1.035   1.142   2.219
 7086SOL     OW22156   5.990   0.072   5.895
 7086SOL    HW122157   5.934   0.042   5.818
 7086SOL    HW222158   5.940   0.057   5.980
 7087SOL     OW22159   6.151   4.006   4.263
 7087SOL    HW122160   6.210   3.942   4.312
 7087SOL    HW222161   6.146   4.092   4.314
 7088SOL     OW22162   5.136   2.814   3.841
 7088SOL    HW122163   5.061   2.861   3.889
 7088SOL    HW222164   5.098   2.758   3.768
 7089SOL     OW22165   2.798   2.380   4.512
 7089SOL    HW122166   2.811   2.479   4.503
 7089SOL    HW222167   2.700   2.359   4.504
 7090SOL     OW22168   1.825   0.379   0.110
 7090SOL    HW122169   1.789   0.292   0.075
 7090SOL    HW222170   1.825   0.376   0.210
 7091SOL     OW22171   0.332   2.228   0.802
 7091SOL    HW122172   0.404   2.239   0.870
 7091SOL    HW222173   0.288   2.139   0.813
 7092SOL     OW22174   3.628   3.231   5.864
 7092SOL    HW122175   3.535   3.203   5.843
 7092SOL    HW222176   3.682   3.238   5.780
 7093SOL     OW22177   3.261   4.122   2.489
 7093SOL    HW122178   3.286   4.056   2.418
 7093SOL    HW222179   3.230   4.207   2.445
 7094SOL     OW22180   0.307   5.783   5.651
 7094SOL    HW122181   0.357   5.841   5.715
 7094SOL    HW222182   0.209   5.790   5.670
 7095SOL     OW22183   3.497   4.576   5.576
 7095SOL    HW122184   3.592   4.607   5.581
 7095SOL    HW222185   3.461   4.593   5.484
 7096SOL     OW22186   6.909   1.564   3.237
 7096SOL    HW122187   6.942   1.650   3.198
 7096SOL    HW222188   6.924   1.490   3.171
 7097SOL     OW22189   4.721   1.667   1.366
 7097SOL    HW122190   4.765   1.596   1.421
 7097SOL    HW222191   4.765   1.755   1.383
 7098SOL     OW22192   2.017   5.373   5.946
 7098SOL    HW122193   1.935   5.375   5.889
 7098SOL    HW222194   2.082   5.308   5.908
 7099SOL     OW22195   3.609   1.145   5.216
 7099SOL    HW122196   3.542   1.213   5.186
 7099SOL    HW222197   3.670   1.124   5.141
 7100SOL     OW22198   6.959   3.909   0.254
 7100SOL    HW122199   6.982   3.883   0.160
 7100SOL    HW222200   6.945   3.826   0.309
 7101SOL     OW22201   2.136   1.987   5.484
 7101SOL    HW122202   2.101   2.008   5.393
 7101SOL    HW222203   2.157   2.072   5.532
 7102SOL     OW22204   5.047   6.911   0.884
 7102SOL    HW122205   5.097   6.960   0.812
 7102SOL    HW222206   5.112   6.873   0.950
 7103SOL     OW22207   5.338   4.974   2.406
 7103SOL    HW122208   5.332   5.041   2.332
 7103SOL    HW222209   5.293   5.011   2.488
 7104SOL     OW22210   6.874   3.779   3.547
 7104SOL    HW122211   6.941   3.704   3.545
 7104SOL    HW222212   6.880   3.826   3.635
 7105SOL     OW22213   2.983   3.462   5.104
 7105SOL    HW122214   3.068   3.432   5.062
 7105SOL    HW222215   2.946   3.540   5.052
 7106SOL     OW22216   3.429   3.639   2.251
 7106SOL    HW122217   3.470   3.729   2.262
 7106SOL    HW222218   3.450   3.583   2.331
 7107SOL     OW22219   4.666   1.109   0.474
 7107SOL    HW122220   4.676   1.050   0.555
 7107SOL    HW222221   4.642   1.201   0.503
 7108SOL     OW22222   3.091   6.436   2.768
 7108SOL    HW122223   3.013   6.438   2.705
 7108SOL    HW222224   3.079   6.362   2.833
 7109SOL     OW22225   2.323   7.002   6.062
 7109SOL    HW122226   2.363   6.994   6.153
 7109SOL    HW222227   2.335   6.916   6.012
 7110SOL     OW22228   3.146   6.012   4.267
 7110SOL    HW122229   3.074   6.072   4.233
 7110SOL    HW222230   3.111   5.956   4.342
 7111SOL     OW22231   1.377   2.519   4.965
 7111SOL    HW122232   1.320   2.444   4.932
 7111SOL    HW222233   1.346   2.547   5.056
 7112SOL     OW22234   2.095   5.245   4.778
 7112SOL    HW122235   2.098   5.326   4.837
 7112SOL    HW222236   2.000   5.217   4.765
 7113SOL     OW22237   3.938   3.936   4.378
 7113SOL    HW122238   3.913   4.013   4.437
 7113SOL    HW222239   3.943   3.967   4.283
 7114SOL     OW22240   5.575   5.726   0.835
 7114SOL    HW122241   5.653   5.705   0.895
 7114SOL    HW222242   5.503   5.659   0.849
 7115SOL     OW22243   5.260   2.644   0.422
 7115SOL    HW122244   5.339   2.704   0.436
 7115SOL    HW222245   5.179   2.700   0.402
 7116SOL     OW22246   5.744   4.523   2.603
 7116SOL    HW122247   5.725   4.607   2.552
 7116SOL    HW222248   5.753   4.544   2.700
 7117SOL     OW22249   0.812   6.530   4.636
 7117SOL    HW122250   0.779   6.551   4.728
 7117SOL    HW222251   0.912   6.521   4.638
 7118SOL     OW22252   3.212   4.914   0.406
 7118SOL    HW122253   3.211   4.899   0.505
 7118SOL    HW222254   3.125   4.883   0.367
 7119SOL     OW22255   4.664   1.538   3.919
 7119SOL    HW122256   4.725   1.559   3.843
 7119SOL    HW222257   4.582   1.493   3.884
 7120SOL     OW22258   3.046   2.144   2.207
 7120SOL    HW122259   3.021   2.226   2.155
 7120SOL    HW222260   3.140   2.118   2.182
 7121SOL     OW22261   0.553   0.111   3.423
 7121SOL    HW122262   0.549   0.110   3.523
 7121SOL    HW222263   0.636   0.065   3.392
 7122SOL     OW22264   1.581   0.768   6.015
 7122SOL    HW122265   1.595   0.685   6.069
 7122SOL    HW222266   1.500   0.816   6.049
 7123SOL     OW22267   1.278   4.537   3.234
 7123SOL    HW122268   1.283   4.465   3.165
 7123SOL    HW222269   1.368   4.551   3.274
 7124SOL     OW22270   6.564   1.926   1.660
 7124SOL    HW122271   6.520   2.009   1.625
 7124SOL    HW222272   6.655   1.918   1.620
 7125SOL     OW22273   0.486   0.158   0.599
 7125SOL    HW122274   0.473   0.158   0.698
 7125SOL    HW222275   0.573   0.114   0.577
 7126SOL     OW22276   3.780   5.227   0.210
 7126SOL    HW122277   3.765   5.207   0.307
 7126SOL    HW222278   3.739   5.154   0.155
 7127SOL     OW22279   1.965   5.379   6.221
 7127SOL    HW122280   1.988   5.374   6.124
 7127SOL    HW222281   2.047   5.361   6.275
 7128SOL     OW22282   3.036   4.529   6.646
 7128SOL    HW122283   2.957   4.579   6.682
 7128SOL    HW222284   3.113   4.592   6.638
 7129SOL     OW22285   2.247   1.584   0.456
 7129SOL    HW122286   2.314   1.629   0.397
 7129SOL    HW222287   2.235   1.489   0.428
 7130SOL     OW22288   3.573   5.805   4.251
 7130SOL    HW122289   3.555   5.840   4.342
 7130SOL    HW222290   3.634   5.868   4.202
 7131SOL     OW22291   2.482   0.862   1.332
 7131SOL    HW122292   2.468   0.796   1.259
 7131SOL    HW222293   2.404   0.862   1.394
 7132SOL     OW22294   3.840   3.593   0.753
 7132SOL    HW122295   3.845   3.495   0.774
 7132SOL    HW222296   3.879   3.646   0.828
 7133SOL     OW22297   4.705   5.230   5.533
 7133SOL    HW122298   4.711   5.251   5.631
 7133SOL    HW222299   4.663   5.140   5.521
 7134SOL     OW22300   4.802   6.966   1.274
 7134SOL    HW122301   4.739   6.967   1.351
 7134SOL    HW222302   4.774   6.895   1.209
 7135SOL     OW22303   1.828   2.903   3.543
 7135SOL    HW122304   1.765   2.934   3.473
 7135SOL    HW222305   1.807   2.809   3.568
 7136SOL     OW22306   2.155   1.897   0.365
 7136SOL    HW122307   2.200   1.857   0.285
 7136SOL    HW222308   2.056   1.899   0.351
 7137SOL     OW22309   3.038   1.050   6.648
 7137SOL    HW122310   3.130   1.028   6.614
 7137SOL    HW222311   3.031   1.149   6.662
 7138SOL     OW22312   2.636   2.361   0.051
 7138SOL    HW122313   2.647   2.283   7.016
 7138SOL    HW222314   2.540   2.387   0.056
 7139SOL     OW22315   6.149   4.265   1.703
 7139SOL    HW122316   6.059   4.266   1.660
 7139SOL    HW222317   6.219   4.288   1.635
 7140SOL     OW22318   6.534   4.029   2.241
 7140SOL    HW122319   6.545   3.938   2.279
 7140SOL    HW222320   6.620   4.080   2.249
 7141SOL     OW22321   3.782   6.429   0.450
 7141SOL    HW122322   3.760   6.526   0.459
 7141SOL    HW222323   3.697   6.376   0.447
 7142SOL     OW22324   3.545   6.883   3.098
 7142SOL    HW122325   3.603   6.965   3.107
 7142SOL    HW222326   3.541   6.835   3.185
 7143SOL     OW22327   2.031   2.518   6.470
 7143SOL    HW122328   2.015   2.532   6.372
 7143SOL    HW222329   1.993   2.595   6.521
 7144SOL     OW22330   1.936   2.117   2.662
 7144SOL    HW122331   1.839   2.125   2.640
 7144SOL    HW222332   1.962   2.020   2.660
 7145SOL     OW22333   3.943   0.355   6.449
 7145SOL    HW122334   3.969   0.259   6.464
 7145SOL    HW222335   3.983   0.387   6.364
 7146SOL     OW22336   1.953   6.836   6.711
 7146SOL    HW122337   1.893   6.837   6.631
 7146SOL    HW222338   2.040   6.879   6.688
 7147SOL     OW22339   6.913   6.488   3.256
 7147SOL    HW122340   6.908   6.402   3.205
 7147SOL    HW222341   6.967   6.554   3.204
 7148SOL     OW22342   0.107   6.848   1.376
 7148SOL    HW122343   0.014   6.861   1.410
 7148SOL    HW222344   0.162   6.804   1.448
 7149SOL     OW22345   6.884   6.411   3.655
 7149SOL    HW122346   6.922   6.483   3.597
 7149SOL    HW222347   6.785   6.418   3.658
 7150SOL     OW22348   3.787   2.688   0.932
 7150SOL    HW122349   3.717   2.628   0.894
 7150SOL    HW222350   3.845   2.636   0.994
 7151SOL     OW22351   3.235   6.687   0.696
 7151SOL    HW122352   3.276   6.767   0.651
 7151SOL    HW222353   3.136   6.698   0.702
 7152SOL     OW22354   6.734   0.496   5.094
 7152SOL    HW122355   6.656   0.434   5.081
 7152SOL    HW222356   6.730   0.534   5.186
 7153SOL     OW22357   4.255   5.253   1.513
 7153SOL    HW122358   4.202   5.190   1.569
 7153SOL    HW222359   4.207   5.341   1.507
 7154SOL     OW22360   4.891   0.021   2.756
 7154SOL    HW122361   4.893   6.951   2.785
 7154SOL    HW222362   4.977   0.065   2.782
 7155SOL     OW22363   2.709   3.001   1.148
 7155SOL    HW122364   2.655   3.081   1.122
 7155SOL    HW222365   2.648   2.923   1.162
 7156SOL     OW22366   6.886   3.080   3.708
 7156SOL    HW122367   6.900   3.165   3.657
 7156SOL    HW222368   6.804   3.034   3.675
 7157SOL     OW22369   0.376   3.934   1.469
 7157SOL    HW122370   0.277   3.925   1.478
 7157SOL    HW222371   0.399   3.977   1.381
 7158SOL     OW22372   0.799   0.413   4.107
 7158SOL    HW122373   0.716   0.456   4.145
 7158SOL    HW222374   0.864   0.485   4.081
 7159SOL     OW22375   0.683   4.776   3.709
 7159SOL    HW122376   0.742   4.753   3.786
 7159SOL    HW222377   0.731   4.757   3.623
 7160SOL     OW22378   5.764   0.329   2.525
 7160SOL    HW122379   5.860   0.349   2.542
 7160SOL    HW222380   5.754   0.239   2.483
 7161SOL     OW22381   3.232   4.096   3.266
 7161SOL    HW122382   3.319   4.063   3.230
 7161SOL    HW222383   3.163   4.093   3.194
 7162SOL     OW22384   1.205   5.056   6.338
 7162SOL    HW122385   1.204   5.072   6.239
 7162SOL    HW222386   1.228   4.960   6.356
 7163SOL     OW22387   2.720   7.021   2.280
 7163SOL    HW122388   2.667   0.047   2.213
 7163SOL    HW222389   2.751   0.057   2.352
 7164SOL     OW22390   3.115   0.449   4.319
 7164SOL    HW122391   3.025   0.412   4.296
 7164SOL    HW222392   3.186   0.388   4.284
 7165SOL     OW22393   6.325   7.016   2.665
 7165SOL    HW122394   6.292   6.963   2.587
 7165SOL    HW222395   6.397   0.053   2.635
 7166SOL     OW22396   4.658   1.700   0.879
 7166SOL    HW122397   4.615   1.679   0.967
 7166SOL    HW222398   4.750   1.735   0.896
 7167SOL     OW22399   5.259   3.105   4.532
 7167SOL    HW122400   5.297   3.038   4.596
 7167SOL    HW222401   5.167   3.131   4.561
 7168SOL     OW22402   1.881   2.882   3.029
 7168SOL    HW122403   1.831   2.861   2.945
 7168SOL    HW222404   1.848   2.969   3.066
 7169SOL     OW22405   0.043   3.732   5.869
 7169SOL    HW122406   0.002   3.751   5.780
 7169SOL    HW222407   0.116   3.664   5.859
 7170SOL     OW22408   5.124   0.118   2.843
 7170SOL    HW122409   5.114   0.167   2.930
 7170SOL    HW222410   5.167   0.029   2.860
 7171SOL     OW22411   6.295   3.974   6.950
 7171SOL    HW122412   6.196   3.959   6.951
 7171SOL    HW222413   6.341   3.894   6.989
 7172SOL     OW22414   1.794   0.162   4.809
 7172SOL    HW122415   1.773   0.077   4.761
 7172SOL    HW222416   1.803   0.236   4.743
 7173SOL     OW22417   6.455   4.777   6.845
 7173SOL    HW122418   6.522   4.837   6.888
 7173SOL    HW222419   6.433   4.811   6.753
 7174SOL     OW22420   1.200   3.323   0.475
 7174SOL    HW122421   1.150   3.320   0.562
 7174SOL    HW222422   1.297   3.339   0.493
 7175SOL     OW22423   5.601   3.139   5.838
 7175SOL    HW122424   5.516   3.190   5.852
 7175SOL    HW222425   5.600   3.095   5.749
 7176SOL     OW22426   6.837   1.252   3.574
 7176SOL    HW122427   6.839   1.224   3.478
 7176SOL    HW222428   6.845   1.352   3.579
 7177SOL     OW22429   1.114   4.579   5.099
 7177SOL    HW122430   1.118   4.589   5.199
 7177SOL    HW222431   1.144   4.487   5.074
 7178SOL     OW22432   6.712   1.440   5.908
 7178SOL    HW122433   6.755   1.385   5.980
 7178SOL    HW222434   6.629   1.394   5.876
 7179SOL     OW22435   2.142   3.374   4.254
 7179SOL    HW122436   2.133   3.274   4.252
 7179SOL    HW222437   2.150   3.408   4.160
 7180SOL     OW22438   1.906   5.318   6.820
 7180SOL    HW122439   1.825   5.374   6.837
 7180SOL    HW222440   1.886   5.254   6.745
 7181SOL     OW22441   2.012   0.143   0.388
 7181SOL    HW122442   2.023   0.136   0.487
 7181SOL    HW222443   2.066   0.071   0.343
 7182SOL     OW22444   0.153   3.266   4.289
 7182SOL    HW122445   0.184   3.304   4.202
 7182SOL    HW222446   0.193   3.176   4.303
 7183SOL     OW22447   1.427   5.576   1.635
 7183SOL    HW122448   1.431   5.539   1.728
 7183SOL    HW222449   1.355   5.645   1.631
 7184SOL     OW22450   6.711   0.965   4.020
 7184SOL    HW122451   6.623   0.926   3.993
 7184SOL    HW222452   6.749   1.016   3.943
 7185SOL     OW22453   5.818   0.995   4.981
 7185SOL    HW122454   5.861   0.912   4.947
 7185SOL    HW222455   5.805   1.060   4.906
 7186SOL     OW22456   6.351   1.811   1.859
 7186SOL    HW122457   6.365   1.845   1.952
 7186SOL    HW222458   6.421   1.851   1.799
 7187SOL     OW22459   2.773   4.204   5.311
 7187SOL    HW122460   2.676   4.192   5.331
 7187SOL    HW222461   2.793   4.171   5.219
 7188SOL     OW22462   5.250   6.883   6.863
 7188SOL    HW122463   5.157   6.859   6.835
 7188SOL    HW222464   5.297   6.930   6.788
 7189SOL     OW22465   5.935   1.384   5.070
 7189SOL    HW122466   5.991   1.307   5.100
 7189SOL    HW222467   5.929   1.384   4.970
 7190SOL     OW22468   6.657   4.749   1.864
 7190SOL    HW122469   6.691   4.717   1.952
 7190SOL    HW222470   6.586   4.686   1.830
 7191SOL     OW22471   1.808   4.851   2.510
 7191SOL    HW122472   1.895   4.897   2.527
 7191SOL    HW222473   1.826   4.759   2.475
 7192SOL     OW22474   2.167   3.945   5.721
 7192SOL    HW122475   2.259   3.937   5.758
 7192SOL    HW222476   2.154   4.036   5.683
 7193SOL     OW22477   1.137   2.867   2.597
 7193SOL    HW122478   1.110   2.907   2.685
 7193SOL    HW222479   1.197   2.930   2.549
 7194SOL     OW22480   2.194   2.495   0.648
 7194SOL    HW122481   2.235   2.571   0.598
 7194SOL    HW222482   2.256   2.464   0.719
 7195SOL     OW22483   0.972   4.108   6.945
 7195SOL    HW122484   1.050   4.170   6.952
 7195SOL    HW222485   0.975   4.061   6.857
 7196SOL     OW22486   2.276   3.649   1.637
 7196SOL    HW122487   2.181   3.620   1.620
 7196SOL    HW222488   2.312   3.599   1.717
 7197SOL     OW22489   0.660   2.630   5.743
 7197SOL    HW122490   0.711   2.692   5.803
 7197SOL    HW222491   0.662   2.538   5.781
 7198SOL     OW22492   0.691   0.662   0.513
 7198SOL    HW122493   0.675   0.664   0.612
 7198SOL    HW222494   0.648   0.580   0.474
 7199SOL     OW22495   1.762   0.106   1.816
 7199SOL    HW122496   1.759   0.023   1.759
 7199SOL    HW222497   1.854   0.115   1.856
 7200SOL     OW22498   2.090   2.900   6.624
 7200SOL    HW122499   2.030   2.820   6.621
 7200SOL    HW222500   2.141   2.907   6.538
 7201SOL     OW22501   0.855   6.448   4.063
 7201SOL    HW122502   0.823   6.408   4.149
 7201SOL    HW222503   0.812   6.401   3.986
 7202SOL     OW22504   5.671   6.889   0.473
 7202SOL    HW122505   5.694   6.857   0.381
 7202SOL    HW222506   5.717   6.976   0.490
 7203SOL     OW22507   0.033   1.204   0.586
 7203SOL    HW122508   0.048   1.273   0.515
 7203SOL    HW222509   6.991   1.137   0.555
 7204SOL     OW22510   0.292   0.269   6.036
 7204SOL    HW122511   0.263   0.179   6.004
 7204SOL    HW222512   0.218   0.334   6.024
 7205SOL     OW22513   1.587   4.048   4.399
 7205SOL    HW122514   1.677   4.028   4.359
 7205SOL    HW222515   1.591   4.037   4.498
 7206SOL     OW22516   1.316   0.314   2.163
 7206SOL    HW122517   1.226   0.272   2.155
 7206SOL    HW222518   1.355   0.290   2.252
 7207SOL     OW22519   3.155   0.410   2.497
 7207SOL    HW122520   3.253   0.395   2.512
 7207SOL    HW222521   3.143   0.472   2.420
 7208SOL     OW22522   3.793   0.149   3.295
 7208SOL    HW122523   3.890   0.160   3.274
 7208SOL    HW222524   3.744   0.120   3.212
 7209SOL     OW22525   2.590   3.093   1.671
 7209SOL    HW122526   2.673   3.129   1.713
 7209SOL    HW222527   2.594   3.106   1.572
 7210SOL     OW22528   4.121   0.984   3.122
 7210SOL    HW122529   4.092   1.029   3.206
 7210SOL    HW222530   4.112   1.048   3.046
 7211SOL     OW22531   2.061   6.926   4.574
 7211SOL    HW122532   2.050   7.016   4.532
 7211SOL    HW222533   2.150   6.921   4.619
 7212SOL     OW22534   0.163   6.373   4.900
 7212SOL    HW122535   0.127   6.282   4.921
 7212SOL    HW222536   0.239   6.365   4.836
 7213SOL     OW22537   4.145   6.013   6.707
 7213SOL    HW122538   4.224   6.008   6.646
 7213SOL    HW222539   4.094   6.097   6.689
 7214SOL     OW22540   6.735   0.417   4.773
 7214SOL    HW122541   6.713   0.438   4.677
 7214SOL    HW222542   6.834   0.415   4.785
 7215SOL     OW22543   0.291   2.963   3.688
 7215SOL    HW122544   0.203   2.922   3.709
 7215SOL    HW222545   0.323   2.931   3.599
 7216SOL     OW22546   2.834   0.421   0.398
 7216SOL    HW122547   2.889   0.495   0.359
 7216SOL    HW222548   2.895   0.345   0.425
 7217SOL     OW22549   2.217   3.983   3.703
 7217SOL    HW122550   2.139   4.041   3.724
 7217SOL    HW222551   2.277   4.030   3.638
 7218SOL     OW22552   5.794   2.705   5.003
 7218SOL    HW122553   5.852   2.698   4.922
 7218SOL    HW222554   5.846   2.675   5.083
 7219SOL     OW22555   4.345   0.036   2.944
 7219SOL    HW122556   4.335   6.985   2.880
 7219SOL    HW222557   4.304   0.118   2.905
 7220SOL     OW22558   0.478   4.163   4.652
 7220SOL    HW122559   0.394   4.111   4.664
 7220SOL    HW222560   0.456   4.256   4.622
 7221SOL     OW22561   3.361   5.928   4.117
 7221SOL    HW122562   3.279   5.945   4.172
 7221SOL    HW222563   3.425   5.872   4.170
 7222SOL     OW22564   6.017   6.952   3.078
 7222SOL    HW122565   6.028   6.930   2.981
 7222SOL    HW222566   6.030   6.869   3.132
 7223SOL     OW22567   2.858   1.478   0.735
 7223SOL    HW122568   2.774   1.436   0.770
 7223SOL    HW222569   2.876   1.563   0.785
 7224SOL     OW22570   5.000   1.720   4.026
 7224SOL    HW122571   5.042   1.699   3.938
 7224SOL    HW222572   4.970   1.635   4.070
 7225SOL     OW22573   0.972   5.851   0.648
 7225SOL    HW122574   1.041   5.923   0.641
 7225SOL    HW222575   0.993   5.779   0.582
 7226SOL     OW22576   6.049   0.993   2.192
 7226SOL    HW122577   6.029   1.064   2.124
 7226SOL    HW222578   6.121   0.933   2.158
 7227SOL     OW22579   2.940   2.412   0.799
 7227SOL    HW122580   2.915   2.416   0.702
 7227SOL    HW222581   2.903   2.492   0.846
 7228SOL     OW22582   1.034   2.245   3.202
 7228SOL    HW122583   1.052   2.292   3.116
 7228SOL    HW222584   1.029   2.312   3.276
 7229SOL     OW22585   1.341   6.159   5.047
 7229SOL    HW122586   1.323   6.211   4.964
 7229SOL    HW222587   1.417   6.201   5.097
 7230SOL     OW22588   3.274   5.478   4.455
 7230SOL    HW122589   3.357   5.432   4.424
 7230SOL    HW222590   3.195   5.419   4.439
 7231SOL     OW22591   3.986   0.877   6.422
 7231SOL    HW122592   4.056   0.857   6.490
 7231SOL    HW222593   3.924   0.948   6.457
 7232SOL     OW22594   4.666   6.017   2.915
 7232SOL    HW122595   4.711   6.025   3.004
 7232SOL    HW222596   4.720   6.063   2.845
 7233SOL     OW22597   1.067   1.455   3.359
 7233SOL    HW122598   1.073   1.531   3.423
 7233SOL    HW222599   0.978   1.410   3.368
 7234SOL     OW22600   5.302   2.491   3.730
 7234SOL    HW122601   5.316   2.434   3.811
 7234SOL    HW222602   5.233   2.448   3.672
 7235SOL     OW22603   0.098   5.095   2.380
 7235SOL    HW122604   0.048   5.047   2.451
 7235SOL    HW222605   0.166   5.034   2.338
 7236SOL     OW22606   2.680   1.939   1.780
 7236SOL    HW122607   2.726   1.965   1.696
 7236SOL    HW222608   2.725   1.982   1.858
 7237SOL     OW22609   3.837   6.981   5.002
 7237SOL    HW122610   3.760   7.021   4.952
 7237SOL    HW222611   3.921   0.003   4.977
 7238SOL     OW22612   4.050   1.490   0.164
 7238SOL    HW122613   3.993   1.510   0.084
 7238SOL    HW222614   3.998   1.511   0.248
 7239SOL     OW22615   1.453   2.192   2.634
 7239SOL    HW122616   1.380   2.128   2.661
 7239SOL    HW222617   1.430   2.233   2.546
 7240SOL     OW22618   1.482   0.442   6.119
 7240SOL    HW122619   1.469   0.485   6.209
 7240SOL    HW222620   1.405   0.465   6.059
 7241SOL     OW22621   1.369   0.700   0.702
 7241SOL    HW122622   1.277   0.661   0.710
 7241SOL    HW222623   1.370   0.792   0.740
 7242SOL     OW22624   6.520   5.924   0.071
 7242SOL    HW122625   6.525   6.024   0.078
 7242SOL    HW222626   6.448   5.899   0.006
 7243SOL     OW22627   6.164   4.361   6.143
 7243SOL    HW122628   6.152   4.265   6.169
 7243SOL    HW222629   6.230   4.405   6.204
 7244SOL     OW22630   6.247   0.838   2.044
 7244SOL    HW122631   6.248   0.895   1.961
 7244SOL    HW222632   6.334   0.791   2.053
 7245SOL     OW22633   1.110   2.984   5.691
 7245SOL    HW122634   1.204   2.978   5.725
 7245SOL    HW222635   1.097   3.073   5.646
 7246SOL     OW22636   0.417   6.974   4.146
 7246SOL    HW122637   0.512   6.945   4.159
 7246SOL    HW222638   0.410   0.046   4.164
 7247SOL     OW22639   2.816   1.278   4.207
 7247SOL    HW122640   2.907   1.313   4.231
 7247SOL    HW222641   2.804   1.283   4.108
 7248SOL     OW22642   2.392   1.607   3.208
 7248SOL    HW122643   2.331   1.678   3.172
 7248SOL    HW222644   2.459   1.582   3.138
 7249SOL     OW22645   6.917   5.483   2.270
 7249SOL    HW122646   6.938   5.419   2.195
 7249SOL    HW222647   6.980   5.467   2.346
 7250SOL     OW22648   5.112   6.743   6.245
 7250SOL    HW122649   5.019   6.771   6.272
 7250SOL    HW222650   5.163   6.824   6.216
 7251SOL     OW22651   0.597   6.554   5.784
 7251SOL    HW122652   0.680   6.570   5.730
 7251SOL    HW222653   0.594   6.459   5.813
 7252SOL     OW22654   3.711   3.471   2.282
 7252SOL    HW122655   3.712   3.483   2.381
 7252SOL    HW222656   3.704   3.560   2.238
 7253SOL     OW22657   1.498   6.095   6.464
 7253SOL    HW122658   1.530   6.151   6.388
 7253SOL    HW222659   1.575   6.068   6.522
 7254SOL     OW22660   4.700   5.209   3.864
 7254SOL    HW122661   4.716   5.307   3.876
 7254SOL    HW222662   4.784   5.159   3.883
 7255SOL     OW22663   2.853   4.259   1.558
 7255SOL    HW122664   2.782   4.317   1.597
 7255SOL    HW222665   2.898   4.306   1.482
 7256SOL     OW22666   3.173   5.729   4.355
 7256SOL    HW122667   3.209   5.640   4.385
 7256SOL    HW222668   3.141   5.722   4.260
 7257SOL     OW22669   5.913   2.304   3.178
 7257SOL    HW122670   5.921   2.383   3.117
 7257SOL    HW222671   5.819   2.270   3.177
 7258SOL     OW22672   4.605   1.402   3.325
 7258SOL    HW122673   4.661   1.481   3.301
 7258SOL    HW222674   4.624   1.327   3.262
 7259SOL     OW22675   2.041   3.401   0.970
 7259SOL    HW122676   2.140   3.403   0.975
 7259SOL    HW222677   2.012   3.331   0.904
 7260SOL     OW22678   4.242   1.857   1.653
 7260SOL    HW122679   4.251   1.955   1.634
 7260SOL    HW222680   4.154   1.824   1.617
 7261SOL     OW22681   1.305   2.222   1.518
 7261SOL    HW122682   1.402   2.231   1.494
 7261SOL    HW222683   1.297   2.172   1.604
 7262SOL     OW22684   5.463   2.286   5.840
 7262SOL    HW122685   5.515   2.304   5.757
 7262SOL    HW222686   5.485   2.356   5.909
 7263SOL     OW22687   0.947   0.733   0.204
 7263SOL    HW122688   0.865   0.685   0.235
 7263SOL    HW222689   0.922   0.822   0.166
 7264SOL     OW22690   5.470   2.221   6.898
 7264SOL    HW122691   5.420   2.157   6.839
 7264SOL    HW222692   5.542   2.266   6.844
 7265SOL     OW22693   5.792   5.514   5.279
 7265SOL    HW122694   5.824   5.567   5.358
 7265SOL    HW222695   5.693   5.525   5.269
 7266SOL     OW22696   5.467   6.176   1.684
 7266SOL    HW122697   5.552   6.135   1.717
 7266SOL    HW222698   5.392   6.112   1.700
 7267SOL     OW22699   6.414   6.262   5.173
 7267SOL    HW122700   6.403   6.178   5.121
 7267SOL    HW222701   6.469   6.327   5.121
 7268SOL     OW22702   5.753   5.354   3.245
 7268SOL    HW122703   5.750   5.350   3.345
 7268SOL    HW222704   5.757   5.262   3.207
 7269SOL     OW22705   6.755   6.732   6.785
 7269SOL    HW122706   6.741   6.807   6.850
 7269SOL    HW222707   6.721   6.759   6.695
 7270SOL     OW22708   1.225   3.916   5.357
 7270SOL    HW122709   1.136   3.951   5.329
 7270SOL    HW222710   1.242   3.828   5.311
 7271SOL     OW22711   0.820   6.141   3.350
 7271SOL    HW122712   0.865   6.071   3.294
 7271SOL    HW222713   0.877   6.223   3.351
 7272SOL     OW22714   5.636   5.717   2.251
 7272SOL    HW122715   5.554   5.662   2.236
 7272SOL    HW222716   5.613   5.799   2.303
 7273SOL     OW22717   6.165   4.538   2.289
 7273SOL    HW122718   6.206   4.454   2.254
 7273SOL    HW222719   6.160   4.533   2.389
 7274SOL     OW22720   0.729   5.681   6.630
 7274SOL    HW122721   0.660   5.617   6.596
 7274SOL    HW222722   0.766   5.734   6.554
 7275SOL     OW22723   0.088   6.830   2.828
 7275SOL    HW122724   0.170   6.783   2.862
 7275SOL    HW222725   0.018   6.830   2.900
 7276SOL     OW22726   3.718   1.087   2.483
 7276SOL    HW122727   3.813   1.107   2.459
 7276SOL    HW222728   3.663   1.169   2.473
 7277SOL     OW22729   4.300   0.800   3.040
 7277SOL    HW122730   4.242   0.877   3.069
 7277SOL    HW222731   4.386   0.836   3.005
 7278SOL     OW22732   3.357   2.696   1.254
 7278SOL    HW122733   3.282   2.707   1.189
 7278SOL    HW222734   3.433   2.756   1.227
 7279SOL     OW22735   3.685   4.060   5.557
 7279SOL    HW122736   3.720   4.142   5.512
 7279SOL    HW222737   3.725   4.053   5.649
 7280SOL     OW22738   0.273   2.085   3.618
 7280SOL    HW122739   0.326   2.169   3.630
 7280SOL    HW222740   0.335   2.008   3.609
 7281SOL     OW22741   1.701   1.101   0.589
 7281SOL    HW122742   1.743   1.177   0.640
 7281SOL    HW222743   1.767   1.067   0.521
 7282SOL     OW22744   6.330   6.005   1.643
 7282SOL    HW122745   6.303   6.065   1.569
 7282SOL    HW222746   6.301   6.045   1.731
 7283SOL     OW22747   4.621   0.441   1.961
 7283SOL    HW122748   4.671   0.372   1.910
 7283SOL    HW222749   4.581   0.508   1.898
 7284SOL     OW22750   6.732   2.250   5.889
 7284SOL    HW122751   6.803   2.306   5.930
 7284SOL    HW222752   6.658   2.235   5.955
 7285SOL     OW22753   5.602   3.094   2.128
 7285SOL    HW122754   5.537   3.054   2.063
 7285SOL    HW222755   5.693   3.097   2.087
 7286SOL     OW22756   1.440   1.128   1.247
 7286SOL    HW122757   1.469   1.047   1.297
 7286SOL    HW222758   1.342   1.141   1.257
 7287SOL     OW22759   6.935   2.470   5.744
 7287SOL    HW122760   7.009   2.533   5.721
 7287SOL    HW222761   6.907   2.420   5.662
 7288SOL     OW22762   1.593   1.941   1.530
 7288SOL    HW122763   1.517   1.913   1.588
 7288SOL    HW222764   1.560   2.003   1.459
 7289SOL     OW22765   5.424   2.278   3.507
 7289SOL    HW122766   5.430   2.232   3.418
 7289SOL    HW222767   5.337   2.254   3.550
 7290SOL     OW22768   2.851   1.450   5.284
 7290SOL    HW122769   2.822   1.532   5.234
 7290SOL    HW222770   2.946   1.461   5.314
 7291SOL     OW22771   1.099   0.013   0.192
 7291SOL    HW122772   1.043   0.023   0.274
 7291SOL    HW222773   1.195   0.004   0.218
 7292SOL     OW22774   3.171   6.938   3.216
 7292SOL    HW122775   3.173   6.864   3.148
 7292SOL    HW222776   3.221   7.017   3.182
 7293SOL     OW22777   1.470   1.415   4.811
 7293SOL    HW122778   1.380   1.442   4.846
 7293SOL    HW222779   1.540   1.441   4.877
 7294SOL     OW22780   2.840   4.585   6.857
 7294SOL    HW122781   2.857   4.682   6.842
 7294SOL    HW222782   2.741   4.569   6.863
 7295SOL     OW22783   6.499   4.183   1.079
 7295SOL    HW122784   6.562   4.125   1.027
 7295SOL    HW222785   6.483   4.267   1.028
 7296SOL     OW22786   3.198   5.997   1.246
 7296SOL    HW122787   3.132   5.923   1.247
 7296SOL    HW222788   3.216   6.027   1.340
 7297SOL     OW22789   3.544   6.559   1.422
 7297SOL    HW122790   3.523   6.521   1.512
 7297SOL    HW222791   3.459   6.588   1.377
 7298SOL     OW22792   4.861   5.434   6.116
 7298SOL    HW122793   4.851   5.532   6.100
 7298SOL    HW222794   4.952   5.405   6.085
 7299SOL     OW22795   0.648   2.110   1.328
 7299SOL    HW122796   0.729   2.096   1.386
 7299SOL    HW222797   0.652   2.049   1.249
 7300SOL     OW22798   0.272   6.853   2.002
 7300SOL    HW122799   0.353   6.853   1.943
 7300SOL    HW222800   0.247   6.758   2.024
 7301SOL     OW22801   6.219   2.064   4.936
 7301SOL    HW122802   6.199   2.147   4.884
 7301SOL    HW222803   6.185   2.075   5.029
 7302SOL     OW22804   6.911   2.457   6.010
 7302SOL    HW122805   6.853   2.528   6.050
 7302SOL    HW222806   6.909   2.465   5.910
 7303SOL     OW22807   4.088   0.926   6.844
 7303SOL    HW122808   4.006   0.982   6.854
 7303SOL    HW222809   4.119   0.929   6.749
 7304SOL     OW22810   3.022   5.367   1.427
 7304SOL    HW122811   3.022   5.394   1.331
 7304SOL    HW222812   2.931   5.380   1.466
 7305SOL     OW22813   4.879   1.839   0.887
 7305SOL    HW122814   4.972   1.802   0.893
 7305SOL    HW222815   4.864   1.905   0.961
 7306SOL     OW22816   4.024   1.833   1.474
 7306SOL    HW122817   4.077   1.828   1.389
 7306SOL    HW222818   3.985   1.924   1.484
 7307SOL     OW22819   2.950   6.479   2.368
 7307SOL    HW122820   3.042   6.515   2.381
 7307SOL    HW222821   2.952   6.379   2.371
 7308SOL     OW22822   6.694   2.225   4.717
 7308SOL    HW122823   6.763   2.160   4.686
 7308SOL    HW222824   6.697   2.233   4.816
 7309SOL     OW22825   3.737   5.699   0.738
 7309SOL    HW122826   3.798   5.777   0.751
 7309SOL    HW222827   3.781   5.616   0.772
 7310SOL     OW22828   2.046   4.049   6.722
 7310SOL    HW122829   2.098   4.020   6.642
 7310SOL    HW222830   2.099   4.115   6.774
 7311SOL     OW22831   1.854   1.550   1.310
 7311SOL    HW122832   1.867   1.598   1.223
 7311SOL    HW222833   1.843   1.617   1.384
 7312SOL     OW22834   0.725   2.946   4.988
 7312SOL    HW122835   0.794   2.981   5.052
 7312SOL    HW222836   0.766   2.874   4.932
 7313SOL     OW22837   2.126   1.053   0.882
 7313SOL    HW122838   2.072   0.985   0.931
 7313SOL    HW222839   2.077   1.141   0.883
 7314SOL     OW22840   6.960   4.357   6.193
 7314SOL    HW122841   6.902   4.388   6.268
 7314SOL    HW222842   0.022   4.406   6.196
 7315SOL     OW22843   5.139   5.351   2.011
 7315SOL    HW122844   5.072   5.365   1.939
 7315SOL    HW222845   5.181   5.260   2.001
 7316SOL     OW22846   3.467   3.511   6.771
 7316SOL    HW122847   3.401   3.436   6.780
 7316SOL    HW222848   3.492   3.543   6.863
 7317SOL     OW22849   4.343   1.556   1.443
 7317SOL    HW122850   4.402   1.487   1.401
 7317SOL    HW222851   4.359   1.558   1.542
 7318SOL     OW22852   3.168   0.394   1.956
 7318SOL    HW122853   3.117   0.472   1.921
 7318SOL    HW222854   3.179   0.326   1.883
 7319SOL     OW22855   6.945   3.897   7.014
 7319SOL    HW122856   6.967   3.892   6.916
 7319SOL    HW222857   6.856   3.942   7.025
 7320SOL     OW22858   0.884   3.610   1.993
 7320SOL    HW122859   0.858   3.519   2.026
 7320SOL    HW222860   0.960   3.601   1.928
 7321SOL     OW22861   1.501   6.451   6.309
 7321SOL    HW122862   1.439   6.522   6.344
 7321SOL    HW222863   1.596   6.479   6.323
 7322SOL     OW22864   6.730   3.112   3.120
 7322SOL    HW122865   6.826   3.115   3.150
 7322SOL    HW222866   6.710   3.021   3.082
 7323SOL     OW22867   1.979   2.610   1.644
 7323SOL    HW122868   2.073   2.615   1.678
 7323SOL    HW222869   1.916   2.614   1.721
 7324SOL     OW22870   5.384   5.717   1.331
 7324SOL    HW122871   5.437   5.791   1.290
 7324SOL    HW222872   5.435   5.676   1.406
 7325SOL     OW22873   2.537   0.400   6.495
 7325SOL    HW122874   2.497   0.315   6.530
 7325SOL    HW222875   2.501   0.477   6.548
 7326SOL     OW22876   3.386   6.014   6.508
 7326SOL    HW122877   3.445   5.933   6.515
 7326SOL    HW222878   3.382   6.060   6.597
 7327SOL     OW22879   6.361   2.498   5.979
 7327SOL    HW122880   6.403   2.568   5.922
 7327SOL    HW222881   6.425   2.423   5.993
 7328SOL     OW22882   4.265   0.195   6.691
 7328SOL    HW122883   4.175   0.178   6.732
 7328SOL    HW222884   4.295   0.112   6.643
 7329SOL     OW22885   1.138   4.160   0.651
 7329SOL    HW122886   1.220   4.217   0.646
 7329SOL    HW222887   1.069   4.206   0.706
 7330SOL     OW22888   1.898   2.940   0.225
 7330SOL    HW122889   1.940   3.027   0.252
 7330SOL    HW222890   1.870   2.890   0.307
 7331SOL     OW22891   5.597   6.823   1.632
 7331SOL    HW122892   5.604   6.751   1.700
 7331SOL    HW222893   5.650   6.798   1.551
 7332SOL     OW22894   2.995   5.708   6.784
 7332SOL    HW122895   2.999   5.794   6.733
 7332SOL    HW222896   3.014   5.725   6.880
 7333SOL     OW22897   6.207   3.273   3.626
 7333SOL    HW122898   6.214   3.355   3.683
 7333SOL    HW222899   6.156   3.202   3.674
 7334SOL     OW22900   1.998   6.352   6.254
 7334SOL    HW122901   1.960   6.281   6.195
 7334SOL    HW222902   2.000   6.318   6.349
 7335SOL     OW22903   0.536   2.287   3.425
 7335SOL    HW122904   0.493   2.359   3.369
 7335SOL    HW222905   0.492   2.285   3.515
 7336SOL     OW22906   2.111   6.866   2.612
 7336SOL    HW122907   2.188   6.895   2.555
 7336SOL    HW222908   2.107   6.924   2.694
 7337SOL     OW22909   1.164   2.517   2.016
 7337SOL    HW122910   1.097   2.590   2.010
 7337SOL    HW222911   1.126   2.433   1.976
 7338SOL     OW22912   4.888   1.774   1.620
 7338SOL    HW122913   4.947   1.792   1.698
 7338SOL    HW222914   4.940   1.787   1.535
 7339SOL     OW22915   6.180   0.778   4.991
 7339SOL    HW122916   6.107   0.712   4.971
 7339SOL    HW222917   6.215   0.815   4.905
 7340SOL     OW22918   2.945   1.373   0.045
 7340SOL    HW122919   2.979   1.297   7.016
 7340SOL    HW222920   2.875   1.340   0.108
 7341SOL     OW22921   0.478   4.402   5.187
 7341SOL    HW122922   0.561   4.359   5.222
 7341SOL    HW222923   0.430   4.446   5.262
 7342SOL     OW22924   0.388   0.156   6.393
 7342SOL    HW122925   0.307   0.163   6.335
 7342SOL    HW222926   0.400   0.241   6.445
 7343SOL     OW22927   5.835   4.482   1.719
 7343SOL    HW122928   5.813   4.519   1.808
 7343SOL    HW222929   5.875   4.553   1.661
 7344SOL     OW22930   0.999   0.713   5.990
 7344SOL    HW122931   1.057   0.773   5.934
 7344SOL    HW222932   0.957   0.767   6.063
 7345SOL     OW22933   4.839   6.014   5.175
 7345SOL    HW122934   4.871   5.920   5.161
 7345SOL    HW222935   4.887   6.054   5.254
 7346SOL     OW22936   4.714   4.693   1.110
 7346SOL    HW122937   4.752   4.717   1.199
 7346SOL    HW222938   4.631   4.639   1.123
 7347SOL     OW22939   0.421   2.716   0.968
 7347SOL    HW122940   0.479   2.635   0.964
 7347SOL    HW222941   0.456   2.779   1.038
 7348SOL     OW22942   1.095   3.943   3.890
 7348SOL    HW122943   1.187   3.976   3.913
 7348SOL    HW222944   1.053   4.006   3.824
 7349SOL     OW22945   4.685   1.968   0.728
 7349SOL    HW122946   4.701   1.949   0.631
 7349SOL    HW222947   4.729   1.896   0.783
 7350SOL     OW22948   1.292   3.205   5.635
 7350SOL    HW122949   1.353   3.200   5.713
 7350SOL    HW222950   1.337   3.167   5.554
 7351SOL     OW22951   4.955   6.578   5.154
 7351SOL    HW122952   5.014   6.658   5.168
 7351SOL    HW222953   4.880   6.580   5.220
 7352SOL     OW22954   1.868   2.634   3.609
 7352SOL    HW122955   1.931   2.653   3.684
 7352SOL    HW222956   1.915   2.581   3.538
 7353SOL     OW22957   1.200   0.317   5.845
 7353SOL    HW122958   1.114   0.267   5.850
 7353SOL    HW222959   1.185   0.403   5.797
 7354SOL     OW22960   0.255   1.330   5.815
 7354SOL    HW122961   0.227   1.254   5.874
 7354SOL    HW222962   0.175   1.382   5.788
 7355SOL     OW22963   2.185   1.309   0.434
 7355SOL    HW122964   2.115   1.319   0.363
 7355SOL    HW222965   2.167   1.226   0.487
 7356SOL     OW22966   3.773   3.591   6.199
 7356SOL    HW122967   3.803   3.562   6.290
 7356SOL    HW222968   3.713   3.521   6.160
 7357SOL     OW22969   4.740   6.484   1.745
 7357SOL    HW122970   4.662   6.474   1.807
 7357SOL    HW222971   4.742   6.406   1.683
 7358SOL     OW22972   6.200   3.661   2.924
 7358SOL    HW122973   6.128   3.631   2.986
 7358SOL    HW222974   6.271   3.591   2.919
 7359SOL     OW22975   2.419   1.941   6.152
 7359SOL    HW122976   2.463   2.030   6.142
 7359SOL    HW222977   2.428   1.890   6.066
 7360SOL     OW22978   3.259   4.195   5.498
 7360SOL    HW122979   3.258   4.282   5.448
 7360SOL    HW222980   3.339   4.192   5.557
 7361SOL     OW22981   4.642   6.979   1.483
 7361SOL    HW122982   4.632   0.033   1.543
 7361SOL    HW222983   4.577   6.908   1.511
 7362SOL     OW22984   0.983   4.746   4.886
 7362SOL    HW122985   0.905   4.691   4.854
 7362SOL    HW222986   1.031   4.697   4.958
 7363SOL     OW22987   4.273   1.654   1.208
 7363SOL    HW122988   4.296   1.620   1.299
 7363SOL    HW222989   4.181   1.692   1.208
 7364SOL     OW22990   4.544   1.116   1.389
 7364SOL    HW122991   4.484   1.102   1.468
 7364SOL    HW222992   4.510   1.064   1.311
 7365SOL     OW22993   1.457   6.187   1.984
 7365SOL    HW122994   1.423   6.158   1.894
 7365SOL    HW222995   1.380   6.200   2.046
 7366SOL     OW22996   1.845   5.579   6.936
 7366SOL    HW122997   1.822   5.513   7.008
 7366SOL    HW222998   1.923   5.544   6.883
 7367SOL     OW22999   4.951   3.338   1.090
 7367SOL    HW123000   5.001   3.311   1.172
 7367SOL    HW223001   4.984   3.426   1.057
 7368SOL     OW23002   3.819   2.974   2.815
 7368SOL    HW123003   3.911   2.949   2.787
 7368SOL    HW223004   3.810   2.964   2.914
 7369SOL     OW23005   3.796   3.032   6.566
 7369SOL    HW123006   3.767   3.124   6.591
 7369SOL    HW223007   3.749   2.966   6.624
 7370SOL     OW23008   2.478   0.942   4.179
 7370SOL    HW123009   2.434   0.920   4.092
 7370SOL    HW223010   2.443   1.030   4.212
 7371SOL     OW23011   1.813   6.158   4.137
 7371SOL    HW123012   1.773   6.234   4.086
 7371SOL    HW223013   1.751   6.080   4.134
 7372SOL     OW23014   4.307   1.107   4.929
 7372SOL    HW123015   4.364   1.179   4.890
 7372SOL    HW223016   4.262   1.056   4.856
 7373SOL     OW23017   5.985   2.086   4.340
 7373SOL    HW123018   6.006   1.989   4.352
 7373SOL    HW223019   6.002   2.134   4.426
 7374SOL     OW23020   2.532   1.272   5.382
 7374SOL    HW123021   2.598   1.211   5.338
 7374SOL    HW223022   2.484   1.325   5.312
 7375SOL     OW23023   2.097   3.494   3.307
 7375SOL    HW123024   1.999   3.516   3.306
 7375SOL    HW223025   2.111   3.400   3.276
 7376SOL     OW23026   3.000   1.415   0.486
 7376SOL    HW123027   2.932   1.433   0.556
 7376SOL    HW223028   3.024   1.500   0.439
 7377SOL     OW23029   5.861   4.311   0.708
 7377SOL    HW123030   5.880   4.312   0.610
 7377SOL    HW223031   5.775   4.360   0.726
 7378SOL     OW23032   6.870   1.215   6.042
 7378SOL    HW123033   6.871   1.156   6.123
 7378SOL    HW223034   6.916   1.168   5.967
 7379SOL     OW23035   3.353   1.357   3.011
 7379SOL    HW123036   3.356   1.287   3.082
 7379SOL    HW223037   3.407   1.436   3.039
 7380SOL     OW23038   6.652   4.358   4.759
 7380SOL    HW123039   6.728   4.298   4.737
 7380SOL    HW223040   6.679   4.453   4.744
 7381SOL     OW23041   4.469   3.922   1.649
 7381SOL    HW123042   4.561   3.910   1.612
 7381SOL    HW223043   4.464   4.008   1.700
 7382SOL     OW23044   6.792   6.088   6.074
 7382SOL    HW123045   6.726   6.162   6.091
 7382SOL    HW223046   6.827   6.054   6.161
 7383SOL     OW23047   1.723   0.066   1.469
 7383SOL    HW123048   1.698   7.000   1.497
 7383SOL    HW223049   1.667   0.133   1.518
 7384SOL     OW23050   5.595   0.573   2.978
 7384SOL    HW123051   5.516   0.518   2.951
 7384SOL    HW223052   5.567   0.669   2.987
 7385SOL     OW23053   4.348   6.041   1.956
 7385SOL    HW123054   4.265   5.996   1.923
 7385SOL    HW223055   4.351   6.035   2.056
 7386SOL     OW23056   0.257   2.184   5.690
 7386SOL    HW123057   0.191   2.137   5.748
 7386SOL    HW223058   0.288   2.122   5.618
 7387SOL     OW23059   5.113   6.058   4.535
 7387SOL    HW123060   5.144   6.084   4.627
 7387SOL    HW223061   5.019   6.025   4.539
 7388SOL     OW23062   0.368   5.006   2.557
 7388SOL    HW123063   0.426   5.087   2.549
 7388SOL    HW223064   0.314   4.995   2.474
 7389SOL     OW23065   0.151   3.650   6.883
 7389SOL    HW123066   0.205   3.684   6.960
 7389SOL    HW223067   0.097   3.571   6.913
 7390SOL     OW23068   1.305   1.589   0.043
 7390SOL    HW123069   1.208   1.571   0.030
 7390SOL    HW223070   1.354   1.572   6.983
 7391SOL     OW23071   4.088   3.396   5.048
 7391SOL    HW123072   4.134   3.466   4.994
 7391SOL    HW223073   4.089   3.422   5.144
 7392SOL     OW23074   2.879   6.043   0.272
 7392SOL    HW123075   2.811   5.971   0.261
 7392SOL    HW223076   2.959   6.005   0.319
 7393SOL     OW23077   6.131   4.981   2.745
 7393SOL    HW123078   6.049   4.964   2.800
 7393SOL    HW223079   6.156   4.897   2.696
 7394SOL     OW23080   2.543   2.695   5.820
 7394SOL    HW123081   2.471   2.649   5.767
 7394SOL    HW223082   2.536   2.794   5.805
 7395SOL     OW23083   1.077   2.140   0.031
 7395SOL    HW123084   1.057   2.235   0.005
 7395SOL    HW223085   1.134   2.139   0.113
 7396SOL     OW23086   0.678   6.956   0.598
 7396SOL    HW123087   0.603   6.904   0.641
 7396SOL    HW223088   0.749   6.974   0.666
 7397SOL     OW23089   4.368   5.456   4.834
 7397SOL    HW123090   4.350   5.529   4.768
 7397SOL    HW223091   4.368   5.368   4.786
 7398SOL     OW23092   2.762   5.067   4.613
 7398SOL    HW123093   2.853   5.037   4.586
 7398SOL    HW223094   2.741   5.154   4.568
 7399SOL     OW23095   1.315   2.388   5.420
 7399SOL    HW123096   1.264   2.449   5.481
 7399SOL    HW223097   1.277   2.296   5.426
 7400SOL     OW23098   4.115   2.342   5.685
 7400SOL    HW123099   4.036   2.369   5.739
 7400SOL    HW223100   4.143   2.418   5.626
 7401SOL     OW23101   1.556   1.484   5.045
 7401SOL    HW123102   1.636   1.519   5.093
 7401SOL    HW223103   1.474   1.530   5.080
 7402SOL     OW23104   2.866   5.796   6.211
 7402SOL    HW123105   2.843   5.777   6.306
 7402SOL    HW223106   2.783   5.803   6.157
 7403SOL     OW23107   2.177   3.858   2.315
 7403SOL    HW123108   2.248   3.823   2.254
 7403SOL    HW223109   2.144   3.785   2.374
 7404SOL     OW23110   2.485   5.424   1.491
 7404SOL    HW123111   2.468   5.482   1.411
 7404SOL    HW223112   2.411   5.358   1.500
 7405SOL     OW23113   3.450   4.943   4.251
 7405SOL    HW123114   3.440   4.950   4.350
 7405SOL    HW223115   3.546   4.925   4.228
 7406SOL     OW23116   0.474   2.442   3.014
 7406SOL    HW123117   0.402   2.406   3.073
 7406SOL    HW223118   0.488   2.379   2.937
 7407SOL     OW23119   1.102   0.085   4.522
 7407SOL    HW123120   1.171   0.012   4.525
 7407SOL    HW223121   1.129   0.152   4.453
 7408SOL     OW23122   3.040   3.791   6.857
 7408SOL    HW123123   3.012   3.868   6.799
 7408SOL    HW223124   3.135   3.802   6.883
 7409SOL     OW23125   6.602   2.157   6.663
 7409SOL    HW123126   6.658   2.186   6.586
 7409SOL    HW223127   6.580   2.059   6.653
 7410SOL     OW23128   0.186   6.944   0.338
 7410SOL    HW123129   0.258   6.967   0.273
 7410SOL    HW223130   0.197   6.849   0.367
 7411SOL     OW23131   2.541   0.198   5.604
 7411SOL    HW123132   2.577   0.210   5.512
 7411SOL    HW223133   2.458   0.252   5.615
 7412SOL     OW23134   4.726   0.194   1.904
 7412SOL    HW123135   4.744   0.117   1.965
 7412SOL    HW223136   4.800   0.202   1.837
 7413SOL     OW23137   5.117   6.014   4.058
 7413SOL    HW123138   5.023   5.979   4.056
 7413SOL    HW223139   5.132   6.074   3.980
 7414SOL     OW23140   0.223   0.590   4.069
 7414SOL    HW123141   0.250   0.499   4.101
 7414SOL    HW223142   0.193   0.584   3.974
 7415SOL     OW23143   2.063   4.776   4.364
 7415SOL    HW123144   2.098   4.816   4.279
 7415SOL    HW223145   1.963   4.779   4.363
 7416SOL     OW23146   1.974   1.082   2.915
 7416SOL    HW123147   2.065   1.071   2.875
 7416SOL    HW223148   1.953   1.179   2.922
 7417SOL     OW23149   1.805   0.656   0.053
 7417SOL    HW123150   1.834   0.687   0.143
 7417SOL    HW223151   1.793   0.557   0.054
 7418SOL     OW23152   2.753   5.866   0.768
 7418SOL    HW123153   2.815   5.853   0.846
 7418SOL    HW223154   2.780   5.804   0.694
 7419SOL     OW23155   6.102   2.642   4.821
 7419SOL    HW123156   6.109   2.592   4.908
 7419SOL    HW223157   6.093   2.577   4.746
 7420SOL     OW23158   0.544   6.834   1.321
 7420SOL    HW123159   0.538   6.734   1.328
 7420SOL    HW223160   0.595   6.858   1.239
 7421SOL     OW23161   3.432   4.161   0.388
 7421SOL    HW123162   3.415   4.259   0.376
 7421SOL    HW223163   3.353   4.109   0.355
 7422SOL     OW23164   6.749   3.289   2.796
 7422SOL    HW123165   6.838   3.280   2.841
 7422SOL    HW223166   6.699   3.203   2.805
 7423SOL     OW23167   5.689   3.609   5.332
 7423SOL    HW123168   5.657   3.515   5.324
 7423SOL    HW223169   5.652   3.650   5.416
 7424SOL     OW23170   6.658   6.679   6.073
 7424SOL    HW123171   6.737   6.668   6.014
 7424SOL    HW223172   6.671   6.758   6.133
 7425SOL     OW23173   4.274   5.694   6.672
 7425SOL    HW123174   4.185   5.704   6.714
 7425SOL    HW223175   4.288   5.765   6.603
 7426SOL     OW23176   3.150   1.417   5.698
 7426SOL    HW123177   3.122   1.352   5.627
 7426SOL    HW223178   3.148   1.373   5.787
 7427SOL     OW23179   4.157   0.266   3.600
 7427SOL    HW123180   4.169   0.171   3.628
 7427SOL    HW223181   4.244   0.315   3.607
 7428SOL     OW23182   4.434   1.983   5.885
 7428SOL    HW123183   4.340   2.017   5.883
 7428SOL    HW223184   4.478   2.010   5.971
 7429SOL     OW23185   0.297   6.758   4.282
 7429SOL    HW123186   0.389   6.719   4.287
 7429SOL    HW223187   0.303   6.856   4.263
 7430SOL     OW23188   1.097   2.474   0.298
 7430SOL    HW123189   1.077   2.388   0.252
 7430SOL    HW223190   1.194   2.497   0.287
 7431SOL     OW23191   1.387   3.080   3.396
 7431SOL    HW123192   1.346   3.024   3.468
 7431SOL    HW223193   1.481   3.049   3.379
 7432SOL     OW23194   1.388   1.021   2.869
 7432SOL    HW123195   1.315   1.019   2.937
 7432SOL    HW223196   1.459   1.085   2.898
 7433SOL     OW23197   4.502   6.206   5.969
 7433SOL    HW123198   4.551   6.289   5.942
 7433SOL    HW223199   4.559   6.126   5.951
 7434SOL     OW23200   5.397   5.859   5.891
 7434SOL    HW123201   5.309   5.903   5.871
 7434SOL    HW223202   5.470   5.909   5.846
 7435SOL     OW23203   3.964   5.586   0.529
 7435SOL    HW123204   3.967   5.541   0.618
 7435SOL    HW223205   3.870   5.612   0.508
 7436SOL     OW23206   5.201   3.544   6.349
 7436SOL    HW123207   5.285   3.591   6.378
 7436SOL    HW223208   5.224   3.470   6.286
 7437SOL     OW23209   1.181   6.010   6.955
 7437SOL    HW123210   1.189   6.087   7.019
 7437SOL    HW223211   1.085   5.996   6.932
 7438SOL     OW23212   1.236   5.973   6.500
 7438SOL    HW123213   1.171   6.040   6.465
 7438SOL    HW223214   1.329   6.006   6.484
 7439SOL     OW23215   2.076   5.851   5.901
 7439SOL    HW123216   2.009   5.855   5.827
 7439SOL    HW223217   2.065   5.931   5.960
 7440SOL     OW23218   6.642   3.276   3.813
 7440SOL    HW123219   6.654   3.339   3.736
 7440SOL    HW223220   6.659   3.182   3.783
 7441SOL     OW23221   5.443   6.363   4.081
 7441SOL    HW123222   5.354   6.352   4.036
 7441SOL    HW223223   5.431   6.354   4.180
 7442SOL     OW23224   6.277   1.039   6.110
 7442SOL    HW123225   6.286   1.127   6.155
 7442SOL    HW223226   6.327   0.969   6.161
 7443SOL     OW23227   0.008   6.372   1.924
 7443SOL    HW123228   6.980   6.296   1.962
 7443SOL    HW223229   7.026   6.371   1.825
 7444SOL     OW23230   5.594   2.632   5.769
 7444SOL    HW123231   5.525   2.657   5.702
 7444SOL    HW223232   5.551   2.586   5.847
 7445SOL     OW23233   3.941   0.777   1.133
 7445SOL    HW123234   3.872   0.835   1.090
 7445SOL    HW223235   3.921   0.681   1.113
 7446SOL     OW23236   5.600   3.003   0.512
 7446SOL    HW123237   5.699   3.002   0.527
 7446SOL    HW223238   5.555   3.035   0.595
 7447SOL     OW23239   0.465   3.534   6.614
 7447SOL    HW123240   0.501   3.538   6.520
 7447SOL    HW223241   0.454   3.439   6.641
 7448SOL     OW23242   6.494   6.416   5.402
 7448SOL    HW123243   6.447   6.374   5.324
 7448SOL    HW223244   6.571   6.470   5.370
 7449SOL     OW23245   0.382   3.670   1.995
 7449SOL    HW123246   0.474   3.708   1.999
 7449SOL    HW223247   0.332   3.694   2.079
 7450SOL     OW23248   5.235   2.438   4.384
 7450SOL    HW123249   5.258   2.359   4.326
 7450SOL    HW223250   5.252   2.522   4.333
 7451SOL     OW23251   6.852   0.005   3.179
 7451SOL    HW123252   6.802   0.051   3.106
 7451SOL    HW223253   6.906   6.956   3.140
 7452SOL     OW23254   0.150   6.831   4.494
 7452SOL    HW123255   0.072   6.784   4.452
 7452SOL    HW223256   0.234   6.801   4.449
 7453SOL     OW23257   5.041   0.295   6.172
 7453SOL    HW123258   4.999   0.379   6.205
 7453SOL    HW223259   5.133   0.287   6.210
 7454SOL     OW23260   0.413   2.343   2.349
 7454SOL    HW123261   0.468   2.422   2.322
 7454SOL    HW223262   0.325   2.374   2.385
 7455SOL     OW23263   0.019   2.016   2.772
 7455SOL    HW123264   6.955   2.026   2.817
 7455SOL    HW223265   0.090   2.052   2.832
 7456SOL     OW23266   1.093   1.478   4.090
 7456SOL    HW123267   1.133   1.412   4.027
 7456SOL    HW223268   0.995   1.486   4.071
 7457SOL     OW23269   3.668   0.526   6.164
 7457SOL    HW123270   3.606   0.590   6.210
 7457SOL    HW223271   3.749   0.576   6.132
 7458SOL     OW23272   1.783   6.769   5.672
 7458SOL    HW123273   1.780   6.784   5.573
 7458SOL    HW223274   1.728   6.689   5.695
 7459SOL     OW23275   4.534   0.347   2.215
 7459SOL    HW123276   4.478   0.422   2.252
 7459SOL    HW223277   4.574   0.376   2.128
 7460SOL     OW23278   1.135   5.459   0.790
 7460SOL    HW123279   1.170   5.532   0.848
 7460SOL    HW223280   1.150   5.483   0.694
 7461SOL     OW23281   5.599   1.318   6.453
 7461SOL    HW123282   5.654   1.381   6.398
 7461SOL    HW223283   5.529   1.369   6.502
 7462SOL     OW23284   2.177   3.948   2.573
 7462SOL    HW123285   2.176   3.907   2.482
 7462SOL    HW223286   2.106   3.906   2.629
 7463SOL     OW23287   2.528   4.521   0.436
 7463SOL    HW123288   2.508   4.495   0.341
 7463SOL    HW223289   2.566   4.613   0.437
 7464SOL     OW23290   5.129   0.343   6.688
 7464SOL    HW123291   5.068   0.264   6.689
 7464SOL    HW223292   5.205   0.327   6.750
 7465SOL     OW23293   1.280   5.643   6.741
 7465SOL    HW123294   1.344   5.671   6.670
 7465SOL    HW223295   1.299   5.694   6.825
 7466SOL     OW23296   6.927   0.293   5.102
 7466SOL    HW123297   6.840   0.338   5.082
 7466SOL    HW223298   6.948   0.227   5.030
 7467SOL     OW23299   0.592   1.225   1.399
 7467SOL    HW123300   0.661   1.262   1.461
 7467SOL    HW223301   0.524   1.296   1.379
 7468SOL     OW23302   5.849   3.071   3.544
 7468SOL    HW123303   5.900   3.137   3.599
 7468SOL    HW223304   5.750   3.087   3.555
 7469SOL     OW23305   0.101   1.168   0.854
 7469SOL    HW123306   0.028   1.151   0.920
 7469SOL    HW223307   0.062   1.204   0.769
 7470SOL     OW23308   6.255   3.479   3.865
 7470SOL    HW123309   6.302   3.391   3.864
 7470SOL    HW223310   6.233   3.504   3.959
 7471SOL     OW23311   5.822   6.531   6.169
 7471SOL    HW123312   5.841   6.433   6.164
 7471SOL    HW223313   5.908   6.581   6.180
 7472SOL     OW23314   6.617   6.664   4.667
 7472SOL    HW123315   6.575   6.726   4.733
 7472SOL    HW223316   6.584   6.571   4.682
 7473SOL     OW23317   5.719   5.081   3.557
 7473SOL    HW123318   5.804   5.133   3.567
 7473SOL    HW223319   5.649   5.122   3.616
 7474SOL     OW23320   1.175   1.748   5.312
 7474SOL    HW123321   1.111   1.815   5.276
 7474SOL    HW223322   1.190   1.764   5.409
 7475SOL     OW23323   5.018   2.179   2.254
 7475SOL    HW123324   4.943   2.176   2.320
 7475SOL    HW223325   5.017   2.267   2.207
 7476SOL     OW23326   3.367   0.467   3.590
 7476SOL    HW123327   3.448   0.525   3.580
 7476SOL    HW223328   3.394   0.371   3.587
 7477SOL     OW23329   0.382   0.784   5.243
 7477SOL    HW123330   0.444   0.768   5.167
 7477SOL    HW223331   0.434   0.790   5.328
 7478SOL     OW23332   5.046   4.981   5.903
 7478SOL    HW123333   5.113   5.036   5.852
 7478SOL    HW223334   5.043   5.012   5.998
 7479SOL     OW23335   4.317   2.353   2.478
 7479SOL    HW123336   4.334   2.262   2.439
 7479SOL    HW223337   4.301   2.418   2.404
 7480SOL     OW23338   0.387   4.109   2.142
 7480SOL    HW123339   0.303   4.104   2.089
 7480SOL    HW223340   0.465   4.083   2.085
 7481SOL     OW23341   6.221   5.954   1.252
 7481SOL    HW123342   6.175   6.003   1.326
 7481SOL    HW223343   6.153   5.905   1.197
 7482SOL     OW23344   4.716   2.785   2.941
 7482SOL    HW123345   4.805   2.782   2.896
 7482SOL    HW223346   4.724   2.834   3.028
 7483SOL     OW23347   4.763   2.640   4.164
 7483SOL    HW123348   4.666   2.618   4.177
 7483SOL    HW223349   4.810   2.562   4.124
 7484SOL     OW23350   1.745   0.005   4.340
 7484SOL    HW123351   1.772   6.949   4.289
 7484SOL    HW223352   1.758   0.085   4.282
 7485SOL     OW23353   3.682   0.018   4.773
 7485SOL    HW123354   3.758   6.986   4.743
 7485SOL    HW223355   3.621   0.035   4.695
 7486SOL     OW23356   1.984   6.540   0.652
 7486SOL    HW123357   2.014   6.445   0.655
 7486SOL    HW223358   1.953   6.568   0.743
 7487SOL     OW23359   1.754   6.805   3.611
 7487SOL    HW123360   1.715   6.755   3.689
 7487SOL    HW223361   1.680   6.843   3.556
 7488SOL     OW23362   2.672   0.203   3.706
 7488SOL    HW123363   2.650   0.115   3.663
 7488SOL    HW223364   2.647   0.199   3.803
 7489SOL     OW23365   4.785   2.679   5.447
 7489SOL    HW123366   4.877   2.712   5.428
 7489SOL    HW223367   4.748   2.726   5.527
 7490SOL     OW23368   1.310   0.474   2.421
 7490SOL    HW123369   1.360   0.416   2.486
 7490SOL    HW223370   1.219   0.435   2.405
 7491SOL     OW23371   5.332   2.538   6.461
 7491SOL    HW123372   5.328   2.554   6.560
 7491SOL    HW223373   5.257   2.587   6.416
 7492SOL     OW23374   2.034   0.484   3.300
 7492SOL    HW123375   1.977   0.561   3.329
 7492SOL    HW223376   1.977   0.416   3.254
 7493SOL     OW23377   0.577   3.755   6.782
 7493SOL    HW123378   0.530   3.800   6.857
 7493SOL    HW223379   0.529   3.670   6.758
 7494SOL     OW23380   5.253   1.247   2.721
 7494SOL    HW123381   5.285   1.339   2.699
 7494SOL    HW223382   5.237   1.195   2.637
 7495SOL     OW23383   1.597   2.248   6.472
 7495SOL    HW123384   1.666   2.208   6.532
 7495SOL    HW223385   1.519   2.278   6.526
 7496SOL     OW23386   6.116   3.517   4.980
 7496SOL    HW123387   6.088   3.423   4.961
 7496SOL    HW223388   6.043   3.580   4.956
 7497SOL     OW23389   2.667   4.249   6.090
 7497SOL    HW123390   2.628   4.318   6.029
 7497SOL    HW223391   2.765   4.263   6.098
 7498SOL     OW23392   3.453   0.523   5.363
 7498SOL    HW123393   3.383   0.588   5.333
 7498SOL    HW223394   3.464   0.452   5.293
 7499SOL     OW23395   3.227   1.466   2.784
 7499SOL    HW123396   3.264   1.413   2.860
 7499SOL    HW223397   3.299   1.523   2.746
 7500SOL     OW23398   3.421   5.679   2.923
 7500SOL    HW123399   3.346   5.650   2.981
 7500SOL    HW223400   3.426   5.620   2.842
 7501SOL     OW23401   5.268   3.748   4.827
 7501SOL    HW123402   5.176   3.711   4.843
 7501SOL    HW223403   5.332   3.706   4.891
 7502SOL     OW23404   3.211   0.627   4.026
 7502SOL    HW123405   3.223   0.710   3.972
 7502SOL    HW223406   3.120   0.627   4.069
 7503SOL     OW23407   1.848   0.422   1.668
 7503SOL    HW123408   1.861   0.521   1.673
 7503SOL    HW223409   1.899   0.377   1.742
 7504SOL     OW23410   1.371   6.832   3.273
 7504SOL    HW123411   1.362   6.887   3.189
 7504SOL    HW223412   1.350   6.737   3.252
 7505SOL     OW23413   1.530   2.647   5.648
 7505SOL    HW123414   1.627   2.667   5.663
 7505SOL    HW223415   1.493   2.711   5.580
 7506SOL     OW23416   5.294   0.931   3.221
 7506SOL    HW123417   5.384   0.886   3.225
 7506SOL    HW223418   5.306   1.029   3.209
 7507SOL     OW23419   0.411   1.464   2.649
 7507SOL    HW123420   0.483   1.522   2.610
 7507SOL    HW223421   0.326   1.516   2.655
 7508SOL     OW23422   1.380   6.861   1.684
 7508SOL    HW123423   1.302   6.920   1.701
 7508SOL    HW223424   1.384   6.838   1.587
 7509SOL     OW23425   6.066   4.611   0.514
 7509SOL    HW123426   5.992   4.674   0.538
 7509SOL    HW223427   6.084   4.617   0.416
 7510SOL     OW23428   4.083   3.564   5.875
 7510SOL    HW123429   4.002   3.606   5.918
 7510SOL    HW223430   4.165   3.593   5.924
 7511SOL     OW23431   2.321   6.323   3.485
 7511SOL    HW123432   2.239   6.317   3.427
 7511SOL    HW223433   2.399   6.352   3.431
 7512SOL     OW23434   3.173   6.793   0.059
 7512SOL    HW123435   3.145   6.740   0.139
 7512SOL    HW223436   3.211   6.881   0.089
 7513SOL     OW23437   1.995   0.784   1.410
 7513SOL    HW123438   2.064   0.713   1.398
 7513SOL    HW223439   2.039   0.874   1.409
 7514SOL     OW23440   2.662   5.812   1.563
 7514SOL    HW123441   2.715   5.864   1.496
 7514SOL    HW223442   2.682   5.714   1.552
 7515SOL     OW23443   6.618   5.051   3.506
 7515SOL    HW123444   6.567   5.065   3.590
 7515SOL    HW223445   6.649   5.139   3.470
 7516SOL     OW23446   0.140   6.356   5.560
 7516SOL    HW123447   0.176   6.267   5.535
 7516SOL    HW223448   0.192   6.428   5.513
 7517SOL     OW23449   0.404   2.608   0.689
 7517SOL    HW123450   0.339   2.642   0.621
 7517SOL    HW223451   0.461   2.684   0.722
 7518SOL     OW23452   4.517   5.014   3.762
 7518SOL    HW123453   4.562   4.954   3.696
 7518SOL    HW223454   4.582   5.082   3.796
 7519SOL     OW23455   0.580   6.284   3.441
 7519SOL    HW123456   0.492   6.237   3.444
 7519SOL    HW223457   0.650   6.222   3.406
 7520SOL     OW23458   2.419   6.764   2.231
 7520SOL    HW123459   2.365   6.848   2.244
 7520SOL    HW223460   2.373   6.688   2.278
 7521SOL     OW23461   4.893   4.356   5.846
 7521SOL    HW123462   4.859   4.424   5.911
 7521SOL    HW223463   4.929   4.278   5.896
 7522SOL     OW23464   1.596   1.182   6.201
 7522SOL    HW123465   1.614   1.086   6.223
 7522SOL    HW223466   1.670   1.217   6.144
 7523SOL     OW23467   5.790   0.451   6.217
 7523SOL    HW123468   5.877   0.402   6.207
 7523SOL    HW223469   5.800   0.522   6.286
 7524SOL     OW23470   1.310   2.579   5.223
 7524SOL    HW123471   1.316   2.495   5.277
 7524SOL    HW223472   1.282   2.654   5.282
 7525SOL     OW23473   3.805   1.049   6.224
 7525SOL    HW123474   3.871   1.111   6.182
 7525SOL    HW223475   3.806   1.063   6.323
 7526SOL     OW23476   3.126   3.481   1.271
 7526SOL    HW123477   3.124   3.390   1.229
 7526SOL    HW223478   3.032   3.511   1.289
 7527SOL     OW23479   2.930   5.908   3.086
 7527SOL    HW123480   3.023   5.896   3.121
 7527SOL    HW223481   2.866   5.858   3.145
 7528SOL     OW23482   5.867   2.499   0.613
 7528SOL    HW123483   5.966   2.484   0.624
 7528SOL    HW223484   5.817   2.425   0.658
 7529SOL     OW23485   4.977   1.462   4.814
 7529SOL    HW123486   4.953   1.373   4.775
 7529SOL    HW223487   4.920   1.532   4.771
 7530SOL     OW23488   0.135   3.224   2.265
 7530SOL    HW123489   0.156   3.239   2.362
 7530SOL    HW223490   0.175   3.138   2.235
 7531SOL     OW23491   5.129   3.029   4.885
 7531SOL    HW123492   5.143   2.945   4.833
 7531SOL    HW223493   5.031   3.042   4.902
 7532SOL     OW23494   4.563   5.932   6.673
 7532SOL    HW123495   4.643   5.973   6.716
 7532SOL    HW223496   4.592   5.858   6.611
 7533SOL     OW23497   3.123   0.843   1.442
 7533SOL    HW123498   3.044   0.821   1.500
 7533SOL    HW223499   3.165   0.928   1.472
 7534SOL     OW23500   4.813   6.636   5.438
 7534SOL    HW123501   4.750   6.713   5.429
 7534SOL    HW223502   4.762   6.550   5.432
 7535SOL     OW23503   2.034   0.664   4.983
 7535SOL    HW123504   1.938   0.637   4.988
 7535SOL    HW223505   2.083   0.625   5.061
 7536SOL     OW23506   4.572   4.956   4.253
 7536SOL    HW123507   4.474   4.960   4.232
 7536SOL    HW223508   4.590   4.878   4.313
 7537SOL     OW23509   2.946   5.707   1.459
 7537SOL    HW123510   2.852   5.680   1.441
 7537SOL    HW223511   2.965   5.701   1.557
 7538SOL     OW23512   1.518   2.425   1.645
 7538SOL    HW123513   1.607   2.407   1.604
 7538SOL    HW223514   1.479   2.509   1.605
 7539SOL     OW23515   1.654   3.972   3.942
 7539SOL    HW123516   1.628   3.887   3.896
 7539SOL    HW223517   1.644   4.049   3.878
 7540SOL     OW23518   4.132   0.650   4.468
 7540SOL    HW123519   4.179   0.643   4.380
 7540SOL    HW223520   4.098   0.560   4.494
 7541SOL     OW23521   0.552   4.658   5.067
 7541SOL    HW123522   0.526   4.571   5.108
 7541SOL    HW223523   0.552   4.729   5.138
 7542SOL     OW23524   1.028   5.101   6.527
 7542SOL    HW123525   1.107   5.115   6.468
 7542SOL    HW223526   0.964   5.038   6.484
 7543SOL     OW23527   4.054   1.958   6.381
 7543SOL    HW123528   4.151   1.936   6.368
 7543SOL    HW223529   4.041   2.057   6.374
 7544SOL     OW23530   6.922   2.631   3.033
 7544SOL    HW123531   6.934   2.673   2.943
 7544SOL    HW223532   6.940   2.533   3.026
 7545SOL     OW23533   0.227   5.406   0.385
 7545SOL    HW123534   0.190   5.479   0.443
 7545SOL    HW223535   0.287   5.446   0.315
 7546SOL     OW23536   3.529   2.594   1.741
 7546SOL    HW123537   3.585   2.665   1.782
 7546SOL    HW223538   3.558   2.504   1.774
 7547SOL     OW23539   4.928   1.943   0.285
 7547SOL    HW123540   4.876   1.862   0.313
 7547SOL    HW223541   4.878   1.991   0.212
 7548SOL     OW23542   4.920   1.381   6.830
 7548SOL    HW123543   4.822   1.399   6.834
 7548SOL    HW223544   4.936   1.289   6.796
 7549SOL     OW23545   3.994   2.910   6.941
 7549SOL    HW123546   3.938   2.854   7.002
 7549SOL    HW223547   4.068   2.854   6.902
 7550SOL     OW23548   2.600   5.160   3.114
 7550SOL    HW123549   2.590   5.121   3.205
 7550SOL    HW223550   2.509   5.171   3.072
 7551SOL     OW23551   5.435   3.695   6.447
 7551SOL    HW123552   5.498   3.630   6.490
 7551SOL    HW223553   5.434   3.780   6.499
 7552SOL     OW23554   1.563   6.104   3.049
 7552SOL    HW123555   1.489   6.068   2.993
 7552SOL    HW223556   1.639   6.038   3.049
 7553SOL     OW23557   4.414   6.400   5.672
 7553SOL    HW123558   4.488   6.411   5.739
 7553SOL    HW223559   4.335   6.454   5.700
 7554SOL     OW23560   4.526   0.947   0.328
 7554SOL    HW123561   4.469   0.990   0.257
 7554SOL    HW223562   4.568   1.018   0.384
 7555SOL     OW23563   2.271   4.758   6.125
 7555SOL    HW123564   2.295   4.670   6.083
 7555SOL    HW223565   2.340   4.827   6.098
 7556SOL     OW23566   2.285   2.963   0.391
 7556SOL    HW123567   2.265   3.060   0.404
 7556SOL    HW223568   2.264   2.913   0.476
 7557SOL     OW23569   5.453   1.266   5.550
 7557SOL    HW123570   5.406   1.256   5.638
 7557SOL    HW223571   5.386   1.262   5.476
 7558SOL     OW23572   1.579   2.318   4.036
 7558SOL    HW123573   1.613   2.353   3.948
 7558SOL    HW223574   1.592   2.388   4.107
 7559SOL     OW23575   5.144   3.760   0.457
 7559SOL    HW123576   5.146   3.764   0.557
 7559SOL    HW223577   5.206   3.829   0.419
 7560SOL     OW23578   5.675   6.945   1.245
 7560SOL    HW123579   5.717   6.888   1.316
 7560SOL    HW223580   5.594   6.990   1.283
 7561SOL     OW23581   0.872   3.059   6.797
 7561SOL    HW123582   0.937   3.103   6.735
 7561SOL    HW223583   0.780   3.094   6.780
 7562SOL     OW23584   0.098   5.715   4.089
 7562SOL    HW123585   0.016   5.767   4.112
 7562SOL    HW223586   0.077   5.617   4.091
 7563SOL     OW23587   3.000   6.943   1.316
 7563SOL    HW123588   2.982   6.886   1.397
 7563SOL    HW223589   2.957   0.007   1.329
 7564SOL     OW23590   4.018   0.083   2.930
 7564SOL    HW123591   3.999   0.180   2.912
 7564SOL    HW223592   4.059   0.042   2.849
 7565SOL     OW23593   5.473   2.802   0.402
 7565SOL    HW123594   5.532   2.738   0.353
 7565SOL    HW223595   5.526   2.883   0.428
 7566SOL     OW23596   6.397   4.477   3.036
 7566SOL    HW123597   6.380   4.576   3.042
 7566SOL    HW223598   6.495   4.462   3.022
 7567SOL     OW23599   1.857   1.934   5.325
 7567SOL    HW123600   1.782   1.905   5.265
 7567SOL    HW223601   1.925   1.984   5.271
 7568SOL     OW23602   5.070   6.298   3.435
 7568SOL    HW123603   5.126   6.251   3.368
 7568SOL    HW223604   5.087   6.397   3.429
 7569SOL     OW23605   3.817   4.834   5.831
 7569SOL    HW123606   3.808   4.889   5.914
 7569SOL    HW223607   3.894   4.868   5.777
 7570SOL     OW23608   5.217   3.586   5.250
 7570SOL    HW123609   5.159   3.545   5.321
 7570SOL    HW223610   5.243   3.678   5.278
 7571SOL     OW23611   4.222   4.826   3.420
 7571SOL    HW123612   4.305   4.881   3.406
 7571SOL    HW223613   4.176   4.814   3.332
 7572SOL     OW23614   4.169   1.305   1.534
 7572SOL    HW123615   4.221   1.347   1.460
 7572SOL    HW223616   4.093   1.364   1.560
 7573SOL     OW23617   0.427   0.339   5.183
 7573SOL    HW123618   0.346   0.291   5.149
 7573SOL    HW223619   0.406   0.436   5.193
 7574SOL     OW23620   5.302   0.444   5.333
 7574SOL    HW123621   5.222   0.392   5.304
 7574SOL    HW223622   5.381   0.416   5.279
 7575SOL     OW23623   5.310   0.952   6.057
 7575SOL    HW123624   5.318   0.994   5.966
 7575SOL    HW223625   5.249   0.873   6.052
 7576SOL     OW23626   4.575   3.460   0.491
 7576SOL    HW123627   4.539   3.543   0.532
 7576SOL    HW223628   4.675   3.461   0.495
 7577SOL     OW23629   0.819   6.854   6.874
 7577SOL    HW123630   0.873   6.845   6.791
 7577SOL    HW223631   0.877   6.835   6.954
 7578SOL     OW23632   2.118   4.834   1.437
 7578SOL    HW123633   2.179   4.843   1.358
 7578SOL    HW223634   2.034   4.887   1.421
 7579SOL     OW23635   0.608   1.029   2.610
 7579SOL    HW123636   0.707   1.029   2.600
 7579SOL    HW223637   0.579   1.114   2.655
 7580SOL     OW23638   0.769   3.863   4.438
 7580SOL    HW123639   0.702   3.789   4.439
 7580SOL    HW223640   0.806   3.875   4.530
 7581SOL     OW23641   6.891   1.484   2.226
 7581SOL    HW123642   6.912   1.582   2.216
 7581SOL    HW223643   6.793   1.473   2.239
 7582SOL     OW23644   4.006   0.905   1.553
 7582SOL    HW123645   3.965   0.820   1.521
 7582SOL    HW223646   4.033   0.961   1.475
 7583SOL     OW23647   5.975   2.975   2.183
 7583SOL    HW123648   5.948   3.020   2.268
 7583SOL    HW223649   5.998   2.880   2.202
 7584SOL     OW23650   3.551   0.088   1.934
 7584SOL    HW123651   3.542   0.173   1.882
 7584SOL    HW223652   3.470   0.075   1.991
 7585SOL     OW23653   2.145   2.792   6.974
 7585SOL    HW123654   2.231   2.842   6.984
 7585SOL    HW223655   2.131   2.732   0.028
 7586SOL     OW23656   3.112   0.415   3.442
 7586SOL    HW123657   3.163   0.465   3.512
 7586SOL    HW223658   3.175   0.357   3.391
 7587SOL     OW23659   2.472   2.532   6.804
 7587SOL    HW123660   2.477   2.432   6.793
 7587SOL    HW223661   2.376   2.560   6.804
 7588SOL     OW23662   1.203   2.882   3.877
 7588SOL    HW123663   1.155   2.817   3.936
 7588SOL    HW223664   1.151   2.967   3.872
 7589SOL     OW23665   0.490   0.484   2.746
 7589SOL    HW123666   0.469   0.565   2.691
 7589SOL    HW223667   0.583   0.491   2.782
 7590SOL     OW23668   3.789   2.375   6.445
 7590SOL    HW123669   3.820   2.343   6.535
 7590SOL    HW223670   3.689   2.386   6.447
 7591SOL     OW23671   6.842   3.570   0.770
 7591SOL    HW123672   6.811   3.644   0.829
 7591SOL    HW223673   6.918   3.522   0.814
 7592SOL     OW23674   6.959   5.296   4.626
 7592SOL    HW123675   6.903   5.356   4.682
 7592SOL    HW223676   6.949   5.322   4.530
 7593SOL     OW23677   6.217   3.193   0.150
 7593SOL    HW123678   6.289   3.137   0.108
 7593SOL    HW223679   6.251   3.286   0.164
 7594SOL     OW23680   1.340   4.648   2.249
 7594SOL    HW123681   1.397   4.694   2.182
 7594SOL    HW223682   1.398   4.607   2.320
 7595SOL     OW23683   6.400   2.857   5.938
 7595SOL    HW123684   6.330   2.808   5.991
 7595SOL    HW223685   6.402   2.953   5.967
 7596SOL     OW23686   3.814   6.272   3.452
 7596SOL    HW123687   3.796   6.251   3.356
 7596SOL    HW223688   3.912   6.270   3.468
 7597SOL     OW23689   2.369   6.727   3.162
 7597SOL    HW123690   2.330   6.714   3.253
 7597SOL    HW223691   2.464   6.697   3.163
 7598SOL     OW23692   0.158   0.948   3.274
 7598SOL    HW123693   0.194   0.885   3.343
 7598SOL    HW223694   0.126   0.895   3.195
 7599SOL     OW23695   5.719   1.800   2.465
 7599SOL    HW123696   5.777   1.869   2.423
 7599SOL    HW223697   5.655   1.844   2.528
 7600SOL     OW23698   1.597   1.635   3.238
 7600SOL    HW123699   1.655   1.706   3.199
 7600SOL    HW223700   1.502   1.652   3.212
 7601SOL     OW23701   1.865   4.520   2.208
 7601SOL    HW123702   1.905   4.561   2.290
 7601SOL    HW223703   1.799   4.450   2.236
 7602SOL     OW23704   2.418   3.519   6.462
 7602SOL    HW123705   2.400   3.507   6.364
 7602SOL    HW223706   2.485   3.593   6.474
 7603SOL     OW23707   1.315   5.367   5.932
 7603SOL    HW123708   1.339   5.298   6.000
 7603SOL    HW223709   1.362   5.452   5.952
 7604SOL     OW23710   2.144   3.962   4.790
 7604SOL    HW123711   2.204   4.018   4.847
 7604SOL    HW223712   2.063   4.015   4.765
 7605SOL     OW23713   1.809   0.837   1.866
 7605SOL    HW123714   1.810   0.742   1.897
 7605SOL    HW223715   1.891   0.884   1.900
 7606SOL     OW23716   6.088   4.306   4.919
 7606SOL    HW123717   6.155   4.240   4.951
 7606SOL    HW223718   5.996   4.273   4.939
 7607SOL     OW23719   3.511   5.400   6.831
 7607SOL    HW123720   3.488   5.489   6.871
 7607SOL    HW223721   3.596   5.407   6.779
 7608SOL     OW23722   3.698   4.023   1.405
 7608SOL    HW123723   3.725   4.062   1.493
 7608SOL    HW223724   3.627   3.954   1.420
 7609SOL     OW23725   1.393   3.004   4.633
 7609SOL    HW123726   1.472   3.022   4.574
 7609SOL    HW223727   1.411   2.924   4.691
 7610SOL     OW23728   4.444   4.566   6.379
 7610SOL    HW123729   4.525   4.514   6.352
 7610SOL    HW223730   4.455   4.661   6.351
 7611SOL     OW23731   6.070   3.792   1.809
 7611SOL    HW123732   6.019   3.719   1.854
 7611SOL    HW223733   6.027   3.813   1.721
 7612SOL     OW23734   4.951   3.166   2.100
 7612SOL    HW123735   4.884   3.096   2.075
 7612SOL    HW223736   5.032   3.123   2.140
 7613SOL     OW23737   6.837   2.755   0.898
 7613SOL    HW123738   6.902   2.813   0.948
 7613SOL    HW223739   6.815   2.675   0.953
 7614SOL     OW23740   4.928   3.663   0.795
 7614SOL    HW123741   4.938   3.656   0.895
 7614SOL    HW223742   4.846   3.613   0.766
 7615SOL     OW23743   3.793   5.156   6.921
 7615SOL    HW123744   3.723   5.194   6.981
 7615SOL    HW223745   3.883   5.172   6.961
 7616SOL     OW23746   5.989   6.314   4.064
 7616SOL    HW123747   6.088   6.326   4.057
 7616SOL    HW223748   5.945   6.402   4.077
 7617SOL     OW23749   4.195   6.429   2.532
 7617SOL    HW123750   4.263   6.502   2.523
 7617SOL    HW223751   4.196   6.395   2.626
 7618SOL     OW23752   6.878   1.810   5.481
 7618SOL    HW123753   6.921   1.804   5.571
 7618SOL    HW223754   6.786   1.772   5.485
 7619SOL     OW23755   6.297   3.102   5.025
 7619SOL    HW123756   6.362   3.026   5.029
 7619SOL    HW223757   6.208   3.069   4.995
 7620SOL     OW23758   4.189   5.843   1.221
 7620SOL    HW123759   4.144   5.918   1.270
 7620SOL    HW223760   4.127   5.764   1.217
 7621SOL     OW23761   6.596   1.182   1.177
 7621SOL    HW123762   6.690   1.171   1.207
 7621SOL    HW223763   6.563   1.096   1.137
 7622SOL     OW23764   4.485   4.899   6.769
 7622SOL    HW123765   4.542   4.959   6.713
 7622SOL    HW223766   4.479   4.935   6.862
 7623SOL     OW23767   5.219   3.567   6.828
 7623SOL    HW123768   5.313   3.570   6.862
 7623SOL    HW223769   5.158   3.608   6.896
 7624SOL     OW23770   6.949   3.504   4.971
 7624SOL    HW123771   6.947   3.494   5.071
 7624SOL    HW223772   6.942   3.414   4.929
 7625SOL     OW23773   5.273   0.475   1.386
 7625SOL    HW123774   5.251   0.505   1.294
 7625SOL    HW223775   5.195   0.428   1.426
 7626SOL     OW23776   6.442   6.958   4.136
 7626SOL    HW123777   6.386   6.913   4.205
 7626SOL    HW223778   6.537   6.931   4.148
 7627SOL     OW23779   5.058   3.338   0.109
 7627SOL    HW123780   5.127   3.299   0.048
 7627SOL    HW223781   4.978   3.279   0.111
 7628SOL     OW23782   3.381   2.159   1.877
 7628SOL    HW123783   3.456   2.225   1.887
 7628SOL    HW223784   3.358   2.120   1.966
 7629SOL     OW23785   0.367   5.638   3.177
 7629SOL    HW123786   0.386   5.684   3.263
 7629SOL    HW223787   0.417   5.683   3.103
 7630SOL     OW23788   0.852   7.015   1.380
 7630SOL    HW123789   0.949   7.016   1.407
 7630SOL    HW223790   0.811   0.078   1.402
 7631SOL     OW23791   0.780   1.217   5.822
 7631SOL    HW123792   0.703   1.257   5.870
 7631SOL    HW223793   0.753   1.129   5.782
 7632SOL     OW23794   4.670   4.210   1.418
 7632SOL    HW123795   4.644   4.223   1.513
 7632SOL    HW223796   4.765   4.239   1.404
 7633SOL     OW23797   5.394   0.244   1.731
 7633SOL    HW123798   5.340   0.313   1.780
 7633SOL    HW223799   5.386   0.260   1.632
 7634SOL     OW23800   1.808   1.734   2.274
 7634SOL    HW123801   1.766   1.671   2.209
 7634SOL    HW223802   1.887   1.778   2.231
 7635SOL     OW23803   3.426   5.320   5.270
 7635SOL    HW123804   3.410   5.275   5.183
 7635SOL    HW223805   3.341   5.359   5.305
 7636SOL     OW23806   1.815   2.741   4.119
 7636SOL    HW123807   1.836   2.826   4.167
 7636SOL    HW223808   1.841   2.663   4.177
 7637SOL     OW23809   2.639   5.739   2.408
 7637SOL    HW123810   2.716   5.769   2.464
 7637SOL    HW223811   2.559   5.797   2.426
 7638SOL     OW23812   2.442   5.937   1.347
 7638SOL    HW123813   2.539   5.961   1.341
 7638SOL    HW223814   2.423   5.899   1.437
 7639SOL     OW23815   0.345   1.643   0.949
 7639SOL    HW123816   0.369   1.546   0.962
 7639SOL    HW223817   0.356   1.692   1.035
 7640SOL     OW23818   2.787   1.252   5.791
 7640SOL    HW123819   2.827   1.340   5.765
 7640SOL    HW223820   2.695   1.245   5.754
 7641SOL     OW23821   1.797   3.393   2.384
 7641SOL    HW123822   1.800   3.311   2.327
 7641SOL    HW223823   1.714   3.392   2.439
 7642SOL     OW23824   3.750   1.661   2.913
 7642SOL    HW123825   3.817   1.620   2.852
 7642SOL    HW223826   3.782   1.752   2.941
 7643SOL     OW23827   4.429   2.459   3.183
 7643SOL    HW123828   4.528   2.450   3.170
 7643SOL    HW223829   4.406   2.556   3.195
 7644SOL     OW23830   4.774   1.937   1.397
 7644SOL    HW123831   4.854   1.995   1.379
 7644SOL    HW223832   4.725   1.973   1.476
 7645SOL     OW23833   4.759   4.278   5.485
 7645SOL    HW123834   4.672   4.280   5.436
 7645SOL    HW223835   4.832   4.309   5.424
 7646SOL     OW23836   1.457   3.497   3.617
 7646SOL    HW123837   1.393   3.487   3.693
 7646SOL    HW223838   1.538   3.441   3.634
 7647SOL     OW23839   6.347   2.546   3.521
 7647SOL    HW123840   6.274   2.593   3.472
 7647SOL    HW223841   6.435   2.569   3.479
 7648SOL     OW23842   3.181   1.543   3.144
 7648SOL    HW123843   3.103   1.564   3.085
 7648SOL    HW223844   3.251   1.496   3.091
 7649SOL     OW23845   0.860   0.644   3.603
 7649SOL    HW123846   0.818   0.646   3.693
 7649SOL    HW223847   0.896   0.734   3.580
 7650SOL     OW23848   5.342   1.363   0.590
 7650SOL    HW123849   5.409   1.295   0.561
 7650SOL    HW223850   5.387   1.451   0.602
 7651SOL     OW23851   2.028   0.715   3.598
 7651SOL    HW123852   2.048   0.616   3.598
 7651SOL    HW223853   2.112   0.765   3.576
 7652SOL     OW23854   5.381   3.189   5.304
 7652SOL    HW123855   5.349   3.139   5.224
 7652SOL    HW223856   5.357   3.139   5.387
 7653SOL     OW23857   0.787   1.975   6.762
 7653SOL    HW123858   0.708   1.916   6.744
 7653SOL    HW223859   0.814   1.964   6.858
 7654SOL     OW23860   4.793   2.913   4.132
 7654SOL    HW123861   4.746   2.949   4.212
 7654SOL    HW223862   4.789   2.813   4.133
 7655SOL     OW23863   4.423   6.697   3.216
 7655SOL    HW123864   4.328   6.725   3.198
 7655SOL    HW223865   4.478   6.778   3.237
 7656SOL     OW23866   3.612   3.970   6.507
 7656SOL    HW123867   3.704   3.931   6.495
 7656SOL    HW223868   3.549   3.898   6.538
 7657SOL     OW23869   1.141   2.126   3.757
 7657SOL    HW123870   1.200   2.169   3.825
 7657SOL    HW223871   1.162   2.162   3.666
 7658SOL     OW23872   3.310   0.268   6.620
 7658SOL    HW123873   3.235   0.325   6.652
 7658SOL    HW223874   3.319   0.187   6.678
 7659SOL     OW23875   5.754   4.989   6.734
 7659SOL    HW123876   5.846   4.974   6.770
 7659SOL    HW223877   5.692   4.922   6.773
 7660SOL     OW23878   0.390   5.770   3.488
 7660SOL    HW123879   0.413   5.861   3.454
 7660SOL    HW223880   0.291   5.760   3.491
 7661SOL     OW23881   5.376   2.435   4.787
 7661SOL    HW123882   5.404   2.399   4.876
 7661SOL    HW223883   5.334   2.361   4.734
 7662SOL     OW23884   1.473   2.974   4.296
 7662SOL    HW123885   1.472   3.071   4.319
 7662SOL    HW223886   1.539   2.926   4.353
 7663SOL     OW23887   6.720   5.533   5.668
 7663SOL    HW123888   6.727   5.632   5.661
 7663SOL    HW223889   6.672   5.497   5.587
 7664SOL     OW23890   4.048   0.205   1.246
 7664SOL    HW123891   4.105   0.275   1.290
 7664SOL    HW223892   4.096   0.117   1.249
 7665SOL     OW23893   6.147   0.651   4.289
 7665SOL    HW123894   6.100   0.665   4.202
 7665SOL    HW223895   6.233   0.602   4.273
 7666SOL     OW23896   0.480   5.390   1.860
 7666SOL    HW123897   0.519   5.471   1.816
 7666SOL    HW223898   0.423   5.419   1.937
 7667SOL     OW23899   4.188   6.854   2.166
 7667SOL    HW123900   4.165   6.942   2.206
 7667SOL    HW223901   4.120   6.786   2.191
 7668SOL     OW23902   3.333   4.781   0.627
 7668SOL    HW123903   3.305   4.686   0.639
 7668SOL    HW223904   3.423   4.783   0.582
 7669SOL     OW23905   4.802   1.195   5.029
 7669SOL    HW123906   4.889   1.159   4.997
 7669SOL    HW223907   4.741   1.209   4.951
 7670SOL     OW23908   0.733   4.619   0.617
 7670SOL    HW123909   0.757   4.702   0.667
 7670SOL    HW223910   0.712   4.546   0.682
 7671SOL     OW23911   3.969   1.564   1.752
 7671SOL    HW123912   3.903   1.624   1.797
 7671SOL    HW223913   4.058   1.571   1.799
 7672SOL     OW23914   0.364   6.606   2.348
 7672SOL    HW123915   0.285   6.661   2.319
 7672SOL    HW223916   0.424   6.591   2.270
 7673SOL     OW23917   1.197   6.667   1.022
 7673SOL    HW123918   1.293   6.686   0.999
 7673SOL    HW223919   1.175   6.573   0.996
 7674SOL     OW23920   5.125   0.821   3.392
 7674SOL    HW123921   5.171   0.734   3.405
 7674SOL    HW223922   5.168   0.870   3.315
 7675SOL     OW23923   6.057   6.593   2.762
 7675SOL    HW123924   5.963   6.616   2.790
 7675SOL    HW223925   6.087   6.511   2.811
 7676SOL     OW23926   2.323   2.364   0.418
 7676SOL    HW123927   2.412   2.353   0.463
 7676SOL    HW223928   2.254   2.313   0.470
 7677SOL     OW23929   0.749   4.984   1.431
 7677SOL    HW123930   0.683   4.930   1.483
 7677SOL    HW223931   0.766   4.941   1.343
 7678SOL     OW23932   2.161   2.857   5.307
 7678SOL    HW123933   2.132   2.939   5.256
 7678SOL    HW223934   2.244   2.820   5.266
 7679SOL     OW23935   3.591   6.325   5.771
 7679SOL    HW123936   3.535   6.250   5.738
 7679SOL    HW223937   3.536   6.408   5.780
 7680SOL     OW23938   1.369   1.076   0.236
 7680SOL    HW123939   1.284   1.048   0.281
 7680SOL    HW223940   1.412   0.996   0.195
 7681SOL     OW23941   2.594   0.730   0.856
 7681SOL    HW123942   2.629   0.666   0.925
 7681SOL    HW223943   2.502   0.759   0.882
 7682SOL     OW23944   3.556   0.273   1.692
 7682SOL    HW123945   3.488   0.238   1.627
 7682SOL    HW223946   3.519   0.353   1.738
 7683SOL     OW23947   5.930   2.215   4.598
 7683SOL    HW123948   5.836   2.235   4.573
 7683SOL    HW223949   5.963   2.282   4.664
 7684SOL     OW23950   3.430   1.844   1.664
 7684SOL    HW123951   3.515   1.820   1.615
 7684SOL    HW223952   3.415   1.943   1.656
 7685SOL     OW23953   2.757   1.924   5.655
 7685SOL    HW123954   2.761   1.846   5.717
 7685SOL    HW223955   2.815   1.998   5.689
 7686SOL     OW23956   0.072   6.541   3.040
 7686SOL    HW123957   0.014   6.543   2.959
 7686SOL    HW223958   0.159   6.499   3.018
 7687SOL     OW23959   6.150   5.021   3.868
 7687SOL    HW123960   6.061   5.066   3.879
 7687SOL    HW223961   6.221   5.091   3.862
 7688SOL     OW23962   1.118   6.317   5.101
 7688SOL    HW123963   1.203   6.363   5.126
 7688SOL    HW223964   1.123   6.221   5.128
 7689SOL     OW23965   5.561   6.447   2.382
 7689SOL    HW123966   5.530   6.376   2.446
 7689SOL    HW223967   5.489   6.516   2.371
 7690SOL     OW23968   5.794   4.684   0.643
 7690SOL    HW123969   5.837   4.765   0.602
 7690SOL    HW223970   5.772   4.703   0.738
 7691SOL     OW23971   4.982   3.825   4.646
 7691SOL    HW123972   5.019   3.901   4.594
 7691SOL    HW223973   4.992   3.740   4.593
 7692SOL     OW23974   0.921   6.308   1.890
 7692SOL    HW123975   0.913   6.293   1.989
 7692SOL    HW223976   0.845   6.366   1.860
 7693SOL     OW23977   3.269   6.568   1.856
 7693SOL    HW123978   3.236   6.480   1.891
 7693SOL    HW223979   3.218   6.642   1.901
 7694SOL     OW23980   5.206   4.028   4.207
 7694SOL    HW123981   5.191   3.931   4.191
 7694SOL    HW223982   5.298   4.042   4.244
 7695SOL     OW23983   4.939   6.670   0.760
 7695SOL    HW123984   4.926   6.759   0.803
 7695SOL    HW223985   4.890   6.668   0.673
 7696SOL     OW23986   0.245   0.504   6.291
 7696SOL    HW123987   0.313   0.573   6.318
 7696SOL    HW223988   0.198   0.534   6.208
 7697SOL     OW23989   2.613   6.635   3.078
 7697SOL    HW123990   2.689   6.701   3.073
 7697SOL    HW223991   2.592   6.602   2.986
 7698SOL     OW23992   5.918   1.577   4.311
 7698SOL    HW123993   5.818   1.568   4.307
 7698SOL    HW223994   5.956   1.503   4.366
 7699SOL     OW23995   3.398   5.869   6.160
 7699SOL    HW123996   3.404   5.858   6.260
 7699SOL    HW223997   3.327   5.810   6.124
 7700SOL     OW23998   4.467   5.899   2.780
 7700SOL    HW123999   4.391   5.925   2.839
 7700SOL    HW224000   4.554   5.918   2.827
 7701SOL     OW24001   6.405   2.069   0.609
 7701SOL    HW124002   6.490   2.120   0.625
 7701SOL    HW224003   6.419   2.004   0.534
 7702SOL     OW24004   3.591   6.485   4.751
 7702SOL    HW124005   3.611   6.473   4.654
 7702SOL    HW224006   3.528   6.413   4.781
 7703SOL     OW24007   6.366   5.968   6.363
 7703SOL    HW124008   6.330   5.884   6.402
 7703SOL    HW224009   6.377   5.956   6.264
 7704SOL     OW24010   6.033   0.615   4.851
 7704SOL    HW124011   6.083   0.630   4.765
 7704SOL    HW224012   5.935   0.622   4.834
 7705SOL     OW24013   2.416   6.199   0.710
 7705SOL    HW124014   2.440   6.115   0.759
 7705SOL    HW224015   2.388   6.176   0.617
 7706SOL     OW24016   3.761   3.596   4.752
 7706SOL    HW124017   3.840   3.587   4.692
 7706SOL    HW224018   3.743   3.692   4.771
 7707SOL     OW24019   0.311   4.789   5.696
 7707SOL    HW124020   0.242   4.855   5.665
 7707SOL    HW224021   0.345   4.816   5.786
 7708SOL     OW24022   1.079   6.840   5.743
 7708SOL    HW124023   1.139   6.920   5.740
 7708SOL    HW224024   0.996   6.861   5.794
 7709SOL     OW24025   6.621   4.456   2.323
 7709SOL    HW124026   6.675   4.440   2.240
 7709SOL    HW224027   6.611   4.370   2.373
 7710SOL     OW24028   3.027   2.137   0.268
 7710SOL    HW124029   3.117   2.180   0.275
 7710SOL    HW224030   2.959   2.205   0.240
 7711SOL     OW24031   5.309   6.346   6.345
 7711SOL    HW124032   5.306   6.247   6.334
 7711SOL    HW224033   5.261   6.390   6.269
 7712SOL     OW24034   0.363   5.044   1.906
 7712SOL    HW124035   0.406   5.052   1.996
 7712SOL    HW224036   0.395   4.961   1.861
 7713SOL     OW24037   1.491   4.261   0.941
 7713SOL    HW124038   1.550   4.341   0.950
 7713SOL    HW224039   1.433   4.272   0.860
 7714SOL     OW24040   6.982   4.368   4.843
 7714SOL    HW124041   6.969   4.312   4.761
 7714SOL    HW224042   7.019   4.311   4.916
 7715SOL     OW24043   3.184   2.520   0.437
 7715SOL    HW124044   3.211   2.600   0.382
 7715SOL    HW224045   3.236   2.440   0.407
 7716SOL     OW24046   0.317   4.742   1.876
 7716SOL    HW124047   0.228   4.786   1.889
 7716SOL    HW224048   0.343   4.747   1.780
 7717SOL     OW24049   1.815   0.627   5.845
 7717SOL    HW124050   1.903   0.652   5.884
 7717SOL    HW224051   1.804   0.527   5.849
 7718SOL     OW24052   6.423   3.762   3.451
 7718SOL    HW124053   6.352   3.766   3.381
 7718SOL    HW224054   6.382   3.735   3.538
 7719SOL     OW24055   0.137   4.436   5.237
 7719SOL    HW124056   0.169   4.515   5.185
 7719SOL    HW224057   0.126   4.461   5.333
 7720SOL     OW24058   6.899   1.695   6.546
 7720SOL    HW124059   6.844   1.669   6.625
 7720SOL    HW224060   6.852   1.767   6.495
 7721SOL     OW24061   0.258   5.733   1.850
 7721SOL    HW124062   0.183   5.793   1.879
 7721SOL    HW224063   0.337   5.788   1.824
 7722SOL     OW24064   1.175   4.109   3.399
 7722SOL    HW124065   1.187   4.066   3.309
 7722SOL    HW224066   1.160   4.038   3.468
 7723SOL     OW24067   4.760   3.753   6.287
 7723SOL    HW124068   4.682   3.691   6.294
 7723SOL    HW224069   4.822   3.722   6.215
 7724SOL     OW24070   2.695   3.672   1.245
 7724SOL    HW124071   2.710   3.609   1.170
 7724SOL    HW224072   2.628   3.633   1.309
 7725SOL     OW24073   6.496   1.877   2.421
 7725SOL    HW124074   6.591   1.844   2.425
 7725SOL    HW224075   6.434   1.802   2.445
 7726SOL     OW24076   1.699   5.354   6.076
 7726SOL    HW124077   1.705   5.272   6.020
 7726SOL    HW224078   1.778   5.357   6.138
 7727SOL     OW24079   0.168   2.391   2.744
 7727SOL    HW124080   0.243   2.325   2.743
 7727SOL    HW224081   0.204   2.483   2.731
 7728SOL     OW24082   2.115   3.093   5.165
 7728SOL    HW124083   2.089   3.179   5.208
 7728SOL    HW224084   2.213   3.095   5.145
 7729SOL     OW24085   6.223   2.013   1.570
 7729SOL    HW124086   6.314   2.000   1.530
 7729SOL    HW224087   6.208   2.111   1.586
 7730SOL     OW24088   6.852   4.829   0.243
 7730SOL    HW124089   6.871   4.882   0.161
 7730SOL    HW224090   6.862   4.887   0.324
 7731SOL     OW24091   6.145   1.377   0.059
 7731SOL    HW124092   6.054   1.357   0.023
 7731SOL    HW224093   6.180   1.297   0.107
 7732SOL     OW24094   5.018   6.708   0.085
 7732SOL    HW124095   5.063   6.726   0.172
 7732SOL    HW224096   5.004   6.795   0.036
 7733SOL     OW24097   5.300   5.866   2.305
 7733SOL    HW124098   5.339   5.944   2.354
 7733SOL    HW224099   5.210   5.843   2.344
 7734SOL     OW24100   1.391   5.015   4.147
 7734SOL    HW124101   1.419   5.109   4.166
 7734SOL    HW224102   1.322   5.014   4.075
 7735SOL     OW24103   5.008   6.370   6.445
 7735SOL    HW124104   5.077   6.398   6.512
 7735SOL    HW224105   4.921   6.413   6.467
 7736SOL     OW24106   2.964   3.000   6.749
 7736SOL    HW124107   2.879   2.949   6.757
 7736SOL    HW224108   3.015   2.968   6.669
 7737SOL     OW24109   2.625   6.393   2.595
 7737SOL    HW124110   2.686   6.322   2.632
 7737SOL    HW224111   2.674   6.446   2.526
 7738SOL     OW24112   3.055   5.400   0.213
 7738SOL    HW124113   3.057   5.409   0.114
 7738SOL    HW224114   3.085   5.309   0.239
 7739SOL     OW24115   6.769   2.283   1.419
 7739SOL    HW124116   6.750   2.254   1.326
 7739SOL    HW224117   6.804   2.206   1.472
 7740SOL     OW24118   2.708   1.169   3.211
 7740SOL    HW124119   2.792   1.134   3.169
 7740SOL    HW224120   2.657   1.222   3.143
 7741SOL     OW24121   0.115   4.929   6.057
 7741SOL    HW124122   0.103   5.016   6.011
 7741SOL    HW224123   0.025   4.889   6.075
 7742SOL     OW24124   3.981   1.728   2.720
 7742SOL    HW124125   3.984   1.820   2.682
 7742SOL    HW224126   4.071   1.685   2.709
 7743SOL     OW24127   5.236   2.070   0.006
 7743SOL    HW124128   5.208   2.082   6.937
 7743SOL    HW224129   5.203   1.982   0.040
 7744SOL     OW24130   0.551   0.190   4.227
 7744SOL    HW124131   0.533   0.234   4.315
 7744SOL    HW224132   0.639   0.143   4.230
 7745SOL     OW24133   4.161   1.220   6.774
 7745SOL    HW124134   4.145   1.267   6.862
 7745SOL    HW224135   4.170   1.122   6.790
 7746SOL     OW24136   0.825   0.308   0.785
 7746SOL    HW124137   0.819   0.211   0.760
 7746SOL    HW224138   0.735   0.350   0.774
 7747SOL     OW24139   5.705   6.077   1.393
 7747SOL    HW124140   5.716   5.984   1.429
 7747SOL    HW224141   5.754   6.085   1.306
 7748SOL     OW24142   3.112   4.008   4.566
 7748SOL    HW124143   3.200   4.024   4.522
 7748SOL    HW224144   3.048   3.970   4.499
 7749SOL     OW24145   3.362   3.583   5.460
 7749SOL    HW124146   3.416   3.527   5.521
 7749SOL    HW224147   3.297   3.638   5.513
 7750SOL     OW24148   0.148   6.037   0.670
 7750SOL    HW124149   0.089   6.109   0.707
 7750SOL    HW224150   0.112   6.007   0.582
 7751SOL     OW24151   1.955   2.851   2.428
 7751SOL    HW124152   2.050   2.872   2.406
 7751SOL    HW224153   1.944   2.752   2.438
 7752SOL     OW24154   6.082   6.576   5.594
 7752SOL    HW124155   6.171   6.590   5.550
 7752SOL    HW224156   6.020   6.649   5.567
 7753SOL     OW24157   1.979   0.559   4.398
 7753SOL    HW124158   1.977   0.556   4.498
 7753SOL    HW224159   1.956   0.651   4.367
 7754SOL     OW24160   4.504   6.489   1.909
 7754SOL    HW124161   4.462   6.578   1.924
 7754SOL    HW224162   4.498   6.434   1.993
 7755SOL     OW24163   1.023   2.233   6.037
 7755SOL    HW124164   1.090   2.251   6.109
 7755SOL    HW224165   0.955   2.306   6.036
 7756SOL     OW24166   2.890   6.166   2.050
 7756SOL    HW124167   2.923   6.093   1.990
 7756SOL    HW224168   2.834   6.230   1.998
 7757SOL     OW24169   5.890   5.675   5.504
 7757SOL    HW124170   5.825   5.743   5.538
 7757SOL    HW224171   5.982   5.713   5.506
 7758SOL     OW24172   1.682   1.413   5.713
 7758SOL    HW124173   1.608   1.419   5.780
 7758SOL    HW224174   1.736   1.497   5.715
 7759SOL     OW24175   0.834   1.850   5.439
 7759SOL    HW124176   0.889   1.880   5.361
 7759SOL    HW224177   0.893   1.824   5.515
 7760SOL     OW24178   5.514   3.480   2.593
 7760SOL    HW124179   5.468   3.436   2.516
 7760SOL    HW224180   5.485   3.436   2.678
 7761SOL     OW24181   0.724   0.536   5.636
 7761SOL    HW124182   0.778   0.507   5.557
 7761SOL    HW224183   0.756   0.490   5.718
 7762SOL     OW24184   4.505   0.489   3.887
 7762SOL    HW124185   4.589   0.542   3.875
 7762SOL    HW224186   4.527   0.398   3.920
 7763SOL     OW24187   0.860   0.984   6.771
 7763SOL    HW124188   0.833   0.894   6.805
 7763SOL    HW224189   0.954   1.004   6.800
 7764SOL     OW24190   3.610   3.180   3.528
 7764SOL    HW124191   3.511   3.168   3.523
 7764SOL    HW224192   3.645   3.210   3.439
 7765SOL     OW24193   6.435   2.894   4.806
 7765SOL    HW124194   6.515   2.953   4.794
 7765SOL    HW224195   6.442   2.815   4.745
 7766SOL     OW24196   6.534   3.027   6.760
 7766SOL    HW124197   6.509   2.933   6.735
 7766SOL    HW224198   6.632   3.032   6.776
 7767SOL     OW24199   4.571   5.668   2.504
 7767SOL    HW124200   4.488   5.725   2.501
 7767SOL    HW224201   4.634   5.699   2.434
 7768SOL     OW24202   4.452   4.619   2.285
 7768SOL    HW124203   4.531   4.582   2.335
 7768SOL    HW224204   4.461   4.596   2.188
 7769SOL     OW24205   4.751   2.959   3.161
 7769SOL    HW124206   4.775   3.056   3.166
 7769SOL    HW224207   4.790   2.911   3.239
 7770SOL     OW24208   1.754   4.260   2.732
 7770SOL    HW124209   1.673   4.285   2.679
 7770SOL    HW224210   1.749   4.164   2.758
 7771SOL     OW24211   3.307   2.190   5.338
 7771SOL    HW124212   3.250   2.255   5.287
 7771SOL    HW224213   3.387   2.239   5.375
 7772SOL     OW24214   5.253   0.193   2.097
 7772SOL    HW124215   5.295   0.197   2.188
 7772SOL    HW224216   5.156   0.216   2.104
 7773SOL     OW24217   2.528   6.077   5.109
 7773SOL    HW124218   2.519   6.069   5.208
 7773SOL    HW224219   2.527   6.174   5.084
 7774SOL     OW24220   5.576   2.315   5.614
 7774SOL    HW124221   5.564   2.227   5.567
 7774SOL    HW224222   5.600   2.386   5.548
 7775SOL     OW24223   5.019   5.688   1.278
 7775SOL    HW124224   4.926   5.717   1.258
 7775SOL    HW224225   5.050   5.730   1.364
 7776SOL     OW24226   1.793   5.106   6.644
 7776SOL    HW124227   1.700   5.074   6.660
 7776SOL    HW224228   1.856   5.029   6.655
 7777SOL     OW24229   0.164   6.999   4.723
 7777SOL    HW124230   0.138   6.939   4.647
 7777SOL    HW224231   0.263   7.014   4.721
 7778SOL     OW24232   5.510   3.999   1.100
 7778SOL    HW124233   5.525   4.096   1.078
 7778SOL    HW224234   5.586   3.966   1.157
 7779SOL     OW24235   2.590   2.603   1.798
 7779SOL    HW124236   2.654   2.668   1.757
 7779SOL    HW224237   2.623   2.510   1.781
 7780SOL     OW24238   0.830   4.452   5.076
 7780SOL    HW124239   0.921   4.488   5.058
 7780SOL    HW224240   0.791   4.497   5.156
 7781SOL     OW24241   1.107   4.696   0.207
 7781SOL    HW124242   1.198   4.686   0.246
 7781SOL    HW224243   1.099   4.640   0.125
 7782SOL     OW24244   6.344   5.196   4.233
 7782SOL    HW124245   6.245   5.204   4.233
 7782SOL    HW224246   6.374   5.158   4.321
 7783SOL     OW24247   1.241   5.929   5.193
 7783SOL    HW124248   1.292   5.966   5.115
 7783SOL    HW224249   1.163   5.876   5.159
 7784SOL     OW24250   3.218   2.121   1.683
 7784SOL    HW124251   3.280   2.157   1.752
 7784SOL    HW224252   3.130   2.168   1.689
 7785SOL     OW24253   2.394   5.937   4.472
 7785SOL    HW124254   2.469   5.876   4.498
 7785SOL    HW224255   2.413   6.029   4.506
 7786SOL     OW24256   2.872   6.488   0.290
 7786SOL    HW124257   2.946   6.429   0.256
 7786SOL    HW224258   2.876   6.491   0.390
 7787SOL     OW24259   2.106   2.941   6.347
 7787SOL    HW124260   2.156   2.912   6.265
 7787SOL    HW224261   2.119   3.039   6.361
 7788SOL     OW24262   2.450   5.023   1.115
 7788SOL    HW124263   2.475   5.115   1.143
 7788SOL    HW224264   2.487   5.004   1.024
 7789SOL     OW24265   2.152   6.770   6.470
 7789SOL    HW124266   2.063   6.812   6.457
 7789SOL    HW224267   2.157   6.684   6.418
 7790SOL     OW24268   5.779   5.732   3.394
 7790SOL    HW124269   5.852   5.667   3.372
 7790SOL    HW224270   5.797   5.774   3.483
 7791SOL     OW24271   2.527   5.076   3.385
 7791SOL    HW124272   2.432   5.062   3.356
 7791SOL    HW224273   2.531   5.086   3.484
 7792SOL     OW24274   2.054   5.462   4.920
 7792SOL    HW124275   2.107   5.547   4.920
 7792SOL    HW224276   1.971   5.475   4.974
 7793SOL     OW24277   3.026   0.905   0.880
 7793SOL    HW124278   3.079   0.916   0.796
 7793SOL    HW224279   3.048   0.817   0.922
 7794SOL     OW24280   5.976   3.734   3.173
 7794SOL    HW124281   5.882   3.734   3.208
 7794SOL    HW224282   5.986   3.661   3.106
 7795SOL     OW24283   1.952   4.230   5.847
 7795SOL    HW124284   1.981   4.324   5.864
 7795SOL    HW224285   1.985   4.201   5.757
 7796SOL     OW24286   3.711   3.230   3.774
 7796SOL    HW124287   3.681   3.198   3.684
 7796SOL    HW224288   3.790   3.177   3.804
 7797SOL     OW24289   1.540   6.819   2.729
 7797SOL    HW124290   1.622   6.868   2.700
 7797SOL    HW224291   1.555   6.779   2.819
 7798SOL     OW24292   1.891   3.952   5.305
 7798SOL    HW124293   1.962   3.962   5.236
 7798SOL    HW224294   1.912   3.873   5.362
 7799SOL     OW24295   1.235   6.075   2.689
 7799SOL    HW124296   1.223   6.001   2.755
 7799SOL    HW224297   1.312   6.132   2.719
 7800SOL     OW24298   0.573   5.176   1.242
 7800SOL    HW124299   0.627   5.230   1.177
 7800SOL    HW224300   0.633   5.140   1.313
 7801SOL     OW24301   2.055   2.176   2.020
 7801SOL    HW124302   2.005   2.247   2.070
 7801SOL    HW224303   2.130   2.143   2.077
 7802SOL     OW24304   5.866   2.794   0.659
 7802SOL    HW124305   5.839   2.809   0.754
 7802SOL    HW224306   5.859   2.696   0.637
 7803SOL     OW24307   4.955   2.084   6.031
 7803SOL    HW124308   4.918   2.023   5.961
 7803SOL    HW224309   4.910   2.173   6.025
 7804SOL     OW24310   4.523   1.773   3.859
 7804SOL    HW124311   4.506   1.829   3.941
 7804SOL    HW224312   4.561   1.685   3.887
 7805SOL     OW24313   5.675   3.162   1.447
 7805SOL    HW124314   5.733   3.234   1.408
 7805SOL    HW224315   5.728   3.077   1.452
 7806SOL     OW24316   6.053   2.099   0.400
 7806SOL    HW124317   6.068   2.054   0.488
 7806SOL    HW224318   6.105   2.051   0.329
 7807SOL     OW24319   1.057   5.039   5.316
 7807SOL    HW124320   1.095   4.976   5.383
 7807SOL    HW224321   0.986   4.993   5.263
 7808SOL     OW24322   6.173   3.460   4.321
 7808SOL    HW124323   6.242   3.393   4.293
 7808SOL    HW224324   6.156   3.524   4.246
 7809SOL     OW24325   3.194   5.095   4.253
 7809SOL    HW124326   3.278   5.039   4.253
 7809SOL    HW224327   3.176   5.127   4.160
 7810SOL     OW24328   3.668   0.118   4.288
 7810SOL    HW124329   3.689   0.057   4.365
 7810SOL    HW224330   3.624   0.065   4.215
 7811SOL     OW24331   1.753   5.376   2.238
 7811SOL    HW124332   1.797   5.332   2.160
 7811SOL    HW224333   1.730   5.306   2.307
 7812SOL     OW24334   6.825   1.820   3.982
 7812SOL    HW124335   6.902   1.769   3.943
 7812SOL    HW224336   6.779   1.871   3.909
 7813SOL     OW24337   5.060   2.372   0.024
 7813SOL    HW124338   5.144   2.353   0.075
 7813SOL    HW224339   5.083   2.391   6.954
 7814SOL     OW24340   0.527   3.854   3.490
 7814SOL    HW124341   0.528   3.814   3.398
 7814SOL    HW224342   0.587   3.801   3.549
 7815SOL     OW24343   5.813   1.545   5.244
 7815SOL    HW124344   5.851   1.480   5.178
 7815SOL    HW224345   5.808   1.501   5.334
 7816SOL     OW24346   1.752   2.428   6.296
 7816SOL    HW124347   1.717   2.514   6.333
 7816SOL    HW224348   1.689   2.353   6.319
 7817SOL     OW24349   5.068   4.410   3.102
 7817SOL    HW124350   5.091   4.500   3.139
 7817SOL    HW224351   4.969   4.406   3.085
 7818SOL     OW24352   4.351   1.186   1.853
 7818SOL    HW124353   4.410   1.256   1.812
 7818SOL    HW224354   4.313   1.128   1.782
 7819SOL     OW24355   6.997   3.643   2.517
 7819SOL    HW124356   7.021   3.609   2.608
 7819SOL    HW224357   0.029   3.722   2.496
 7820SOL     OW24358   0.712   1.468   5.554
 7820SOL    HW124359   0.763   1.517   5.625
 7820SOL    HW224360   0.638   1.416   5.597
 7821SOL     OW24361   5.666   5.546   0.398
 7821SOL    HW124362   5.607   5.511   0.326
 7821SOL    HW224363   5.613   5.607   0.458
 7822SOL     OW24364   2.001   2.458   6.150
 7822SOL    HW124365   1.911   2.443   6.190
 7822SOL    HW224366   2.034   2.373   6.108
 7823SOL     OW24367   2.544   3.594   5.382
 7823SOL    HW124368   2.615   3.531   5.351
 7823SOL    HW224369   2.560   3.684   5.342
 7824SOL     OW24370   5.984   0.501   3.842
 7824SOL    HW124371   5.886   0.483   3.842
 7824SOL    HW224372   6.033   0.414   3.838
 7825SOL     OW24373   1.112   3.072   1.033
 7825SOL    HW124374   1.125   3.055   1.130
 7825SOL    HW224375   1.067   2.993   0.991
 7826SOL     OW24376   6.004   1.201   0.549
 7826SOL    HW124377   5.926   1.140   0.545
 7826SOL    HW224378   5.997   1.259   0.631
 7827SOL     OW24379   3.117   4.966   1.166
 7827SOL    HW124380   3.101   4.870   1.185
 7827SOL    HW224381   3.148   5.012   1.249
 7828SOL     OW24382   0.998   4.507   6.755
 7828SOL    HW124383   0.918   4.566   6.747
 7828SOL    HW224384   0.999   4.442   6.679
 7829SOL     OW24385   2.512   3.055   1.389
 7829SOL    HW124386   2.428   3.107   1.406
 7829SOL    HW224387   2.553   3.087   1.303
 7830SOL     OW24388   2.323   4.501   5.609
 7830SOL    HW124389   2.266   4.564   5.557
 7830SOL    HW224390   2.339   4.418   5.555
 7831SOL     OW24391   1.613   6.037   1.358
 7831SOL    HW124392   1.676   6.019   1.283
 7831SOL    HW224393   1.554   6.114   1.333
 7832SOL     OW24394   4.904   1.329   3.100
 7832SOL    HW124395   4.846   1.285   3.169
 7832SOL    HW224396   4.940   1.259   3.038
 7833SOL     OW24397   0.687   0.756   6.462
 7833SOL    HW124398   0.783   0.787   6.463
 7833SOL    HW224399   0.666   0.711   6.548
 7834SOL     OW24400   6.271   1.608   4.031
 7834SOL    HW124401   6.241   1.582   4.123
 7834SOL    HW224402   6.333   1.539   3.995
 7835SOL     OW24403   3.026   1.674   5.552
 7835SOL    HW124404   3.073   1.649   5.636
 7835SOL    HW224405   3.072   1.634   5.473
 7836SOL     OW24406   3.278   2.983   4.670
 7836SOL    HW124407   3.347   2.971   4.742
 7836SOL    HW224408   3.187   2.984   4.712
 7837SOL     OW24409   6.584   5.732   0.927
 7837SOL    HW124410   6.632   5.782   0.856
 7837SOL    HW224411   6.630   5.645   0.944
 7838SOL     OW24412   4.093   6.770   0.082
 7838SOL    HW124413   4.088   6.740   0.177
 7838SOL    HW224414   4.084   6.870   0.078
 7839SOL     OW24415   6.323   5.130   4.495
 7839SOL    HW124416   6.334   5.092   4.587
 7839SOL    HW224417   6.240   5.185   4.491
 7840SOL     OW24418   6.070   2.785   3.968
 7840SOL    HW124419   6.004   2.855   3.941
 7840SOL    HW224420   6.092   2.728   3.888
 7841SOL     OW24421   3.816   2.009   6.761
 7841SOL    HW124422   3.771   2.059   6.835
 7841SOL    HW224423   3.793   1.912   6.768
 7842SOL     OW24424   2.145   2.062   2.947
 7842SOL    HW124425   2.068   1.999   2.950
 7842SOL    HW224426   2.148   2.115   3.031
 7843SOL     OW24427   6.328   5.580   2.651
 7843SOL    HW124428   6.242   5.550   2.609
 7843SOL    HW224429   6.399   5.512   2.634
 7844SOL     OW24430   3.951   6.271   2.180
 7844SOL    HW124431   3.865   6.275   2.129
 7844SOL    HW224432   3.973   6.361   2.216
 7845SOL     OW24433   5.270   1.876   3.724
 7845SOL    HW124434   5.245   1.900   3.630
 7845SOL    HW224435   5.219   1.795   3.752
 7846SOL     OW24436   1.031   0.611   2.682
 7846SOL    HW124437   1.129   0.621   2.663
 7846SOL    HW224438   0.996   0.695   2.724
 7847SOL     OW24439   0.238   2.000   2.960
 7847SOL    HW124440   0.216   1.902   2.959
 7847SOL    HW224441   0.312   2.017   2.895
 7848SOL     OW24442   3.478   3.382   0.512
 7848SOL    HW124443   3.432   3.434   0.440
 7848SOL    HW224444   3.416   3.310   0.545
 7849SOL     OW24445   5.720   4.287   3.620
 7849SOL    HW124446   5.817   4.295   3.642
 7849SOL    HW224447   5.667   4.271   3.704
 7850SOL     OW24448   0.170   2.252   5.354
 7850SOL    HW124449   0.105   2.288   5.421
 7850SOL    HW224450   0.216   2.172   5.392
 7851SOL     OW24451   6.813   1.234   2.173
 7851SOL    HW124452   6.849   1.212   2.082
 7851SOL    HW224453   6.869   1.306   2.214
 7852SOL     OW24454   2.479   1.784   5.934
 7852SOL    HW124455   2.475   1.711   5.867
 7852SOL    HW224456   2.574   1.814   5.946
 7853SOL     OW24457   4.553   2.052   1.241
 7853SOL    HW124458   4.483   1.984   1.219
 7853SOL    HW224459   4.566   2.054   1.340
 7854SOL     OW24460   3.841   3.589   0.079
 7854SOL    HW124461   3.771   3.660   0.077
 7854SOL    HW224462   3.929   3.630   0.103
 7855SOL     OW24463   4.667   5.218   4.538
 7855SOL    HW124464   4.666   5.243   4.441
 7855SOL    HW224465   4.628   5.126   4.548
 7856SOL     OW24466   6.095   4.717   4.934
 7856SOL    HW124467   6.193   4.735   4.941
 7856SOL    HW224468   6.049   4.799   4.898
 7857SOL     OW24469   5.789   2.029   5.332
 7857SOL    HW124470   5.720   2.036   5.404
 7857SOL    HW224471   5.769   1.951   5.273
 7858SOL     OW24472   5.247   6.001   4.308
 7858SOL    HW124473   5.189   6.014   4.388
 7858SOL    HW224474   5.191   6.003   4.225
 7859SOL     OW24475   4.828   2.607   6.583
 7859SOL    HW124476   4.734   2.633   6.560
 7859SOL    HW224477   4.831   2.510   6.605
 7860SOL     OW24478   3.702   0.285   2.384
 7860SOL    HW124479   3.605   0.289   2.360
 7860SOL    HW224480   3.729   0.191   2.404
 7861SOL     OW24481   3.617   4.829   1.670
 7861SOL    HW124482   3.711   4.858   1.653
 7861SOL    HW224483   3.617   4.762   1.745
 7862SOL     OW24484   2.523   3.704   1.542
 7862SOL    HW124485   2.429   3.684   1.571
 7862SOL    HW224486   2.587   3.667   1.609
 7863SOL     OW24487   0.937   5.160   3.777
 7863SOL    HW124488   1.013   5.218   3.748
 7863SOL    HW224489   0.969   5.090   3.841
 7864SOL     OW24490   0.371   5.400   5.071
 7864SOL    HW124491   0.386   5.490   5.029
 7864SOL    HW224492   0.338   5.336   5.002
 7865SOL     OW24493   5.928   6.555   3.767
 7865SOL    HW124494   6.023   6.544   3.740
 7865SOL    HW224495   5.874   6.479   3.732
 7866SOL     OW24496   1.501   1.271   6.474
 7866SOL    HW124497   1.566   1.347   6.481
 7866SOL    HW224498   1.517   1.221   6.389
 7867SOL     OW24499   6.023   6.179   3.543
 7867SOL    HW124500   6.039   6.183   3.444
 7867SOL    HW224501   5.940   6.231   3.566
 7868SOL     OW24502   5.878   6.872   1.753
 7868SOL    HW124503   5.856   6.970   1.749
 7868SOL    HW224504   5.793   6.820   1.754
 7869SOL     OW24505   6.386   3.777   0.082
 7869SOL    HW124506   6.480   3.798   0.107
 7869SOL    HW224507   6.377   3.679   0.062
 7870SOL     OW24508   4.165   4.842   3.884
 7870SOL    HW124509   4.130   4.802   3.799
 7870SOL    HW224510   4.264   4.829   3.888
 7871SOL     OW24511   4.811   2.870   2.330
 7871SOL    HW124512   4.755   2.832   2.256
 7871SOL    HW224513   4.902   2.894   2.295
 7872SOL     OW24514   2.300   4.593   3.484
 7872SOL    HW124515   2.382   4.553   3.444
 7872SOL    HW224516   2.314   4.691   3.498
 7873SOL     OW24517   5.541   0.635   5.922
 7873SOL    HW124518   5.556   0.673   5.831
 7873SOL    HW224519   5.550   0.708   5.991
 7874SOL     OW24520   5.319   2.149   0.319
 7874SOL    HW124521   5.310   2.081   0.246
 7874SOL    HW224522   5.414   2.153   0.350
 7875SOL     OW24523   5.268   2.722   6.686
 7875SOL    HW124524   5.316   2.683   6.765
 7875SOL    HW224525   5.169   2.708   6.697
 7876SOL     OW24526   0.845   0.224   4.747
 7876SOL    HW124527   0.844   0.131   4.710
 7876SOL    HW224528   0.765   0.274   4.714
 7877SOL     OW24529   0.714   2.469   3.172
 7877SOL    HW124530   0.703   2.371   3.153
 7877SOL    HW224531   0.629   2.517   3.147
 7878SOL     OW24532   5.837   5.041   4.469
 7878SOL    HW124533   5.789   4.955   4.488
 7878SOL    HW224534   5.895   5.030   4.388
 7879SOL     OW24535   4.769   4.923   3.926
 7879SOL    HW124536   4.695   4.861   3.952
 7879SOL    HW224537   4.801   4.974   4.006
 7880SOL     OW24538   1.770   5.014   0.767
 7880SOL    HW124539   1.689   4.993   0.822
 7880SOL    HW224540   1.844   4.952   0.791
 7881SOL     OW24541   6.227   4.564   4.517
 7881SOL    HW124542   6.305   4.623   4.539
 7881SOL    HW224543   6.230   4.541   4.419
 7882SOL     OW24544   0.938   3.019   2.071
 7882SOL    HW124545   0.922   2.943   2.135
 7882SOL    HW224546   0.907   2.992   1.980
 7883SOL     OW24547   1.076   0.605   0.795
 7883SOL    HW124548   0.997   0.626   0.738
 7883SOL    HW224549   1.070   0.510   0.826
 7884SOL     OW24550   2.028   3.796   4.081
 7884SOL    HW124551   1.944   3.765   4.037
 7884SOL    HW224552   2.091   3.831   4.011
 7885SOL     OW24553   6.720   5.086   1.986
 7885SOL    HW124554   6.664   5.096   2.067
 7885SOL    HW224555   6.784   5.010   1.998
 7886SOL     OW24556   3.524   5.196   0.009
 7886SOL    HW124557   3.459   5.120   0.008
 7886SOL    HW224558   3.515   5.249   6.951
 7887SOL     OW24559   3.345   2.644   5.295
 7887SOL    HW124560   3.289   2.656   5.377
 7887SOL    HW224561   3.310   2.567   5.242
 7888SOL     OW24562   6.678   0.150   4.848
 7888SOL    HW124563   6.754   0.096   4.883
 7888SOL    HW224564   6.710   0.241   4.823
 7889SOL     OW24565   1.640   5.070   0.386
 7889SOL    HW124566   1.677   5.158   0.417
 7889SOL    HW224567   1.615   5.076   0.290
 7890SOL     OW24568   0.972   2.933   3.545
 7890SOL    HW124569   1.034   3.008   3.568
 7890SOL    HW224570   0.967   2.869   3.622
 7891SOL     OW24571   2.359   4.488   3.761
 7891SOL    HW124572   2.449   4.533   3.757
 7891SOL    HW224573   2.316   4.494   3.671
 7892SOL     OW24574   2.108   0.953   3.837
 7892SOL    HW124575   2.056   0.930   3.919
 7892SOL    HW224576   2.072   1.038   3.798
 7893SOL     OW24577   6.520   6.246   2.279
 7893SOL    HW124578   6.486   6.198   2.360
 7893SOL    HW224579   6.502   6.344   2.289
 7894SOL     OW24580   4.007   6.663   0.342
 7894SOL    HW124581   4.022   6.709   0.429
 7894SOL    HW224582   3.931   6.598   0.352
 7895SOL     OW24583   5.665   0.646   5.340
 7895SOL    HW124584   5.755   0.636   5.298
 7895SOL    HW224585   5.615   0.721   5.295
 7896SOL     OW24586   4.199   3.624   1.349
 7896SOL    HW124587   4.277   3.593   1.404
 7896SOL    HW224588   4.156   3.546   1.306
 7897SOL     OW24589   3.134   3.639   0.647
 7897SOL    HW124590   3.165   3.669   0.557
 7897SOL    HW224591   3.050   3.585   0.637
 7898SOL     OW24592   4.051   1.733   3.100
 7898SOL    HW124593   3.997   1.650   3.108
 7898SOL    HW224594   4.001   1.809   3.143
 7899SOL     OW24595   5.604   0.287   1.520
 7899SOL    HW124596   5.607   0.242   1.609
 7899SOL    HW224597   5.682   0.349   1.511
 7900SOL     OW24598   1.488   4.936   2.317
 7900SOL    HW124599   1.413   4.951   2.252
 7900SOL    HW224600   1.546   5.018   2.321
 7901SOL     OW24601   5.105   1.669   6.419
 7901SOL    HW124602   5.181   1.731   6.398
 7901SOL    HW224603   5.088   1.610   6.340
 7902SOL     OW24604   6.023   6.591   1.399
 7902SOL    HW124605   6.096   6.658   1.408
 7902SOL    HW224606   6.032   6.543   1.312
 7903SOL     OW24607   5.231   1.221   1.142
 7903SOL    HW124608   5.184   1.192   1.225
 7903SOL    HW224609   5.317   1.172   1.132
 7904SOL     OW24610   5.409   6.989   3.550
 7904SOL    HW124611   5.317   7.007   3.585
 7904SOL    HW224612   5.473   6.985   3.627
 7905SOL     OW24613   5.044   2.497   0.280
 7905SOL    HW124614   5.031   2.435   0.357
 7905SOL    HW224615   5.011   2.454   0.196
 7906SOL     OW24616   0.736   5.837   0.813
 7906SOL    HW124617   0.833   5.835   0.787
 7906SOL    HW224618   0.679   5.847   0.732
 7907SOL     OW24619   5.223   1.931   2.581
 7907SOL    HW124620   5.180   2.007   2.629
 7907SOL    HW224621   5.258   1.963   2.493
 7908SOL     OW24622   1.677   1.113   5.859
 7908SOL    HW124623   1.690   1.192   5.920
 7908SOL    HW224624   1.763   1.092   5.814
 7909SOL     OW24625   5.519   4.540   4.612
 7909SOL    HW124626   5.510   4.523   4.710
 7909SOL    HW224627   5.602   4.496   4.578
 7910SOL     OW24628   2.782   3.495   5.740
 7910SOL    HW124629   2.827   3.522   5.825
 7910SOL    HW224630   2.710   3.562   5.718
 7911SOL     OW24631   2.098   3.848   0.095
 7911SOL    HW124632   2.041   3.809   0.023
 7911SOL    HW224633   2.045   3.855   0.180
 7912SOL     OW24634   0.006   5.258   0.957
 7912SOL    HW124635   0.065   5.250   1.038
 7912SOL    HW224636   0.027   5.342   0.908
 7913SOL     OW24637   1.714   4.620   0.715
 7913SOL    HW124638   1.688   4.543   0.658
 7913SOL    HW224639   1.663   4.617   0.801
 7914SOL     OW24640   0.473   4.137   0.325
 7914SOL    HW124641   0.427   4.125   0.237
 7914SOL    HW224642   0.414   4.102   0.398
 7915SOL     OW24643   4.935   2.336   1.558
 7915SOL    HW124644   4.862   2.404   1.552
 7915SOL    HW224645   5.005   2.356   1.490
 7916SOL     OW24646   0.766   4.099   5.007
 7916SOL    HW124647   0.764   4.157   4.925
 7916SOL    HW224648   0.760   4.003   4.979
 7917SOL     OW24649   4.142   3.497   4.750
 7917SOL    HW124650   4.235   3.528   4.767
 7917SOL    HW224651   4.090   3.570   4.706
 7918SOL     OW24652   0.056   1.252   5.542
 7918SOL    HW124653   7.013   1.318   5.513
 7918SOL    HW224654   0.147   1.286   5.517
 7919SOL     OW24655   2.196   4.119   3.168
 7919SOL    HW124656   2.240   4.177   3.099
 7919SOL    HW224657   2.236   4.138   3.257
 7920SOL     OW24658   0.189   6.461   0.675
 7920SOL    HW124659   0.240   6.536   0.633
 7920SOL    HW224660   0.187   6.473   0.774
 7921SOL     OW24661   5.518   6.546   1.021
 7921SOL    HW124662   5.428   6.567   0.983
 7921SOL    HW224663   5.506   6.489   1.103
 7922SOL     OW24664   0.012   6.747   0.583
 7922SOL    HW124665   6.992   6.667   0.541
 7922SOL    HW224666   0.106   6.751   0.551
 7923SOL     OW24667   3.560   6.833   1.575
 7923SOL    HW124668   3.558   6.849   1.476
 7923SOL    HW224669   3.629   6.764   1.596
 7924SOL     OW24670   4.268   6.920   1.758
 7924SOL    HW124671   4.262   6.905   1.857
 7924SOL    HW224672   4.256   6.833   1.711
 7925SOL     OW24673   0.985   1.573   6.162
 7925SOL    HW124674   0.908   1.532   6.113
 7925SOL    HW224675   0.998   1.524   6.249
 7926SOL     OW24676   4.873   1.687   5.449
 7926SOL    HW124677   4.950   1.743   5.478
 7926SOL    HW224678   4.891   1.649   5.359
 7927SOL     OW24679   4.137   5.321   2.341
 7927SOL    HW124680   4.218   5.376   2.359
 7927SOL    HW224681   4.069   5.337   2.413
 7928SOL     OW24682   1.289   1.971   4.882
 7928SOL    HW124683   1.228   1.894   4.898
 7928SOL    HW224684   1.282   2.001   4.787
 7929SOL     OW24685   4.352   4.702   5.866
 7929SOL    HW124686   4.293   4.743   5.936
 7929SOL    HW224687   4.446   4.733   5.880
 7930SOL     OW24688   4.301   5.223   4.676
 7930SOL    HW124689   4.316   5.134   4.718
 7930SOL    HW224690   4.203   5.240   4.668
 7931SOL     OW24691   2.477   2.605   0.149
 7931SOL    HW124692   2.414   2.531   0.125
 7931SOL    HW224693   2.543   2.618   0.075
 7932SOL     OW24694   1.566   6.551   6.608
 7932SOL    HW124695   1.639   6.584   6.549
 7932SOL    HW224696   1.502   6.496   6.554
 7933SOL     OW24697   0.436   5.940   5.838
 7933SOL    HW124698   0.432   5.965   5.935
 7933SOL    HW224699   0.518   5.979   5.797
 7934SOL     OW24700   2.651   5.172   6.956
 7934SOL    HW124701   2.650   5.093   6.896
 7934SOL    HW224702   2.558   5.192   6.987
 7935SOL     OW24703   6.136   5.864   0.585
 7935SOL    HW124704   6.171   5.955   0.564
 7935SOL    HW224705   6.133   5.810   0.501
 7936SOL     OW24706   3.969   5.994   2.166
 7936SOL    HW124707   3.973   5.955   2.074
 7936SOL    HW224708   3.962   6.094   2.159
 7937SOL     OW24709   6.957   6.215   3.178
 7937SOL    HW124710   7.017   6.160   3.119
 7937SOL    HW224711   6.880   6.159   3.209
 7938SOL     OW24712   6.483   5.215   3.698
 7938SOL    HW124713   6.530   5.303   3.694
 7938SOL    HW224714   6.429   5.210   3.782
 7939SOL     OW24715   1.429   2.946   5.428
 7939SOL    HW124716   1.520   2.924   5.393
 7939SOL    HW224717   1.403   3.038   5.397
 7940SOL     OW24718   1.863   3.313   2.078
 7940SOL    HW124719   1.809   3.381   2.029
 7940SOL    HW224720   1.814   3.226   2.079
 7941SOL     OW24721   5.240   1.263   0.803
 7941SOL    HW124722   5.175   1.188   0.817
 7941SOL    HW224723   5.264   1.267   0.706
 7942SOL     OW24724   6.658   5.952   2.658
 7942SOL    HW124725   6.581   5.891   2.642
 7942SOL    HW224726   6.711   5.963   2.574
 7943SOL     OW24727   6.287   3.427   0.516
 7943SOL    HW124728   6.367   3.431   0.456
 7943SOL    HW224729   6.205   3.451   0.464
 7944SOL     OW24730   0.191   2.382   1.458
 7944SOL    HW124731   0.116   2.441   1.488
 7944SOL    HW224732   0.168   2.340   1.370
 7945SOL     OW24733   5.796   5.477   1.335
 7945SOL    HW124734   5.713   5.471   1.280
 7945SOL    HW224735   5.871   5.433   1.286
 7946SOL     OW24736   2.187   1.031   5.500
 7946SOL    HW124737   2.252   1.024   5.424
 7946SOL    HW224738   2.134   1.115   5.492
 7947SOL     OW24739   4.113   1.923   6.066
 7947SOL    HW124740   4.188   1.863   6.096
 7947SOL    HW224741   4.150   2.012   6.040
 7948SOL     OW24742   1.110   6.891   0.838
 7948SOL    HW124743   1.182   6.960   0.842
 7948SOL    HW224744   1.137   6.811   0.893
 7949SOL     OW24745   4.459   4.695   4.852
 7949SOL    HW124746   4.543   4.725   4.897
 7949SOL    HW224747   4.402   4.644   4.917
 7950SOL     OW24748   5.653   5.219   4.356
 7950SOL    HW124749   5.644   5.288   4.427
 7950SOL    HW224750   5.740   5.171   4.366
 7951SOL     OW24751   2.066   4.077   1.912
 7951SOL    HW124752   2.144   4.133   1.885
 7951SOL    HW224753   2.096   3.982   1.924
 7952SOL     OW24754   0.828   3.472   6.915
 7952SOL    HW124755   0.810   3.556   6.965
 7952SOL    HW224756   0.792   3.481   6.822
 7953SOL     OW24757   2.258   2.428   4.201
 7953SOL    HW124758   2.197   2.433   4.280
 7953SOL    HW224759   2.251   2.513   4.148
 7954SOL     OW24760   4.201   4.121   6.119
 7954SOL    HW124761   4.142   4.162   6.189
 7954SOL    HW224762   4.297   4.134   6.144
 7955SOL     OW24763   1.422   6.640   7.014
 7955SOL    HW124764   1.408   6.682   6.924
 7955SOL    HW224765   1.467   6.551   7.003
 7956SOL     OW24766   3.721   5.920   2.761
 7956SOL    HW124767   3.798   5.969   2.721
 7956SOL    HW224768   3.642   5.981   2.767
 7957SOL     OW24769   1.028   0.654   2.068
 7957SOL    HW124770   1.014   0.630   1.972
 7957SOL    HW224771   1.007   0.751   2.081
 7958SOL     OW24772   3.365   4.937   4.517
 7958SOL    HW124773   3.435   4.920   4.586
 7958SOL    HW224774   3.275   4.916   4.554
 7959SOL     OW24775   4.346   5.939   1.022
 7959SOL    HW124776   4.320   6.030   0.990
 7959SOL    HW224777   4.282   5.909   1.094
 7960SOL     OW24778   2.608   1.145   0.060
 7960SOL    HW124779   2.568   1.059   0.029
 7960SOL    HW224780   2.655   1.189   7.009
 7961SOL     OW24781   0.044   0.898   1.114
 7961SOL    HW124782   7.025   0.980   1.079
 7961SOL    HW224783   0.060   0.909   1.213
 7962SOL     OW24784   1.036   0.622   6.952
 7962SOL    HW124785   0.999   0.561   7.022
 7962SOL    HW224786   1.090   0.694   6.996
 7963SOL     OW24787   6.563   6.690   3.859
 7963SOL    HW124788   6.504   6.662   3.935
 7963SOL    HW224789   6.656   6.703   3.892
 7964SOL     OW24790   0.382   4.872   3.505
 7964SOL    HW124791   0.443   4.831   3.573
 7964SOL    HW224792   0.432   4.885   3.419
 7965SOL     OW24793   3.684   2.340   6.067
 7965SOL    HW124794   3.628   2.290   6.001
 7965SOL    HW224795   3.718   2.276   6.136
 7966SOL     OW24796   1.195   2.764   5.429
 7966SOL    HW124797   1.112   2.817   5.411
 7966SOL    HW224798   1.267   2.825   5.461
 7967SOL     OW24799   2.705   6.592   3.552
 7967SOL    HW124800   2.658   6.639   3.626
 7967SOL    HW224801   2.734   6.501   3.582
 7968SOL     OW24802   2.031   3.020   3.802
 7968SOL    HW124803   1.979   2.999   3.719
 7968SOL    HW224804   2.112   2.963   3.805
 7969SOL     OW24805   4.024   6.083   0.475
 7969SOL    HW124806   4.120   6.058   0.485
 7969SOL    HW224807   4.015   6.183   0.471
 7970SOL     OW24808   6.670   2.979   2.774
 7970SOL    HW124809   6.571   2.991   2.763
 7970SOL    HW224810   6.688   2.894   2.823
 7971SOL     OW24811   4.163   1.973   0.496
 7971SOL    HW124812   4.174   2.004   0.402
 7971SOL    HW224813   4.252   1.947   0.534
 7972SOL     OW24814   1.644   3.128   0.769
 7972SOL    HW124815   1.722   3.098   0.713
 7972SOL    HW224816   1.658   3.223   0.795
 7973SOL     OW24817   4.314   4.940   4.166
 7973SOL    HW124818   4.254   5.017   4.144
 7973SOL    HW224819   4.347   4.899   4.081
 7974SOL     OW24820   6.205   1.467   5.497
 7974SOL    HW124821   6.179   1.530   5.424
 7974SOL    HW224822   6.189   1.373   5.468
 7975SOL     OW24823   5.933   1.364   2.296
 7975SOL    HW124824   5.891   1.395   2.211
 7975SOL    HW224825   6.032   1.382   2.292
 7976SOL     OW24826   0.864   0.854   6.186
 7976SOL    HW124827   0.886   0.875   6.281
 7976SOL    HW224828   0.777   0.897   6.161
 7977SOL     OW24829   4.852   6.305   1.960
 7977SOL    HW124830   4.890   6.324   1.870
 7977SOL    HW224831   4.897   6.363   2.028
 7978SOL     OW24832   6.032   3.684   6.661
 7978SOL    HW124833   6.089   3.759   6.626
 7978SOL    HW224834   5.937   3.701   6.638
 7979SOL     OW24835   4.319   6.181   5.359
 7979SOL    HW124836   4.387   6.156   5.427
 7979SOL    HW224837   4.237   6.216   5.404
 7980SOL     OW24838   2.732   5.229   6.551
 7980SOL    HW124839   2.761   5.255   6.459
 7980SOL    HW224840   2.674   5.148   6.545
 7981SOL     OW24841   0.631   5.608   1.776
 7981SOL    HW124842   0.692   5.619   1.855
 7981SOL    HW224843   0.659   5.670   1.703
 7982SOL     OW24844   0.261   1.516   0.030
 7982SOL    HW124845   0.284   1.556   0.118
 7982SOL    HW224846   0.329   1.542   6.987
 7983SOL     OW24847   5.983   1.953   1.685
 7983SOL    HW124848   6.073   1.990   1.663
 7983SOL    HW224849   5.913   2.021   1.665
 7984SOL     OW24850   1.527   1.091   0.975
 7984SOL    HW124851   1.552   1.179   0.936
 7984SOL    HW224852   1.490   1.104   1.066
 7985SOL     OW24853   2.874   0.825   3.627
 7985SOL    HW124854   2.809   0.787   3.693
 7985SOL    HW224855   2.874   0.925   3.635
 7986SOL     OW24856   3.157   1.509   6.967
 7986SOL    HW124857   3.068   1.470   6.991
 7986SOL    HW224858   3.146   1.605   6.944
 7987SOL     OW24859   1.519   2.793   6.352
 7987SOL    HW124860   1.615   2.777   6.327
 7987SOL    HW224861   1.486   2.874   6.304
 7988SOL     OW24862   0.993   2.370   3.973
 7988SOL    HW124863   1.015   2.300   4.041
 7988SOL    HW224864   0.978   2.326   3.885
 7989SOL     OW24865   3.580   2.906   5.585
 7989SOL    HW124866   3.597   2.899   5.683
 7989SOL    HW224867   3.640   2.842   5.536
 7990SOL     OW24868   0.021   2.852   3.713
 7990SOL    HW124869   0.022   2.817   3.807
 7990SOL    HW224870   6.988   2.933   3.708
 7991SOL     OW24871   5.856   6.807   3.750
 7991SOL    HW124872   5.880   6.713   3.777
 7991SOL    HW224873   5.933   6.867   3.771
 7992SOL     OW24874   1.768   6.256   1.687
 7992SOL    HW124875   1.834   6.312   1.738
 7992SOL    HW224876   1.678   6.262   1.731
 7993SOL     OW24877   0.256   6.775   6.362
 7993SOL    HW124878   0.228   6.838   6.290
 7993SOL    HW224879   0.223   6.807   6.451
 7994SOL     OW24880   4.519   6.494   3.042
 7994SOL    HW124881   4.466   6.528   3.119
 7994SOL    HW224882   4.526   6.394   3.048
 7995SOL     OW24883   4.760   5.487   3.875
 7995SOL    HW124884   4.733   5.581   3.856
 7995SOL    HW224885   4.842   5.486   3.932
 7996SOL     OW24886   3.544   0.147   4.559
 7996SOL    HW124887   3.478   0.160   4.633
 7996SOL    HW224888   3.571   0.237   4.522
 7997SOL     OW24889   0.543   1.499   1.739
 7997SOL    HW124890   0.580   1.592   1.735
 7997SOL    HW224891   0.588   1.442   1.670
 7998SOL     OW24892   3.057   5.744   1.219
 7998SOL    HW124893   3.040   5.760   1.316
 7998SOL    HW224894   2.986   5.684   1.182
 7999SOL     OW24895   0.558   0.171   6.145
 7999SOL    HW124896   0.467   0.208   6.161
 7999SOL    HW224897   0.571   0.088   6.199
 8000SOL     OW24898   5.334   0.324   6.859
 8000SOL    HW124899   5.321   0.284   6.950
 8000SOL    HW224900   5.371   0.417   6.868
 8001SOL     OW24901   3.378   5.833   1.110
 8001SOL    HW124902   3.322   5.751   1.114
 8001SOL    HW224903   3.347   5.899   1.179
 8002SOL     OW24904   0.821   2.450   6.056
 8002SOL    HW124905   0.858   2.456   6.149
 8002SOL    HW224906   0.825   2.541   6.013
 8003SOL     OW24907   3.146   5.155   2.794
 8003SOL    HW124908   3.147   5.186   2.889
 8003SOL    HW224909   3.187   5.064   2.788
 8004SOL     OW24910   2.203   3.237   3.782
 8004SOL    HW124911   2.271   3.231   3.856
 8004SOL    HW224912   2.139   3.161   3.789
 8005SOL     OW24913   3.429   0.444   1.884
 8005SOL    HW124914   3.335   0.431   1.915
 8005SOL    HW224915   3.472   0.518   1.936
 8006SOL     OW24916   1.947   0.150   6.805
 8006SOL    HW124917   1.995   0.068   6.836
 8006SOL    HW224918   1.991   0.231   6.845
 8007SOL     OW24919   6.454   0.722   4.490
 8007SOL    HW124920   6.552   0.736   4.502
 8007SOL    HW224921   6.406   0.808   4.505
 8008SOL     OW24922   4.569   5.773   5.964
 8008SOL    HW124923   4.484   5.767   5.911
 8008SOL    HW224924   4.611   5.863   5.949
 8009SOL     OW24925   5.793   1.107   3.142
 8009SOL    HW124926   5.860   1.177   3.116
 8009SOL    HW224927   5.719   1.105   3.075
 8010SOL     OW24928   0.626   1.115   6.816
 8010SOL    HW124929   0.706   1.076   6.771
 8010SOL    HW224930   0.625   1.088   6.912
 8011SOL     OW24931   3.426   2.241   0.759
 8011SOL    HW124932   3.339   2.289   0.766
 8011SOL    HW224933   3.498   2.305   0.734
 8012SOL     OW24934   1.848   3.920   1.411
 8012SOL    HW124935   1.945   3.912   1.388
 8012SOL    HW224936   1.837   3.960   1.502
 8013SOL     OW24937   1.062   5.269   3.540
 8013SOL    HW124938   1.101   5.238   3.454
 8013SOL    HW224939   0.973   5.225   3.555
 8014SOL     OW24940   1.209   6.625   5.393
 8014SOL    HW124941   1.269   6.705   5.388
 8014SOL    HW224942   1.122   6.646   5.349
 8015SOL     OW24943   2.412   0.679   0.277
 8015SOL    HW124944   2.370   0.742   0.211
 8015SOL    HW224945   2.471   0.614   0.229
 8016SOL     OW24946   5.651   0.386   5.893
 8016SOL    HW124947   5.749   0.364   5.887
 8016SOL    HW224948   5.640   0.479   5.928
 8017SOL     OW24949   6.296   6.918   0.806
 8017SOL    HW124950   6.360   6.962   0.869
 8017SOL    HW224951   6.228   6.866   0.858
 8018SOL     OW24952   3.139   2.156   5.574
 8018SOL    HW124953   3.193   2.164   5.490
 8018SOL    HW224954   3.092   2.068   5.575
 8019SOL     OW24955   2.131   4.380   6.306
 8019SOL    HW124956   2.175   4.308   6.252
 8019SOL    HW224957   2.114   4.459   6.247
 8020SOL     OW24958   6.097   0.082   0.703
 8020SOL    HW124959   6.161   0.011   0.733
 8020SOL    HW224960   6.056   0.125   0.784
 8021SOL     OW24961   1.427   2.373   1.174
 8021SOL    HW124962   1.433   2.445   1.243
 8021SOL    HW224963   1.489   2.394   1.098
 8022SOL     OW24964   5.422   6.360   2.875
 8022SOL    HW124965   5.364   6.335   2.798
 8022SOL    HW224966   5.409   6.295   2.949
 8023SOL     OW24967   5.972   5.624   2.911
 8023SOL    HW124968   6.010   5.552   2.853
 8023SOL    HW224969   6.013   5.712   2.886
 8024SOL     OW24970   2.902   5.130   6.738
 8024SOL    HW124971   2.953   5.188   6.801
 8024SOL    HW224972   2.813   5.171   6.718
 8025SOL     OW24973   2.437   6.590   0.176
 8025SOL    HW124974   2.457   6.675   0.226
 8025SOL    HW224975   2.520   6.557   0.132
 8026SOL     OW24976   0.783   4.287   6.738
 8026SOL    HW124977   0.850   4.272   6.811
 8026SOL    HW224978   0.734   4.202   6.719
 8027SOL     OW24979   4.793   0.854   5.670
 8027SOL    HW124980   4.839   0.859   5.581
 8027SOL    HW224981   4.784   0.946   5.708
 8028SOL     OW24982   3.019   5.427   4.673
 8028SOL    HW124983   3.007   5.392   4.580
 8028SOL    HW224984   2.955   5.381   4.735
 8029SOL     OW24985   5.027   3.204   1.384
 8029SOL    HW124986   5.017   3.117   1.335
 8029SOL    HW224987   4.971   3.201   1.467
 8030SOL     OW24988   4.215   4.449   0.487
 8030SOL    HW124989   4.167   4.518   0.433
 8030SOL    HW224990   4.220   4.364   0.436
 8031SOL     OW24991   5.521   6.715   2.595
 8031SOL    HW124992   5.482   6.702   2.504
 8031SOL    HW224993   5.606   6.768   2.587
 8032SOL     OW24994   6.609   5.042   0.317
 8032SOL    HW124995   6.697   5.073   0.351
 8032SOL    HW224996   6.565   4.985   0.386
 8033SOL     OW24997   5.045   2.166   5.749
 8033SOL    HW124998   5.121   2.224   5.719
 8033SOL    HW224999   5.081   2.086   5.796
 8034SOL     OW25000   5.970   6.838   4.791
 8034SOL    HW125001   5.945   6.802   4.881
 8034SOL    HW225002   5.949   6.935   4.786
 8035SOL     OW25003   5.082   1.880   4.384
 8035SOL    HW125004   5.023   1.957   4.362
 8035SOL    HW225005   5.044   1.796   4.347
 8036SOL     OW25006   0.674   4.229   2.876
 8036SOL    HW125007   0.575   4.213   2.885
 8036SOL    HW225008   0.691   4.326   2.859
 8037SOL     OW25009   1.587   2.969   1.268
 8037SOL    HW125010   1.501   3.010   1.298
 8037SOL    HW225011   1.581   2.947   1.171
 8038SOL     OW25012   3.439   0.325   2.286
 8038SOL    HW125013   3.401   0.386   2.216
 8038SOL    HW225014   3.365   0.280   2.335
 8039SOL     OW25015   0.754   1.942   4.291
 8039SOL    HW125016   0.850   1.926   4.268
 8039SOL    HW225017   0.724   2.028   4.251
 8040SOL     OW25018   1.690   6.046   7.017
 8040SOL    HW125019   1.639   6.099   0.059
 8040SOL    HW225020   1.644   5.958   7.002
 8041SOL     OW25021   3.101   1.234   2.035
 8041SOL    HW125022   3.157   1.156   2.007
 8041SOL    HW225023   3.022   1.242   1.974
 8042SOL     OW25024   2.989   3.241   3.756
 8042SOL    HW125025   3.030   3.307   3.694
 8042SOL    HW225026   2.985   3.279   3.848
 8043SOL     OW25027   3.931   6.726   2.262
 8043SOL    HW125028   3.900   6.808   2.214
 8043SOL    HW225029   3.885   6.720   2.351
 8044SOL     OW25030   3.959   2.830   1.198
 8044SOL    HW125031   4.037   2.770   1.178
 8044SOL    HW225032   3.981   2.887   1.277
 8045SOL     OW25033   5.049   1.318   2.001
 8045SOL    HW125034   5.011   1.349   1.913
 8045SOL    HW225035   5.030   1.387   2.071
 8046SOL     OW25036   0.577   5.323   0.696
 8046SOL    HW125037   0.626   5.387   0.637
 8046SOL    HW225038   0.622   5.319   0.786
 8047SOL     OW25039   4.043   5.675   4.221
 8047SOL    HW125040   4.072   5.770   4.234
 8047SOL    HW225041   4.104   5.614   4.272
 8048SOL     OW25042   5.348   1.234   5.810
 8048SOL    HW125043   5.372   1.295   5.886
 8048SOL    HW225044   5.266   1.183   5.833
 8049SOL     OW25045   0.579   0.223   6.909
 8049SOL    HW125046   0.491   0.176   6.911
 8049SOL    HW225047   0.652   0.159   6.936
 8050SOL     OW25048   1.721   3.755   3.065
 8050SOL    HW125049   1.644   3.819   3.055
 8050SOL    HW225050   1.792   3.798   3.121
 8051SOL     OW25051   4.320   5.644   2.777
 8051SOL    HW125052   4.358   5.731   2.745
 8051SOL    HW225053   4.220   5.647   2.771
 8052SOL     OW25054   4.669   1.635   1.792
 8052SOL    HW125055   4.733   1.682   1.731
 8052SOL    HW225056   4.576   1.660   1.768
 8053SOL     OW25057   2.948   3.727   3.327
 8053SOL    HW125058   2.913   3.820   3.340
 8053SOL    HW225059   2.910   3.667   3.397
 8054SOL     OW25060   4.913   0.401   4.712
 8054SOL    HW125061   4.948   0.323   4.764
 8054SOL    HW225062   4.813   0.398   4.711
 8055SOL     OW25063   0.220   0.143   5.402
 8055SOL    HW125064   0.254   0.192   5.482
 8055SOL    HW225065   0.272   0.169   5.322
 8056SOL     OW25066   3.392   2.134   4.217
 8056SOL    HW125067   3.368   2.143   4.313
 8056SOL    HW225068   3.491   2.126   4.207
 8057SOL     OW25069   2.803   1.774   3.355
 8057SOL    HW125070   2.771   1.775   3.260
 8057SOL    HW225071   2.759   1.699   3.404
 8058SOL     OW25072   4.492   0.599   1.798
 8058SOL    HW125073   4.414   0.569   1.743
 8058SOL    HW225074   4.498   0.698   1.796
 8059SOL     OW25075   3.888   1.430   4.636
 8059SOL    HW125076   3.949   1.433   4.715
 8059SOL    HW225077   3.857   1.336   4.623
 8060SOL     OW25078   6.325   2.177   3.670
 8060SOL    HW125079   6.254   2.204   3.606
 8060SOL    HW225080   6.410   2.227   3.649
 8061SOL     OW25081   0.546   1.274   3.031
 8061SOL    HW125082   0.632   1.293   3.078
 8061SOL    HW225083   0.545   1.178   3.000
 8062SOL     OW25084   3.498   5.271   4.424
 8062SOL    HW125085   3.463   5.192   4.374
 8062SOL    HW225086   3.593   5.288   4.397
 8063SOL     OW25087   0.942   2.008   1.368
 8063SOL    HW125088   0.929   2.089   1.425
 8063SOL    HW225089   1.037   2.005   1.335
 8064SOL     OW25090   0.247   4.492   1.847
 8064SOL    HW125091   0.271   4.589   1.844
 8064SOL    HW225092   0.318   4.438   1.803
 8065SOL     OW25093   2.922   5.816   3.897
 8065SOL    HW125094   3.003   5.772   3.936
 8065SOL    HW225095   2.892   5.890   3.956
 8066SOL     OW25096   6.947   2.297   5.495
 8066SOL    HW125097   6.928   2.220   5.555
 8066SOL    HW225098   6.958   2.264   5.401
 8067SOL     OW25099   4.511   2.795   1.768
 8067SOL    HW125100   4.550   2.876   1.812
 8067SOL    HW225101   4.528   2.715   1.824
 8068SOL     OW25102   0.309   4.260   0.977
 8068SOL    HW125103   0.250   4.191   1.019
 8068SOL    HW225104   0.258   4.345   0.967
 8069SOL     OW25105   1.843   6.250   1.155
 8069SOL    HW125106   1.782   6.249   1.075
 8069SOL    HW225107   1.932   6.287   1.128
 8070SOL     OW25108   3.324   3.253   0.078
 8070SOL    HW125109   3.410   3.303   0.068
 8070SOL    HW225110   3.316   3.220   0.172
 8071SOL     OW25111   2.777   6.342   4.850
 8071SOL    HW125112   2.702   6.312   4.909
 8071SOL    HW225113   2.835   6.264   4.827
 8072SOL     OW25114   3.188   0.799   0.067
 8072SOL    HW125115   3.186   0.700   0.058
 8072SOL    HW225116   3.171   0.825   0.163
 8073SOL     OW25117   3.635   5.827   4.894
 8073SOL    HW125118   3.630   5.810   4.796
 8073SOL    HW225119   3.705   5.896   4.912
 8074SOL     OW25120   3.907   2.415   0.727
 8074SOL    HW125121   3.849   2.451   0.800
 8074SOL    HW225122   4.003   2.425   0.753
 8075SOL     OW25123   0.298   1.033   0.701
 8075SOL    HW125124   0.233   1.068   0.767
 8075SOL    HW225125   0.252   0.968   0.640
 8076SOL     OW25126   6.019   1.947   5.426
 8076SOL    HW125127   5.930   1.987   5.403
 8076SOL    HW225128   6.090   2.015   5.409
 8077SOL     OW25129   2.709   5.599   1.409
 8077SOL    HW125130   2.640   5.623   1.341
 8077SOL    HW225131   2.698   5.503   1.436
 8078SOL     OW25132   6.649   1.511   0.355
 8078SOL    HW125133   6.607   1.591   0.313
 8078SOL    HW225134   6.674   1.446   0.284
 8079SOL     OW25135   4.656   1.164   3.158
 8079SOL    HW125136   4.574   1.199   3.113
 8079SOL    HW225137   4.631   1.103   3.233
 8080SOL     OW25138   0.325   2.874   0.402
 8080SOL    HW125139   0.286   2.782   0.413
 8080SOL    HW225140   0.424   2.870   0.412
 8081SOL     OW25141   5.231   6.499   4.478
 8081SOL    HW125142   5.198   6.458   4.563
 8081SOL    HW225143   5.225   6.598   4.484
 8082SOL     OW25144   5.067   6.532   1.771
 8082SOL    HW125145   5.123   6.606   1.734
 8082SOL    HW225146   5.080   6.528   1.870
 8083SOL     OW25147   4.982   4.072   2.644
 8083SOL    HW125148   5.081   4.059   2.635
 8083SOL    HW225149   4.950   4.026   2.727
 8084SOL     OW25150   5.045   0.249   0.496
 8084SOL    HW125151   5.016   0.170   0.442
 8084SOL    HW225152   5.050   0.329   0.437
 8085SOL     OW25153   6.168   6.248   2.339
 8085SOL    HW125154   6.115   6.237   2.255
 8085SOL    HW225155   6.197   6.343   2.347
 8086SOL     OW25156   4.912   0.795   3.208
 8086SOL    HW125157   4.968   0.826   3.284
 8086SOL    HW225158   4.893   0.872   3.146
 8087SOL     OW25159   2.399   1.090   0.416
 8087SOL    HW125160   2.414   1.040   0.501
 8087SOL    HW225161   2.416   1.187   0.431
 8088SOL     OW25162   5.298   2.618   1.730
 8088SOL    HW125163   5.263   2.702   1.689
 8088SOL    HW225164   5.252   2.603   1.818
 8089SOL     OW25165   5.196   2.095   0.749
 8089SOL    HW125166   5.177   2.011   0.699
 8089SOL    HW225167   5.286   2.131   0.721
 8090SOL     OW25168   4.795   1.638   0.189
 8090SOL    HW125169   4.761   1.551   0.222
 8090SOL    HW225170   4.863   1.623   0.118
 8091SOL     OW25171   2.361   3.617   5.878
 8091SOL    HW125172   2.281   3.558   5.886
 8091SOL    HW225173   2.428   3.594   5.949
 8092SOL     OW25174   6.795   2.624   5.055
 8092SOL    HW125175   6.703   2.617   5.016
 8092SOL    HW225176   6.797   2.578   5.144
 8093SOL     OW25177   4.375   5.162   2.861
 8093SOL    HW125178   4.392   5.103   2.939
 8093SOL    HW225179   4.280   5.152   2.831
 8094SOL     OW25180   1.544   3.715   5.171
 8094SOL    HW125181   1.583   3.642   5.114
 8094SOL    HW225182   1.598   3.798   5.160
 8095SOL     OW25183   6.352   4.480   5.288
 8095SOL    HW125184   6.430   4.521   5.334
 8095SOL    HW225185   6.369   4.476   5.190
 8096SOL     OW25186   2.692   6.296   3.549
 8096SOL    HW125187   2.688   6.198   3.532
 8096SOL    HW225188   2.670   6.346   3.465
 8097SOL     OW25189   4.352   6.649   3.570
 8097SOL    HW125190   4.436   6.696   3.598
 8097SOL    HW225191   4.319   6.592   3.645
 8098SOL     OW25192   1.897   6.905   3.848
 8098SOL    HW125193   1.843   6.851   3.784
 8098SOL    HW225194   1.903   6.999   3.817
 8099SOL     OW25195   4.407   0.304   4.193
 8099SOL    HW125196   4.328   0.264   4.239
 8099SOL    HW225197   4.456   0.364   4.258
 8100SOL     OW25198   5.894   0.109   0.332
 8100SOL    HW125199   5.991   0.111   0.355
 8100SOL    HW225200   5.847   0.184   0.380
 8101SOL     OW25201   2.132   0.458   3.538
 8101SOL    HW125202   2.114   0.363   3.560
 8101SOL    HW225203   2.124   0.472   3.439
 8102SOL     OW25204   0.554   5.032   4.179
 8102SOL    HW125205   0.511   5.116   4.213
 8102SOL    HW225206   0.651   5.049   4.164
 8103SOL     OW25207   4.283   0.053   1.404
 8103SOL    HW125208   4.263   0.081   1.498
 8103SOL    HW225209   4.378   0.075   1.383
 8104SOL     OW25210   3.093   0.507   6.107
 8104SOL    HW125211   3.168   0.462   6.058
 8104SOL    HW225212   3.127   0.590   6.151
 8105SOL     OW25213   0.789   2.276   3.565
 8105SOL    HW125214   0.710   2.261   3.507
 8105SOL    HW225215   0.771   2.351   3.629
 8106SOL     OW25216   1.934   6.079   2.844
 8106SOL    HW125217   1.982   6.166   2.830
 8106SOL    HW225218   1.995   6.004   2.819
 8107SOL     OW25219   0.420   5.633   4.371
 8107SOL    HW125220   0.428   5.559   4.438
 8107SOL    HW225221   0.459   5.604   4.284
 8108SOL     OW25222   6.215   3.141   5.329
 8108SOL    HW125223   6.198   3.059   5.383
 8108SOL    HW225224   6.250   3.115   5.239
 8109SOL     OW25225   1.798   3.987   4.234
 8109SOL    HW125226   1.762   3.973   4.142
 8109SOL    HW225227   1.804   3.899   4.281
 8110SOL     OW25228   3.046   6.246   0.641
 8110SOL    HW125229   3.013   6.233   0.734
 8110SOL    HW225230   3.032   6.161   0.589
 8111SOL     OW25231   3.993   0.592   4.752
 8111SOL    HW125232   3.992   0.627   4.659
 8111SOL    HW225233   4.069   0.527   4.762
 8112SOL     OW25234   2.352   2.354   4.738
 8112SOL    HW125235   2.284   2.283   4.718
 8112SOL    HW225236   2.425   2.350   4.670
 8113SOL     OW25237   3.187   3.371   0.952
 8113SOL    HW125238   3.166   3.338   1.044
 8113SOL    HW225239   3.103   3.399   0.907
 8114SOL     OW25240   2.107   3.800   1.931
 8114SOL    HW125241   2.147   3.709   1.947
 8114SOL    HW225242   2.008   3.795   1.943
 8115SOL     OW25243   3.463   0.312   0.296
 8115SOL    HW125244   3.459   0.338   0.200
 8115SOL    HW225245   3.383   0.347   0.344
 8116SOL     OW25246   4.704   5.997   5.545
 8116SOL    HW125247   4.685   5.908   5.503
 8116SOL    HW225248   4.620   6.052   5.545
 8117SOL     OW25249   1.913   1.148   3.987
 8117SOL    HW125250   1.956   1.168   3.899
 8117SOL    HW225251   1.826   1.196   3.994
 8118SOL     OW25252   5.596   3.690   6.077
 8118SOL    HW125253   5.688   3.708   6.112
 8118SOL    HW225254   5.528   3.726   6.140
 8119SOL     OW25255   5.998   6.358   5.452
 8119SOL    HW125256   6.045   6.371   5.365
 8119SOL    HW225257   6.010   6.439   5.509
 8120SOL     OW25258   2.451   4.894   6.631
 8120SOL    HW125259   2.391   4.815   6.619
 8120SOL    HW225260   2.477   4.930   6.541
 8121SOL     OW25261   0.604   4.588   1.696
 8121SOL    HW125262   0.625   4.540   1.782
 8121SOL    HW225263   0.591   4.521   1.623
 8122SOL     OW25264   1.682   5.823   2.238
 8122SOL    HW125265   1.655   5.858   2.148
 8122SOL    HW225266   1.751   5.751   2.227
 8123SOL     OW25267   6.900   0.722   6.998
 8123SOL    HW125268   6.894   0.642   0.032
 8123SOL    HW225269   6.991   0.727   6.957
 8124SOL     OW25270   6.946   6.155   1.026
 8124SOL    HW125271   6.962   6.195   1.116
 8124SOL    HW225272   6.879   6.081   1.034
 8125SOL     OW25273   1.247   0.638   3.995
 8125SOL    HW125274   1.342   0.619   4.024
 8125SOL    HW225275   1.248   0.682   3.906
 8126SOL     OW25276   5.513   4.381   2.571
 8126SOL    HW125277   5.539   4.335   2.656
 8126SOL    HW225278   5.580   4.452   2.549
 8127SOL     OW25279   2.947   6.486   6.782
 8127SOL    HW125280   2.907   6.424   6.715
 8127SOL    HW225281   2.908   6.578   6.770
 8128SOL     OW25282   2.705   2.313   1.508
 8128SOL    HW125283   2.796   2.345   1.483
 8128SOL    HW225284   2.682   2.345   1.600
 8129SOL     OW25285   4.408   0.924   6.057
 8129SOL    HW125286   4.310   0.913   6.071
 8129SOL    HW225287   4.424   0.990   5.983
 8130SOL     OW25288   0.303   4.086   0.089
 8130SOL    HW125289   0.224   4.144   0.109
 8130SOL    HW225290   0.356   4.128   0.015
 8131SOL     OW25291   3.317   1.582   0.775
 8131SOL    HW125292   3.245   1.513   0.777
 8131SOL    HW225293   3.277   1.672   0.791
 8132SOL     OW25294   5.603   6.220   5.991
 8132SOL    HW125295   5.685   6.171   6.023
 8132SOL    HW225296   5.528   6.202   6.054
 8133SOL     OW25297   2.864   4.830   1.547
 8133SOL    HW125298   2.928   4.891   1.594
 8133SOL    HW225299   2.789   4.807   1.609
 8134SOL     OW25300   0.797   2.748   5.266
 8134SOL    HW125301   0.778   2.706   5.355
 8134SOL    HW225302   0.857   2.827   5.279
 8135SOL     OW25303   2.389   5.938   1.057
 8135SOL    HW125304   2.432   5.883   1.129
 8135SOL    HW225305   2.290   5.929   1.063
 8136SOL     OW25306   4.890   5.023   3.110
 8136SOL    HW125307   4.970   5.025   3.169
 8136SOL    HW225308   4.854   4.930   3.107
 8137SOL     OW25309   2.888   1.485   4.683
 8137SOL    HW125310   2.897   1.482   4.583
 8137SOL    HW225311   2.853   1.397   4.715
 8138SOL     OW25312   5.685   2.368   0.272
 8138SOL    HW125313   5.767   2.381   0.216
 8138SOL    HW225314   5.642   2.456   0.290
 8139SOL     OW25315   1.403   1.311   4.165
 8139SOL    HW125316   1.321   1.366   4.181
 8139SOL    HW225317   1.380   1.233   4.106
 8140SOL     OW25318   4.566   7.006   1.038
 8140SOL    HW125319   4.531   6.995   0.945
 8140SOL    HW225320   4.664   7.024   1.034
 8141SOL     OW25321   4.443   6.571   5.200
 8141SOL    HW125322   4.472   6.547   5.293
 8141SOL    HW225323   4.353   6.614   5.203
 8142SOL     OW25324   1.736   5.014   0.130
 8142SOL    HW125325   1.779   5.087   0.183
 8142SOL    HW225326   1.802   4.976   0.065
 8143SOL     OW25327   6.573   4.712   0.250
 8143SOL    HW125328   6.657   4.766   0.253
 8143SOL    HW225329   6.543   4.693   0.344
 8144SOL     OW25330   0.358   6.507   5.996
 8144SOL    HW125331   0.426   6.435   6.010
 8144SOL    HW225332   0.301   6.485   5.917
 8145SOL     OW25333   5.809   5.126   0.853
 8145SOL    HW125334   5.726   5.073   0.872
 8145SOL    HW225335   5.789   5.195   0.783
 8146SOL     OW25336   5.530   0.718   5.664
 8146SOL    HW125337   5.440   0.762   5.675
 8146SOL    HW225338   5.542   0.690   5.569
 8147SOL     OW25339   6.537   1.297   2.204
 8147SOL    HW125340   6.633   1.269   2.199
 8147SOL    HW225341   6.531   1.390   2.241
 8148SOL     OW25342   5.472   4.763   0.658
 8148SOL    HW125343   5.445   4.857   0.641
 8148SOL    HW225344   5.572   4.758   0.666
 8149SOL     OW25345   2.054   6.566   3.437
 8149SOL    HW125346   2.075   6.523   3.349
 8149SOL    HW225347   2.030   6.662   3.423
 8150SOL     OW25348   2.042   3.176   0.817
 8150SOL    HW125349   2.004   3.189   0.726
 8150SOL    HW225350   2.013   3.087   0.853
 8151SOL     OW25351   5.940   4.927   2.988
 8151SOL    HW125352   5.969   4.968   3.075
 8151SOL    HW225353   5.955   4.829   2.991
 8152SOL     OW25354   6.426   3.005   3.086
 8152SOL    HW125355   6.403   2.908   3.084
 8152SOL    HW225356   6.344   3.059   3.104
 8153SOL     OW25357   1.157   1.736   4.095
 8153SOL    HW125358   1.241   1.749   4.147
 8153SOL    HW225359   1.134   1.638   4.092
 8154SOL     OW25360   3.503   5.939   2.465
 8154SOL    HW125361   3.506   5.977   2.557
 8154SOL    HW225362   3.431   5.984   2.412
 8155SOL     OW25363   1.646   3.427   1.989
 8155SOL    HW125364   1.587   3.406   2.066
 8155SOL    HW225365   1.597   3.483   1.923
 8156SOL     OW25366   4.891   6.221   0.769
 8156SOL    HW125367   4.875   6.183   0.678
 8156SOL    HW225368   4.884   6.148   0.837
 8157SOL     OW25369   6.724   4.648   5.933
 8157SOL    HW125370   6.645   4.709   5.935
 8157SOL    HW225371   6.787   4.677   5.861
 8158SOL     OW25372   4.923   4.450   0.306
 8158SOL    HW125373   4.874   4.399   0.377
 8158SOL    HW225374   4.920   4.399   0.220
 8159SOL     OW25375   2.260   5.441   2.893
 8159SOL    HW125376   2.323   5.493   2.835
 8159SOL    HW225377   2.195   5.503   2.936
 8160SOL     OW25378   5.440   0.787   3.752
 8160SOL    HW125379   5.406   0.880   3.761
 8160SOL    HW225380   5.530   0.780   3.796
 8161SOL     OW25381   6.220   3.124   6.423
 8161SOL    HW125382   6.151   3.195   6.409
 8161SOL    HW225383   6.284   3.153   6.494
 8162SOL     OW25384   5.856   6.617   6.756
 8162SOL    HW125385   5.927   6.653   6.816
 8162SOL    HW225386   5.887   6.532   6.714
 8163SOL     OW25387   2.548   4.605   5.041
 8163SOL    HW125388   2.537   4.525   5.100
 8163SOL    HW225389   2.645   4.632   5.040
 8164SOL     OW25390   5.196   2.358   0.466
 8164SOL    HW125391   5.252   2.310   0.398
 8164SOL    HW225392   5.209   2.457   0.455
 8165SOL     OW25393   0.143   3.947   6.037
 8165SOL    HW125394   0.096   3.862   6.015
 8165SOL    HW225395   0.133   3.967   6.134
 8166SOL     OW25396   1.269   0.330   4.103
 8166SOL    HW125397   1.304   0.256   4.045
 8166SOL    HW225398   1.344   0.394   4.123
 8167SOL     OW25399   7.023   0.242   3.807
 8167SOL    HW125400   6.942   0.245   3.865
 8167SOL    HW225401   6.999   0.273   3.715
 8168SOL     OW25402   2.698   1.801   2.513
 8168SOL    HW125403   2.738   1.844   2.594
 8168SOL    HW225404   2.729   1.850   2.431
 8169SOL     OW25405   4.784   2.356   0.330
 8169SOL    HW125406   4.811   2.400   0.415
 8169SOL    HW225407   4.799   2.257   0.336
 8170SOL     OW25408   1.249   5.608   2.148
 8170SOL    HW125409   1.335   5.585   2.195
 8170SOL    HW225410   1.217   5.697   2.178
 8171SOL     OW25411   1.878   1.947   6.102
 8171SOL    HW125412   1.939   1.869   6.092
 8171SOL    HW225413   1.785   1.920   6.075
 8172SOL     OW25414   0.313   1.833   2.707
 8172SOL    HW125415   0.326   1.913   2.648
 8172SOL    HW225416   0.400   1.812   2.752
 8173SOL     OW25417   5.622   2.000   1.921
 8173SOL    HW125418   5.612   1.998   2.021
 8173SOL    HW225419   5.536   1.971   1.879
 8174SOL     OW25420   6.497   1.357   2.676
 8174SOL    HW125421   6.587   1.396   2.657
 8174SOL    HW225422   6.456   1.325   2.591
 8175SOL     OW25423   0.235   3.303   5.994
 8175SOL    HW125424   0.323   3.296   6.041
 8175SOL    HW225425   0.165   3.254   6.046
 8176SOL     OW25426   2.136   4.826   1.036
 8176SOL    HW125427   2.212   4.831   1.101
 8176SOL    HW225428   2.066   4.893   1.061
 8177SOL     OW25429   3.369   6.531   3.492
 8177SOL    HW125430   3.371   6.577   3.581
 8177SOL    HW225431   3.457   6.541   3.447
 8178SOL     OW25432   2.963   6.752   0.512
 8178SOL    HW125433   2.932   6.813   0.585
 8178SOL    HW225434   2.929   6.659   0.530
 8179SOL     OW25435   4.795   1.688   4.724
 8179SOL    HW125436   4.802   1.756   4.796
 8179SOL    HW225437   4.792   1.733   4.635
 8180SOL     OW25438   6.473   0.994   5.423
 8180SOL    HW125439   6.477   1.087   5.388
 8180SOL    HW225440   6.394   0.984   5.482
 8181SOL     OW25441   1.194   1.755   0.522
 8181SOL    HW125442   1.097   1.763   0.502
 8181SOL    HW225443   1.246   1.750   0.436
 8182SOL     OW25444   3.625   3.491   5.978
 8182SOL    HW125445   3.667   3.420   5.921
 8182SOL    HW225446   3.529   3.468   5.994
 8183SOL     OW25447   6.571   2.584   4.932
 8183SOL    HW125448   6.521   2.587   4.846
 8183SOL    HW225449   6.511   2.549   5.004
 8184SOL     OW25450   6.694   0.712   0.645
 8184SOL    HW125451   6.736   0.678   0.561
 8184SOL    HW225452   6.745   0.791   0.678
 8185SOL     OW25453   1.650   0.105   0.032
 8185SOL    HW125454   1.635   0.137   6.964
 8185SOL    HW225455   1.635   0.006   0.036
 8186SOL     OW25456   3.458   4.635   5.327
 8186SOL    HW125457   3.435   4.711   5.266
 8186SOL    HW225458   3.397   4.558   5.307
 8187SOL     OW25459   2.047   1.715   5.387
 8187SOL    HW125460   2.085   1.797   5.345
 8187SOL    HW225461   1.953   1.733   5.416
 8188SOL     OW25462   5.743   2.936   3.116
 8188SOL    HW125463   5.807   3.012   3.128
 8188SOL    HW225464   5.733   2.886   3.203
 8189SOL     OW25465   4.958   5.269   2.982
 8189SOL    HW125466   4.951   5.177   3.020
 8189SOL    HW225467   4.875   5.291   2.931
 8190SOL     OW25468   4.807   4.703   4.502
 8190SOL    HW125469   4.726   4.746   4.463
 8190SOL    HW225470   4.853   4.649   4.432
 8191SOL     OW25471   3.744   6.172   1.793
 8191SOL    HW125472   3.808   6.212   1.729
 8191SOL    HW225473   3.653   6.170   1.752
 8192SOL     OW25474   3.507   5.224   0.574
 8192SOL    HW125475   3.469   5.273   0.496
 8192SOL    HW225476   3.490   5.277   0.658
 8193SOL     OW25477   6.817   5.936   5.631
 8193SOL    HW125478   6.764   5.936   5.716
 8193SOL    HW225479   6.789   6.012   5.573
 8194SOL     OW25480   4.717   2.224   0.774
 8194SOL    HW125481   4.668   2.221   0.861
 8194SOL    HW225482   4.687   2.148   0.716
 8195SOL     OW25483   1.571   0.027   2.889
 8195SOL    HW125484   1.656   7.010   2.859
 8195SOL    HW225485   1.556   0.112   2.838
 8196SOL     OW25486   4.101   5.824   5.935
 8196SOL    HW125487   4.082   5.816   6.033
 8196SOL    HW225488   4.027   5.875   5.891
 8197SOL     OW25489   4.474   1.734   0.370
 8197SOL    HW125490   4.511   1.693   0.287
 8197SOL    HW225491   4.420   1.666   0.420
 8198SOL     OW25492   2.980   6.805   2.697
 8198SOL    HW125493   3.000   6.765   2.787
 8198SOL    HW225494   2.922   6.742   2.645
 8199SOL     OW25495   5.966   3.317   6.260
 8199SOL    HW125496   6.027   3.378   6.310
 8199SOL    HW225497   5.975   3.335   6.162
 8200SOL     OW25498   5.876   5.016   1.831
 8200SOL    HW125499   5.906   4.941   1.890
 8200SOL    HW225500   5.956   5.067   1.799
 8201SOL     OW25501   5.770   0.690   4.069
 8201SOL    HW125502   5.757   0.716   3.974
 8201SOL    HW225503   5.867   0.697   4.093
 8202SOL     OW25504   0.327   5.807   3.942
 8202SOL    HW125505   0.379   5.722   3.929
 8202SOL    HW225506   0.246   5.789   3.998
 8203SOL     OW25507   3.891   2.693   0.062
 8203SOL    HW125508   3.929   2.601   0.062
 8203SOL    HW225509   3.948   2.752   0.119
 8204SOL     OW25510   3.352   4.931   6.632
 8204SOL    HW125511   3.392   4.942   6.542
 8204SOL    HW225512   3.271   4.989   6.640
 8205SOL     OW25513   0.639   4.783   1.013
 8205SOL    HW125514   0.706   4.801   0.940
 8205SOL    HW225515   0.568   4.853   1.011
 8206SOL     OW25516   5.103   2.609   6.317
 8206SOL    HW125517   5.059   2.520   6.321
 8206SOL    HW225518   5.034   2.681   6.328
 8207SOL     OW25519   3.310   4.147   4.096
 8207SOL    HW125520   3.393   4.152   4.151
 8207SOL    HW225521   3.333   4.161   4.000
 8208SOL     OW25522   1.922   0.251   1.410
 8208SOL    HW125523   1.855   0.181   1.433
 8208SOL    HW225524   1.901   0.335   1.460
 8209SOL     OW25525   0.732   1.111   5.251
 8209SOL    HW125526   0.712   1.021   5.289
 8209SOL    HW225527   0.830   1.117   5.231
 8210SOL     OW25528   2.000   1.321   1.244
 8210SOL    HW125529   1.971   1.229   1.219
 8210SOL    HW225530   1.926   1.386   1.224
 8211SOL     OW25531   3.743   4.174   1.660
 8211SOL    HW125532   3.669   4.242   1.658
 8211SOL    HW225533   3.731   4.114   1.739
 8212SOL     OW25534   2.214   1.447   2.250
 8212SOL    HW125535   2.155   1.428   2.329
 8212SOL    HW225536   2.235   1.545   2.248
 8213SOL     OW25537   6.814   4.470   2.658
 8213SOL    HW125538   6.873   4.402   2.616
 8213SOL    HW225539   6.721   4.434   2.666
 8214SOL     OW25540   6.857   5.374   5.115
 8214SOL    HW125541   6.891   5.467   5.126
 8214SOL    HW225542   6.872   5.344   5.020
 8215SOL     OW25543   2.573   5.829   6.125
 8215SOL    HW125544   2.571   5.905   6.060
 8215SOL    HW225545   2.608   5.863   6.213
 8216SOL     OW25546   5.296   5.389   3.675
 8216SOL    HW125547   5.380   5.334   3.670
 8216SOL    HW225548   5.241   5.359   3.753
 8217SOL     OW25549   1.878   3.629   0.859
 8217SOL    HW125550   1.838   3.676   0.938
 8217SOL    HW225551   1.905   3.537   0.886
 8218SOL     OW25552   0.005   7.006   5.408
 8218SOL    HW125553   0.089   0.035   5.403
 8218SOL    HW225554   0.028   6.909   5.394
 8219SOL     OW25555   3.674   3.468   0.315
 8219SOL    HW125556   3.608   3.421   0.373
 8219SOL    HW225557   3.751   3.499   0.370
 8220SOL     OW25558   3.127   3.942   4.020
 8220SOL    HW125559   3.136   3.880   4.098
 8220SOL    HW225560   3.149   4.035   4.049
 8221SOL     OW25561   5.766   6.215   3.440
 8221SOL    HW125562   5.823   6.217   3.358
 8221SOL    HW225563   5.671   6.237   3.416
 8222SOL     OW25564   5.180   1.462   1.246
 8222SOL    HW125565   5.102   1.478   1.186
 8222SOL    HW225566   5.212   1.367   1.237
 8223SOL     OW25567   0.720   4.230   5.262
 8223SOL    HW125568   0.722   4.179   5.176
 8223SOL    HW225569   0.811   4.267   5.280
 8224SOL     OW25570   5.257   2.092   2.337
 8224SOL    HW125571   5.173   2.140   2.313
 8224SOL    HW225572   5.298   2.054   2.254
 8225SOL     OW25573   3.472   1.603   1.387
 8225SOL    HW125574   3.380   1.584   1.355
 8225SOL    HW225575   3.493   1.700   1.376
 8226SOL     OW25576   3.683   6.467   6.833
 8226SOL    HW125577   3.659   6.502   6.924
 8226SOL    HW225578   3.688   6.367   6.836
 8227SOL     OW25579   0.417   1.329   2.397
 8227SOL    HW125580   0.385   1.235   2.407
 8227SOL    HW225581   0.405   1.378   2.483
 8228SOL     OW25582   6.643   1.927   5.893
 8228SOL    HW125583   6.626   1.841   5.941
 8228SOL    HW225584   6.738   1.930   5.862
 8229SOL     OW25585   4.511   3.686   0.995
 8229SOL    HW125586   4.528   3.607   1.054
 8229SOL    HW225587   4.509   3.769   1.050
 8230SOL     OW25588   3.667   0.210   4.942
 8230SOL    HW125589   3.752   0.260   4.925
 8230SOL    HW225590   3.655   0.140   4.871
 8231SOL     OW25591   2.812   3.353   1.037
 8231SOL    HW125592   2.737   3.286   1.043
 8231SOL    HW225593   2.884   3.318   0.979
 8232SOL     OW25594   4.531   2.322   1.788
 8232SOL    HW125595   4.452   2.261   1.796
 8232SOL    HW225596   4.542   2.349   1.693
 8233SOL     OW25597   0.993   6.519   6.153
 8233SOL    HW125598   0.905   6.543   6.193
 8233SOL    HW225599   1.023   6.430   6.188
 8234SOL     OW25600   2.772   3.466   6.724
 8234SOL    HW125601   2.862   3.498   6.693
 8234SOL    HW225602   2.781   3.377   6.768
 8235SOL     OW25603   0.680   2.601   6.976
 8235SOL    HW125604   0.687   2.522   6.915
 8235SOL    HW225605   0.728   2.679   6.935
 8236SOL     OW25606   0.748   4.424   0.834
 8236SOL    HW125607   0.688   4.398   0.910
 8236SOL    HW225608   0.807   4.499   0.862
 8237SOL     OW25609   4.942   6.134   5.680
 8237SOL    HW125610   4.921   6.224   5.642
 8237SOL    HW225611   4.869   6.070   5.656
 8238SOL     OW25612   0.587   5.295   6.307
 8238SOL    HW125613   0.550   5.202   6.303
 8238SOL    HW225614   0.529   5.357   6.255
 8239SOL     OW25615   0.381   0.904   5.501
 8239SOL    HW125616   0.283   0.900   5.479
 8239SOL    HW225617   0.399   0.851   5.584
 8240SOL     OW25618   3.586   3.807   2.577
 8240SOL    HW125619   3.609   3.809   2.674
 8240SOL    HW225620   3.487   3.810   2.566
 8241SOL     OW25621   3.451   6.081   5.506
 8241SOL    HW125622   3.409   6.080   5.597
 8241SOL    HW225623   3.539   6.033   5.509
 8242SOL     OW25624   0.106   4.124   6.283
 8242SOL    HW125625   0.136   4.084   6.370
 8242SOL    HW225626   0.103   4.223   6.291
 8243SOL     OW25627   0.668   3.199   0.654
 8243SOL    HW125628   0.619   3.139   0.590
 8243SOL    HW225629   0.745   3.149   0.694
 8244SOL     OW25630   0.281   1.028   3.920
 8244SOL    HW125631   0.285   0.971   4.001
 8244SOL    HW225632   0.309   1.121   3.943
 8245SOL     OW25633   3.913   2.082   1.939
 8245SOL    HW125634   3.863   2.118   2.017
 8245SOL    HW225635   3.990   2.027   1.971
 8246SOL     OW25636   1.008   3.596   5.936
 8246SOL    HW125637   0.914   3.574   5.910
 8246SOL    HW225638   1.011   3.685   5.981
 8247SOL     OW25639   2.167   0.861   2.811
 8247SOL    HW125640   2.073   0.827   2.820
 8247SOL    HW225641   2.185   0.884   2.715
 8248SOL     OW25642   7.007   5.005   4.653
 8248SOL    HW125643   6.959   5.084   4.614
 8248SOL    HW225644   0.059   4.982   4.594
 8249SOL     OW25645   1.567   2.399   5.546
 8249SOL    HW125646   1.548   2.488   5.588
 8249SOL    HW225647   1.486   2.368   5.496
 8250SOL     OW25648   3.066   2.996   1.444
 8250SOL    HW125649   2.982   3.050   1.438
 8250SOL    HW225650   3.095   2.991   1.540
 8251SOL     OW25651   4.996   3.180   4.591
 8251SOL    HW125652   4.963   3.096   4.633
 8251SOL    HW225653   5.003   3.252   4.660
 8252SOL     OW25654   3.358   1.623   5.924
 8252SOL    HW125655   3.367   1.523   5.925
 8252SOL    HW225656   3.448   1.664   5.939
 8253SOL     OW25657   4.429   5.361   6.170
 8253SOL    HW125658   4.335   5.393   6.163
 8253SOL    HW225659   4.491   5.438   6.152
 8254SOL     OW25660   4.341   4.391   5.410
 8254SOL    HW125661   4.278   4.380   5.487
 8254SOL    HW225662   4.289   4.386   5.324
 8255SOL     OW25663   1.684   6.684   5.141
 8255SOL    HW125664   1.737   6.734   5.073
 8255SOL    HW225665   1.632   6.611   5.096
 8256SOL     OW25666   6.912   6.371   1.671
 8256SOL    HW125667   6.907   6.273   1.689
 8256SOL    HW225668   6.967   6.387   1.588
 8257SOL     OW25669   5.239   3.982   2.571
 8257SOL    HW125670   5.273   3.891   2.596
 8257SOL    HW225671   5.312   4.034   2.527
 8258SOL     OW25672   5.276   2.869   1.105
 8258SOL    HW125673   5.298   2.864   1.007
 8258SOL    HW225674   5.357   2.844   1.159
 8259SOL     OW25675   3.696   1.787   4.849
 8259SOL    HW125676   3.784   1.778   4.896
 8259SOL    HW225677   3.689   1.879   4.810
 8260SOL     OW25678   2.061   6.512   1.116
 8260SOL    HW125679   2.121   6.433   1.111
 8260SOL    HW225680   2.102   6.582   1.174
 8261SOL     OW25681   5.369   6.623   2.345
 8261SOL    HW125682   5.327   6.621   2.255
 8261SOL    HW225683   5.299   6.608   2.415
 8262SOL     OW25684   0.762   2.903   0.189
 8262SOL    HW125685   0.702   2.888   0.268
 8262SOL    HW225686   0.808   2.817   0.166
 8263SOL     OW25687   0.317   2.561   6.284
 8263SOL    HW125688   0.263   2.641   6.312
 8263SOL    HW225689   0.302   2.487   6.349
 8264SOL     OW25690   2.065   5.856   1.138
 8264SOL    HW125691   2.043   5.906   1.055
 8264SOL    HW225692   2.054   5.758   1.121
 8265SOL     OW25693   6.813   0.733   1.338
 8265SOL    HW125694   6.907   0.703   1.321
 8265SOL    HW225695   6.814   0.826   1.375
 8266SOL     OW25696   2.140   1.106   4.829
 8266SOL    HW125697   2.153   1.015   4.788
 8266SOL    HW225698   2.195   1.112   4.913
 8267SOL     OW25699   1.811   3.722   1.115
 8267SOL    HW125700   1.900   3.766   1.122
 8267SOL    HW225701   1.790   3.675   1.201
 8268SOL     OW25702   2.205   6.725   6.032
 8268SOL    HW125703   2.177   6.633   6.058
 8268SOL    HW225704   2.145   6.792   6.078
 8269SOL     OW25705   4.212   1.605   2.160
 8269SOL    HW125706   4.208   1.505   2.167
 8269SOL    HW225707   4.235   1.644   2.249
 8270SOL     OW25708   3.199   6.561   4.548
 8270SOL    HW125709   3.158   6.470   4.555
 8270SOL    HW225710   3.191   6.594   4.454
 8271SOL     OW25711   0.492   6.940   2.955
 8271SOL    HW125712   0.486   6.970   3.050
 8271SOL    HW225713   0.421   6.871   2.938
 8272SOL     OW25714   6.338   1.701   2.898
 8272SOL    HW125715   6.245   1.724   2.928
 8272SOL    HW225716   6.338   1.611   2.855
 8273SOL     OW25717   2.473   1.081   0.806
 8273SOL    HW125718   2.406   1.152   0.785
 8273SOL    HW225719   2.473   1.012   0.733
 8274SOL     OW25720   4.316   5.229   4.392
 8274SOL    HW125721   4.377   5.214   4.314
 8274SOL    HW225722   4.365   5.209   4.477
 8275SOL     OW25723   5.446   0.762   4.497
 8275SOL    HW125724   5.497   0.681   4.468
 8275SOL    HW225725   5.378   0.785   4.428
 8276SOL     OW25726   0.263   2.106   4.974
 8276SOL    HW125727   0.332   2.034   4.971
 8276SOL    HW225728   0.307   2.196   4.973
 8277SOL     OW25729   1.085   6.237   6.154
 8277SOL    HW125730   1.168   6.205   6.107
 8277SOL    HW225731   1.098   6.230   6.253
 8278SOL     OW25732   3.343   1.284   6.905
 8278SOL    HW125733   3.409   1.264   6.977
 8278SOL    HW225734   3.289   1.364   6.931
 8279SOL     OW25735   1.084   6.539   4.616
 8279SOL    HW125736   1.095   6.440   4.624
 8279SOL    HW225737   1.133   6.571   4.535
 8280SOL     OW25738   3.022   2.782   0.643
 8280SOL    HW125739   3.057   2.796   0.735
 8280SOL    HW225740   2.926   2.810   0.639
 8281SOL     OW25741   2.189   4.375   1.664
 8281SOL    HW125742   2.197   4.471   1.637
 8281SOL    HW225743   2.184   4.318   1.582
 8282SOL     OW25744   4.557   4.015   0.049
 8282SOL    HW125745   4.618   3.948   0.091
 8282SOL    HW225746   4.611   4.086   0.005
 8283SOL     OW25747   1.437   5.145   5.064
 8283SOL    HW125748   1.378   5.196   5.126
 8283SOL    HW225749   1.524   5.193   5.054
 8284SOL     OW25750   0.883   3.345   1.710
 8284SOL    HW125751   0.894   3.442   1.688
 8284SOL    HW225752   0.815   3.334   1.783
 8285SOL     OW25753   3.802   4.147   4.491
 8285SOL    HW125754   3.763   4.140   4.583
 8285SOL    HW225755   3.728   4.147   4.423
 8286SOL     OW25756   5.233   1.833   4.799
 8286SOL    HW125757   5.315   1.835   4.856
 8286SOL    HW225758   5.212   1.926   4.768
 8287SOL     OW25759   1.192   4.850   4.746
 8287SOL    HW125760   1.098   4.848   4.780
 8287SOL    HW225761   1.255   4.827   4.820
 8288SOL     OW25762   2.679   2.290   2.195
 8288SOL    HW125763   2.702   2.242   2.279
 8288SOL    HW225764   2.760   2.294   2.136
 8289SOL     OW25765   0.740   6.549   6.284
 8289SOL    HW125766   0.684   6.619   6.240
 8289SOL    HW225767   0.686   6.503   6.355
 8290SOL     OW25768   5.385   1.550   1.066
 8290SOL    HW125769   5.383   1.649   1.080
 8290SOL    HW225770   5.307   1.508   1.112
 8291SOL     OW25771   4.867   4.993   5.075
 8291SOL    HW125772   4.912   4.992   4.986
 8291SOL    HW225773   4.926   5.039   5.142
 8292SOL     OW25774   3.253   6.193   6.302
 8292SOL    HW125775   3.241   6.198   6.401
 8292SOL    HW225776   3.316   6.119   6.280
 8293SOL     OW25777   1.738   5.294   0.961
 8293SOL    HW125778   1.785   5.333   0.882
 8293SOL    HW225779   1.639   5.296   0.945
 8294SOL     OW25780   5.480   4.028   5.474
 8294SOL    HW125781   5.404   4.000   5.533
 8294SOL    HW225782   5.559   3.968   5.491
 8295SOL     OW25783   5.077   4.302   1.850
 8295SOL    HW125784   5.136   4.254   1.915
 8295SOL    HW225785   4.987   4.259   1.847
 8296SOL     OW25786   2.464   4.902   0.069
 8296SOL    HW125787   2.507   4.899   7.005
 8296SOL    HW225788   2.479   4.815   0.116
 8297SOL     OW25789   0.291   2.964   2.841
 8297SOL    HW125790   0.333   2.875   2.860
 8297SOL    HW225791   0.362   3.029   2.815
 8298SOL     OW25792   6.187   1.744   1.159
 8298SOL    HW125793   6.169   1.660   1.210
 8298SOL    HW225794   6.185   1.725   1.061
 8299SOL     OW25795   0.984   2.113   2.621
 8299SOL    HW125796   0.899   2.060   2.628
 8299SOL    HW225797   0.972   2.202   2.665
 8300SOL     OW25798   0.154   5.804   3.699
 8300SOL    HW125799   0.096   5.884   3.719
 8300SOL    HW225800   0.197   5.772   3.783
 8301SOL     OW25801   3.854   0.667   0.527
 8301SOL    HW125802   3.784   0.675   0.598
 8301SOL    HW225803   3.938   0.633   0.568
 8302SOL     OW25804   5.418   6.602   6.418
 8302SOL    HW125805   5.518   6.601   6.409
 8302SOL    HW225806   5.383   6.509   6.412
 8303SOL     OW25807   5.694   0.499   3.817
 8303SOL    HW125808   5.673   0.537   3.726
 8303SOL    HW225809   5.660   0.561   3.887
 8304SOL     OW25810   5.764   3.485   1.578
 8304SOL    HW125811   5.792   3.444   1.491
 8304SOL    HW225812   5.753   3.584   1.565
 8305SOL     OW25813   4.680   4.639   3.568
 8305SOL    HW125814   4.581   4.657   3.566
 8305SOL    HW225815   4.727   4.714   3.614
 8306SOL     OW25816   5.438   1.401   4.251
 8306SOL    HW125817   5.537   1.398   4.240
 8306SOL    HW225818   5.394   1.343   4.183
 8307SOL     OW25819   3.521   5.207   1.659
 8307SOL    HW125820   3.477   5.121   1.631
 8307SOL    HW225821   3.612   5.212   1.619
 8308SOL     OW25822   2.364   5.344   0.370
 8308SOL    HW125823   2.443   5.405   0.363
 8308SOL    HW225824   2.384   5.270   0.434
 8309SOL     OW25825   6.703   5.915   3.019
 8309SOL    HW125826   6.612   5.946   2.990
 8309SOL    HW225827   6.772   5.954   2.958
 8310SOL     OW25828   0.515   5.568   1.167
 8310SOL    HW125829   0.443   5.577   1.099
 8310SOL    HW225830   0.604   5.585   1.124
 8311SOL     OW25831   6.616   2.319   5.666
 8311SOL    HW125832   6.657   2.294   5.754
 8311SOL    HW225833   6.519   2.339   5.679
 8312SOL     OW25834   4.549   0.520   0.209
 8312SOL    HW125835   4.506   0.505   0.120
 8312SOL    HW225836   4.644   0.548   0.196
 8313SOL     OW25837   5.651   0.073   6.680
 8313SOL    HW125838   5.685   0.051   6.772
 8313SOL    HW225839   5.552   0.060   6.677
 8314SOL     OW25840   5.690   6.571   6.425
 8314SOL    HW125841   5.740   6.638   6.480
 8314SOL    HW225842   5.741   6.553   6.341
 8315SOL     OW25843   3.948   3.467   2.115
 8315SOL    HW125844   3.866   3.460   2.173
 8315SOL    HW225845   3.938   3.545   2.053
 8316SOL     OW25846   1.332   2.707   2.452
 8316SOL    HW125847   1.259   2.723   2.518
 8316SOL    HW225848   1.412   2.762   2.477
 8317SOL     OW25849   1.617   2.624   2.741
 8317SOL    HW125850   1.692   2.566   2.709
 8317SOL    HW225851   1.570   2.579   2.816
 8318SOL     OW25852   4.078   2.129   5.871
 8318SOL    HW125853   4.001   2.120   5.934
 8318SOL    HW225854   4.057   2.199   5.802
 8319SOL     OW25855   1.050   1.397   1.477
 8319SOL    HW125856   1.124   1.398   1.410
 8319SOL    HW225857   1.020   1.302   1.491
 8320SOL     OW25858   2.988   3.815   2.755
 8320SOL    HW125859   3.030   3.724   2.757
 8320SOL    HW225860   2.941   3.832   2.842
 8321SOL     OW25861   6.270   6.866   6.549
 8321SOL    HW125862   6.303   6.958   6.530
 8321SOL    HW225863   6.287   6.844   6.645
 8322SOL     OW25864   6.614   0.495   0.788
 8322SOL    HW125865   6.695   0.436   0.797
 8322SOL    HW225866   6.636   0.572   0.728
 8323SOL     OW25867   4.969   4.989   1.989
 8323SOL    HW125868   4.972   4.890   1.988
 8323SOL    HW225869   4.984   5.023   2.082
 8324SOL     OW25870   6.118   6.789   1.630
 8324SOL    HW125871   6.144   6.868   1.574
 8324SOL    HW225872   6.031   6.809   1.676
 8325SOL     OW25873   1.654   3.502   5.029
 8325SOL    HW125874   1.718   3.559   4.976
 8325SOL    HW225875   1.699   3.470   5.112
 8326SOL     OW25876   4.459   3.790   5.780
 8326SOL    HW125877   4.465   3.862   5.711
 8326SOL    HW225878   4.539   3.795   5.840
 8327SOL     OW25879   0.253   0.462   5.566
 8327SOL    HW125880   0.318   0.422   5.630
 8327SOL    HW225881   0.301   0.487   5.481
 8328SOL     OW25882   2.694   6.024   6.836
 8328SOL    HW125883   2.721   6.047   6.743
 8328SOL    HW225884   2.704   5.925   6.850
 8329SOL     OW25885   0.814   2.923   6.053
 8329SOL    HW125886   0.841   2.828   6.035
 8329SOL    HW225887   0.717   2.934   6.032
 8330SOL     OW25888   2.656   1.053   6.267
 8330SOL    HW125889   2.682   0.976   6.209
 8330SOL    HW225890   2.738   1.091   6.310
 8331SOL     OW25891   3.292   0.549   1.081
 8331SOL    HW125892   3.378   0.500   1.065
 8331SOL    HW225893   3.294   0.636   1.032
 8332SOL     OW25894   5.423   5.446   2.722
 8332SOL    HW125895   5.493   5.428   2.653
 8332SOL    HW225896   5.458   5.424   2.813
 8333SOL     OW25897   0.346   5.302   6.165
 8333SOL    HW125898   0.293   5.219   6.184
 8333SOL    HW225899   0.371   5.305   6.068
 8334SOL     OW25900   3.716   1.636   4.549
 8334SOL    HW125901   3.791   1.656   4.486
 8334SOL    HW225902   3.753   1.599   4.634
 8335SOL     OW25903   5.072   0.998   0.490
 8335SOL    HW125904   5.166   1.025   0.471
 8335SOL    HW225905   5.058   0.902   0.463
 8336SOL     OW25906   0.903   4.959   3.059
 8336SOL    HW125907   0.821   5.014   3.042
 8336SOL    HW225908   0.879   4.881   3.116
 8337SOL     OW25909   1.576   5.954   3.530
 8337SOL    HW125910   1.606   5.962   3.625
 8337SOL    HW225911   1.556   5.859   3.509
 8338SOL     OW25912   3.888   5.082   1.833
 8338SOL    HW125913   3.851   5.037   1.914
 8338SOL    HW225914   3.885   5.019   1.755
 8339SOL     OW25915   6.784   0.563   1.603
 8339SOL    HW125916   6.770   0.589   1.507
 8339SOL    HW225917   6.764   0.465   1.614
 8340SOL     OW25918   5.263   3.703   1.149
 8340SOL    HW125919   5.177   3.750   1.168
 8340SOL    HW225920   5.248   3.604   1.149
 8341SOL     OW25921   2.956   0.164   6.867
 8341SOL    HW125922   2.902   0.215   6.933
 8341SOL    HW225923   3.009   0.228   6.811
 8342SOL     OW25924   4.839   6.541   7.020
 8342SOL    HW125925   4.864   6.445   0.011
 8342SOL    HW225926   4.916   6.600   0.021
 8343SOL     OW25927   0.464   5.548   3.850
 8343SOL    HW125928   0.542   5.597   3.811
 8343SOL    HW225929   0.436   5.475   3.788
 8344SOL     OW25930   5.670   6.262   4.630
 8344SOL    HW125931   5.592   6.307   4.673
 8344SOL    HW225932   5.638   6.203   4.556
 8345SOL     OW25933   3.977   2.122   2.248
 8345SOL    HW125934   3.878   2.118   2.261
 8345SOL    HW225935   4.022   2.061   2.314
 8346SOL     OW25936   3.928   4.830   6.983
 8346SOL    HW125937   3.849   4.812   0.015
 8346SOL    HW225938   3.993   4.754   6.992
 8347SOL     OW25939   3.677   6.413   4.009
 8347SOL    HW125940   3.702   6.321   3.980
 8347SOL    HW225941   3.578   6.421   4.015
 8348SOL     OW25942   2.266   1.228   1.273
 8348SOL    HW125943   2.179   1.272   1.293
 8348SOL    HW225944   2.306   1.268   1.191
 8349SOL     OW25945   6.609   6.924   1.971
 8349SOL    HW125946   6.571   6.840   1.931
 8349SOL    HW225947   6.534   6.983   2.002
 8350SOL     OW25948   2.988   6.863   5.998
 8350SOL    HW125949   3.070   6.919   5.984
 8350SOL    HW225950   2.907   6.914   5.968
 8351SOL     OW25951   5.915   5.166   4.696
 8351SOL    HW125952   5.868   5.113   4.625
 8351SOL    HW225953   5.847   5.210   4.755
 8352SOL     OW25954   6.979   6.988   3.628
 8352SOL    HW125955   6.895   0.008   3.599
 8352SOL    HW225956   7.019   6.940   3.551
 8353SOL     OW25957   6.977   3.710   1.169
 8353SOL    HW125958   0.035   3.728   1.220
 8353SOL    HW225959   6.913   3.786   1.181
 8354SOL     OW25960   3.888   0.342   4.869
 8354SOL    HW125961   3.900   0.434   4.830
 8354SOL    HW225962   3.932   0.338   4.958
 8355SOL     OW25963   2.864   0.824   6.022
 8355SOL    HW125964   2.815   0.737   6.012
 8355SOL    HW225965   2.954   0.816   5.981
 8356SOL     OW25966   0.476   6.998   1.536
 8356SOL    HW125967   0.494   6.935   1.461
 8356SOL    HW225968   0.379   7.022   1.536
 8357SOL     OW25969   3.684   0.170   5.223
 8357SOL    HW125970   3.777   0.141   5.244
 8357SOL    HW225971   3.672   0.172   5.123
 8358SOL     OW25972   1.715   4.463   4.795
 8358SOL    HW125973   1.645   4.522   4.835
 8358SOL    HW225974   1.805   4.500   4.815
 8359SOL     OW25975   3.380   0.566   4.880
 8359SOL    HW125976   3.302   0.597   4.933
 8359SOL    HW225977   3.464   0.573   4.935
 8360SOL     OW25978   3.824   6.345   0.732
 8360SOL    HW125979   3.819   6.421   0.796
 8360SOL    HW225980   3.800   6.376   0.640
 8361SOL     OW25981   3.428   6.926   1.772
 8361SOL    HW125982   3.485   6.996   1.817
 8361SOL    HW225983   3.470   6.900   1.685
 8362SOL     OW25984   3.927   1.335   1.211
 8362SOL    HW125985   3.983   1.278   1.150
 8362SOL    HW225986   3.987   1.389   1.270
 8363SOL     OW25987   5.259   3.190   6.994
 8363SOL    HW125988   5.257   3.205   6.895
 8363SOL    HW225989   5.274   3.093   7.012
 8364SOL     OW25990   0.782   2.481   3.736
 8364SOL    HW125991   0.686   2.509   3.740
 8364SOL    HW225992   0.841   2.555   3.767
 8365SOL     OW25993   1.744   3.151   2.278
 8365SOL    HW125994   1.648   3.177   2.273
 8365SOL    HW225995   1.771   3.105   2.194
 8366SOL     OW25996   1.607   5.627   1.428
 8366SOL    HW125997   1.542   5.641   1.503
 8366SOL    HW225998   1.699   5.619   1.466
 8367SOL     OW25999   4.747   5.877   4.886
 8367SOL    HW126000   4.696   5.830   4.814
 8367SOL    HW226001   4.733   5.976   4.877
 8368SOL     OW26002   1.138   0.125   6.760
 8368SOL    HW126003   1.194   0.172   6.692
 8368SOL    HW226004   1.048   0.106   6.722
 8369SOL     OW26005   0.876   6.997   6.223
 8369SOL    HW126006   0.787   6.970   6.260
 8369SOL    HW226007   0.878   0.071   6.211
 8370SOL     OW26008   3.060   1.193   5.861
 8370SOL    HW126009   2.972   1.208   5.816
 8370SOL    HW226010   3.046   1.149   5.949
 8371SOL     OW26011   2.307   4.509   0.564
 8371SOL    HW126012   2.393   4.504   0.512
 8371SOL    HW226013   2.231   4.524   0.500
 8372SOL     OW26014   1.378   4.733   1.783
 8372SOL    HW126015   1.320   4.806   1.819
 8372SOL    HW226016   1.456   4.772   1.735
 8373SOL     OW26017   1.876   0.397   4.195
 8373SOL    HW126018   1.930   0.433   4.271
 8373SOL    HW226019   1.873   0.464   4.121
 8374SOL     OW26020   0.178   0.909   4.895
 8374SOL    HW126021   0.141   0.820   4.919
 8374SOL    HW226022   0.191   0.964   4.978
 8375SOL     OW26023   3.370   6.589   5.284
 8375SOL    HW126024   3.324   6.662   5.334
 8375SOL    HW226025   3.355   6.502   5.331
 8376SOL     OW26026   0.277   1.313   4.377
 8376SOL    HW126027   0.284   1.335   4.474
 8376SOL    HW226028   0.367   1.321   4.334
 8377SOL     OW26029   4.936   5.928   0.832
 8377SOL    HW126030   4.844   5.888   0.832
 8377SOL    HW226031   4.972   5.930   0.925
 8378SOL     OW26032   4.689   5.240   2.906
 8378SOL    HW126033   4.631   5.187   2.968
 8378SOL    HW226034   4.631   5.292   2.843
 8379SOL     OW26035   5.442   3.308   1.293
 8379SOL    HW126036   5.469   3.284   1.200
 8379SOL    HW226037   5.502   3.261   1.358
 8380SOL     OW26038   0.647   0.746   2.820
 8380SOL    HW126039   0.734   0.699   2.806
 8380SOL    HW226040   0.587   0.732   2.741
 8381SOL     OW26041   0.105   3.158   4.612
 8381SOL    HW126042   0.129   3.244   4.567
 8381SOL    HW226043   0.069   3.093   4.544
 8382SOL     OW26044   2.634   6.986   2.712
 8382SOL    HW126045   2.577   0.023   2.764
 8382SOL    HW226046   2.730   7.015   2.719
 8383SOL     OW26047   2.811   6.869   5.680
 8383SOL    HW126048   2.820   6.903   5.774
 8383SOL    HW226049   2.720   6.891   5.646
 8384SOL     OW26050   6.565   0.771   1.616
 8384SOL    HW126051   6.637   0.702   1.617
 8384SOL    HW226052   6.603   0.860   1.592
 8385SOL     OW26053   5.715   2.616   0.417
 8385SOL    HW126054   5.764   2.557   0.481
 8385SOL    HW226055   5.724   2.711   0.446
 8386SOL     OW26056   1.837   5.527   1.902
 8386SOL    HW126057   1.860   5.537   1.999
 8386SOL    HW226058   1.881   5.600   1.850
 8387SOL     OW26059   1.210   1.327   1.666
 8387SOL    HW126060   1.229   1.403   1.728
 8387SOL    HW226061   1.149   1.358   1.593
 8388SOL     OW26062   2.071   6.738   0.471
 8388SOL    HW126063   2.163   6.774   0.485
 8388SOL    HW226064   2.055   6.662   0.533
 8389SOL     OW26065   0.032   3.608   3.488
 8389SOL    HW126066   0.005   3.550   3.411
 8389SOL    HW226067   0.118   3.654   3.466
 8390SOL     OW26068   4.564   0.703   0.423
 8390SOL    HW126069   4.561   0.800   0.399
 8390SOL    HW226070   4.548   0.648   0.341
 8391SOL     OW26071   6.283   5.010   0.979
 8391SOL    HW126072   6.328   4.934   1.026
 8391SOL    HW226073   6.351   5.075   0.947
 8392SOL     OW26074   6.913   4.615   5.276
 8392SOL    HW126075   6.924   4.572   5.366
 8392SOL    HW226076   6.918   4.545   5.205
 8393SOL     OW26077   0.403   0.145   2.730
 8393SOL    HW126078   0.413   0.059   2.780
 8393SOL    HW226079   0.309   0.178   2.737
 8394SOL     OW26080   6.444   2.843   2.112
 8394SOL    HW126081   6.452   2.744   2.119
 8394SOL    HW226082   6.413   2.867   2.020
 8395SOL     OW26083   1.839   6.848   4.993
 8395SOL    HW126084   1.895   6.804   4.922
 8395SOL    HW226085   1.898   6.896   5.057
 8396SOL     OW26086   4.276   5.354   2.661
 8396SOL    HW126087   4.198   5.304   2.622
 8396SOL    HW226088   4.246   5.447   2.683
 8397SOL     OW26089   2.582   0.300   2.704
 8397SOL    HW126090   2.542   0.392   2.707
 8397SOL    HW226091   2.535   0.241   2.770
 8398SOL     OW26092   4.438   1.790   6.756
 8398SOL    HW126093   4.527   1.832   6.774
 8398SOL    HW226094   4.371   1.824   6.822
 8399SOL     OW26095   6.009   5.925   6.986
 8399SOL    HW126096   6.068   5.894   0.034
 8399SOL    HW226097   5.928   5.971   7.025
 8400SOL     OW26098   1.287   1.435   4.538
 8400SOL    HW126099   1.325   1.421   4.630
 8400SOL    HW226100   1.284   1.347   4.490
 8401SOL     OW26101   2.951   1.414   6.458
 8401SOL    HW126102   2.889   1.463   6.519
 8401SOL    HW226103   2.935   1.444   6.364
 8402SOL     OW26104   4.008   1.794   5.451
 8402SOL    HW126105   4.047   1.705   5.473
 8402SOL    HW226106   3.916   1.781   5.413
 8403SOL     OW26107   1.003   2.098   4.449
 8403SOL    HW126108   0.916   2.062   4.484
 8403SOL    HW226109   1.053   2.143   4.523
 8404SOL     OW26110   4.593   6.840   5.506
 8404SOL    HW126111   4.533   6.763   5.526
 8404SOL    HW226112   4.537   6.922   5.491
 8405SOL     OW26113   2.332   0.354   5.593
 8405SOL    HW126114   2.288   0.334   5.681
 8405SOL    HW226115   2.290   0.435   5.553
 8406SOL     OW26116   5.670   0.149   0.560
 8406SOL    HW126117   5.651   0.110   0.650
 8406SOL    HW226118   5.704   0.243   0.570
 8407SOL     OW26119   3.393   6.347   3.786
 8407SOL    HW126120   3.298   6.356   3.754
 8407SOL    HW226121   3.447   6.299   3.717
 8408SOL     OW26122   5.765   3.731   2.079
 8408SOL    HW126123   5.845   3.788   2.096
 8408SOL    HW226124   5.758   3.661   2.150
 8409SOL     OW26125   5.629   2.587   3.557
 8409SOL    HW126126   5.673   2.579   3.646
 8409SOL    HW226127   5.540   2.632   3.568
 8410SOL     OW26128   5.493   1.030   1.984
 8410SOL    HW126129   5.404   1.072   1.999
 8410SOL    HW226130   5.499   0.996   1.890
 8411SOL     OW26131   0.514   4.494   6.971
 8411SOL    HW126132   0.422   4.512   6.936
 8411SOL    HW226133   0.579   4.557   6.930
 8412SOL     OW26134   3.076   1.316   1.283
 8412SOL    HW126135   3.071   1.267   1.197
 8412SOL    HW226136   2.987   1.358   1.303
 8413SOL     OW26137   4.386   5.433   6.715
 8413SOL    HW126138   4.430   5.383   6.640
 8413SOL    HW226139   4.363   5.525   6.684
 8414SOL     OW26140   3.631   4.940   3.411
 8414SOL    HW126141   3.585   4.935   3.323
 8414SOL    HW226142   3.570   4.981   3.479
 8415SOL     OW26143   6.932   5.953   4.157
 8415SOL    HW126144   6.926   6.016   4.080
 8415SOL    HW226145   6.922   6.004   4.243
 8416SOL     OW26146   5.505   3.550   2.053
 8416SOL    HW126147   5.590   3.530   2.101
 8416SOL    HW226148   5.506   3.505   1.963
 8417SOL     OW26149   1.451   4.112   5.948
 8417SOL    HW126150   1.465   4.211   5.950
 8417SOL    HW226151   1.516   4.071   5.885
 8418SOL     OW26152   6.159   4.985   0.723
 8418SOL    HW126153   6.187   5.033   0.807
 8418SOL    HW226154   6.128   4.893   0.746
 8419SOL     OW26155   5.440   0.204   2.322
 8419SOL    HW126156   5.422   0.115   2.363
 8419SOL    HW226157   5.459   0.271   2.394
 8420SOL     OW26158   4.675   0.026   0.429
 8420SOL    HW126159   4.655   0.038   0.332
 8420SOL    HW226160   4.689   6.954   0.448
 8421SOL     OW26161   1.078   5.442   6.813
 8421SOL    HW126162   1.126   5.354   6.811
 8421SOL    HW226163   1.141   5.515   6.787
 8422SOL     OW26164   3.802   1.412   0.907
 8422SOL    HW126165   3.735   1.432   0.979
 8422SOL    HW226166   3.889   1.454   0.930
 8423SOL     OW26167   3.197   4.371   5.790
 8423SOL    HW126168   3.162   4.306   5.857
 8423SOL    HW226169   3.297   4.371   5.793
 8424SOL     OW26170   1.945   2.594   2.521
 8424SOL    HW126171   1.917   2.561   2.611
 8424SOL    HW226172   2.045   2.597   2.516
 8425SOL     OW26173   5.092   5.104   6.372
 8425SOL    HW126174   5.035   5.062   6.442
 8425SOL    HW226175   5.187   5.107   6.404
 8426SOL     OW26176   3.509   3.717   3.607
 8426SOL    HW126177   3.599   3.707   3.563
 8426SOL    HW226178   3.465   3.627   3.611
 8427SOL     OW26179   3.972   3.692   4.625
 8427SOL    HW126180   4.018   3.770   4.669
 8427SOL    HW226181   3.979   3.702   4.526
 8428SOL     OW26182   0.548   4.860   1.691
 8428SOL    HW126183   0.572   4.766   1.717
 8428SOL    HW226184   0.612   4.924   1.734
 8429SOL     OW26185   1.911   5.641   4.379
 8429SOL    HW126186   1.925   5.647   4.477
 8429SOL    HW226187   1.993   5.671   4.330
 8430SOL     OW26188   3.795   5.165   3.405
 8430SOL    HW126189   3.754   5.074   3.399
 8430SOL    HW226190   3.768   5.218   3.325
 8431SOL     OW26191   3.049   4.569   0.392
 8431SOL    HW126192   3.045   4.573   0.292
 8431SOL    HW226193   3.000   4.488   0.424
 8432SOL     OW26194   5.486   6.837   6.306
 8432SOL    HW126195   5.574   6.800   6.275
 8432SOL    HW226196   5.433   6.764   6.348
 8433SOL     OW26197   4.739   2.731   0.639
 8433SOL    HW126198   4.787   2.819   0.636
 8433SOL    HW226199   4.654   2.737   0.586
 8434SOL     OW26200   2.954   6.540   4.902
 8434SOL    HW126201   2.890   6.464   4.895
 8434SOL    HW226202   3.043   6.506   4.933
 8435SOL     OW26203   6.245   1.004   1.796
 8435SOL    HW126204   6.305   1.082   1.815
 8435SOL    HW226205   6.153   1.038   1.774
 8436SOL     OW26206   3.399   6.903   3.403
 8436SOL    HW126207   3.461   6.824   3.392
 8436SOL    HW226208   3.315   6.886   3.353
 8437SOL     OW26209   2.333   0.631   4.269
 8437SOL    HW126210   2.393   0.703   4.232
 8437SOL    HW226211   2.254   0.620   4.208
 8438SOL     OW26212   2.440   4.551   2.206
 8438SOL    HW126213   2.514   4.531   2.271
 8438SOL    HW226214   2.479   4.576   2.118
 8439SOL     OW26215   6.713   5.105   2.405
 8439SOL    HW126216   6.706   5.009   2.376
 8439SOL    HW226217   6.810   5.131   2.408
 8440SOL     OW26218   1.292   2.591   3.876
 8440SOL    HW126219   1.299   2.680   3.831
 8440SOL    HW226220   1.196   2.569   3.893
 8441SOL     OW26221   5.932   6.718   0.539
 8441SOL    HW126222   5.860   6.744   0.474
 8441SOL    HW226223   5.971   6.800   0.580
 8442SOL     OW26224   2.893   1.644   5.056
 8442SOL    HW126225   2.877   1.742   5.058
 8442SOL    HW226226   2.982   1.625   5.015
 8443SOL     OW26227   2.657   4.995   3.763
 8443SOL    HW126228   2.575   5.047   3.742
 8443SOL    HW226229   2.737   5.056   3.759
 8444SOL     OW26230   2.672   6.249   3.983
 8444SOL    HW126231   2.629   6.298   3.907
 8444SOL    HW226232   2.681   6.310   4.062
 8445SOL     OW26233   4.051   6.522   0.742
 8445SOL    HW126234   4.056   6.541   0.840
 8445SOL    HW226235   3.990   6.445   0.725
 8446SOL     OW26236   4.644   4.448   6.784
 8446SOL    HW126237   4.731   4.408   6.757
 8446SOL    HW226238   4.618   4.519   6.719
 8447SOL     OW26239   4.986   2.080   1.988
 8447SOL    HW126240   4.910   2.130   1.947
 8447SOL    HW226241   5.011   2.123   2.074
 8448SOL     OW26242   4.193   5.928   4.265
 8448SOL    HW126243   4.282   5.892   4.237
 8448SOL    HW226244   4.155   5.984   4.191
 8449SOL     OW26245   6.743   2.756   3.723
 8449SOL    HW126246   6.750   2.764   3.623
 8449SOL    HW226247   6.655   2.714   3.747
 8450SOL     OW26248   0.713   6.514   0.587
 8450SOL    HW126249   0.693   6.603   0.628
 8450SOL    HW226250   0.791   6.473   0.634
 8451SOL     OW26251   3.836   1.632   0.359
 8451SOL    HW126252   3.782   1.635   0.275
 8451SOL    HW226253   3.831   1.720   0.405
 8452SOL     OW26254   5.640   1.656   2.904
 8452SOL    HW126255   5.570   1.716   2.943
 8452SOL    HW226256   5.609   1.622   2.815
 8453SOL     OW26257   0.324   4.327   6.682
 8453SOL    HW126258   0.361   4.278   6.760
 8453SOL    HW226259   0.224   4.319   6.681
 8454SOL     OW26260   6.732   6.630   1.577
 8454SOL    HW126261   6.786   6.598   1.654
 8454SOL    HW226262   6.739   6.564   1.502
 8455SOL     OW26263   6.346   2.590   1.898
 8455SOL    HW126264   6.300   2.679   1.902
 8455SOL    HW226265   6.294   2.528   1.839
 8456SOL     OW26266   3.830   5.759   3.048
 8456SOL    HW126267   3.902   5.821   3.019
 8456SOL    HW226268   3.790   5.713   2.968
 8457SOL     OW26269   6.861   6.744   4.767
 8457SOL    HW126270   6.927   6.679   4.731
 8457SOL    HW226271   6.768   6.712   4.748
 8458SOL     OW26272   3.683   1.437   6.819
 8458SOL    HW126273   3.602   1.473   6.772
 8458SOL    HW226274   3.654   1.383   6.898
 8459SOL     OW26275   2.711   5.775   2.156
 8459SOL    HW126276   2.693   5.743   2.249
 8459SOL    HW226277   2.730   5.697   2.096
 8460SOL     OW26278   4.239   4.032   5.700
 8460SOL    HW126279   4.183   3.949   5.691
 8460SOL    HW226280   4.322   4.022   5.644
 8461SOL     OW26281   0.052   4.236   3.956
 8461SOL    HW126282   0.095   4.150   3.987
 8461SOL    HW226283   0.044   4.298   4.034
 8462SOL     OW26284   2.962   3.018   6.327
 8462SOL    HW126285   2.879   2.974   6.361
 8462SOL    HW226286   2.963   3.114   6.357
 8463SOL     OW26287   6.551   0.110   1.325
 8463SOL    HW126288   6.568   0.067   1.236
 8463SOL    HW226289   6.453   0.124   1.338
 8464SOL     OW26290   5.558   3.198   4.839
 8464SOL    HW126291   5.511   3.246   4.764
 8464SOL    HW226292   5.558   3.256   4.921
 8465SOL     OW26293   0.799   2.566   0.735
 8465SOL    HW126294   0.851   2.513   0.803
 8465SOL    HW226295   0.794   2.514   0.650
 8466SOL     OW26296   7.016   0.170   4.093
 8466SOL    HW126297   6.969   0.082   4.096
 8466SOL    HW226298   7.006   0.216   4.182
 8467SOL     OW26299   4.524   6.889   0.808
 8467SOL    HW126300   4.570   6.828   0.744
 8467SOL    HW226301   4.432   6.908   0.775
 8468SOL     OW26302   3.861   2.276   6.693
 8468SOL    HW126303   3.856   2.350   6.759
 8468SOL    HW226304   3.854   2.188   6.742
 8469SOL     OW26305   3.367   1.514   6.480
 8469SOL    HW126306   3.295   1.583   6.491
 8469SOL    HW226307   3.365   1.479   6.387
 8470SOL     OW26308   1.646   3.834   0.104
 8470SOL    HW126309   1.553   3.799   0.115
 8470SOL    HW226310   1.654   3.923   0.150
 8471SOL     OW26311   3.567   1.042   3.358
 8471SOL    HW126312   3.657   1.020   3.320
 8471SOL    HW226313   3.536   0.967   3.417
 8472SOL     OW26314   6.925   0.824   5.211
 8472SOL    HW126315   6.826   0.834   5.203
 8472SOL    HW226316   6.948   0.729   5.231
 8473SOL     OW26317   6.338   5.865   6.927
 8473SOL    HW126318   6.369   5.828   6.840
 8473SOL    HW226319   6.269   5.936   6.910
 8474SOL     OW26320   3.584   3.039   1.679
 8474SOL    HW126321   3.655   3.108   1.693
 8474SOL    HW226322   3.611   2.977   1.606
 8475SOL     OW26323   6.883   2.411   3.700
 8475SOL    HW126324   6.970   2.399   3.748
 8475SOL    HW226325   6.819   2.460   3.760
 8476SOL     OW26326   6.775   1.902   1.246
 8476SOL    HW126327   6.755   1.954   1.163
 8476SOL    HW226328   6.849   1.837   1.227
 8477SOL     OW26329   5.291   6.543   0.886
 8477SOL    HW126330   5.233   6.499   0.818
 8477SOL    HW226331   5.251   6.630   0.913
 8478SOL     OW26332   0.987   6.550   5.697
 8478SOL    HW126333   1.022   6.565   5.789
 8478SOL    HW226334   1.032   6.613   5.633
 8479SOL     OW26335   0.782   2.371   1.239
 8479SOL    HW126336   0.839   2.405   1.314
 8479SOL    HW226337   0.693   2.343   1.274
 8480SOL     OW26338   4.428   1.514   0.211
 8480SOL    HW126339   4.516   1.476   0.238
 8480SOL    HW226340   4.358   1.442   0.217
 8481SOL     OW26341   4.029   2.142   3.921
 8481SOL    HW126342   4.099   2.202   3.960
 8481SOL    HW226343   4.059   2.107   3.833
 8482SOL     OW26344   4.556   5.944   1.821
 8482SOL    HW126345   4.538   5.917   1.726
 8482SOL    HW226346   4.471   5.975   1.863
 8483SOL     OW26347   4.635   6.406   2.558
 8483SOL    HW126348   4.693   6.482   2.528
 8483SOL    HW226349   4.679   6.319   2.534
 8484SOL     OW26350   0.811   5.963   3.618
 8484SOL    HW126351   0.862   5.879   3.600
 8484SOL    HW226352   0.824   6.027   3.543
 8485SOL     OW26353   3.951   3.169   6.996
 8485SOL    HW126354   3.918   3.171   0.065
 8485SOL    HW226355   3.969   3.074   6.970
 8486SOL     OW26356   3.366   0.833   2.635
 8486SOL    HW126357   3.461   0.826   2.605
 8486SOL    HW226358   3.364   0.840   2.735
 8487SOL     OW26359   5.667   1.799   6.041
 8487SOL    HW126360   5.725   1.819   6.120
 8487SOL    HW226361   5.691   1.709   6.005
 8488SOL     OW26362   5.561   5.568   0.083
 8488SOL    HW126363   5.486   5.511   0.047
 8488SOL    HW226364   5.524   5.631   0.151
 8489SOL     OW26365   6.085   1.992   1.293
 8489SOL    HW126366   6.144   1.930   1.240
 8489SOL    HW226367   6.128   2.008   1.383
 8490SOL     OW26368   4.292   6.533   3.804
 8490SOL    HW126369   4.200   6.552   3.838
 8490SOL    HW226370   4.329   6.452   3.850
 8491SOL     OW26371   2.394   6.053   0.470
 8491SOL    HW126372   2.466   6.110   0.430
 8491SOL    HW226373   2.394   5.963   0.426
 8492SOL     OW26374   4.703   3.970   6.474
 8492SOL    HW126375   4.743   3.945   6.386
 8492SOL    HW226376   4.651   4.055   6.464
 8493SOL     OW26377   2.627   2.584   6.592
 8493SOL    HW126378   2.560   2.558   6.662
 8493SOL    HW226379   2.593   2.559   6.502
 8494SOL     OW26380   3.191   5.405   0.719
 8494SOL    HW126381   3.181   5.307   0.704
 8494SOL    HW226382   3.239   5.421   0.805
 8495SOL     OW26383   6.501   5.123   2.240
 8495SOL    HW126384   6.574   5.116   2.308
 8495SOL    HW226385   6.506   5.212   2.195
 8496SOL     OW26386   0.631   2.074   2.202
 8496SOL    HW126387   0.649   1.981   2.170
 8496SOL    HW226388   0.553   2.112   2.153
 8497SOL     OW26389   6.138   1.055   3.371
 8497SOL    HW126390   6.212   1.059   3.438
 8497SOL    HW226391   6.163   1.108   3.291
 8498SOL     OW26392   0.015   6.741   2.589
 8498SOL    HW126393   0.032   6.815   2.653
 8498SOL    HW226394   0.008   6.654   2.639
 8499SOL     OW26395   2.304   4.683   6.579
 8499SOL    HW126396   2.354   4.621   6.519
 8499SOL    HW226397   2.209   4.691   6.548
 8500SOL     OW26398   1.848   6.401   5.325
 8500SOL    HW126399   1.766   6.445   5.360
 8500SOL    HW226400   1.928   6.455   5.349
 8501SOL     OW26401   0.627   1.763   6.672
 8501SOL    HW126402   0.722   1.739   6.691
 8501SOL    HW226403   0.595   1.713   6.592
 8502SOL     OW26404   1.310   4.054   1.040
 8502SOL    HW126405   1.370   4.113   0.987
 8502SOL    HW226406   1.341   4.052   1.136
 8503SOL     OW26407   1.980   0.168   4.155
 8503SOL    HW126408   2.062   0.166   4.098
 8503SOL    HW226409   1.947   0.262   4.161
 8504SOL     OW26410   2.635   5.246   2.250
 8504SOL    HW126411   2.686   5.291   2.177
 8504SOL    HW226412   2.646   5.147   2.243
 8505SOL     OW26413   4.889   3.217   3.797
 8505SOL    HW126414   4.898   3.294   3.733
 8505SOL    HW226415   4.913   3.247   3.889
 8506SOL     OW26416   6.952   1.186   6.331
 8506SOL    HW126417   7.016   1.121   6.290
 8506SOL    HW226418   6.929   1.157   6.423
 8507SOL     OW26419   3.618   1.025   5.469
 8507SOL    HW126420   3.712   1.044   5.496
 8507SOL    HW226421   3.598   1.069   5.381
 8508SOL     OW26422   6.277   2.047   5.414
 8508SOL    HW126423   6.318   1.962   5.382
 8508SOL    HW226424   6.307   2.066   5.507
 8509SOL     OW26425   4.016   1.702   3.620
 8509SOL    HW126426   4.093   1.724   3.679
 8509SOL    HW226427   4.048   1.651   3.540
 8510SOL     OW26428   5.848   3.949   3.426
 8510SOL    HW126429   5.772   4.013   3.429
 8510SOL    HW226430   5.934   3.999   3.414
 8511SOL     OW26431   6.378   3.870   2.000
 8511SOL    HW126432   6.384   3.937   1.926
 8511SOL    HW226433   6.401   3.914   2.086
 8512SOL     OW26434   3.566   2.253   1.612
 8512SOL    HW126435   3.594   2.269   1.707
 8512SOL    HW226436   3.472   2.285   1.600
 8513SOL     OW26437   5.540   4.233   1.313
 8513SOL    HW126438   5.551   4.176   1.394
 8513SOL    HW226439   5.629   4.249   1.270
 8514SOL     OW26440   2.368   2.475   3.825
 8514SOL    HW126441   2.453   2.479   3.773
 8514SOL    HW226442   2.326   2.385   3.815
 8515SOL     OW26443   5.889   1.867   0.877
 8515SOL    HW126444   5.975   1.817   0.866
 8515SOL    HW226445   5.850   1.848   0.967
 8516SOL     OW26446   6.449   2.384   1.481
 8516SOL    HW126447   6.457   2.428   1.392
 8516SOL    HW226448   6.387   2.437   1.539
 8517SOL     OW26449   1.635   3.198   6.361
 8517SOL    HW126450   1.682   3.158   6.440
 8517SOL    HW226451   1.609   3.126   6.297
 8518SOL     OW26452   4.680   3.827   0.197
 8518SOL    HW126453   4.699   3.742   0.147
 8518SOL    HW226454   4.756   3.846   0.259
 8519SOL     OW26455   1.163   4.106   1.543
 8519SOL    HW126456   1.104   4.165   1.599
 8519SOL    HW226457   1.225   4.055   1.602
 8520SOL     OW26458   3.632   2.861   6.727
 8520SOL    HW126459   3.596   2.842   6.818
 8520SOL    HW226460   3.647   2.775   6.679
 8521SOL     OW26461   1.956   5.061   6.172
 8521SOL    HW126462   1.899   4.991   6.127
 8521SOL    HW226463   1.902   5.108   6.241
 8522SOL     OW26464   1.559   6.504   1.534
 8522SOL    HW126465   1.490   6.535   1.469
 8522SOL    HW226466   1.514   6.449   1.605
 8523SOL     OW26467   2.013   6.594   6.841
 8523SOL    HW126468   2.097   6.586   6.895
 8523SOL    HW226469   1.999   6.689   6.814
 8524SOL     OW26470   0.448   2.718   4.940
 8524SOL    HW126471   0.468   2.678   4.850
 8524SOL    HW226472   0.413   2.810   4.928
 8525SOL     OW26473   5.945   3.884   2.727
 8525SOL    HW126474   5.912   3.938   2.649
 8525SOL    HW226475   5.977   3.795   2.695
 8526SOL     OW26476   3.947   5.854   6.607
 8526SOL    HW126477   3.987   5.800   6.532
 8526SOL    HW226478   4.010   5.928   6.632
 8527SOL     OW26479   2.904   1.058   6.413
 8527SOL    HW126480   2.878   0.964   6.391
 8527SOL    HW226481   2.939   1.063   6.506
 8528SOL     OW26482   3.674   1.765   6.292
 8528SOL    HW126483   3.664   1.798   6.387
 8528SOL    HW226484   3.771   1.757   6.270
 8529SOL     OW26485   1.132   0.560   1.143
 8529SOL    HW126486   1.231   0.566   1.160
 8529SOL    HW226487   1.095   0.653   1.135
 8530SOL     OW26488   3.102   3.906   4.845
 8530SOL    HW126489   3.125   3.810   4.829
 8530SOL    HW226490   3.113   3.958   4.760
 8531SOL     OW26491   6.662   5.587   2.306
 8531SOL    HW126492   6.644   5.668   2.250
 8531SOL    HW226493   6.756   5.556   2.291
 8532SOL     OW26494   3.652   5.067   4.605
 8532SOL    HW126495   3.737   5.049   4.555
 8532SOL    HW226496   3.591   5.122   4.548
 8533SOL     OW26497   1.535   0.272   6.453
 8533SOL    HW126498   1.447   0.283   6.497
 8533SOL    HW226499   1.601   0.336   6.493
 8534SOL     OW26500   6.311   2.975   3.998
 8534SOL    HW126501   6.381   2.912   4.033
 8534SOL    HW226502   6.224   2.927   3.992
 8535SOL     OW26503   6.528   1.531   4.550
 8535SOL    HW126504   6.510   1.620   4.591
 8535SOL    HW226505   6.447   1.472   4.562
 8536SOL     OW26506   6.399   2.829   5.086
 8536SOL    HW126507   6.403   2.852   4.989
 8536SOL    HW226508   6.471   2.762   5.107
 8537SOL     OW26509   5.382   1.459   2.168
 8537SOL    HW126510   5.418   1.414   2.250
 8537SOL    HW226511   5.334   1.543   2.194
 8538SOL     OW26512   0.427   0.918   6.818
 8538SOL    HW126513   0.413   0.881   6.910
 8538SOL    HW226514   0.485   0.999   6.824
 8539SOL     OW26515   5.602   0.868   2.177
 8539SOL    HW126516   5.567   0.931   2.108
 8539SOL    HW226517   5.530   0.804   2.203
 8540SOL     OW26518   4.662   0.706   6.923
 8540SOL    HW126519   4.680   0.765   7.001
 8540SOL    HW226520   4.749   0.671   6.887
 8541SOL     OW26521   2.739   1.857   4.866
 8541SOL    HW126522   2.798   1.815   4.797
 8541SOL    HW226523   2.698   1.785   4.923
 8542SOL     OW26524   4.079   4.735   6.734
 8542SOL    HW126525   4.048   4.711   6.826
 8542SOL    HW226526   4.009   4.707   6.668
 8543SOL     OW26527   3.209   0.421   0.648
 8543SOL    HW126528   3.142   0.475   0.698
 8543SOL    HW226529   3.172   0.396   0.558
 8544SOL     OW26530   5.431   3.323   4.617
 8544SOL    HW126531   5.359   3.279   4.563
 8544SOL    HW226532   5.432   3.421   4.597
 8545SOL     OW26533   4.734   6.607   4.860
 8545SOL    HW126534   4.636   6.628   4.860
 8545SOL    HW226535   4.786   6.688   4.834
 8546SOL     OW26536   0.180   0.751   3.518
 8546SOL    HW126537   0.215   0.784   3.606
 8546SOL    HW226538   0.171   0.651   3.521
 8547SOL     OW26539   1.322   6.649   6.383
 8547SOL    HW126540   1.267   6.711   6.327
 8547SOL    HW226541   1.267   6.618   6.461
 8548SOL     OW26542   6.160   3.536   5.258
 8548SOL    HW126543   6.204   3.455   5.298
 8548SOL    HW226544   6.164   3.530   5.158
 8549SOL     OW26545   1.157   3.074   4.483
 8549SOL    HW126546   1.245   3.064   4.530
 8549SOL    HW226547   1.084   3.083   4.552
 8550SOL     OW26548   1.624   4.814   6.899
 8550SOL    HW126549   1.627   4.814   6.799
 8550SOL    HW226550   1.714   4.840   6.935
 8551SOL     OW26551   2.758   3.585   6.281
 8551SOL    HW126552   2.855   3.590   6.256
 8551SOL    HW226553   2.744   3.508   6.343
 8552SOL     OW26554   2.726   0.613   3.759
 8552SOL    HW126555   2.679   0.548   3.700
 8552SOL    HW226556   2.779   0.564   3.828
 8553SOL     OW26557   4.351   3.874   6.720
 8553SOL    HW126558   4.391   3.845   6.633
 8553SOL    HW226559   4.403   3.833   6.795
 8554SOL     OW26560   1.190   4.652   0.577
 8554SOL    HW126561   1.102   4.607   0.570
 8554SOL    HW226562   1.183   4.730   0.639
 8555SOL     OW26563   2.258   1.319   3.640
 8555SOL    HW126564   2.283   1.349   3.548
 8555SOL    HW226565   2.295   1.383   3.707
 8556SOL     OW26566   1.353   5.930   4.918
 8556SOL    HW126567   1.434   5.930   4.859
 8556SOL    HW226568   1.349   6.016   4.969
 8557SOL     OW26569   5.791   6.624   2.828
 8557SOL    HW126570   5.785   6.555   2.756
 8557SOL    HW226571   5.747   6.589   2.911
 8558SOL     OW26572   2.695   4.682   2.963
 8558SOL    HW126573   2.670   4.778   2.972
 8558SOL    HW226574   2.640   4.627   3.026
 8559SOL     OW26575   1.432   0.245   2.528
 8559SOL    HW126576   1.434   0.180   2.452
 8559SOL    HW226577   1.368   0.212   2.598
 8560SOL     OW26578   6.652   6.386   1.783
 8560SOL    HW126579   6.606   6.378   1.695
 8560SOL    HW226580   6.745   6.418   1.769
 8561SOL     OW26581   3.441   0.608   2.113
 8561SOL    HW126582   3.414   0.664   2.035
 8561SOL    HW226583   3.396   0.642   2.196
 8562SOL     OW26584   4.203   6.484   5.873
 8562SOL    HW126585   4.233   6.554   5.939
 8562SOL    HW226586   4.187   6.398   5.921
 8563SOL     OW26587   1.544   4.421   0.078
 8563SOL    HW126588   1.490   4.500   0.051
 8563SOL    HW226589   1.554   4.359   0.000
 8564SOL     OW26590   3.516   0.839   5.052
 8564SOL    HW126591   3.477   0.909   4.993
 8564SOL    HW226592   3.452   0.819   5.127
 8565SOL     OW26593   3.816   5.386   1.071
 8565SOL    HW126594   3.720   5.388   1.101
 8565SOL    HW226595   3.868   5.454   1.121
 8566SOL     OW26596   2.055   0.224   1.186
 8566SOL    HW126597   2.013   0.225   1.277
 8566SOL    HW226598   1.991   0.261   1.119
 8567SOL     OW26599   0.965   2.631   3.010
 8567SOL    HW126600   0.916   2.591   3.087
 8567SOL    HW226601   0.930   2.723   2.992
 8568SOL     OW26602   5.381   1.272   6.826
 8568SOL    HW126603   5.390   1.326   6.742
 8568SOL    HW226604   5.472   1.256   6.865
 8569SOL     OW26605   5.081   1.134   6.192
 8569SOL    HW126606   5.062   1.036   6.191
 8569SOL    HW226607   5.129   1.158   6.277
 8570SOL     OW26608   1.608   1.834   5.147
 8570SOL    HW126609   1.509   1.843   5.145
 8570SOL    HW226610   1.633   1.747   5.187
 8571SOL     OW26611   1.709   6.003   5.143
 8571SOL    HW126612   1.630   5.960   5.187
 8571SOL    HW226613   1.742   5.944   5.069
 8572SOL     OW26614   3.375   4.595   6.341
 8572SOL    HW126615   3.381   4.602   6.241
 8572SOL    HW226616   3.418   4.675   6.382
 8573SOL     OW26617   3.231   6.041   7.022
 8573SOL    HW126618   3.167   6.115   7.004
 8573SOL    HW226619   3.183   5.954   7.020
 8574SOL     OW26620   6.989   5.753   5.979
 8574SOL    HW126621   6.903   5.779   6.021
 8574SOL    HW226622   0.039   5.797   6.028
 8575SOL     OW26623   2.007   2.942   4.526
 8575SOL    HW126624   2.019   2.927   4.428
 8575SOL    HW226625   2.037   3.035   4.549
 8576SOL     OW26626   1.479   5.226   6.206
 8576SOL    HW126627   1.518   5.138   6.234
 8576SOL    HW226628   1.541   5.273   6.144
 8577SOL     OW26629   0.492   6.564   5.013
 8577SOL    HW126630   0.489   6.524   4.922
 8577SOL    HW226631   0.403   6.552   5.057
 8578SOL     OW26632   5.425   6.746   3.748
 8578SOL    HW126633   5.459   6.666   3.798
 8578SOL    HW226634   5.486   6.823   3.764
 8579SOL     OW26635   1.971   6.763   2.366
 8579SOL    HW126636   1.994   6.795   2.457
 8579SOL    HW226637   1.910   6.684   2.372
 8580SOL     OW26638   2.138   5.834   1.979
 8580SOL    HW126639   2.178   5.829   2.070
 8580SOL    HW226640   2.099   5.925   1.964
 8581SOL     OW26641   3.320   3.927   1.958
 8581SOL    HW126642   3.398   3.870   1.932
 8581SOL    HW226643   3.235   3.878   1.936
 8582SOL     OW26644   4.378   4.622   3.595
 8582SOL    HW126645   4.289   4.638   3.638
 8582SOL    HW226646   4.426   4.709   3.583
 8583SOL     OW26647   5.739   0.492   4.282
 8583SOL    HW126648   5.729   0.404   4.235
 8583SOL    HW226649   5.754   0.564   4.214
 8584SOL     OW26650   1.086   4.853   5.527
 8584SOL    HW126651   1.065   4.820   5.619
 8584SOL    HW226652   1.151   4.929   5.533
 8585SOL     OW26653   0.694   6.231   5.606
 8585SOL    HW126654   0.601   6.267   5.601
 8585SOL    HW226655   0.692   6.136   5.635
 8586SOL     OW26656   2.724   6.484   2.201
 8586SOL    HW126657   2.713   6.580   2.179
 8586SOL    HW226658   2.807   6.471   2.256
 8587SOL     OW26659   1.174   6.820   3.899
 8587SOL    HW126660   1.174   6.722   3.879
 8587SOL    HW226661   1.269   6.852   3.908
 8588SOL     OW26662   2.764   1.273   0.235
 8588SOL    HW126663   2.710   1.240   0.157
 8588SOL    HW226664   2.712   1.261   0.319
 8589SOL     OW26665   4.593   2.897   5.334
 8589SOL    HW126666   4.562   2.989   5.313
 8589SOL    HW226667   4.609   2.887   5.432
 8590SOL     OW26668   6.988   5.989   3.731
 8590SOL    HW126669   6.967   6.051   3.654
 8590SOL    HW226670   6.955   6.030   3.816
 8591SOL     OW26671   0.661   3.944   0.265
 8591SOL    HW126672   0.716   3.934   0.347
 8591SOL    HW226673   0.606   4.027   0.271
 8592SOL     OW26674   6.598   3.165   6.227
 8592SOL    HW126675   6.548   3.093   6.180
 8592SOL    HW226676   6.565   3.254   6.196
 8593SOL     OW26677   2.456   0.668   1.154
 8593SOL    HW126678   2.534   0.618   1.114
 8593SOL    HW226679   2.409   0.718   1.082
 8594SOL     OW26680   4.360   2.277   5.422
 8594SOL    HW126681   4.328   2.195   5.470
 8594SOL    HW226682   4.421   2.328   5.482
 8595SOL     OW26683   0.476   1.953   3.106
 8595SOL    HW126684   0.526   1.988   3.185
 8595SOL    HW226685   0.381   1.987   3.110
 8596SOL     OW26686   0.961   5.540   3.390
 8596SOL    HW126687   1.032   5.476   3.359
 8596SOL    HW226688   0.876   5.521   3.341
 8597SOL     OW26689   3.978   1.744   1.200
 8597SOL    HW126690   3.995   1.705   1.110
 8597SOL    HW226691   3.905   1.692   1.246
 8598SOL     OW26692   5.942   0.188   0.925
 8598SOL    HW126693   5.972   0.111   0.982
 8598SOL    HW226694   5.879   0.245   0.976
 8599SOL     OW26695   0.938   2.809   4.861
 8599SOL    HW126696   0.900   2.722   4.829
 8599SOL    HW226697   0.982   2.796   4.950
 8600SOL     OW26698   5.299   5.119   4.909
 8600SOL    HW126699   5.324   5.049   4.842
 8600SOL    HW226700   5.363   5.116   4.986
 8601SOL     OW26701   1.098   1.207   4.349
 8601SOL    HW126702   1.177   1.196   4.410
 8601SOL    HW226703   1.020   1.242   4.402
 8602SOL     OW26704   2.813   5.036   1.943
 8602SOL    HW126705   2.880   4.966   1.964
 8602SOL    HW226706   2.847   5.095   1.869
 8603SOL     OW26707   4.495   6.073   0.670
 8603SOL    HW126708   4.529   5.997   0.725
 8603SOL    HW226709   4.435   6.131   0.725
 8604SOL     OW26710   0.111   3.065   5.436
 8604SOL    HW126711   0.053   3.051   5.517
 8604SOL    HW226712   0.128   2.977   5.392
 8605SOL     OW26713   2.904   6.498   3.862
 8605SOL    HW126714   2.820   6.551   3.876
 8605SOL    HW226715   2.892   6.406   3.899
 8606SOL     OW26716   1.564   3.738   6.547
 8606SOL    HW126717   1.645   3.705   6.499
 8606SOL    HW226718   1.577   3.834   6.571
 8607SOL     OW26719   3.693   6.103   0.713
 8607SOL    HW126720   3.743   6.188   0.729
 8607SOL    HW226721   3.637   6.081   0.793
 8608SOL     OW26722   3.819   4.870   2.642
 8608SOL    HW126723   3.748   4.860   2.572
 8608SOL    HW226724   3.895   4.924   2.605
 8609SOL     OW26725   4.856   0.725   2.696
 8609SOL    HW126726   4.772   0.767   2.661
 8609SOL    HW226727   4.843   0.700   2.792
 8610SOL     OW26728   1.922   2.419   2.961
 8610SOL    HW126729   2.018   2.391   2.955
 8610SOL    HW226730   1.866   2.341   2.987
 8611SOL     OW26731   2.899   1.220   5.143
 8611SOL    HW126732   2.832   1.159   5.186
 8611SOL    HW226733   2.886   1.313   5.178
 8612SOL     OW26734   3.091   3.224   1.166
 8612SOL    HW126735   3.161   3.186   1.227
 8612SOL    HW226736   3.000   3.200   1.201
 8613SOL     OW26737   2.036   1.896   1.603
 8613SOL    HW126738   2.031   1.985   1.559
 8613SOL    HW226739   2.033   1.907   1.702
 8614SOL     OW26740   0.945   2.492   2.584
 8614SOL    HW126741   1.028   2.441   2.603
 8614SOL    HW226742   0.865   2.436   2.608
 8615SOL     OW26743   4.640   1.440   5.263
 8615SOL    HW126744   4.641   1.537   5.238
 8615SOL    HW226745   4.651   1.384   5.181
 8616SOL     OW26746   3.021   4.593   1.622
 8616SOL    HW126747   3.000   4.541   1.704
 8616SOL    HW226748   2.988   4.687   1.632
 8617SOL     OW26749   6.575   1.122   6.730
 8617SOL    HW126750   6.523   1.182   6.670
 8617SOL    HW226751   6.533   1.032   6.732
 8618SOL     OW26752   5.861   5.880   0.628
 8618SOL    HW126753   5.860   5.952   0.698
 8618SOL    HW226754   5.956   5.857   0.605
 8619SOL     OW26755   3.775   4.912   2.325
 8619SOL    HW126756   3.759   4.918   2.226
 8619SOL    HW226757   3.870   4.934   2.345
 8620SOL     OW26758   1.611   0.688   3.811
 8620SOL    HW126759   1.632   0.590   3.806
 8620SOL    HW226760   1.513   0.700   3.822
 8621SOL     OW26761   5.476   1.838   3.060
 8621SOL    HW126762   5.446   1.770   3.127
 8621SOL    HW226763   5.434   1.926   3.082
 8622SOL     OW26764   5.375   3.545   0.629
 8622SOL    HW126765   5.304   3.591   0.576
 8622SOL    HW226766   5.463   3.557   0.584
 8623SOL     OW26767   1.125   3.805   4.453
 8623SOL    HW126768   1.071   3.887   4.434
 8623SOL    HW226769   1.159   3.809   4.547
 8624SOL     OW26770   1.373   3.839   4.930
 8624SOL    HW126771   1.283   3.847   4.972
 8624SOL    HW226772   1.443   3.831   5.001
 8625SOL     OW26773   4.887   0.758   5.912
 8625SOL    HW126774   4.892   0.789   5.817
 8625SOL    HW226775   4.850   0.665   5.915
 8626SOL     OW26776   3.790   3.301   5.663
 8626SOL    HW126777   3.768   3.234   5.592
 8626SOL    HW226778   3.871   3.354   5.635
 8627SOL     OW26779   1.029   1.459   3.767
 8627SOL    HW126780   1.115   1.439   3.815
 8627SOL    HW226781   1.032   1.419   3.675
 8628SOL     OW26782   6.641   6.515   0.708
 8628SOL    HW126783   6.649   6.453   0.785
 8628SOL    HW226784   6.605   6.603   0.739
 8629SOL     OW26785   1.121   5.721   5.036
 8629SOL    HW126786   1.046   5.730   4.970
 8629SOL    HW226787   1.204   5.690   4.988
 8630SOL     OW26788   5.338   4.343   3.572
 8630SOL    HW126789   5.380   4.411   3.512
 8630SOL    HW226790   5.353   4.369   3.667
 8631SOL     OW26791   0.861   5.063   6.159
 8631SOL    HW126792   0.906   4.978   6.134
 8631SOL    HW226793   0.766   5.061   6.128
 8632SOL     OW26794   3.602   5.528   4.140
 8632SOL    HW126795   3.587   5.618   4.181
 8632SOL    HW226796   3.630   5.540   4.044
 8633SOL     OW26797   5.423   1.595   5.806
 8633SOL    HW126798   5.357   1.591   5.731
 8633SOL    HW226799   5.407   1.519   5.869
 8634SOL     OW26800   5.171   3.794   0.723
 8634SOL    HW126801   5.218   3.841   0.798
 8634SOL    HW226802   5.102   3.732   0.761
 8635SOL     OW26803   5.338   4.279   6.258
 8635SOL    HW126804   5.242   4.253   6.263
 8635SOL    HW226805   5.394   4.198   6.246
 8636SOL     OW26806   5.024   5.520   0.709
 8636SOL    HW126807   5.031   5.454   0.783
 8636SOL    HW226808   4.948   5.583   0.727
 8637SOL     OW26809   2.026   1.368   0.208
 8637SOL    HW126810   2.018   1.276   0.169
 8637SOL    HW226811   1.936   1.400   0.237
 8638SOL     OW26812   2.692   3.130   5.575
 8638SOL    HW126813   2.611   3.188   5.561
 8638SOL    HW226814   2.773   3.188   5.586
 8639SOL     OW26815   5.574   2.542   1.038
 8639SOL    HW126816   5.674   2.541   1.030
 8639SOL    HW226817   5.534   2.570   0.951
 8640SOL     OW26818   4.526   3.793   6.926
 8640SOL    HW126819   4.545   3.884   6.964
 8640SOL    HW226820   4.601   3.765   6.867
 8641SOL     OW26821   5.126   4.747   4.131
 8641SOL    HW126822   5.159   4.809   4.202
 8641SOL    HW226823   5.173   4.767   4.045
 8642SOL     OW26824   1.916   6.221   3.115
 8642SOL    HW126825   1.958   6.204   3.025
 8642SOL    HW226826   1.948   6.153   3.180
 8643SOL     OW26827   3.101   0.015   6.664
 8643SOL    HW126828   3.026   0.077   6.689
 8643SOL    HW226829   3.089   6.954   6.713
 8644SOL     OW26830   5.353   2.308   5.205
 8644SOL    HW126831   5.317   2.371   5.136
 8644SOL    HW226832   5.301   2.222   5.201
 8645SOL     OW26833   4.543   4.516   1.450
 8645SOL    HW126834   4.535   4.509   1.351
 8645SOL    HW226835   4.627   4.471   1.481
 8646SOL     OW26836   6.652   1.664   1.528
 8646SOL    HW126837   6.684   1.758   1.521
 8646SOL    HW226838   6.568   1.660   1.581
 8647SOL     OW26839   3.020   5.476   6.590
 8647SOL    HW126840   2.971   5.547   6.640
 8647SOL    HW226841   3.088   5.434   6.650
 8648SOL     OW26842   6.489   0.663   3.262
 8648SOL    HW126843   6.414   0.728   3.253
 8648SOL    HW226844   6.572   0.701   3.221
 8649SOL     OW26845   5.379   5.289   6.100
 8649SOL    HW126846   5.430   5.249   6.024
 8649SOL    HW226847   5.421   5.377   6.126
 8650SOL     OW26848   2.349   5.144   4.790
 8650SOL    HW126849   2.251   5.161   4.783
 8650SOL    HW226850   2.365   5.047   4.812
 8651SOL     OW26851   3.696   0.166   0.061
 8651SOL    HW126852   3.710   0.119   6.999
 8651SOL    HW226853   3.603   0.203   0.064
 8652SOL     OW26854   1.799   4.765   4.050
 8652SOL    HW126855   1.804   4.774   4.150
 8652SOL    HW226856   1.892   4.762   4.013
 8653SOL     OW26857   5.681   0.212   6.244
 8653SOL    HW126858   5.702   0.305   6.213
 8653SOL    HW226859   5.690   0.207   6.343
 8654SOL     OW26860   1.007   4.911   1.548
 8654SOL    HW126861   1.047   4.880   1.461
 8654SOL    HW226862   0.919   4.956   1.529
 8655SOL     OW26863   0.104   1.460   4.080
 8655SOL    HW126864   0.025   1.406   4.051
 8655SOL    HW226865   0.091   1.492   4.174
 8656SOL     OW26866   6.526   0.420   1.168
 8656SOL    HW126867   6.616   0.381   1.151
 8656SOL    HW226868   6.536   0.516   1.195
 8657SOL     OW26869   5.523   4.500   0.537
 8657SOL    HW126870   5.513   4.593   0.573
 8657SOL    HW226871   5.547   4.438   0.611
 8658SOL     OW26872   5.565   6.594   0.167
 8658SOL    HW126873   5.518   6.597   0.255
 8658SOL    HW226874   5.526   6.522   0.110
 8659SOL     OW26875   4.633   1.785   2.597
 8659SOL    HW126876   4.733   1.786   2.597
 8659SOL    HW226877   4.600   1.732   2.519
 8660SOL     OW26878   6.639   4.398   2.044
 8660SOL    HW126879   6.614   4.333   1.972
 8660SOL    HW226880   6.556   4.434   2.087
 8661SOL     OW26881   6.120   3.814   1.103
 8661SOL    HW126882   6.197   3.750   1.116
 8661SOL    HW226883   6.118   3.879   1.179
 8662SOL     OW26884   4.493   5.323   1.372
 8662SOL    HW126885   4.411   5.298   1.423
 8662SOL    HW226886   4.574   5.299   1.425
 8663SOL     OW26887   3.589   6.100   1.526
 8663SOL    HW126888   3.517   6.148   1.577
 8663SOL    HW226889   3.549   6.024   1.475
 8664SOL     OW26890   1.473   6.064   0.726
 8664SOL    HW126891   1.522   6.142   0.687
 8664SOL    HW226892   1.484   6.063   0.825
 8665SOL     OW26893   5.452   6.376   4.792
 8665SOL    HW126894   5.449   6.327   4.879
 8665SOL    HW226895   5.362   6.377   4.750
 8666SOL     OW26896   5.078   1.647   3.774
 8666SOL    HW126897   5.107   1.551   3.783
 8666SOL    HW226898   4.986   1.651   3.734
 8667SOL     OW26899   4.273   2.352   2.963
 8667SOL    HW126900   4.321   2.296   2.896
 8667SOL    HW226901   4.339   2.400   3.020
 8668SOL     OW26902   4.895   3.570   3.081
 8668SOL    HW126903   4.886   3.498   3.013
 8668SOL    HW226904   4.865   3.536   3.170
 8669SOL     OW26905   1.727   6.631   6.390
 8669SOL    HW126906   1.717   6.730   6.387
 8669SOL    HW226907   1.808   6.604   6.337
 8670SOL     OW26908   3.986   4.065   5.214
 8670SOL    HW126909   4.048   4.011   5.271
 8670SOL    HW226910   3.970   4.154   5.256
 8671SOL     OW26911   5.100   1.415   2.466
 8671SOL    HW126912   5.180   1.475   2.477
 8671SOL    HW226913   5.131   1.324   2.440
 8672SOL     OW26914   1.518   5.011   4.586
 8672SOL    HW126915   1.508   4.913   4.599
 8672SOL    HW226916   1.579   5.029   4.508
 8673SOL     OW26917   6.280   2.875   0.034
 8673SOL    HW126918   6.366   2.925   0.039
 8673SOL    HW226919   6.273   2.829   6.971
 8674SOL     OW26920   5.726   5.932   3.218
 8674SOL    HW126921   5.742   5.857   3.282
 8674SOL    HW226922   5.696   6.013   3.269
 8675SOL     OW26923   3.120   2.221   4.007
 8675SOL    HW126924   3.125   2.186   4.100
 8675SOL    HW226925   3.043   2.285   3.999
 8676SOL     OW26926   4.615   0.097   2.286
 8676SOL    HW126927   4.587   0.190   2.261
 8676SOL    HW226928   4.644   0.095   2.382
 8677SOL     OW26929   2.184   5.590   5.896
 8677SOL    HW126930   2.142   5.680   5.884
 8677SOL    HW226931   2.113   5.524   5.922
 8678SOL     OW26932   0.020   0.342   1.884
 8678SOL    HW126933   0.083   0.395   1.827
 8678SOL    HW226934   6.975   0.302   1.826
 8679SOL     OW26935   6.942   2.082   3.300
 8679SOL    HW126936   6.991   2.030   3.370
 8679SOL    HW226937   6.923   2.174   3.336
 8680SOL     OW26938   0.897   3.767   0.736
 8680SOL    HW126939   0.831   3.841   0.721
 8680SOL    HW226940   0.988   3.806   0.752
 8681SOL     OW26941   4.941   5.212   0.517
 8681SOL    HW126942   4.987   5.182   0.433
 8681SOL    HW226943   4.922   5.310   0.511
 8682SOL     OW26944   4.927   6.338   2.246
 8682SOL    HW126945   4.827   6.346   2.238
 8682SOL    HW226946   4.957   6.378   2.332
 8683SOL     OW26947   1.518   2.126   3.697
 8683SOL    HW126948   1.523   2.219   3.733
 8683SOL    HW226949   1.422   2.099   3.687
 8684SOL     OW26950   6.744   2.930   5.180
 8684SOL    HW126951   6.704   2.859   5.238
 8684SOL    HW226952   6.794   2.888   5.105
 8685SOL     OW26953   0.650   1.722   6.364
 8685SOL    HW126954   0.634   1.821   6.368
 8685SOL    HW226955   0.612   1.686   6.279
 8686SOL     OW26956   7.020   1.668   2.526
 8686SOL    HW126957   0.074   1.613   2.548
 8686SOL    HW226958   0.005   1.760   2.563
 8687SOL     OW26959   4.816   4.715   1.387
 8687SOL    HW126960   4.796   4.619   1.405
 8687SOL    HW226961   4.915   4.730   1.392
 8688SOL     OW26962   2.417   5.327   6.972
 8688SOL    HW126963   2.345   5.262   6.948
 8688SOL    HW226964   2.379   5.400   0.002
 8689SOL     OW26965   3.900   3.887   1.631
 8689SOL    HW126966   3.878   3.843   1.544
 8689SOL    HW226967   3.994   3.863   1.658
 8690SOL     OW26968   1.610   3.831   3.483
 8690SOL    HW126969   1.534   3.842   3.547
 8690SOL    HW226970   1.574   3.818   3.391
 8691SOL     OW26971   2.738   1.542   5.732
 8691SOL    HW126972   2.743   1.491   5.647
 8691SOL    HW226973   2.644   1.573   5.747
 8692SOL     OW26974   2.521   1.511   4.941
 8692SOL    HW126975   2.594   1.483   4.879
 8692SOL    HW226976   2.435   1.468   4.914
 8693SOL     OW26977   5.992   0.884   0.308
 8693SOL    HW126978   6.036   0.882   0.219
 8693SOL    HW226979   6.059   0.906   0.379
 8694SOL     OW26980   4.712   0.991   5.214
 8694SOL    HW126981   4.748   1.069   5.162
 8694SOL    HW226982   4.619   0.971   5.184
 8695SOL     OW26983   3.854   3.167   6.020
 8695SOL    HW126984   3.928   3.209   5.967
 8695SOL    HW226985   3.769   3.171   5.968
 8696SOL     OW26986   1.991   4.904   6.705
 8696SOL    HW126987   2.060   4.972   6.730
 8696SOL    HW226988   2.026   4.847   6.630
 8697SOL     OW26989   6.814   2.995   6.304
 8697SOL    HW126990   6.822   3.034   6.396
 8697SOL    HW226991   6.720   2.966   6.289
 8698SOL     OW26992   5.363   6.440   5.651
 8698SOL    HW126993   5.381   6.527   5.605
 8698SOL    HW226994   5.414   6.367   5.606
 8699SOL     OW26995   1.635   2.713   5.345
 8699SOL    HW126996   1.576   2.719   5.265
 8699SOL    HW226997   1.731   2.720   5.317
 8700SOL     OW26998   0.847   1.079   4.124
 8700SOL    HW126999   0.803   1.105   4.210
 8700SOL    HW227000   0.944   1.102   4.128
 8701SOL     OW27001   0.946   0.968   0.611
 8701SOL    HW127002   0.919   1.028   0.536
 8701SOL    HW227003   1.046   0.958   0.611
 8702SOL     OW27004   5.649   5.026   2.056
 8702SOL    HW127005   5.579   5.070   1.999
 8702SOL    HW227006   5.729   5.004   2.000
 8703SOL     OW27007   2.838   4.894   6.338
 8703SOL    HW127008   2.926   4.847   6.326
 8703SOL    HW227009   2.855   4.990   6.362
 8704SOL     OW27010   0.273   3.719   3.395
 8704SOL    HW127011   0.344   3.747   3.460
 8704SOL    HW227012   0.305   3.639   3.344
 8705SOL     OW27013   5.743   1.457   6.274
 8705SOL    HW127014   5.839   1.481   6.293
 8705SOL    HW227015   5.691   1.541   6.261
 8706SOL     OW27016   4.605   1.782   0.038
 8706SOL    HW127017   4.540   1.842   0.085
 8706SOL    HW227018   4.672   1.747   0.103
 8707SOL     OW27019   6.863   1.489   6.360
 8707SOL    HW127020   6.870   1.390   6.373
 8707SOL    HW227021   6.910   1.536   6.435
 8708SOL     OW27022   4.401   2.070   2.872
 8708SOL    HW127023   4.303   2.076   2.886
 8708SOL    HW227024   4.420   2.044   2.777
 8709SOL     OW27025   6.857   6.860   0.143
 8709SOL    HW127026   6.923   6.792   0.111
 8709SOL    HW227027   6.906   6.935   0.189
 8710SOL     OW27028   2.036   3.430   3.855
 8710SOL    HW127029   2.091   3.362   3.806
 8710SOL    HW227030   2.097   3.488   3.910
 8711SOL     OW27031   1.731   6.984   3.117
 8711SOL    HW127032   1.671   7.025   3.049
 8711SOL    HW227033   1.766   6.896   3.083
 8712SOL     OW27034   3.961   2.083   4.816
 8712SOL    HW127035   3.907   2.057   4.736
 8712SOL    HW227036   3.900   2.101   4.894
 8713SOL     OW27037   6.369   3.228   3.881
 8713SOL    HW127038   6.463   3.246   3.851
 8713SOL    HW227039   6.364   3.136   3.920
 8714SOL     OW27040   0.658   0.439   6.040
 8714SOL    HW127041   0.670   0.490   6.126
 8714SOL    HW227042   0.596   0.362   6.055
 8715SOL     OW27043   4.732   0.173   0.665
 8715SOL    HW127044   4.765   0.115   0.739
 8715SOL    HW227045   4.706   0.115   0.587
 8716SOL     OW27046   6.864   6.869   1.555
 8716SOL    HW127047   6.820   6.779   1.545
 8716SOL    HW227048   6.796   6.941   1.542
 8717SOL     OW27049   3.064   3.211   4.351
 8717SOL    HW127050   3.072   3.112   4.359
 8717SOL    HW227051   3.151   3.249   4.319
 8718SOL     OW27052   1.480   4.115   5.127
 8718SOL    HW127053   1.480   4.085   5.222
 8718SOL    HW227054   1.536   4.053   5.072
 8719SOL     OW27055   3.501   0.530   6.663
 8719SOL    HW127056   3.593   0.500   6.636
 8719SOL    HW227057   3.445   0.541   6.581
 8720SOL     OW27058   6.811   5.288   5.796
 8720SOL    HW127059   6.793   5.379   5.759
 8720SOL    HW227060   6.854   5.231   5.726
 8721SOL     OW27061   6.670   3.242   2.102
 8721SOL    HW127062   6.762   3.252   2.139
 8721SOL    HW227063   6.625   3.165   2.147
 8722SOL     OW27064   3.934   1.439   6.918
 8722SOL    HW127065   3.847   1.472   6.882
 8722SOL    HW227066   3.982   1.387   6.847
 8723SOL     OW27067   5.422   5.971   1.183
 8723SOL    HW127068   5.338   5.937   1.140
 8723SOL    HW227069   5.498   5.910   1.161
 8724SOL     OW27070   4.756   6.964   5.194
 8724SOL    HW127071   4.758   6.967   5.294
 8724SOL    HW227072   4.736   6.871   5.164
 8725SOL     OW27073   1.845   6.117   6.179
 8725SOL    HW127074   1.758   6.165   6.166
 8725SOL    HW227075   1.829   6.031   6.226
 8726SOL     OW27076   6.898   1.194   3.299
 8726SOL    HW127077   6.918   1.184   3.201
 8726SOL    HW227078   6.973   1.156   3.352
 8727SOL     OW27079   6.301   6.569   2.051
 8727SOL    HW127080   6.308   6.498   1.981
 8727SOL    HW227081   6.212   6.564   2.095
 8728SOL     OW27082   6.404   0.836   2.339
 8728SOL    HW127083   6.379   0.821   2.243
 8728SOL    HW227084   6.324   0.868   2.389
 8729SOL     OW27085   4.146   6.051   4.913
 8729SOL    HW127086   4.123   6.025   5.007
 8729SOL    HW227087   4.105   5.986   4.849
 8730SOL     OW27088   6.544   4.418   2.731
 8730SOL    HW127089   6.491   4.366   2.663
 8730SOL    HW227090   6.569   4.357   2.806
 8731SOL     OW27091   1.818   2.455   2.715
 8731SOL    HW127092   1.840   2.380   2.652
 8731SOL    HW227093   1.844   2.430   2.808
 8732SOL     OW27094   6.156   5.112   1.775
 8732SOL    HW127095   6.239   5.159   1.745
 8732SOL    HW227096   6.140   5.032   1.718
 8733SOL     OW27097   1.488   5.339   1.550
 8733SOL    HW127098   1.465   5.434   1.570
 8733SOL    HW227099   1.583   5.333   1.521
 8734SOL     OW27100   1.256   4.221   2.190
 8734SOL    HW127101   1.207   4.285   2.131
 8734SOL    HW227102   1.351   4.212   2.159
 8735SOL     OW27103   1.218   2.525   0.691
 8735SOL    HW127104   1.290   2.535   0.760
 8735SOL    HW227105   1.246   2.569   0.606
 8736SOL     OW27106   0.372   5.586   6.745
 8736SOL    HW127107   0.314   5.508   6.725
 8736SOL    HW227108   0.321   5.671   6.731
 8737SOL     OW27109   1.769   6.392   6.781
 8737SOL    HW127110   1.721   6.462   6.729
 8737SOL    HW227111   1.862   6.422   6.799
 8738SOL     OW27112   2.724   5.643   4.562
 8738SOL    HW127113   2.817   5.680   4.561
 8738SOL    HW227114   2.716   5.574   4.634
 8739SOL     OW27115   5.483   5.490   6.266
 8739SOL    HW127116   5.554   5.469   6.334
 8739SOL    HW227117   5.525   5.535   6.187
 8740SOL     OW27118   4.961   1.190   4.679
 8740SOL    HW127119   4.973   1.225   4.586
 8740SOL    HW227120   5.024   1.114   4.694
 8741SOL     OW27121   2.811   1.442   2.842
 8741SOL    HW127122   2.839   1.501   2.767
 8741SOL    HW227123   2.798   1.349   2.808
 8742SOL     OW27124   5.915   5.982   1.660
 8742SOL    HW127125   5.925   5.971   1.561
 8742SOL    HW227126   5.900   5.893   1.703
 8743SOL     OW27127   1.391   0.082   2.333
 8743SOL    HW127128   1.443   0.052   2.253
 8743SOL    HW227129   1.340   0.004   2.371
 8744SOL     OW27130   3.900   2.738   6.376
 8744SOL    HW127131   3.998   2.747   6.357
 8744SOL    HW227132   3.868   2.649   6.345
 8745SOL     OW27133   6.206   2.689   6.798
 8745SOL    HW127134   6.298   2.653   6.781
 8745SOL    HW227135   6.182   2.754   6.726
 8746SOL     OW27136   4.977   5.322   4.263
 8746SOL    HW127137   5.038   5.272   4.202
 8746SOL    HW227138   5.027   5.350   4.345
 8747SOL     OW27139   0.866   2.915   3.007
 8747SOL    HW127140   0.897   2.887   3.098
 8747SOL    HW227141   0.820   3.004   3.015
 8748SOL     OW27142   6.307   1.520   4.901
 8748SOL    HW127143   6.406   1.526   4.893
 8748SOL    HW227144   6.265   1.599   4.854
 8749SOL     OW27145   2.721   0.537   5.010
 8749SOL    HW127146   2.659   0.587   4.950
 8749SOL    HW227147   2.701   0.439   5.004
 8750SOL     OW27148   3.247   3.871   5.164
 8750SOL    HW127149   3.278   3.843   5.255
 8750SOL    HW227150   3.149   3.891   5.167
 8751SOL     OW27151   5.492   1.299   2.356
 8751SOL    HW127152   5.471   1.202   2.344
 8751SOL    HW227153   5.586   1.309   2.390
 8752SOL     OW27154   3.004   3.323   0.324
 8752SOL    HW127155   3.015   3.346   0.227
 8752SOL    HW227156   2.953   3.397   0.369
 8753SOL     OW27157   4.296   2.251   5.978
 8753SOL    HW127158   4.209   2.222   5.938
 8753SOL    HW227159   4.342   2.314   5.916
 8754SOL     OW27160   1.825   3.174   5.749
 8754SOL    HW127161   1.823   3.259   5.802
 8754SOL    HW227162   1.822   3.096   5.812
 8755SOL     OW27163   1.822   0.556   0.537
 8755SOL    HW127164   1.759   0.587   0.608
 8755SOL    HW227165   1.906   0.524   0.578
 8756SOL     OW27166   0.719   2.948   3.877
 8756SOL    HW127167   0.632   2.995   3.860
 8756SOL    HW227168   0.720   2.913   3.971
 8757SOL     OW27169   4.079   5.654   6.453
 8757SOL    HW127170   4.169   5.633   6.493
 8757SOL    HW227171   4.015   5.580   6.474
 8758SOL     OW27172   5.393   5.931   2.052
 8758SOL    HW127173   5.361   5.897   2.140
 8758SOL    HW227174   5.473   5.879   2.023
 8759SOL     OW27175   4.656   2.533   0.165
 8759SOL    HW127176   4.695   2.481   0.240
 8759SOL    HW227177   4.711   2.518   0.082
 8760SOL     OW27178   2.288   0.984   5.241
 8760SOL    HW127179   2.334   1.062   5.198
 8760SOL    HW227180   2.329   0.900   5.208
 8761SOL     OW27181   6.087   1.764   1.873
 8761SOL    HW127182   6.185   1.779   1.887
 8761SOL    HW227183   6.047   1.845   1.830
 8762SOL     OW27184   1.659   4.038   3.022
 8762SOL    HW127185   1.733   4.069   3.082
 8762SOL    HW227186   1.581   4.100   3.030
 8763SOL     OW27187   6.938   6.559   5.970
 8763SOL    HW127188   6.947   6.485   5.903
 8763SOL    HW227189   6.995   6.636   5.942
 8764SOL     OW27190   4.884   0.707   4.825
 8764SOL    HW127191   4.971   0.756   4.835
 8764SOL    HW227192   4.869   0.686   4.728
 8765SOL     OW27193   4.973   6.793   3.506
 8765SOL    HW127194   4.945   6.876   3.553
 8765SOL    HW227195   4.892   6.740   3.481
 8766SOL     OW27196   4.710   4.466   3.796
 8766SOL    HW127197   4.686   4.522   3.716
 8766SOL    HW227198   4.727   4.372   3.766
 8767SOL     OW27199   4.982   5.541   2.982
 8767SOL    HW127200   5.016   5.448   2.996
 8767SOL    HW227201   4.883   5.543   2.991
 8768SOL     OW27202   1.243   2.297   0.511
 8768SOL    HW127203   1.195   2.369   0.561
 8768SOL    HW227204   1.338   2.323   0.497
 8769SOL     OW27205   6.998   0.713   4.268
 8769SOL    HW127206   6.919   0.696   4.209
 8769SOL    HW227207   0.047   0.652   4.243
 8770SOL     OW27208   4.644   4.439   2.432
 8770SOL    HW127209   4.621   4.401   2.342
 8770SOL    HW227210   4.715   4.384   2.474
 8771SOL     OW27211   1.017   1.482   6.533
 8771SOL    HW127212   1.112   1.464   6.556
 8771SOL    HW227213   0.965   1.396   6.540
 8772SOL     OW27214   5.205   0.700   5.984
 8772SOL    HW127215   5.241   0.607   5.985
 8772SOL    HW227216   5.105   0.697   5.986
 8773SOL     OW27217   4.404   2.460   3.496
 8773SOL    HW127218   4.479   2.525   3.483
 8773SOL    HW227219   4.356   2.447   3.410
 8774SOL     OW27220   1.171   0.823   0.073
 8774SOL    HW127221   1.089   0.821   0.131
 8774SOL    HW227222   1.246   0.777   0.120
 8775SOL     OW27223   5.823   6.911   5.255
 8775SOL    HW127224   5.731   6.911   5.293
 8775SOL    HW227225   5.859   7.004   5.253
 8776SOL     OW27226   3.648   2.610   6.635
 8776SOL    HW127227   3.631   2.515   6.606
 8776SOL    HW227228   3.722   2.611   6.702
 8777SOL     OW27229   0.221   4.120   2.382
 8777SOL    HW127230   0.258   4.062   2.309
 8777SOL    HW227231   0.280   4.200   2.394
 8778SOL     OW27232   5.159   2.786   5.198
 8778SOL    HW127233   5.226   2.752   5.265
 8778SOL    HW227234   5.191   2.873   5.161
 8779SOL     OW27235   2.927   5.267   2.400
 8779SOL    HW127236   2.851   5.206   2.420
 8779SOL    HW227237   2.966   5.245   2.311
 8780SOL     OW27238   1.028   6.198   2.576
 8780SOL    HW127239   0.952   6.134   2.572
 8780SOL    HW227240   1.109   6.152   2.612
 8781SOL     OW27241   5.584   1.323   3.282
 8781SOL    HW127242   5.605   1.337   3.378
 8781SOL    HW227243   5.564   1.411   3.239
 8782SOL     OW27244   6.462   6.344   1.583
 8782SOL    HW127245   6.418   6.281   1.519
 8782SOL    HW227246   6.403   6.425   1.594
 8783SOL     OW27247   6.373   4.501   3.442
 8783SOL    HW127248   6.438   4.449   3.387
 8783SOL    HW227249   6.309   4.549   3.382
 8784SOL     OW27250   6.595   3.860   6.133
 8784SOL    HW127251   6.645   3.876   6.047
 8784SOL    HW227252   6.573   3.763   6.141
 8785SOL     OW27253   5.685   3.843   0.138
 8785SOL    HW127254   5.734   3.905   0.199
 8785SOL    HW227255   5.743   3.764   0.118
 8786SOL     OW27256   2.265   0.299   0.608
 8786SOL    HW127257   2.350   0.324   0.654
 8786SOL    HW227258   2.280   0.296   0.509
 8787SOL     OW27259   3.675   2.120   1.394
 8787SOL    HW127260   3.774   2.115   1.402
 8787SOL    HW227261   3.635   2.152   1.480
 8788SOL     OW27262   6.614   1.670   5.965
 8788SOL    HW127263   6.540   1.658   5.899
 8788SOL    HW227264   6.679   1.594   5.957
 8789SOL     OW27265   6.470   6.917   4.931
 8789SOL    HW127266   6.385   6.956   4.966
 8789SOL    HW227267   6.525   6.990   4.890
 8790SOL     OW27268   0.669   0.558   6.692
 8790SOL    HW127269   0.657   0.489   6.622
 8790SOL    HW227270   0.704   0.516   6.776
 8791SOL     OW27271   5.350   6.737   4.911
 8791SOL    HW127272   5.269   6.679   4.915
 8791SOL    HW227273   5.388   6.748   5.003
 8792SOL     OW27274   2.334   6.274   3.067
 8792SOL    HW127275   2.430   6.289   3.090
 8792SOL    HW227276   2.321   6.180   3.036
 8793SOL     OW27277   1.295   4.295   3.100
 8793SOL    HW127278   1.206   4.279   3.142
 8793SOL    HW227279   1.331   4.209   3.064
 8794SOL     OW27280   5.109   0.069   2.537
 8794SOL    HW127281   5.121   0.089   2.634
 8794SOL    HW227282   5.071   0.149   2.491
 8795SOL     OW27283   1.519   5.373   5.369
 8795SOL    HW127284   1.456   5.298   5.349
 8795SOL    HW227285   1.468   5.449   5.409
 8796SOL     OW27286   3.809   1.993   4.614
 8796SOL    HW127287   3.805   1.915   4.551
 8796SOL    HW227288   3.724   2.045   4.608
 8797SOL     OW27289   6.767   7.009   6.972
 8797SOL    HW127290   6.672   6.976   6.974
 8797SOL    HW227291   6.819   6.963   0.017
 8798SOL     OW27292   4.856   5.717   6.070
 8798SOL    HW127293   4.811   5.792   6.118
 8798SOL    HW227294   4.887   5.749   5.980
 8799SOL     OW27295   2.561   4.638   3.632
 8799SOL    HW127296   2.651   4.641   3.674
 8799SOL    HW227297   2.524   4.731   3.624
 8800SOL     OW27298   6.164   3.954   5.532
 8800SOL    HW127299   6.230   4.028   5.548
 8800SOL    HW227300   6.071   3.990   5.541
 8801SOL     OW27301   6.871   1.251   4.960
 8801SOL    HW127302   6.870   1.346   4.992
 8801SOL    HW227303   6.895   1.191   5.035
 8802SOL     OW27304   2.010   6.741   0.219
 8802SOL    HW127305   2.020   6.735   0.319
 8802SOL    HW227306   1.916   6.766   0.197
 8803SOL     OW27307   6.617   6.257   7.008
 8803SOL    HW127308   6.552   6.325   6.974
 8803SOL    HW227309   6.603   6.243   0.080
 8804SOL     OW27310   2.467   6.393   2.218
 8804SOL    HW127311   2.565   6.405   2.232
 8804SOL    HW227312   2.419   6.478   2.237
 8805SOL     OW27313   2.711   6.484   4.132
 8805SOL    HW127314   2.620   6.482   4.173
 8805SOL    HW227315   2.727   6.573   4.089
 8806SOL     OW27316   3.153   5.474   2.447
 8806SOL    HW127317   3.090   5.509   2.516
 8806SOL    HW227318   3.142   5.525   2.362
 8807SOL     OW27319   5.056   0.474   0.358
 8807SOL    HW127320   4.975   0.501   0.307
 8807SOL    HW227321   5.130   0.538   0.340
 8808SOL     OW27322   5.855   2.907   6.905
 8808SOL    HW127323   5.770   2.865   6.873
 8808SOL    HW227324   5.912   2.837   6.949
 8809SOL     OW27325   5.134   5.812   3.465
 8809SOL    HW127326   5.144   5.714   3.444
 8809SOL    HW227327   5.223   5.856   3.463
 8810SOL     OW27328   6.172   0.907   5.226
 8810SOL    HW127329   6.188   0.839   5.297
 8810SOL    HW227330   6.174   0.863   5.136
 8811SOL     OW27331   3.089   0.911   2.611
 8811SOL    HW127332   3.187   0.891   2.609
 8811SOL    HW227333   3.076   1.007   2.637
 8812SOL     OW27334   1.755   0.427   0.926
 8812SOL    HW127335   1.753   0.480   1.011
 8812SOL    HW227336   1.766   0.490   0.848
 8813SOL     OW27337   2.275   4.640   1.586
 8813SOL    HW127338   2.338   4.695   1.640
 8813SOL    HW227339   2.211   4.700   1.538
 8814SOL     OW27340   5.467   0.070   1.440
 8814SOL    HW127341   5.415   0.030   1.516
 8814SOL    HW227342   5.538   0.130   1.476
 8815SOL     OW27343   5.754   0.301   1.070
 8815SOL    HW127344   5.798   0.308   1.159
 8815SOL    HW227345   5.675   0.362   1.067
 8816SOL     OW27346   1.186   6.221   0.102
 8816SOL    HW127347   1.129   6.235   0.183
 8816SOL    HW227348   1.181   6.301   0.043
 8817SOL     OW27349   0.177   5.165   3.804
 8817SOL    HW127350   0.271   5.157   3.835
 8817SOL    HW227351   0.166   5.249   3.751
 8818SOL     OW27352   0.429   4.636   4.357
 8818SOL    HW127353   0.376   4.560   4.319
 8818SOL    HW227354   0.460   4.696   4.283
 8819SOL     OW27355   5.846   5.238   5.267
 8819SOL    HW127356   5.817   5.334   5.264
 8819SOL    HW227357   5.802   5.192   5.344
 8820SOL     OW27358   2.251   0.362   5.040
 8820SOL    HW127359   2.344   0.382   5.010
 8820SOL    HW227360   2.211   0.444   5.081
 8821SOL     OW27361   1.507   6.097   0.996
 8821SOL    HW127362   1.459   6.135   1.075
 8821SOL    HW227363   1.584   6.042   1.027
 8822SOL     OW27364   0.889   6.761   4.476
 8822SOL    HW127365   0.869   6.821   4.553
 8822SOL    HW227366   0.890   6.666   4.507
 8823SOL     OW27367   2.550   0.983   2.470
 8823SOL    HW127368   2.572   1.064   2.526
 8823SOL    HW227369   2.476   1.006   2.407
 8824SOL     OW27370   1.105   2.055   0.654
 8824SOL    HW127371   1.176   2.037   0.586
 8824SOL    HW227372   1.144   2.052   0.746
 8825SOL     OW27373   2.478   1.500   1.717
 8825SOL    HW127374   2.534   1.448   1.781
 8825SOL    HW227375   2.415   1.559   1.768
 8826SOL     OW27376   6.812   3.338   0.235
 8826SOL    HW127377   6.832   3.278   0.312
 8826SOL    HW227378   6.877   3.414   0.233
 8827SOL     OW27379   4.114   1.873   2.068
 8827SOL    HW127380   4.147   1.933   2.140
 8827SOL    HW227381   4.177   1.796   2.057
 8828SOL     OW27382   4.435   6.088   5.598
 8828SOL    HW127383   4.374   6.009   5.607
 8828SOL    HW227384   4.404   6.160   5.660
 8829SOL     OW27385   5.247   3.181   0.825
 8829SOL    HW127386   5.342   3.191   0.794
 8829SOL    HW227387   5.232   3.089   0.859
 8830SOL     OW27388   1.692   1.935   2.888
 8830SOL    HW127389   1.652   1.911   2.976
 8830SOL    HW227390   1.763   1.869   2.864
 8831SOL     OW27391   3.923   2.191   4.221
 8831SOL    HW127392   4.002   2.212   4.165
 8831SOL    HW227393   3.952   2.146   4.306
 8832SOL     OW27394   0.342   6.455   3.003
 8832SOL    HW127395   0.376   6.436   3.095
 8832SOL    HW227396   0.410   6.428   2.935
 8833SOL     OW27397   2.595   5.225   5.789
 8833SOL    HW127398   2.543   5.248   5.871
 8833SOL    HW227399   2.534   5.223   5.710
 8834SOL     OW27400   5.456   4.102   4.533
 8834SOL    HW127401   5.429   4.193   4.502
 8834SOL    HW227402   5.438   4.094   4.631
 8835SOL     OW27403   5.031   1.210   5.435
 8835SOL    HW127404   5.010   1.114   5.418
 8835SOL    HW227405   4.946   1.263   5.437
 8836SOL     OW27406   5.048   2.392   0.723
 8836SOL    HW127407   5.015   2.322   0.786
 8836SOL    HW227408   5.123   2.355   0.668
 8837SOL     OW27409   0.282   6.348   2.310
 8837SOL    HW127410   0.212   6.322   2.376
 8837SOL    HW227411   0.305   6.445   2.322
 8838SOL     OW27412   2.151   5.350   3.509
 8838SOL    HW127413   2.162   5.262   3.555
 8838SOL    HW227414   2.061   5.388   3.530
 8839SOL     OW27415   5.881   5.360   2.396
 8839SOL    HW127416   5.863   5.269   2.358
 8839SOL    HW227417   5.913   5.421   2.323
 8840SOL     OW27418   0.022   1.972   2.498
 8840SOL    HW127419   7.004   2.059   2.475
 8840SOL    HW227420   0.037   1.968   2.597
 8841SOL     OW27421   0.849   0.812   5.024
 8841SOL    HW127422   0.873   0.882   4.958
 8841SOL    HW227423   0.870   0.722   4.986
 8842SOL     OW27424   3.260   2.907   2.667
 8842SOL    HW127425   3.251   2.809   2.651
 8842SOL    HW227426   3.342   2.925   2.722
 8843SOL     OW27427   1.838   3.655   5.398
 8843SOL    HW127428   1.828   3.577   5.337
 8843SOL    HW227429   1.907   3.635   5.468
 8844SOL     OW27430   0.216   1.304   6.242
 8844SOL    HW127431   0.180   1.350   6.160
 8844SOL    HW227432   0.264   1.371   6.299
 8845SOL     OW27433   3.527   3.300   0.884
 8845SOL    HW127434   3.430   3.278   0.873
 8845SOL    HW227435   3.544   3.334   0.977
 8846SOL     OW27436   3.723   5.518   3.916
 8846SOL    HW127437   3.819   5.527   3.945
 8846SOL    HW227438   3.719   5.468   3.830
 8847SOL     OW27439   2.652   0.879   3.091
 8847SOL    HW127440   2.655   0.979   3.088
 8847SOL    HW227441   2.573   0.850   3.145
 8848SOL     OW27442   2.697   2.094   2.400
 8848SOL    HW127443   2.768   2.035   2.360
 8848SOL    HW227444   2.719   2.113   2.496
 8849SOL     OW27445   2.855   6.785   3.393
 8849SOL    HW127446   2.832   6.731   3.474
 8849SOL    HW227447   2.828   6.880   3.408
 8850SOL     OW27448   1.040   1.641   6.984
 8850SOL    HW127449   1.083   1.693   6.909
 8850SOL    HW227450   1.018   1.704   0.033
 8851SOL     OW27451   1.474   4.506   2.444
 8851SOL    HW127452   1.462   4.418   2.490
 8851SOL    HW227453   1.521   4.570   2.505
 8852SOL     OW27454   5.349   3.080   5.581
 8852SOL    HW127455   5.436   3.042   5.551
 8852SOL    HW227456   5.283   3.006   5.592
 8853SOL     OW27457   2.661   1.322   0.825
 8853SOL    HW127458   2.610   1.395   0.871
 8853SOL    HW227459   2.624   1.233   0.852
 8854SOL     OW27460   3.105   2.409   5.666
 8854SOL    HW127461   3.119   2.316   5.632
 8854SOL    HW227462   3.047   2.459   5.602
 8855SOL     OW27463   0.166   5.697   1.447
 8855SOL    HW127464   0.176   5.635   1.370
 8855SOL    HW227465   0.202   5.787   1.422
 8856SOL     OW27466   0.100   6.313   6.241
 8856SOL    HW127467   0.012   6.344   6.278
 8856SOL    HW227468   0.172   6.376   6.271
 8857SOL     OW27469   6.585   1.883   4.427
 8857SOL    HW127470   6.566   1.977   4.398
 8857SOL    HW227471   6.644   1.839   4.360
 8858SOL     OW27472   0.672   3.274   5.879
 8858SOL    HW127473   0.589   3.264   5.823
 8858SOL    HW227474   0.708   3.183   5.901
 8859SOL     OW27475   0.230   0.307   4.053
 8859SOL    HW127476   0.179   0.221   4.045
 8859SOL    HW227477   0.254   0.340   3.962
 8860SOL     OW27478   0.045   2.853   3.124
 8860SOL    HW127479   7.019   2.773   3.092
 8860SOL    HW227480   0.043   2.924   3.053
 8861SOL     OW27481   4.337   1.540   6.073
 8861SOL    HW127482   4.246   1.501   6.081
 8861SOL    HW227483   4.405   1.470   6.093
 8862SOL     OW27484   5.471   0.367   3.974
 8862SOL    HW127485   5.542   0.320   4.026
 8862SOL    HW227486   5.438   0.307   3.901
 8863SOL     OW27487   1.905   4.696   4.615
 8863SOL    HW127488   1.881   4.792   4.629
 8863SOL    HW227489   1.822   4.641   4.613
 8864SOL     OW27490   3.099   4.777   6.342
 8864SOL    HW127491   3.162   4.722   6.396
 8864SOL    HW227492   3.136   4.790   6.250
 8865SOL     OW27493   3.042   0.081   5.737
 8865SOL    HW127494   2.992   0.139   5.801
 8865SOL    HW227495   2.986   0.066   5.655
 8866SOL     OW27496   5.355   0.433   2.944
 8866SOL    HW127497   5.349   0.372   2.865
 8866SOL    HW227498   5.373   0.378   3.026
 8867SOL     OW27499   5.720   4.176   3.031
 8867SOL    HW127500   5.706   4.197   3.128
 8867SOL    HW227501   5.764   4.087   3.022
 8868SOL     OW27502   6.592   2.665   1.221
 8868SOL    HW127503   6.565   2.736   1.155
 8868SOL    HW227504   6.512   2.609   1.244
 8869SOL     OW27505   4.380   5.687   4.676
 8869SOL    HW127506   4.358   5.755   4.606
 8869SOL    HW227507   4.422   5.733   4.755
 8870SOL     OW27508   2.864   0.316   1.051
 8870SOL    HW127509   2.952   0.332   1.006
 8870SOL    HW227510   2.828   0.227   1.022
 8871SOL     OW27511   2.564   1.327   4.376
 8871SOL    HW127512   2.574   1.415   4.421
 8871SOL    HW227513   2.641   1.312   4.315
 8872SOL     OW27514   1.179   4.377   4.912
 8872SOL    HW127515   1.121   4.415   4.840
 8872SOL    HW227516   1.226   4.296   4.877
 8873SOL     OW27517   0.669   6.780   1.812
 8873SOL    HW127518   0.748   6.810   1.757
 8873SOL    HW227519   0.607   6.857   1.826
 8874SOL     OW27520   2.168   6.599   2.928
 8874SOL    HW127521   2.192   6.569   3.020
 8874SOL    HW227522   2.241   6.573   2.864
 8875SOL     OW27523   0.160   4.042   4.888
 8875SOL    HW127524   0.081   4.090   4.929
 8875SOL    HW227525   0.238   4.048   4.951
 8876SOL     OW27526   2.245   6.357   5.411
 8876SOL    HW127527   2.212   6.263   5.416
 8876SOL    HW227528   2.247   6.386   5.315
 8877SOL     OW27529   3.017   2.209   4.522
 8877SOL    HW127530   2.937   2.269   4.525
 8877SOL    HW227531   3.034   2.172   4.613
 8878SOL     OW27532   6.387   4.640   0.560
 8878SOL    HW127533   6.370   4.630   0.658
 8878SOL    HW227534   6.304   4.617   0.509
 8879SOL     OW27535   4.864   5.039   2.820
 8879SOL    HW127536   4.810   5.081   2.892
 8879SOL    HW227537   4.839   5.078   2.731
 8880SOL     OW27538   5.150   6.365   4.737
 8880SOL    HW127539   5.056   6.333   4.720
 8880SOL    HW227540   5.148   6.441   4.802
 8881SOL     OW27541   4.769   6.731   3.856
 8881SOL    HW127542   4.834   6.657   3.872
 8881SOL    HW227543   4.815   6.819   3.863
 8882SOL     OW27544   5.023   1.203   0.987
 8882SOL    HW127545   4.951   1.156   1.038
 8882SOL    HW227546   5.102   1.220   1.047
 8883SOL     OW27547   1.631   6.280   6.106
 8883SOL    HW127548   1.593   6.345   6.172
 8883SOL    HW227549   1.577   6.196   6.107
 8884SOL     OW27550   6.447   4.104   5.509
 8884SOL    HW127551   6.382   4.165   5.464
 8884SOL    HW227552   6.505   4.158   5.570
 8885SOL     OW27553   5.732   4.028   1.776
 8885SOL    HW127554   5.742   4.051   1.873
 8885SOL    HW227555   5.785   4.092   1.721
 8886SOL     OW27556   2.628   6.497   4.670
 8886SOL    HW127557   2.698   6.465   4.734
 8886SOL    HW227558   2.669   6.518   4.582
 8887SOL     OW27559   3.840   0.400   0.208
 8887SOL    HW127560   3.932   0.373   0.238
 8887SOL    HW227561   3.801   0.327   0.151
 8888SOL     OW27562   1.861   1.640   5.713
 8888SOL    HW127563   1.926   1.570   5.681
 8888SOL    HW227564   1.907   1.729   5.717
 8889SOL     OW27565   6.666   0.388   0.016
 8889SOL    HW127566   6.730   0.375   0.092
 8889SOL    HW227567   6.677   0.314   6.976
 8890SOL     OW27568   0.114   5.767   4.973
 8890SOL    HW127569   0.214   5.762   4.974
 8890SOL    HW227570   0.083   5.831   5.044
 8891SOL     OW27571   4.164   3.074   6.760
 8891SOL    HW127572   4.137   3.097   6.666
 8891SOL    HW227573   4.084   3.041   6.810
 8892SOL     OW27574   3.710   5.266   2.777
 8892SOL    HW127575   3.693   5.182   2.828
 8892SOL    HW227576   3.657   5.266   2.693
 8893SOL     OW27577   0.872   5.445   3.882
 8893SOL    HW127578   0.859   5.346   3.874
 8893SOL    HW227579   0.956   5.464   3.933
 8894SOL     OW27580   3.505   2.406   6.478
 8894SOL    HW127581   3.460   2.489   6.507
 8894SOL    HW227582   3.470   2.378   6.388
 8895SOL     OW27583   6.617   2.997   2.309
 8895SOL    HW127584   6.557   2.927   2.270
 8895SOL    HW227585   6.695   2.952   2.354
 8896SOL     OW27586   2.676   3.358   5.306
 8896SOL    HW127587   2.687   3.263   5.276
 8896SOL    HW227588   2.765   3.396   5.333
 8897SOL     OW27589   2.183   3.015   3.188
 8897SOL    HW127590   2.280   3.042   3.191
 8897SOL    HW227591   2.168   2.956   3.109
 8898SOL     OW27592   5.319   3.483   2.264
 8898SOL    HW127593   5.387   3.516   2.199
 8898SOL    HW227594   5.228   3.498   2.227
 8899SOL     OW27595   1.528   5.094   2.036
 8899SOL    HW127596   1.609   5.119   1.982
 8899SOL    HW227597   1.516   5.159   2.111
 8900SOL     OW27598   5.421   2.773   2.705
 8900SOL    HW127599   5.451   2.707   2.636
 8900SOL    HW227600   5.429   2.733   2.796
 8901SOL     OW27601   1.780   0.981   4.802
 8901SOL    HW127602   1.725   0.919   4.858
 8901SOL    HW227603   1.728   1.006   4.720
 8902SOL     OW27604   1.730   6.519   0.540
 8902SOL    HW127605   1.728   6.512   0.440
 8902SOL    HW227606   1.824   6.534   0.570
 8903SOL     OW27607   0.376   1.722   4.538
 8903SOL    HW127608   0.284   1.707   4.573
 8903SOL    HW227609   0.372   1.752   4.443
 8904SOL     OW27610   6.541   0.289   4.302
 8904SOL    HW127611   6.537   0.197   4.341
 8904SOL    HW227612   6.595   0.288   4.218
 8905SOL     OW27613   1.965   4.158   3.532
 8905SOL    HW127614   1.994   4.093   3.601
 8905SOL    HW227615   1.875   4.133   3.497
 8906SOL     OW27616   0.367   6.131   6.782
 8906SOL    HW127617   0.333   6.119   6.689
 8906SOL    HW227618   0.312   6.201   6.829
 8907SOL     OW27619   2.941   2.752   5.325
 8907SOL    HW127620   2.991   2.830   5.288
 8907SOL    HW227621   2.877   2.783   5.395
 8908SOL     OW27622   1.378   4.980   6.939
 8908SOL    HW127623   1.316   4.964   7.016
 8908SOL    HW227624   1.467   4.938   6.959
 8909SOL     OW27625   2.338   1.142   5.776
 8909SOL    HW127626   2.420   1.159   5.721
 8909SOL    HW227627   2.330   1.212   5.847
 8910SOL     OW27628   0.397   2.964   5.565
 8910SOL    HW127629   0.339   2.965   5.484
 8910SOL    HW227630   0.408   2.869   5.596
 8911SOL     OW27631   4.217   2.196   4.829
 8911SOL    HW127632   4.132   2.144   4.821
 8911SOL    HW227633   4.200   2.282   4.876
 8912SOL     OW27634   3.438   3.753   6.607
 8912SOL    HW127635   3.348   3.793   6.629
 8912SOL    HW227636   3.449   3.668   6.657
 8913SOL     OW27637   4.629   5.477   5.454
 8913SOL    HW127638   4.670   5.393   5.488
 8913SOL    HW227639   4.678   5.508   5.372
 8914SOL     OW27640   4.249   0.441   4.786
 8914SOL    HW127641   4.335   0.448   4.837
 8914SOL    HW227642   4.261   0.380   4.708
 8915SOL     OW27643   0.770   2.543   4.157
 8915SOL    HW127644   0.682   2.495   4.150
 8915SOL    HW227645   0.842   2.489   4.114
 8916SOL     OW27646   6.610   2.847   0.741
 8916SOL    HW127647   6.707   2.846   0.765
 8916SOL    HW227648   6.580   2.941   0.726
 8917SOL     OW27649   6.403   3.492   0.066
 8917SOL    HW127650   6.465   3.456   7.023
 8917SOL    HW227651   6.442   3.478   0.157
 8918SOL     OW27652   6.768   4.023   1.063
 8918SOL    HW127653   6.767   3.975   1.151
 8918SOL    HW227654   6.840   4.092   1.064
 8919SOL     OW27655   3.848   4.151   0.857
 8919SOL    HW127656   3.819   4.056   0.844
 8919SOL    HW227657   3.930   4.153   0.914
 8920SOL     OW27658   0.193   1.239   0.039
 8920SOL    HW127659   0.214   1.213   6.971
 8920SOL    HW227660   0.214   1.336   0.053
 8921SOL     OW27661   1.950   2.409   2.155
 8921SOL    HW127662   2.001   2.494   2.166
 8921SOL    HW227663   1.856   2.422   2.187
 8922SOL     OW27664   4.431   4.909   1.307
 8922SOL    HW127665   4.468   4.855   1.232
 8922SOL    HW227666   4.397   4.848   1.379
 8923SOL     OW27667   2.018   2.247   6.512
 8923SOL    HW127668   2.018   2.347   6.507
 8923SOL    HW227669   2.063   2.218   6.596
 8924SOL     OW27670   4.175   5.586   5.149
 8924SOL    HW127671   4.257   5.552   5.104
 8924SOL    HW227672   4.155   5.531   5.230
 8925SOL     OW27673   1.275   1.400   3.195
 8925SOL    HW127674   1.315   1.491   3.187
 8925SOL    HW227675   1.184   1.407   3.236
 8926SOL     OW27676   6.711   3.136   5.903
 8926SOL    HW127677   6.690   3.122   5.806
 8926SOL    HW227678   6.628   3.127   5.958
 8927SOL     OW27679   0.105   1.047   4.659
 8927SOL    HW127680   0.054   1.131   4.678
 8927SOL    HW227681   0.147   1.014   4.744
 8928SOL     OW27682   0.916   6.751   6.388
 8928SOL    HW127683   0.986   6.763   6.318
 8928SOL    HW227684   0.875   6.660   6.379
 8929SOL     OW27685   5.658   1.940   4.578
 8929SOL    HW127686   5.755   1.934   4.552
 8929SOL    HW227687   5.627   1.852   4.612
 8930SOL     OW27688   2.051   3.543   4.648
 8930SOL    HW127689   1.996   3.608   4.700
 8930SOL    HW227690   2.075   3.466   4.705
 8931SOL     OW27691   2.483   3.019   0.703
 8931SOL    HW127692   2.402   3.001   0.758
 8931SOL    HW227693   2.480   3.113   0.669
 8932SOL     OW27694   6.118   1.247   1.402
 8932SOL    HW127695   6.211   1.283   1.394
 8932SOL    HW227696   6.121   1.157   1.444
 8933SOL     OW27697   2.509   2.535   6.335
 8933SOL    HW127698   2.445   2.461   6.356
 8933SOL    HW227699   2.481   2.580   6.250
 8934SOL     OW27700   3.055   5.313   4.415
 8934SOL    HW127701   3.098   5.230   4.379
 8934SOL    HW227702   2.959   5.315   4.390
 8935SOL     OW27703   0.435   4.506   0.494
 8935SOL    HW127704   0.422   4.407   0.494
 8935SOL    HW227705   0.420   4.542   0.586
 8936SOL     OW27706   1.457   3.066   2.465
 8936SOL    HW127707   1.382   3.066   2.398
 8936SOL    HW227708   1.429   3.016   2.546
 8937SOL     OW27709   0.444   0.127   5.647
 8937SOL    HW127710   0.404   0.083   5.728
 8937SOL    HW227711   0.488   0.059   5.590
 8938SOL     OW27712   0.045   6.490   0.966
 8938SOL    HW127713   0.012   6.398   0.989
 8938SOL    HW227714   0.078   6.535   1.049
 8939SOL     OW27715   5.800   4.127   4.291
 8939SOL    HW127716   5.713   4.102   4.333
 8939SOL    HW227717   5.799   4.105   4.194
 8940SOL     OW27718   6.907   0.776   1.743
 8940SOL    HW127719   6.833   0.790   1.809
 8940SOL    HW227720   6.889   0.692   1.692
 8941SOL     OW27721   5.243   2.523   5.070
 8941SOL    HW127722   5.321   2.576   5.102
 8941SOL    HW227723   5.167   2.585   5.049
 8942SOL     OW27724   6.274   5.589   5.716
 8942SOL    HW127725   6.362   5.543   5.729
 8942SOL    HW227726   6.249   5.586   5.619
 8943SOL     OW27727   3.824   5.494   0.088
 8943SOL    HW127728   3.845   5.506   7.017
 8943SOL    HW227729   3.802   5.398   0.106
 8944SOL     OW27730   5.540   5.463   5.719
 8944SOL    HW127731   5.460   5.514   5.747
 8944SOL    HW227732   5.623   5.508   5.753
 8945SOL     OW27733   1.390   0.701   3.438
 8945SOL    HW127734   1.420   0.777   3.496
 8945SOL    HW227735   1.297   0.718   3.407
 8946SOL     OW27736   2.507   1.771   5.057
 8946SOL    HW127737   2.582   1.763   5.123
 8946SOL    HW227738   2.498   1.685   5.006
 8947SOL     OW27739   2.430   3.095   6.012
 8947SOL    HW127740   2.446   3.190   6.038
 8947SOL    HW227741   2.462   3.035   6.086
 8948SOL     OW27742   6.007   6.123   4.613
 8948SOL    HW127743   5.920   6.159   4.580
 8948SOL    HW227744   6.079   6.141   4.545
 8949SOL     OW27745   3.319   5.984   0.256
 8949SOL    HW127746   3.311   5.977   0.156
 8949SOL    HW227747   3.251   5.924   0.299
 8950SOL     OW27748   4.809   4.036   6.710
 8950SOL    HW127749   4.872   3.964   6.738
 8950SOL    HW227750   4.773   4.016   6.619
 8951SOL     OW27751   1.830   1.393   5.083
 8951SOL    HW127752   1.848   1.326   5.011
 8951SOL    HW227753   1.824   1.348   5.171
 8952SOL     OW27754   1.275   6.206   2.176
 8952SOL    HW127755   1.226   6.119   2.166
 8952SOL    HW227756   1.223   6.265   2.238
 8953SOL     OW27757   1.436   3.929   6.795
 8953SOL    HW127758   1.531   3.900   6.800
 8953SOL    HW227759   1.391   3.912   6.883
 8954SOL     OW27760   0.615   6.966   4.490
 8954SOL    HW127761   0.614   6.867   4.500
 8954SOL    HW227762   0.621   6.989   4.392
 8955SOL     OW27763   0.278   5.320   2.687
 8955SOL    HW127764   0.368   5.327   2.646
 8955SOL    HW227765   0.274   5.239   2.746
 8956SOL     OW27766   2.038   1.132   6.769
 8956SOL    HW127767   2.081   1.134   6.679
 8956SOL    HW227768   2.109   1.137   6.840
 8957SOL     OW27769   2.207   4.382   1.153
 8957SOL    HW127770   2.242   4.292   1.127
 8957SOL    HW227771   2.143   4.414   1.083
 8958SOL     OW27772   0.305   1.868   4.777
 8958SOL    HW127773   0.320   1.808   4.856
 8958SOL    HW227774   0.366   1.840   4.703
 8959SOL     OW27775   1.668   4.333   2.313
 8959SOL    HW127776   1.605   4.399   2.354
 8959SOL    HW227777   1.673   4.252   2.371
 8960SOL     OW27778   4.197   5.001   3.035
 8960SOL    HW127779   4.117   5.061   3.035
 8960SOL    HW227780   4.169   4.909   3.063
 8961SOL     OW27781   2.862   1.094   3.655
 8961SOL    HW127782   2.775   1.143   3.661
 8961SOL    HW227783   2.934   1.149   3.699
 8962SOL     OW27784   6.802   5.514   2.807
 8962SOL    HW127785   6.809   5.433   2.864
 8962SOL    HW227786   6.751   5.493   2.724
 8963SOL     OW27787   4.055   6.798   4.659
 8963SOL    HW127788   4.067   6.758   4.750
 8963SOL    HW227789   4.073   6.729   4.589
 8964SOL     OW27790   5.173   3.778   2.927
 8964SOL    HW127791   5.109   3.855   2.933
 8964SOL    HW227792   5.155   3.726   2.844
 8965SOL     OW27793   2.670   4.618   0.713
 8965SOL    HW127794   2.727   4.536   0.719
 8965SOL    HW227795   2.573   4.592   0.718
 8966SOL     OW27796   0.075   4.295   0.346
 8966SOL    HW127797   0.160   4.341   0.318
 8966SOL    HW227798   0.053   4.321   0.441
 8967SOL     OW27799   4.309   6.859   1.039
 8967SOL    HW127800   4.343   6.774   0.999
 8967SOL    HW227801   4.386   6.923   1.049
 8968SOL     OW27802   4.444   5.615   3.004
 8968SOL    HW127803   4.367   5.620   3.067
 8968SOL    HW227804   4.419   5.658   2.917
 8969SOL     OW27805   6.091   0.863   4.454
 8969SOL    HW127806   6.107   0.786   4.393
 8969SOL    HW227807   6.169   0.926   4.450
 8970SOL     OW27808   2.804   3.206   6.817
 8970SOL    HW127809   2.857   3.125   6.791
 8970SOL    HW227810   2.707   3.184   6.819
 8971SOL     OW27811   6.102   4.861   1.613
 8971SOL    HW127812   6.106   4.921   1.533
 8971SOL    HW227813   6.042   4.783   1.593
 8972SOL     OW27814   5.084   3.642   0.032
 8972SOL    HW127815   5.167   3.601   0.068
 8972SOL    HW227816   5.004   3.597   0.073
 8973SOL     OW27817   0.748   3.493   3.320
 8973SOL    HW127818   0.736   3.458   3.227
 8973SOL    HW227819   0.689   3.571   3.334
 8974SOL     OW27820   0.998   4.324   4.689
 8974SOL    HW127821   0.916   4.309   4.635
 8974SOL    HW227822   1.057   4.391   4.643
 8975SOL     OW27823   1.399   6.624   5.916
 8975SOL    HW127824   1.397   6.713   5.962
 8975SOL    HW227825   1.363   6.634   5.824
 8976SOL     OW27826   6.992   5.518   5.622
 8976SOL    HW127827   0.004   5.604   5.657
 8976SOL    HW227828   6.897   5.509   5.652
 8977SOL     OW27829   0.111   3.166   0.033
 8977SOL    HW127830   0.211   3.176   0.038
 8977SOL    HW227831   0.089   3.071   0.013
 8978SOL     OW27832   5.097   6.559   3.394
 8978SOL    HW127833   5.189   6.571   3.431
 8978SOL    HW227834   5.047   6.645   3.399
 8979SOL     OW27835   0.883   3.876   4.676
 8979SOL    HW127836   0.948   3.948   4.702
 8979SOL    HW227837   0.919   3.787   4.706
 8980SOL     OW27838   3.823   2.810   5.421
 8980SOL    HW127839   3.816   2.710   5.419
 8980SOL    HW227840   3.780   2.848   5.339
 8981SOL     OW27841   4.073   1.131   6.158
 8981SOL    HW127842   4.125   1.090   6.233
 8981SOL    HW227843   4.099   1.088   6.072
 8982SOL     OW27844   1.326   2.085   1.991
 8982SOL    HW127845   1.393   2.158   1.980
 8982SOL    HW227846   1.366   2.010   2.044
 8983SOL     OW27847   0.930   5.678   6.341
 8983SOL    HW127848   0.892   5.589   6.366
 8983SOL    HW227849   1.017   5.692   6.389
 8984SOL     OW27850   6.366   6.883   3.887
 8984SOL    HW127851   6.402   6.906   3.978
 8984SOL    HW227852   6.425   6.814   3.844
 8985SOL     OW27853   2.543   2.125   0.671
 8985SOL    HW127854   2.599   2.197   0.630
 8985SOL    HW227855   2.516   2.151   0.763
 8986SOL     OW27856   4.105   5.091   1.653
 8986SOL    HW127857   4.084   5.128   1.744
 8986SOL    HW227858   4.094   4.992   1.654
 8987SOL     OW27859   5.488   6.875   0.712
 8987SOL    HW127860   5.490   6.787   0.760
 8987SOL    HW227861   5.542   6.868   0.628
 8988SOL     OW27862   1.372   4.256   6.247
 8988SOL    HW127863   1.285   4.221   6.214
 8988SOL    HW227864   1.403   4.201   6.325
 8989SOL     OW27865   5.175   3.783   2.357
 8989SOL    HW127866   5.198   3.857   2.420
 8989SOL    HW227867   5.227   3.794   2.272
 8990SOL     OW27868   2.071   5.631   2.399
 8990SOL    HW127869   2.134   5.692   2.447
 8990SOL    HW227870   1.977   5.650   2.429
 8991SOL     OW27871   1.919   2.184   0.180
 8991SOL    HW127872   1.902   2.254   0.249
 8991SOL    HW227873   2.012   2.193   0.144
 8992SOL     OW27874   6.587   2.174   0.276
 8992SOL    HW127875   6.559   2.088   0.232
 8992SOL    HW227876   6.679   2.164   0.314
 8993SOL     OW27877   4.553   2.386   2.177
 8993SOL    HW127878   4.555   2.287   2.165
 8993SOL    HW227879   4.509   2.429   2.098
 8994SOL     OW27880   1.405   5.200   4.740
 8994SOL    HW127881   1.438   5.119   4.692
 8994SOL    HW227882   1.338   5.173   4.809
 8995SOL     OW27883   0.785   2.391   6.783
 8995SOL    HW127884   0.744   2.316   6.730
 8995SOL    HW227885   0.790   2.473   6.726
 8996SOL     OW27886   6.373   5.405   1.287
 8996SOL    HW127887   6.303   5.418   1.357
 8996SOL    HW227888   6.461   5.441   1.320
 8997SOL     OW27889   4.735   1.243   6.465
 8997SOL    HW127890   4.746   1.154   6.419
 8997SOL    HW227891   4.678   1.302   6.407
 8998SOL     OW27892   6.856   3.751   4.933
 8998SOL    HW127893   6.766   3.718   4.905
 8998SOL    HW227894   6.921   3.675   4.934
 8999SOL     OW27895   5.252   6.371   0.101
 8999SOL    HW127896   5.259   6.453   0.044
 8999SOL    HW227897   5.312   6.299   0.063
 9000SOL     OW27898   2.604   3.987   0.312
 9000SOL    HW127899   2.633   3.998   0.217
 9000SOL    HW227900   2.507   4.006   0.320
 9001SOL     OW27901   1.202   5.262   2.403
 9001SOL    HW127902   1.271   5.264   2.331
 9001SOL    HW227903   1.246   5.277   2.492
 9002SOL     OW27904   0.035   4.843   5.269
 9002SOL    HW127905   7.002   4.761   5.274
 9002SOL    HW227906   7.020   4.909   5.206
 9003SOL     OW27907   5.257   2.887   1.621
 9003SOL    HW127908   5.209   2.886   1.533
 9003SOL    HW227909   5.217   2.956   1.681
 9004SOL     OW27910   4.656   6.475   1.023
 9004SOL    HW127911   4.655   6.420   0.939
 9004SOL    HW227912   4.750   6.482   1.057
 9005SOL     OW27913   4.957   2.445   4.090
 9005SOL    HW127914   4.961   2.397   4.178
 9005SOL    HW227915   5.044   2.494   4.076
 9006SOL     OW27916   2.967   6.282   0.898
 9006SOL    HW127917   2.877   6.241   0.913
 9006SOL    HW227918   2.966   6.378   0.926
 9007SOL     OW27919   4.861   0.952   4.150
 9007SOL    HW127920   4.769   0.946   4.111
 9007SOL    HW227921   4.854   0.970   4.249
 9008SOL     OW27922   0.631   5.736   2.980
 9008SOL    HW127923   0.693   5.671   3.024
 9008SOL    HW227924   0.644   5.826   3.020
 9009SOL     OW27925   2.601   1.333   0.463
 9009SOL    HW127926   2.591   1.427   0.497
 9009SOL    HW227927   2.649   1.279   0.531
 9010SOL     OW27928   1.520   6.308   4.093
 9010SOL    HW127929   1.474   6.304   4.182
 9010SOL    HW227930   1.456   6.279   4.022
 9011SOL     OW27931   4.537   2.486   1.554
 9011SOL    HW127932   4.629   2.521   1.573
 9011SOL    HW227933   4.535   2.445   1.463
 9012SOL     OW27934   2.685   4.124   1.195
 9012SOL    HW127935   2.685   4.107   1.097
 9012SOL    HW227936   2.599   4.168   1.222
 9013SOL     OW27937   0.189   6.580   5.056
 9013SOL    HW127938   0.153   6.666   5.019
 9013SOL    HW227939   0.165   6.504   4.995
 9014SOL     OW27940   0.064   1.400   0.359
 9014SOL    HW127941   0.019   1.397   0.270
 9014SOL    HW227942   0.148   1.453   0.352
 9015SOL     OW27943   5.647   1.772   1.404
 9015SOL    HW127944   5.597   1.858   1.417
 9015SOL    HW227945   5.744   1.786   1.425
 9016SOL     OW27946   0.582   6.731   6.908
 9016SOL    HW127947   0.564   6.759   7.003
 9016SOL    HW227948   0.662   6.781   6.873
 9017SOL     OW27949   4.614   2.075   2.235
 9017SOL    HW127950   4.631   2.088   2.138
 9017SOL    HW227951   4.516   2.066   2.251
 9018SOL     OW27952   4.063   2.036   6.870
 9018SOL    HW127953   3.972   2.014   6.833
 9018SOL    HW227954   4.109   2.100   6.809
 9019SOL     OW27955   1.050   0.242   2.207
 9019SOL    HW127956   0.958   0.253   2.169
 9019SOL    HW227957   1.052   0.279   2.300
 9020SOL     OW27958   0.849   3.610   1.513
 9020SOL    HW127959   0.878   3.691   1.563
 9020SOL    HW227960   0.916   3.589   1.441
 9021SOL     OW27961   6.467   0.824   3.977
 9021SOL    HW127962   6.459   0.873   3.890
 9021SOL    HW227963   6.432   0.731   3.967
 9022SOL     OW27964   2.851   1.752   7.009
 9022SOL    HW127965   2.792   1.770   6.930
 9022SOL    HW227966   2.946   1.769   6.983
 9023SOL     OW27967   3.544   3.880   2.137
 9023SOL    HW127968   3.557   3.963   2.082
 9023SOL    HW227969   3.629   3.827   2.136
 9024SOL     OW27970   0.103   4.856   4.987
 9024SOL    HW127971   0.156   4.823   4.909
 9024SOL    HW227972   0.010   4.819   4.983
 9025SOL     OW27973   0.553   5.194   0.094
 9025SOL    HW127974   0.483   5.263   0.080
 9025SOL    HW227975   0.534   5.142   0.177
 9026SOL     OW27976   4.121   3.481   1.016
 9026SOL    HW127977   4.102   3.400   1.071
 9026SOL    HW227978   4.035   3.524   0.989
 9027SOL     OW27979   1.159   2.237   4.221
 9027SOL    HW127980   1.132   2.194   4.307
 9027SOL    HW227981   1.218   2.316   4.241
 9028SOL     OW27982   1.993   3.710   5.901
 9028SOL    HW127983   2.085   3.672   5.900
 9028SOL    HW227984   1.992   3.796   5.951
 9029SOL     OW27985   3.120   5.892   4.785
 9029SOL    HW127986   3.158   5.957   4.720
 9029SOL    HW227987   3.194   5.851   4.838
 9030SOL     OW27988   2.356   2.330   3.525
 9030SOL    HW127989   2.390   2.423   3.508
 9030SOL    HW227990   2.369   2.308   3.622
 9031SOL     OW27991   4.223   5.867   4.535
 9031SOL    HW127992   4.155   5.851   4.606
 9031SOL    HW227993   4.178   5.886   4.448
 9032SOL     OW27994   3.574   3.369   0.054
 9032SOL    HW127995   3.602   3.400   0.145
 9032SOL    HW227996   3.653   3.370   7.019
 9033SOL     OW27997   1.274   5.084   3.906
 9033SOL    HW127998   1.258   5.178   3.873
 9033SOL    HW227999   1.188   5.034   3.906
 9034SOL     OW28000   3.093   0.494   5.583
 9034SOL    HW128001   3.084   0.591   5.559
 9034SOL    HW228002   3.184   0.477   5.619
 9035SOL     OW28003   1.220   4.533   5.835
 9035SOL    HW128004   1.175   4.483   5.761
 9035SOL    HW228005   1.257   4.619   5.799
 9036SOL     OW28006   2.209   0.784   5.654
 9036SOL    HW128007   2.200   0.805   5.751
 9036SOL    HW228008   2.183   0.864   5.600
 9037SOL     OW28009   1.485   4.026   5.403
 9037SOL    HW128010   1.386   4.030   5.393
 9037SOL    HW228011   1.513   3.932   5.424
 9038SOL     OW28012   4.475   6.785   5.869
 9038SOL    HW128013   4.449   6.775   5.773
 9038SOL    HW228014   4.395   6.768   5.926
 9039SOL     OW28015   3.198   4.914   4.942
 9039SOL    HW128016   3.113   4.883   4.899
 9039SOL    HW228017   3.186   4.918   5.041
 9040SOL     OW28018   3.072   2.182   3.005
 9040SOL    HW128019   3.065   2.195   2.906
 9040SOL    HW228020   2.983   2.198   3.047
 9041SOL     OW28021   1.083   2.275   1.923
 9041SOL    HW128022   1.160   2.211   1.931
 9041SOL    HW228023   1.033   2.277   2.010
 9042SOL     OW28024   3.299   7.011   3.926
 9042SOL    HW128025   3.399   7.000   3.921
 9042SOL    HW228026   3.271   0.055   3.860
 9043SOL     OW28027   2.004   1.408   6.884
 9043SOL    HW128028   1.995   1.327   6.825
 9043SOL    HW228029   2.038   1.379   6.973
 9044SOL     OW28030   5.426   1.031   1.121
 9044SOL    HW128031   5.516   1.018   1.163
 9044SOL    HW228032   5.397   0.946   1.078
 9045SOL     OW28033   2.403   1.362   2.624
 9045SOL    HW128034   2.452   1.275   2.629
 9045SOL    HW228035   2.453   1.426   2.566
 9046SOL     OW28036   3.675   3.747   3.842
 9046SOL    HW128037   3.616   3.737   3.762
 9046SOL    HW228038   3.629   3.803   3.911
 9047SOL     OW28039   1.148   3.292   6.013
 9047SOL    HW128040   1.111   3.344   6.090
 9047SOL    HW228041   1.085   3.219   5.989
 9048SOL     OW28042   5.752   2.099   6.302
 9048SOL    HW128043   5.811   2.179   6.315
 9048SOL    HW228044   5.662   2.116   6.342
 9049SOL     OW28045   3.585   6.923   6.131
 9049SOL    HW128046   3.502   6.930   6.187
 9049SOL    HW228047   3.606   6.826   6.114
 9050SOL     OW28048   0.384   3.332   7.000
 9050SOL    HW128049   0.391   3.430   7.016
 9050SOL    HW228050   0.402   3.283   0.059
 9051SOL     OW28051   4.383   6.311   0.735
 9051SOL    HW128052   4.477   6.337   0.753
 9051SOL    HW228053   4.358   6.339   0.642
 9052SOL     OW28054   2.092   2.471   4.425
 9052SOL    HW128055   2.143   2.505   4.504
 9052SOL    HW228056   2.071   2.374   4.438
 9053SOL     OW28057   1.817   1.669   2.899
 9053SOL    HW128058   1.880   1.600   2.935
 9053SOL    HW228059   1.736   1.623   2.863
 9054SOL     OW28060   1.532   6.442   2.513
 9054SOL    HW128061   1.505   6.526   2.466
 9054SOL    HW228062   1.517   6.364   2.452
 9055SOL     OW28063   5.902   2.991   3.941
 9055SOL    HW128064   5.903   2.986   4.041
 9055SOL    HW228065   5.810   3.014   3.910
 9056SOL     OW28066   0.901   0.904   2.064
 9056SOL    HW128067   0.883   1.001   2.082
 9056SOL    HW228068   0.816   0.852   2.072
 9057SOL     OW28069   5.846   5.278   5.914
 9057SOL    HW128070   5.893   5.244   5.833
 9057SOL    HW228071   5.823   5.375   5.902
 9058SOL     OW28072   2.395   1.964   2.897
 9058SOL    HW128073   2.402   1.952   2.798
 9058SOL    HW228074   2.324   2.033   2.917
 9059SOL     OW28075   1.108   2.191   4.741
 9059SOL    HW128076   1.146   2.266   4.795
 9059SOL    HW228077   1.183   2.136   4.704
 9060SOL     OW28078   6.031   2.796   3.243
 9060SOL    HW128079   5.980   2.739   3.179
 9060SOL    HW228080   5.971   2.866   3.282
 9061SOL     OW28081   2.488   5.528   1.799
 9061SOL    HW128082   2.480   5.504   1.702
 9061SOL    HW228083   2.430   5.607   1.818
 9062SOL     OW28084   2.020   6.083   1.956
 9062SOL    HW128085   1.975   6.159   2.003
 9062SOL    HW228086   1.959   6.046   1.886
 9063SOL     OW28087   2.426   0.145   2.834
 9063SOL    HW128088   2.374   0.217   2.878
 9063SOL    HW228089   2.389   0.056   2.861
 9064SOL     OW28090   6.252   2.615   5.535
 9064SOL    HW128091   6.293   2.559   5.463
 9064SOL    HW228092   6.325   2.654   5.592
 9065SOL     OW28093   3.106   6.607   6.061
 9065SOL    HW128094   3.143   6.574   5.974
 9065SOL    HW228095   3.058   6.694   6.046
 9066SOL     OW28096   5.262   6.226   0.585
 9066SOL    HW128097   5.202   6.305   0.568
 9066SOL    HW228098   5.310   6.238   0.672
 9067SOL     OW28099   6.404   0.519   4.257
 9067SOL    HW128100   6.430   0.434   4.303
 9067SOL    HW228101   6.410   0.595   4.321
 9068SOL     OW28102   2.357   6.869   4.993
 9068SOL    HW128103   2.443   6.919   4.997
 9068SOL    HW228104   2.313   6.885   4.904
 9069SOL     OW28105   2.089   2.635   2.114
 9069SOL    HW128106   2.131   2.574   2.047
 9069SOL    HW228107   2.149   2.715   2.127
 9070SOL     OW28108   1.694   4.206   4.881
 9070SOL    HW128109   1.680   4.222   4.979
 9070SOL    HW228110   1.698   4.294   4.833
 9071SOL     OW28111   5.377   7.024   0.921
 9071SOL    HW128112   5.317   0.069   0.886
 9071SOL    HW228113   5.419   6.974   0.845
 9072SOL     OW28114   0.260   1.552   2.313
 9072SOL    HW128115   0.192   1.480   2.309
 9072SOL    HW228116   0.345   1.521   2.270
 9073SOL     OW28117   3.612   6.882   2.194
 9073SOL    HW128118   3.572   6.887   2.285
 9073SOL    HW228119   3.550   6.831   2.134
 9074SOL     OW28120   2.332   1.259   2.104
 9074SOL    HW128121   2.296   1.331   2.163
 9074SOL    HW228122   2.426   1.282   2.077
 9075SOL     OW28123   1.607   0.922   3.023
 9075SOL    HW128124   1.630   0.994   2.957
 9075SOL    HW228125   1.585   0.838   2.974
 9076SOL     OW28126   5.903   2.368   4.834
 9076SOL    HW128127   5.991   2.362   4.881
 9076SOL    HW228128   5.901   2.449   4.776
 9077SOL     OW28129   5.474   0.102   0.357
 9077SOL    HW128130   5.543   0.103   0.429
 9077SOL    HW228131   5.461   0.008   0.325
 9078SOL     OW28132   4.289   3.716   6.328
 9078SOL    HW128133   4.250   3.757   6.246
 9078SOL    HW228134   4.376   3.672   6.306
 9079SOL     OW28135   3.671   0.022   4.029
 9079SOL    HW128136   3.647   0.115   4.057
 9079SOL    HW228137   3.710   0.024   3.937
 9080SOL     OW28138   4.813   2.819   7.011
 9080SOL    HW128139   4.898   2.865   6.988
 9080SOL    HW228140   4.806   2.733   6.961
 9081SOL     OW28141   3.656   6.363   2.707
 9081SOL    HW128142   3.559   6.364   2.681
 9081SOL    HW228143   3.711   6.343   2.626
 9082SOL     OW28144   2.546   0.354   5.825
 9082SOL    HW128145   2.512   0.311   5.909
 9082SOL    HW228146   2.585   0.284   5.766
 9083SOL     OW28147   3.117   6.057   5.767
 9083SOL    HW128148   3.105   5.997   5.847
 9083SOL    HW228149   3.075   6.014   5.687
 9084SOL     OW28150   2.944   3.822   4.456
 9084SOL    HW128151   2.879   3.882   4.410
 9084SOL    HW228152   2.896   3.748   4.502
 9085SOL     OW28153   2.532   5.278   1.216
 9085SOL    HW128154   2.583   5.355   1.179
 9085SOL    HW228155   2.442   5.309   1.248
 9086SOL     OW28156   1.365   4.736   0.287
 9086SOL    HW128157   1.447   4.767   0.240
 9086SOL    HW228158   1.388   4.657   0.345
 9087SOL     OW28159   4.976   2.880   1.380
 9087SOL    HW128160   4.968   2.857   1.283
 9087SOL    HW228161   4.890   2.859   1.427
 9088SOL     OW28162   6.231   6.557   0.758
 9088SOL    HW128163   6.181   6.629   0.806
 9088SOL    HW228164   6.302   6.521   0.818
 9089SOL     OW28165   5.160   5.882   5.526
 9089SOL    HW128166   5.077   5.935   5.509
 9089SOL    HW228167   5.227   5.939   5.573
 9090SOL     OW28168   0.020   1.015   3.733
 9090SOL    HW128169   7.012   1.102   3.768
 9090SOL    HW228170   0.018   0.947   3.806
 9091SOL     OW28171   3.371   4.384   7.003
 9091SOL    HW128172   3.297   4.355   0.038
 9091SOL    HW228173   3.335   4.402   6.912
 9092SOL     OW28174   0.352   1.098   0.436
 9092SOL    HW128175   0.387   1.004   0.437
 9092SOL    HW228176   0.315   1.121   0.526
 9093SOL     OW28177   1.215   6.309   5.773
 9093SOL    HW128178   1.180   6.400   5.796
 9093SOL    HW228179   1.186   6.284   5.681
 9094SOL     OW28180   6.734   5.158   2.946
 9094SOL    HW128181   6.635   5.171   2.956
 9094SOL    HW228182   6.755   5.146   2.849
 9095SOL     OW28183   5.329   4.766   6.120
 9095SOL    HW128184   5.365   4.858   6.136
 9095SOL    HW228185   5.368   4.729   6.035
 9096SOL     OW28186   5.840   4.380   2.410
 9096SOL    HW128187   5.866   4.295   2.456
 9096SOL    HW228188   5.808   4.446   2.478
 9097SOL     OW28189   1.314   1.435   0.809
 9097SOL    HW128190   1.230   1.383   0.824
 9097SOL    HW228191   1.383   1.409   0.878
 9098SOL     OW28192   3.760   1.835   5.239
 9098SOL    HW128193   3.712   1.922   5.250
 9098SOL    HW228194   3.819   1.840   5.158
 9099SOL     OW28195   3.359   2.509   5.569
 9099SOL    HW128196   3.283   2.476   5.624
 9099SOL    HW228197   3.341   2.603   5.540
 9100SOL     OW28198   0.345   3.297   3.427
 9100SOL    HW128199   0.285   3.312   3.506
 9100SOL    HW228200   0.407   3.220   3.446
 9101SOL     OW28201   2.542   2.489   2.499
 9101SOL    HW128202   2.528   2.456   2.406
 9101SOL    HW228203   2.491   2.574   2.513
 9102SOL     OW28204   3.111   6.147   1.530
 9102SOL    HW128205   3.174   6.224   1.533
 9102SOL    HW228206   3.017   6.181   1.533
 9103SOL     OW28207   6.934   3.087   6.595
 9103SOL    HW128208   6.884   3.150   6.536
 9103SOL    HW228209   6.882   3.072   6.679
 9104SOL     OW28210   0.357   5.890   2.326
 9104SOL    HW128211   0.383   5.849   2.239
 9104SOL    HW228212   0.400   5.980   2.335
 9105SOL     OW28213   0.815   1.215   6.326
 9105SOL    HW128214   0.772   1.141   6.274
 9105SOL    HW228215   0.907   1.188   6.354
 9106SOL     OW28216   6.880   3.468   1.195
 9106SOL    HW128217   6.888   3.454   1.294
 9106SOL    HW228218   6.908   3.561   1.172
 9107SOL     OW28219   2.645   0.711   6.796
 9107SOL    HW128220   2.652   0.811   6.791
 9107SOL    HW228221   2.666   0.672   6.706
 9108SOL     OW28222   5.299   4.517   5.167
 9108SOL    HW128223   5.287   4.562   5.255
 9108SOL    HW228224   5.254   4.427   5.169
 9109SOL     OW28225   6.573   3.409   3.576
 9109SOL    HW128226   6.601   3.481   3.512
 9109SOL    HW228227   6.507   3.349   3.530
 9110SOL     OW28228   2.043   4.945   4.126
 9110SOL    HW128229   1.982   4.989   4.061
 9110SOL    HW228230   2.137   4.948   4.091
 9111SOL     OW28231   5.407   2.253   0.690
 9111SOL    HW128232   5.404   2.349   0.719
 9111SOL    HW228233   5.452   2.247   0.601
 9112SOL     OW28234   1.110   5.590   2.755
 9112SOL    HW128235   1.059   5.505   2.768
 9112SOL    HW228236   1.208   5.571   2.756
 9113SOL     OW28237   4.806   2.890   2.609
 9113SOL    HW128238   4.821   2.805   2.660
 9113SOL    HW228239   4.805   2.871   2.511
 9114SOL     OW28240   0.738   5.248   3.458
 9114SOL    HW128241   0.755   5.310   3.534
 9114SOL    HW228242   0.652   5.200   3.472
 9115SOL     OW28243   6.703   6.221   4.754
 9115SOL    HW128244   6.686   6.235   4.656
 9115SOL    HW228245   6.670   6.131   4.781
 9116SOL     OW28246   0.092   0.104   2.784
 9116SOL    HW128247   0.064   0.179   2.843
 9116SOL    HW228248   0.047   0.019   2.813
 9117SOL     OW28249   3.574   2.994   6.090
 9117SOL    HW128250   3.616   2.964   6.176
 9117SOL    HW228251   3.494   3.051   6.110
 9118SOL     OW28252   0.341   3.133   0.292
 9118SOL    HW128253   0.304   3.057   0.347
 9118SOL    HW228254   0.349   3.104   0.197
 9119SOL     OW28255   4.032   0.751   2.429
 9119SOL    HW128256   4.020   0.679   2.497
 9119SOL    HW228257   3.957   0.747   2.363
 9120SOL     OW28258   6.625   1.705   5.460
 9120SOL    HW128259   6.549   1.766   5.440
 9120SOL    HW228260   6.590   1.613   5.480
 9121SOL     OW28261   3.803   6.679   4.867
 9121SOL    HW128262   3.754   6.592   4.862
 9121SOL    HW228263   3.793   6.728   4.781
 9122SOL     OW28264   2.387   4.304   2.046
 9122SOL    HW128265   2.392   4.220   1.991
 9122SOL    HW228266   2.449   4.373   2.008
 9123SOL     OW28267   1.963   0.796   4.761
 9123SOL    HW128268   1.984   0.760   4.852
 9123SOL    HW228269   1.901   0.874   4.771
 9124SOL     OW28270   4.368   5.351   0.116
 9124SOL    HW128271   4.279   5.326   0.154
 9124SOL    HW228272   4.359   5.435   0.062
 9125SOL     OW28273   4.166   4.304   0.845
 9125SOL    HW128274   4.220   4.381   0.813
 9125SOL    HW228275   4.166   4.302   0.945
 9126SOL     OW28276   6.306   3.291   1.557
 9126SOL    HW128277   6.358   3.297   1.642
 9126SOL    HW228278   6.348   3.349   1.487
 9127SOL     OW28279   6.316   1.328   6.166
 9127SOL    HW128280   6.333   1.355   6.071
 9127SOL    HW228281   6.302   1.410   6.222
 9128SOL     OW28282   6.031   2.368   5.335
 9128SOL    HW128283   6.038   2.467   5.325
 9128SOL    HW228284   5.964   2.332   5.270
 9129SOL     OW28285   6.797   1.983   6.963
 9129SOL    HW128286   6.734   2.060   6.972
 9129SOL    HW228287   6.747   1.904   6.928
 9130SOL     OW28288   1.292   4.445   6.443
 9130SOL    HW128289   1.219   4.376   6.441
 9130SOL    HW228290   1.338   4.448   6.354
 9131SOL     OW28291   5.481   3.126   6.144
 9131SOL    HW128292   5.570   3.087   6.119
 9131SOL    HW228293   5.473   3.130   6.243
 9132SOL     OW28294   0.927   5.833   4.359
 9132SOL    HW128295   0.942   5.825   4.261
 9132SOL    HW228296   0.894   5.745   4.395
 9133SOL     OW28297   3.861   6.163   1.370
 9133SOL    HW128298   3.799   6.165   1.449
 9133SOL    HW228299   3.861   6.071   1.330
 9134SOL     OW28300   4.006   4.954   1.216
 9134SOL    HW128301   3.942   5.029   1.231
 9134SOL    HW228302   4.100   4.989   1.211
 9135SOL     OW28303   0.670   0.178   1.413
 9135SOL    HW128304   0.621   0.260   1.386
 9135SOL    HW228305   0.614   0.124   1.476
 9136SOL     OW28306   4.574   6.132   6.219
 9136SOL    HW128307   4.545   6.195   6.291
 9136SOL    HW228308   4.542   6.165   6.131
 9137SOL     OW28309   3.861   0.654   6.523
 9137SOL    HW128310   3.806   0.634   6.604
 9137SOL    HW228311   3.834   0.743   6.485
 9138SOL     OW28312   0.086   4.489   6.423
 9138SOL    HW128313   0.167   4.481   6.365
 9138SOL    HW228314   0.112   4.478   6.519
 9139SOL     OW28315   1.748   1.111   2.658
 9139SOL    HW128316   1.841   1.085   2.683
 9139SOL    HW228317   1.702   1.034   2.614
 9140SOL     OW28318   0.648   3.734   2.048
 9140SOL    HW128319   0.653   3.834   2.050
 9140SOL    HW228320   0.736   3.697   2.018
 9141SOL     OW28321   5.908   6.380   1.576
 9141SOL    HW128322   5.935   6.464   1.530
 9141SOL    HW228323   5.816   6.353   1.546
 9142SOL     OW28324   0.534   3.959   1.718
 9142SOL    HW128325   0.464   3.922   1.656
 9142SOL    HW228326   0.607   4.002   1.664
 9143SOL     OW28327   6.620   3.128   0.378
 9143SOL    HW128328   6.584   3.174   0.459
 9143SOL    HW228329   6.615   3.029   0.391
 9144SOL     OW28330   3.304   5.582   5.090
 9144SOL    HW128331   3.295   5.632   5.003
 9144SOL    HW228332   3.253   5.497   5.085
 9145SOL     OW28333   0.544   5.875   6.492
 9145SOL    HW128334   0.578   5.882   6.586
 9145SOL    HW228335   0.563   5.783   6.457
 9146SOL     OW28336   5.313   3.280   2.783
 9146SOL    HW128337   5.336   3.191   2.742
 9146SOL    HW228338   5.343   3.282   2.878
 9147SOL     OW28339   6.986   0.536   5.257
 9147SOL    HW128340   7.004   0.505   5.350
 9147SOL    HW228341   6.975   0.457   5.196
 9148SOL     OW28342   5.238   6.288   2.698
 9148SOL    HW128343   5.206   6.197   2.724
 9148SOL    HW228344   5.159   6.345   2.673
 9149SOL     OW28345   5.262   3.811   2.087
 9149SOL    HW128346   5.203   3.736   2.055
 9149SOL    HW228347   5.349   3.808   2.038
 9150SOL     OW28348   3.596   4.713   0.834
 9150SOL    HW128349   3.516   4.665   0.800
 9150SOL    HW228350   3.635   4.663   0.911
 9151SOL     OW28351   1.956   4.620   3.859
 9151SOL    HW128352   1.944   4.542   3.798
 9151SOL    HW228353   2.034   4.604   3.920
 9152SOL     OW28354   2.374   4.335   4.575
 9152SOL    HW128355   2.427   4.265   4.528
 9152SOL    HW228356   2.316   4.292   4.645
 9153SOL     OW28357   0.347   2.334   6.439
 9153SOL    HW128358   0.379   2.343   6.534
 9153SOL    HW228359   0.247   2.325   6.439
 9154SOL     OW28360   4.758   4.599   4.819
 9154SOL    HW128361   4.757   4.665   4.743
 9154SOL    HW228362   4.675   4.544   4.817
 9155SOL     OW28363   2.648   4.978   2.225
 9155SOL    HW128364   2.718   4.908   2.208
 9155SOL    HW228365   2.560   4.946   2.188
 9156SOL     OW28366   6.481   1.780   1.268
 9156SOL    HW128367   6.452   1.684   1.274
 9156SOL    HW228368   6.571   1.790   1.310
 9157SOL     OW28369   3.280   3.841   6.969
 9157SOL    HW128370   3.348   3.770   6.988
 9157SOL    HW228371   3.326   3.924   6.936
 9158SOL     OW28372   6.598   3.991   4.094
 9158SOL    HW128373   6.582   4.000   4.192
 9158SOL    HW228374   6.690   4.021   4.072
 9159SOL     OW28375   2.354   0.558   3.646
 9159SOL    HW128376   2.432   0.502   3.617
 9159SOL    HW228377   2.270   0.519   3.608
 9160SOL     OW28378   0.544   6.271   5.869
 9160SOL    HW128379   0.609   6.297   5.941
 9160SOL    HW228380   0.510   6.178   5.887
 9161SOL     OW28381   6.694   4.736   3.090
 9161SOL    HW128382   6.641   4.727   3.174
 9161SOL    HW228383   6.638   4.708   3.012
 9162SOL     OW28384   3.898   0.277   2.598
 9162SOL    HW128385   3.900   0.283   2.498
 9162SOL    HW228386   3.814   0.319   2.633
 9163SOL     OW28387   6.948   3.333   3.576
 9163SOL    HW128388   6.922   3.409   3.634
 9163SOL    HW228389   6.928   3.356   3.480
 9164SOL     OW28390   2.063   0.451   6.681
 9164SOL    HW128391   2.036   0.512   6.755
 9164SOL    HW228392   2.092   0.363   6.720
 9165SOL     OW28393   5.172   2.247   6.094
 9165SOL    HW128394   5.258   2.197   6.097
 9165SOL    HW228395   5.101   2.189   6.055
 9166SOL     OW28396   4.765   5.534   0.898
 9166SOL    HW128397   4.806   5.505   0.985
 9166SOL    HW228398   4.670   5.502   0.894
 9167SOL     OW28399   2.012   2.204   5.924
 9167SOL    HW128400   1.972   2.136   5.985
 9167SOL    HW228401   1.942   2.269   5.895
 9168SOL     OW28402   6.874   6.299   6.484
 9168SOL    HW128403   6.785   6.280   6.526
 9168SOL    HW228404   6.865   6.377   6.422
 9169SOL     OW28405   6.930   6.786   6.551
 9169SOL    HW128406   6.909   6.819   6.643
 9169SOL    HW228407   7.010   6.835   6.516
 9170SOL     OW28408   1.949   0.132   6.524
 9170SOL    HW128409   1.946   0.152   6.622
 9170SOL    HW228410   1.891   0.197   6.475
 9171SOL     OW28411   3.676   6.019   0.191
 9171SOL    HW128412   3.774   6.011   0.205
 9171SOL    HW228413   3.630   6.029   0.280
 9172SOL     OW28414   4.412   1.500   3.857
 9172SOL    HW128415   4.357   1.421   3.883
 9172SOL    HW228416   4.358   1.559   3.797
 9173SOL     OW28417   5.621   3.345   5.324
 9173SOL    HW128418   5.526   3.314   5.324
 9173SOL    HW228419   5.661   3.327   5.414
 9174SOL     OW28420   0.826   5.777   6.860
 9174SOL    HW128421   0.812   5.737   6.769
 9174SOL    HW228422   0.902   5.730   6.905
 9175SOL     OW28423   1.265   0.313   6.595
 9175SOL    HW128424   1.253   0.387   6.662
 9175SOL    HW228425   1.224   0.340   6.508
 9176SOL     OW28426   2.729   7.013   1.860
 9176SOL    HW128427   2.638   6.972   1.858
 9176SOL    HW228428   2.722   0.085   1.838
 9177SOL     OW28429   1.558   2.479   4.281
 9177SOL    HW128430   1.649   2.441   4.297
 9177SOL    HW228431   1.557   2.575   4.307
 9178SOL     OW28432   2.036   6.218   6.511
 9178SOL    HW128433   2.080   6.197   6.598
 9178SOL    HW228434   2.058   6.147   6.444
 9179SOL     OW28435   1.850   5.831   4.996
 9179SOL    HW128436   1.787   5.757   4.973
 9179SOL    HW228437   1.920   5.839   4.925
 9180SOL     OW28438   6.568   2.745   3.296
 9180SOL    HW128439   6.494   2.795   3.251
 9180SOL    HW228440   6.583   2.658   3.249
 9181SOL     OW28441   4.812   2.948   3.552
 9181SOL    HW128442   4.804   2.942   3.651
 9181SOL    HW228443   4.804   3.043   3.523
 9182SOL     OW28444   3.291   0.347   3.068
 9182SOL    HW128445   3.211   0.405   3.082
 9182SOL    HW228446   3.261   0.254   3.043
 9183SOL     OW28447   4.882   4.284   6.696
 9183SOL    HW128448   4.936   4.311   6.775
 9183SOL    HW228449   4.851   4.190   6.707
 9184SOL     OW28450   3.531   2.168   0.998
 9184SOL    HW128451   3.491   2.180   0.907
 9184SOL    HW228452   3.577   2.253   1.024
 9185SOL     OW28453   0.033   0.027   5.678
 9185SOL    HW128454   0.050   6.958   5.704
 9185SOL    HW228455   7.024   0.031   5.585
 9186SOL     OW28456   5.572   1.025   5.366
 9186SOL    HW128457   5.515   1.092   5.413
 9186SOL    HW228458   5.626   1.071   5.295
 9187SOL     OW28459   4.463   1.949   0.205
 9187SOL    HW128460   4.453   1.877   0.274
 9187SOL    HW228461   4.501   2.031   0.248
 9188SOL     OW28462   1.638   0.328   1.935
 9188SOL    HW128463   1.562   0.378   1.892
 9188SOL    HW228464   1.678   0.264   1.870
 9189SOL     OW28465   2.850   6.842   3.110
 9189SOL    HW128466   2.912   6.793   3.049
 9189SOL    HW228467   2.875   6.822   3.205
 9190SOL     OW28468   0.287   3.688   5.292
 9190SOL    HW128469   0.384   3.696   5.316
 9190SOL    HW228470   0.277   3.681   5.193
 9191SOL     OW28471   5.633   1.241   6.989
 9191SOL    HW128472   5.584   1.320   7.025
 9191SOL    HW228473   5.615   1.161   0.021
 9192SOL     OW28474   6.084   2.984   5.652
 9192SOL    HW128475   6.112   2.936   5.569
 9192SOL    HW228476   6.058   3.078   5.629
 9193SOL     OW28477   3.721   3.483   4.051
 9193SOL    HW128478   3.797   3.541   4.020
 9193SOL    HW228479   3.643   3.496   3.990
 9194SOL     OW28480   4.115   5.891   1.859
 9194SOL    HW128481   4.091   5.812   1.916
 9194SOL    HW228482   4.077   5.877   1.767
 9195SOL     OW28483   1.670   2.993   3.312
 9195SOL    HW128484   1.623   2.984   3.224
 9195SOL    HW228485   1.757   3.040   3.299
 9196SOL     OW28486   5.500   0.249   3.575
 9196SOL    HW128487   5.489   0.248   3.674
 9196SOL    HW228488   5.557   0.172   3.547
 9197SOL     OW28489   3.471   5.296   0.267
 9197SOL    HW128490   3.530   5.377   0.271
 9197SOL    HW228491   3.481   5.253   0.177
 9198SOL     OW28492   6.172   4.581   6.467
 9198SOL    HW128493   6.163   4.516   6.542
 9198SOL    HW228494   6.229   4.542   6.395
 9199SOL     OW28495   0.156   2.810   6.376
 9199SOL    HW128496   0.173   2.901   6.337
 9199SOL    HW228497   0.075   2.814   6.435
 9200SOL     OW28498   2.212   5.780   6.424
 9200SOL    HW128499   2.291   5.810   6.479
 9200SOL    HW228500   2.146   5.734   6.483
 9201SOL     OW28501   0.426   3.076   0.839
 9201SOL    HW128502   0.502   3.012   0.843
 9201SOL    HW228503   0.343   3.033   0.874
 9202SOL     OW28504   1.177   6.033   3.537
 9202SOL    HW128505   1.107   5.967   3.507
 9202SOL    HW228506   1.167   6.051   3.635
 9203SOL     OW28507   5.371   2.773   5.924
 9203SOL    HW128508   5.419   2.722   5.995
 9203SOL    HW228509   5.307   2.712   5.877
 9204SOL     OW28510   4.839   3.832   4.048
 9204SOL    HW128511   4.865   3.740   4.018
 9204SOL    HW228512   4.817   3.888   3.968
 9205SOL     OW28513   4.876   5.162   2.565
 9205SOL    HW128514   4.879   5.262   2.570
 9205SOL    HW228515   4.970   5.127   2.559
 9206SOL     OW28516   3.309   0.183   3.427
 9206SOL    HW128517   3.341   0.089   3.417
 9206SOL    HW228518   3.291   0.201   3.524
 9207SOL     OW28519   3.692   5.247   6.421
 9207SOL    HW128520   3.779   5.295   6.412
 9207SOL    HW228521   3.622   5.312   6.451
 9208SOL     OW28522   5.324   4.222   2.225
 9208SOL    HW128523   5.414   4.205   2.186
 9208SOL    HW228524   5.254   4.177   2.170
 9209SOL     OW28525   3.939   0.160   1.543
 9209SOL    HW128526   4.033   0.148   1.574
 9209SOL    HW228527   3.940   0.208   1.455
 9210SOL     OW28528   0.745   0.981   1.531
 9210SOL    HW128529   0.706   0.903   1.579
 9210SOL    HW228530   0.737   1.063   1.588
 9211SOL     OW28531   5.646   3.498   6.306
 9211SOL    HW128532   5.601   3.464   6.223
 9211SOL    HW228533   5.731   3.543   6.281
 9212SOL     OW28534   5.159   4.267   5.183
 9212SOL    HW128535   5.172   4.173   5.214
 9212SOL    HW228536   5.085   4.309   5.235
 9213SOL     OW28537   5.077   5.742   4.553
 9213SOL    HW128538   5.157   5.703   4.598
 9213SOL    HW228539   5.062   5.835   4.587
 9214SOL     OW28540   0.180   2.848   5.255
 9214SOL    HW128541   0.259   2.787   5.256
 9214SOL    HW228542   0.172   2.891   5.165
 9215SOL     OW28543   1.011   4.665   2.940
 9215SOL    HW128544   0.984   4.675   3.036
 9215SOL    HW228545   1.025   4.755   2.899
 9216SOL     OW28546   2.993   6.971   4.345
 9216SOL    HW128547   2.903   6.960   4.302
 9216SOL    HW228548   3.052   0.000   4.287
 9217SOL     OW28549   5.821   2.111   0.082
 9217SOL    HW128550   5.737   2.157   0.108
 9217SOL    HW228551   5.800   2.021   0.043
 9218SOL     OW28552   3.573   1.071   6.808
 9218SOL    HW128553   3.526   1.004   6.866
 9218SOL    HW228554   3.507   1.113   6.745
 9219SOL     OW28555   4.392   3.359   6.024
 9219SOL    HW128556   4.305   3.310   6.030
 9219SOL    HW228557   4.376   3.453   5.993
 9220SOL     OW28558   1.742   6.435   2.671
 9220SOL    HW128559   1.664   6.437   2.608
 9220SOL    HW228560   1.793   6.520   2.663
 9221SOL     OW28561   3.049   7.010   4.616
 9221SOL    HW128562   3.042   6.999   4.517
 9221SOL    HW228563   2.995   0.064   4.645
 9222SOL     OW28564   2.430   4.846   4.998
 9222SOL    HW128565   2.461   4.752   5.016
 9222SOL    HW228566   2.466   4.876   4.910
 9223SOL     OW28567   1.020   2.823   4.400
 9223SOL    HW128568   1.030   2.922   4.392
 9223SOL    HW228569   0.936   2.802   4.450
 9224SOL     OW28570   1.578   4.471   3.420
 9224SOL    HW128571   1.517   4.504   3.493
 9224SOL    HW228572   1.582   4.538   3.347
 9225SOL     OW28573   4.235   5.552   6.093
 9225SOL    HW128574   4.199   5.618   6.159
 9225SOL    HW228575   4.160   5.515   6.038
 9226SOL     OW28576   0.955   0.385   1.271
 9226SOL    HW128577   0.874   0.443   1.283
 9226SOL    HW228578   1.030   0.438   1.232
 9227SOL     OW28579   1.902   6.013   1.712
 9227SOL    HW128580   1.857   6.102   1.721
 9227SOL    HW228581   1.903   5.986   1.615
 9228SOL     OW28582   2.347   2.380   0.057
 9228SOL    HW128583   2.283   2.358   7.009
 9228SOL    HW228584   2.345   2.309   0.127
 9229SOL     OW28585   0.821   5.150   5.845
 9229SOL    HW128586   0.750   5.220   5.860
 9229SOL    HW228587   0.891   5.158   5.916
 9230SOL     OW28588   4.949   3.356   2.554
 9230SOL    HW128589   4.892   3.274   2.546
 9230SOL    HW228590   4.963   3.396   2.464
 9231SOL     OW28591   0.844   3.649   4.969
 9231SOL    HW128592   0.916   3.627   4.903
 9231SOL    HW228593   0.788   3.724   4.933
 9232SOL     OW28594   2.920   5.033   0.982
 9232SOL    HW128595   2.952   5.012   0.890
 9232SOL    HW228596   2.984   4.995   1.049
 9233SOL     OW28597   0.309   6.880   0.753
 9233SOL    HW128598   0.295   6.838   0.842
 9233SOL    HW228599   0.266   6.970   0.750
 9234SOL     OW28600   2.085   5.949   0.620
 9234SOL    HW128601   2.104   6.019   0.551
 9234SOL    HW228602   2.018   5.986   0.686
 9235SOL     OW28603   1.915   3.108   3.317
 9235SOL    HW128604   1.927   3.187   3.377
 9235SOL    HW228605   2.003   3.061   3.307
 9236SOL     OW28606   2.602   3.711   6.456
 9236SOL    HW128607   2.659   3.754   6.526
 9236SOL    HW228608   2.658   3.688   6.376
 9237SOL     OW28609   0.805   5.769   2.772
 9237SOL    HW128610   0.727   5.781   2.833
 9237SOL    HW228611   0.795   5.827   2.692
 9238SOL     OW28612   2.834   2.228   5.983
 9238SOL    HW128613   2.847   2.325   6.000
 9238SOL    HW228614   2.832   2.212   5.884
 9239SOL     OW28615   0.009   4.325   6.730
 9239SOL    HW128616   6.942   4.292   6.712
 9239SOL    HW228617   0.011   4.424   6.719
 9240SOL     OW28618   5.129   2.697   1.946
 9240SOL    HW128619   5.076   2.777   1.917
 9240SOL    HW228620   5.193   2.724   2.018
 9241SOL     OW28621   0.453   6.069   0.553
 9241SOL    HW128622   0.497   5.980   0.560
 9241SOL    HW228623   0.412   6.079   0.462
 9242SOL     OW28624   1.857   3.819   2.009
 9242SOL    HW128625   1.834   3.748   2.076
 9242SOL    HW228626   1.788   3.891   2.012
 9243SOL     OW28627   0.257   0.670   2.022
 9243SOL    HW128628   0.216   0.706   1.938
 9243SOL    HW228629   0.188   0.668   2.094
 9244SOL     OW28630   2.891   6.250   5.900
 9244SOL    HW128631   2.948   6.269   5.980
 9244SOL    HW228632   2.923   6.166   5.856
 9245SOL     OW28633   0.710   4.420   3.807
 9245SOL    HW128634   0.643   4.476   3.759
 9245SOL    HW228635   0.684   4.411   3.903
 9246SOL     OW28636   5.602   0.613   3.542
 9246SOL    HW128637   5.538   0.687   3.522
 9246SOL    HW228638   5.573   0.530   3.494
 9247SOL     OW28639   3.423   5.226   2.211
 9247SOL    HW128640   3.486   5.152   2.237
 9247SOL    HW228641   3.467   5.284   2.142
 9248SOL     OW28642   2.997   2.179   4.821
 9248SOL    HW128643   2.905   2.210   4.846
 9248SOL    HW228644   3.064   2.225   4.880
 9249SOL     OW28645   4.934   5.110   1.720
 9249SOL    HW128646   4.937   5.077   1.814
 9249SOL    HW228647   4.959   5.207   1.717
 9250SOL     OW28648   6.614   2.994   3.787
 9250SOL    HW128649   6.546   3.011   3.716
 9250SOL    HW228650   6.673   2.918   3.760
 9251SOL     OW28651   3.666   1.486   2.206
 9251SOL    HW128652   3.740   1.447   2.152
 9251SOL    HW228653   3.639   1.574   2.168
 9252SOL     OW28654   5.768   0.413   5.090
 9252SOL    HW128655   5.828   0.479   5.135
 9252SOL    HW228656   5.745   0.446   4.998
 9253SOL     OW28657   5.410   5.402   5.482
 9253SOL    HW128658   5.478   5.404   5.555
 9253SOL    HW228659   5.360   5.488   5.481
 9254SOL     OW28660   4.444   4.505   2.918
 9254SOL    HW128661   4.503   4.518   2.839
 9254SOL    HW228662   4.494   4.456   2.990
 9255SOL     OW28663   5.089   3.487   0.376
 9255SOL    HW128664   5.155   3.489   0.300
 9255SOL    HW228665   5.072   3.580   0.407
 9256SOL     OW28666   2.586   0.093   2.071
 9256SOL    HW128667   2.504   0.078   2.017
 9256SOL    HW228668   2.664   0.107   2.010
 9257SOL     OW28669   5.960   5.191   3.610
 9257SOL    HW128670   5.950   5.213   3.708
 9257SOL    HW228671   6.051   5.155   3.593
 9258SOL     OW28672   4.176   3.642   1.793
 9258SOL    HW128673   4.184   3.699   1.711
 9258SOL    HW228674   4.239   3.564   1.786
 9259SOL     OW28675   1.814   1.305   0.724
 9259SOL    HW128676   1.849   1.386   0.675
 9259SOL    HW228677   1.873   1.286   0.803
 9260SOL     OW28678   6.422   2.664   5.732
 9260SOL    HW128679   6.515   2.634   5.710
 9260SOL    HW228680   6.426   2.754   5.775
 9261SOL     OW28681   4.617   1.343   6.816
 9261SOL    HW128682   4.622   1.283   6.736
 9261SOL    HW228683   4.521   1.362   6.838
 9262SOL     OW28684   0.680   6.301   4.911
 9262SOL    HW128685   0.585   6.303   4.881
 9262SOL    HW228686   0.719   6.393   4.903
 9263SOL     OW28687   3.053   5.606   2.200
 9263SOL    HW128688   2.956   5.622   2.179
 9263SOL    HW228689   3.077   5.512   2.177
 9264SOL     OW28690   4.609   3.946   0.456
 9264SOL    HW128691   4.573   3.857   0.427
 9264SOL    HW228692   4.702   3.934   0.491
 9265SOL     OW28693   3.772   2.515   0.498
 9265SOL    HW128694   3.755   2.458   0.417
 9265SOL    HW228695   3.787   2.456   0.578
 9266SOL     OW28696   0.790   6.181   1.180
 9266SOL    HW128697   0.712   6.198   1.120
 9266SOL    HW228698   0.852   6.116   1.136
 9267SOL     OW28699   0.354   1.978   4.318
 9267SOL    HW128700   0.410   1.899   4.293
 9267SOL    HW228701   0.268   1.947   4.358
 9268SOL     OW28702   0.819   0.004   2.900
 9268SOL    HW128703   0.822   0.085   2.958
 9268SOL    HW228704   0.851   0.028   2.808
 9269SOL     OW28705   4.381   0.270   6.068
 9269SOL    HW128706   4.289   0.229   6.070
 9269SOL    HW228707   4.387   0.335   5.992
 9270SOL     OW28708   3.986   0.002   5.990
 9270SOL    HW128709   3.938   6.959   5.936
 9270SOL    HW228710   3.921   0.073   6.018
 9271SOL     OW28711   6.111   0.550   0.524
 9271SOL    HW128712   6.210   0.562   0.522
 9271SOL    HW228713   6.079   0.552   0.619
 9272SOL     OW28714   1.133   6.209   6.421
 9272SOL    HW128715   1.202   6.208   6.494
 9272SOL    HW228716   1.045   6.239   6.459
 9273SOL     OW28717   6.546   5.979   3.523
 9273SOL    HW128718   6.545   5.958   3.621
 9273SOL    HW228719   6.528   5.895   3.471
 9274SOL     OW28720   6.984   1.994   0.194
 9274SOL    HW128721   0.008   1.933   0.255
 9274SOL    HW228722   6.949   1.943   0.116
 9275SOL     OW28723   6.431   0.831   0.588
 9275SOL    HW128724   6.520   0.801   0.622
 9275SOL    HW228725   6.407   0.919   0.627
 9276SOL     OW28726   2.017   4.925   0.292
 9276SOL    HW128727   1.978   4.970   0.372
 9276SOL    HW228728   1.981   4.832   0.285
 9277SOL     OW28729   4.648   4.974   1.946
 9277SOL    HW128730   4.592   4.903   1.903
 9277SOL    HW228731   4.743   4.961   1.919
 9278SOL     OW28732   2.083   0.598   5.937
 9278SOL    HW128733   2.173   0.631   5.909
 9278SOL    HW228734   2.076   0.500   5.919
 9279SOL     OW28735   3.472   6.475   1.675
 9279SOL    HW128736   3.556   6.505   1.719
 9279SOL    HW228737   3.393   6.519   1.718
 9280SOL     OW28738   2.822   1.120   2.743
 9280SOL    HW128739   2.829   1.035   2.796
 9280SOL    HW228740   2.912   1.146   2.710
 9281SOL     OW28741   3.178   4.707   6.936
 9281SOL    HW128742   3.267   4.692   6.978
 9281SOL    HW228743   3.180   4.676   6.841
 9282SOL     OW28744   5.010   1.364   3.632
 9282SOL    HW128745   5.090   1.341   3.687
 9282SOL    HW228746   4.999   1.298   3.559
 9283SOL     OW28747   5.320   0.627   4.793
 9283SOL    HW128748   5.264   0.593   4.717
 9283SOL    HW228749   5.399   0.677   4.757
 9284SOL     OW28750   2.908   3.501   5.369
 9284SOL    HW128751   2.948   3.479   5.280
 9284SOL    HW228752   2.917   3.599   5.387
 9285SOL     OW28753   4.916   3.650   1.072
 9285SOL    HW128754   4.961   3.714   1.135
 9285SOL    HW228755   4.834   3.613   1.117
 9286SOL     OW28756   5.368   5.304   0.980
 9286SOL    HW128757   5.361   5.207   1.004
 9286SOL    HW228758   5.442   5.316   0.914
 9287SOL     OW28759   3.684   4.673   6.168
 9287SOL    HW128760   3.724   4.760   6.196
 9287SOL    HW228761   3.604   4.690   6.110
 9288SOL     OW28762   4.250   1.699   2.406
 9288SOL    HW128763   4.216   1.631   2.471
 9288SOL    HW228764   4.349   1.709   2.416
 9289SOL     OW28765   4.689   0.509   1.058
 9289SOL    HW128766   4.788   0.511   1.044
 9289SOL    HW228767   4.645   0.476   0.975
 9290SOL     OW28768   5.728   0.861   3.815
 9290SOL    HW128769   5.763   0.823   3.729
 9290SOL    HW228770   5.790   0.932   3.847
 9291SOL     OW28771   1.316   5.304   5.642
 9291SOL    HW128772   1.307   5.395   5.603
 9291SOL    HW228773   1.275   5.303   5.733
 9292SOL     OW28774   2.725   2.151   6.832
 9292SOL    HW128775   2.794   2.125   6.765
 9292SOL    HW228776   2.717   2.078   6.901
 9293SOL     OW28777   5.613   4.327   6.564
 9293SOL    HW128778   5.647   4.239   6.596
 9293SOL    HW228779   5.516   4.319   6.543
 9294SOL     OW28780   5.450   1.623   6.219
 9294SOL    HW128781   5.415   1.546   6.272
 9294SOL    HW228782   5.381   1.653   6.153
 9295SOL     OW28783   5.779   0.540   5.573
 9295SOL    HW128784   5.728   0.541   5.487
 9295SOL    HW228785   5.770   0.450   5.615
 9296SOL     OW28786   2.037   4.626   0.070
 9296SOL    HW128787   2.089   4.686   0.009
 9296SOL    HW228788   1.968   4.577   0.018
 9297SOL     OW28789   0.768   0.017   3.302
 9297SOL    HW128790   0.815   6.958   3.277
 9297SOL    HW228791   0.788   0.087   3.234
 9298SOL     OW28792   1.328   6.003   5.949
 9298SOL    HW128793   1.234   6.021   5.920
 9298SOL    HW228794   1.384   5.978   5.870
 9299SOL     OW28795   0.759   1.933   4.595
 9299SOL    HW128796   0.721   1.968   4.509
 9299SOL    HW228797   0.686   1.926   4.663
 9300SOL     OW28798   0.320   5.301   5.612
 9300SOL    HW128799   0.412   5.307   5.573
 9300SOL    HW228800   0.252   5.325   5.542
 9301SOL     OW28801   6.078   5.274   4.495
 9301SOL    HW128802   6.019   5.223   4.558
 9301SOL    HW228803   6.127   5.345   4.546
 9302SOL     OW28804   2.140   3.607   4.402
 9302SOL    HW128805   2.085   3.593   4.485
 9302SOL    HW228806   2.133   3.527   4.343
 9303SOL     OW28807   2.777   3.854   0.947
 9303SOL    HW128808   2.875   3.859   0.969
 9303SOL    HW228809   2.749   3.758   0.947
 9304SOL     OW28810   4.485   5.059   0.472
 9304SOL    HW128811   4.552   5.128   0.444
 9304SOL    HW228812   4.515   5.015   0.556
 9305SOL     OW28813   3.684   0.675   0.818
 9305SOL    HW128814   3.601   0.624   0.797
 9305SOL    HW228815   3.660   0.767   0.847
 9306SOL     OW28816   1.495   4.385   5.420
 9306SOL    HW128817   1.551   4.364   5.500
 9306SOL    HW228818   1.422   4.317   5.413
 9307SOL     OW28819   1.030   3.830   0.341
 9307SOL    HW128820   0.948   3.794   0.385
 9307SOL    HW228821   1.073   3.759   0.286
 9308SOL     OW28822   1.400   3.691   2.202
 9308SOL    HW128823   1.456   3.747   2.263
 9308SOL    HW228824   1.305   3.722   2.207
 9309SOL     OW28825   3.906   5.916   5.777
 9309SOL    HW128826   3.814   5.956   5.787
 9309SOL    HW228827   3.897   5.820   5.751
 9310SOL     OW28828   5.702   6.388   5.667
 9310SOL    HW128829   5.743   6.411   5.755
 9310SOL    HW228830   5.709   6.466   5.605
 9311SOL     OW28831   5.412   4.357   1.602
 9311SOL    HW128832   5.488   4.422   1.597
 9311SOL    HW228833   5.342   4.382   1.535
 9312SOL     OW28834   1.657   2.420   0.997
 9312SOL    HW128835   1.739   2.446   1.047
 9312SOL    HW228836   1.662   2.323   0.973
 9313SOL     OW28837   0.229   0.065   1.655
 9313SOL    HW128838   0.179   7.026   1.713
 9313SOL    HW228839   0.299   0.111   1.709
 9314SOL     OW28840   6.533   3.433   0.308
 9314SOL    HW128841   6.597   3.362   0.277
 9314SOL    HW228842   6.547   3.449   0.406
 9315SOL     OW28843   6.504   6.953   5.590
 9315SOL    HW128844   6.509   6.987   5.684
 9315SOL    HW228845   6.586   6.980   5.539
 9316SOL     OW28846   5.990   6.848   5.470
 9316SOL    HW128847   5.927   6.849   5.392
 9316SOL    HW228848   5.943   6.880   5.552
 9317SOL     OW28849   4.175   5.717   3.433
 9317SOL    HW128850   4.091   5.663   3.438
 9317SOL    HW228851   4.152   5.814   3.440
 9318SOL     OW28852   5.278   7.012   0.078
 9318SOL    HW128853   5.252   6.968   7.018
 9318SOL    HW228854   5.212   0.058   0.100
 9319SOL     OW28855   2.673   2.354   1.168
 9319SOL    HW128856   2.668   2.376   1.266
 9319SOL    HW228857   2.658   2.438   1.115
 9320SOL     OW28858   4.469   0.622   5.521
 9320SOL    HW128859   4.430   0.529   5.521
 9320SOL    HW228860   4.524   0.635   5.439
 9321SOL     OW28861   1.181   1.248   5.022
 9321SOL    HW128862   1.208   1.332   4.976
 9321SOL    HW228863   1.110   1.267   5.089
 9322SOL     OW28864   0.232   4.674   0.378
 9322SOL    HW128865   0.292   4.608   0.423
 9322SOL    HW228866   0.137   4.653   0.400
 9323SOL     OW28867   1.469   1.151   4.721
 9323SOL    HW128868   1.495   1.241   4.757
 9323SOL    HW228869   1.472   1.084   4.795
 9324SOL     OW28870   1.973   3.849   2.754
 9324SOL    HW128871   2.002   3.847   2.850
 9324SOL    HW228872   1.964   3.755   2.720
 9325SOL     OW28873   6.885   6.970   0.551
 9325SOL    HW128874   6.940   6.887   0.544
 9325SOL    HW228875   6.936   0.014   0.601
 9326SOL     OW28876   2.947   4.884   0.044
 9326SOL    HW128877   3.013   4.955   0.021
 9326SOL    HW228878   2.967   4.849   0.135
 9327SOL     OW28879   3.821   6.728   2.541
 9327SOL    HW128880   3.755   6.661   2.510
 9327SOL    HW228881   3.876   6.690   2.616
 9328SOL     OW28882   1.798   0.568   5.054
 9328SOL    HW128883   1.817   0.543   5.149
 9328SOL    HW228884   1.720   0.517   5.020
 9329SOL     OW28885   6.994   5.276   1.275
 9329SOL    HW128886   7.012   5.375   1.276
 9329SOL    HW228887   0.036   5.230   1.218
 9330SOL     OW28888   6.738   6.815   5.805
 9330SOL    HW128889   6.827   6.810   5.759
 9330SOL    HW228890   6.685   6.733   5.784
 9331SOL     OW28891   2.092   1.719   6.385
 9331SOL    HW128892   2.139   1.807   6.397
 9331SOL    HW228893   2.062   1.710   6.290
 9332SOL     OW28894   4.675   5.230   0.604
 9332SOL    HW128895   4.625   5.316   0.604
 9332SOL    HW228896   4.770   5.246   0.576
 9333SOL     OW28897   4.086   5.165   6.457
 9333SOL    HW128898   4.025   5.107   6.403
 9333SOL    HW228899   4.154   5.108   6.502
 9334SOL     OW28900   4.821   6.653   4.395
 9334SOL    HW128901   4.841   6.732   4.338
 9334SOL    HW228902   4.772   6.683   4.477
 9335SOL     OW28903   1.686   1.795   6.967
 9335SOL    HW128904   1.695   1.881   7.017
 9335SOL    HW228905   1.599   1.795   6.917
 9336SOL     OW28906   5.069   6.553   4.256
 9336SOL    HW128907   5.131   6.489   4.302
 9336SOL    HW228908   5.003   6.588   4.322
 9337SOL     OW28909   5.092   1.313   5.697
 9337SOL    HW128910   5.108   1.240   5.763
 9337SOL    HW228911   5.071   1.274   5.608
 9338SOL     OW28912   6.438   6.303   0.917
 9338SOL    HW128913   6.412   6.246   0.994
 9338SOL    HW228914   6.513   6.364   0.945
 9339SOL     OW28915   5.810   5.861   0.203
 9339SOL    HW128916   5.819   5.961   0.195
 9339SOL    HW228917   5.766   5.838   0.289
 9340SOL     OW28918   3.582   4.906   2.825
 9340SOL    HW128919   3.544   4.977   2.766
 9340SOL    HW228920   3.650   4.852   2.775
 9341SOL     OW28921   6.118   4.713   0.773
 9341SOL    HW128922   6.216   4.701   0.789
 9341SOL    HW228923   6.091   4.664   0.690
 9342SOL     OW28924   2.509   0.568   4.464
 9342SOL    HW128925   2.436   0.566   4.396
 9342SOL    HW228926   2.598   0.569   4.418
 9343SOL     OW28927   4.898   4.077   1.974
 9343SOL    HW128928   4.856   4.052   2.062
 9343SOL    HW228929   4.986   4.031   1.965
 9344SOL     OW28930   5.284   5.594   0.817
 9344SOL    HW128931   5.191   5.614   0.787
 9344SOL    HW228932   5.292   5.496   0.836
 9345SOL     OW28933   7.000   4.585   2.322
 9345SOL    HW128934   6.986   4.646   2.244
 9345SOL    HW228935   6.911   4.560   2.361
 9346SOL     OW28936   4.837   0.030   2.146
 9346SOL    HW128937   4.750   0.027   2.195
 9346SOL    HW228938   4.884   0.115   2.168
 9347SOL     OW28939   3.067   5.883   0.392
 9347SOL    HW128940   3.032   5.792   0.368
 9347SOL    HW228941   3.119   5.878   0.477
 9348SOL     OW28942   2.608   5.474   2.512
 9348SOL    HW128943   2.635   5.563   2.477
 9348SOL    HW228944   2.633   5.403   2.446
 9349SOL     OW28945   6.725   5.456   2.531
 9349SOL    HW128946   6.761   5.363   2.520
 9349SOL    HW228947   6.689   5.488   2.443
 9350SOL     OW28948   6.552   2.068   4.171
 9350SOL    HW128949   6.524   1.981   4.131
 9350SOL    HW228950   6.652   2.069   4.183
 9351SOL     OW28951   2.884   0.115   6.339
 9351SOL    HW128952   2.976   0.083   6.364
 9351SOL    HW228953   2.891   0.193   6.278
 9352SOL     OW28954   3.144   2.576   5.886
 9352SOL    HW128955   3.107   2.659   5.844
 9352SOL    HW228956   3.135   2.500   5.822
 9353SOL     OW28957   2.147   4.368   0.849
 9353SOL    HW128958   2.112   4.337   0.761
 9353SOL    HW228959   2.110   4.458   0.870
 9354SOL     OW28960   6.515   1.961   0.081
 9354SOL    HW128961   6.569   2.025   0.025
 9354SOL    HW228962   6.420   1.964   0.052
 9355SOL     OW28963   6.420   1.980   4.776
 9355SOL    HW128964   6.360   2.010   4.851
 9355SOL    HW228965   6.430   2.055   4.710
 9356SOL     OW28966   4.704   5.728   1.492
 9356SOL    HW128967   4.717   5.694   1.399
 9356SOL    HW228968   4.611   5.707   1.523
 9357SOL     OW28969   2.985   3.295   6.366
 9357SOL    HW128970   2.901   3.340   6.394
 9357SOL    HW228971   3.062   3.330   6.420
 9358SOL     OW28972   6.448   3.569   2.566
 9358SOL    HW128973   6.362   3.521   2.582
 9358SOL    HW228974   6.488   3.540   2.479
 9359SOL     OW28975   1.208   3.659   5.597
 9359SOL    HW128976   1.226   3.662   5.499
 9359SOL    HW228977   1.147   3.583   5.618
 9360SOL     OW28978   1.473   6.875   6.043
 9360SOL    HW128979   1.561   6.876   5.997
 9360SOL    HW228980   1.411   6.939   5.997
 9361SOL     OW28981   1.778   6.220   3.672
 9361SOL    HW128982   1.721   6.141   3.692
 9361SOL    HW228983   1.743   6.268   3.592
 9362SOL     OW28984   1.444   2.552   1.988
 9362SOL    HW128985   1.483   2.606   2.063
 9362SOL    HW228986   1.345   2.550   1.997
 9363SOL     OW28987   4.148   5.606   1.668
 9363SOL    HW128988   4.185   5.635   1.757
 9363SOL    HW228989   4.051   5.628   1.664
 9364SOL     OW28990   3.982   2.900   5.719
 9364SOL    HW128991   3.986   2.801   5.709
 9364SOL    HW228992   3.890   2.927   5.747
 9365SOL     OW28993   2.272   2.191   5.091
 9365SOL    HW128994   2.309   2.186   4.998
 9365SOL    HW228995   2.284   2.103   5.136
 9366SOL     OW28996   3.465   0.265   0.022
 9366SOL    HW128997   3.498   0.355   7.019
 9366SOL    HW228998   3.400   0.231   6.980
 9367SOL     OW28999   6.475   6.243   2.807
 9367SOL    HW129000   6.559   6.218   2.854
 9367SOL    HW229001   6.494   6.314   2.739
 9368SOL     OW29002   2.573   1.580   3.842
 9368SOL    HW129003   2.609   1.502   3.791
 9368SOL    HW229004   2.648   1.626   3.889
 9369SOL     OW29005   0.209   0.195   5.093
 9369SOL    HW129006   0.168   0.173   5.005
 9369SOL    HW229007   0.138   0.201   5.163
 9370SOL     OW29008   4.965   6.826   2.468
 9370SOL    HW129009   4.981   6.921   2.497
 9370SOL    HW229010   5.001   6.813   2.375
 9371SOL     OW29011   2.478   4.799   0.568
 9371SOL    HW129012   2.382   4.791   0.538
 9371SOL    HW229013   2.534   4.828   0.491
 9372SOL     OW29014   4.965   5.991   2.908
 9372SOL    HW129015   4.994   5.895   2.906
 9372SOL    HW229016   4.915   6.009   2.993
 9373SOL     OW29017   4.327   2.059   1.909
 9373SOL    HW129018   4.264   2.131   1.935
 9373SOL    HW229019   4.276   1.981   1.872
 9374SOL     OW29020   0.753   2.987   0.862
 9374SOL    HW129021   0.762   3.072   0.913
 9374SOL    HW229022   0.843   2.960   0.826
 9375SOL     OW29023   6.113   1.780   3.007
 9375SOL    HW129024   6.052   1.715   2.963
 9375SOL    HW229025   6.136   1.748   3.099
 9376SOL     OW29026   2.700   4.094   0.872
 9376SOL    HW129027   2.726   3.997   0.873
 9376SOL    HW229028   2.782   4.151   0.869
 9377SOL     OW29029   1.948   5.445   4.107
 9377SOL    HW129030   1.957   5.362   4.162
 9377SOL    HW229031   2.018   5.511   4.135
 9378SOL     OW29032   1.369   1.593   5.205
 9378SOL    HW129033   1.397   1.522   5.270
 9378SOL    HW229034   1.312   1.660   5.252
 9379SOL     OW29035   4.388   6.182   4.863
 9379SOL    HW129036   4.307   6.128   4.844
 9379SOL    HW229037   4.407   6.183   4.961
 9380SOL     OW29038   5.968   4.899   5.143
 9380SOL    HW129039   5.935   4.854   5.060
 9380SOL    HW229040   5.931   4.851   5.223
 9381SOL     OW29041   3.427   2.703   5.879
 9381SOL    HW129042   3.381   2.622   5.842
 9381SOL    HW229043   3.388   2.785   5.838
 9382SOL     OW29044   3.379   0.822   2.943
 9382SOL    HW129045   3.331   0.901   2.981
 9382SOL    HW229046   3.407   0.761   3.017
 9383SOL     OW29047   1.741   6.036   4.623
 9383SOL    HW129048   1.833   6.062   4.593
 9383SOL    HW229049   1.674   6.066   4.554
 9384SOL     OW29050   2.687   6.714   1.628
 9384SOL    HW129051   2.612   6.747   1.571
 9384SOL    HW229052   2.676   6.748   1.721
 9385SOL     OW29053   3.756   0.510   2.869
 9385SOL    HW129054   3.692   0.458   2.812
 9385SOL    HW229055   3.741   0.608   2.856
 9386SOL     OW29056   2.182   6.479   5.130
 9386SOL    HW129057   2.140   6.402   5.081
 9386SOL    HW229058   2.111   6.532   5.176
 9387SOL     OW29059   2.333   1.775   0.094
 9387SOL    HW129060   2.402   1.769   0.166
 9387SOL    HW229061   2.264   1.704   0.108
 9388SOL     OW29062   2.249   5.205   2.565
 9388SOL    HW129063   2.300   5.139   2.619
 9388SOL    HW229064   2.279   5.297   2.588
 9389SOL     OW29065   1.462   6.623   4.551
 9389SOL    HW129066   1.535   6.630   4.619
 9389SOL    HW229067   1.479   6.687   4.476
 9390SOL     OW29068   4.716   4.927   4.707
 9390SOL    HW129069   4.769   4.869   4.645
 9390SOL    HW229070   4.757   5.018   4.710
 9391SOL     OW29071   2.317   1.213   5.071
 9391SOL    HW129072   2.312   1.307   5.036
 9391SOL    HW229073   2.226   1.185   5.102
 9392SOL     OW29074   7.019   0.486   5.532
 9392SOL    HW129075   0.089   0.461   5.546
 9392SOL    HW229076   6.983   0.529   5.615
 9393SOL     OW29077   3.236   7.025   5.931
 9393SOL    HW129078   3.185   0.044   5.858
 9393SOL    HW229079   3.334   0.017   5.919
 9394SOL     OW29080   0.800   1.472   2.266
 9394SOL    HW129081   0.831   1.534   2.194
 9394SOL    HW229082   0.700   1.475   2.272
 9395SOL     OW29083   2.359   1.814   1.057
 9395SOL    HW129084   2.354   1.741   1.125
 9395SOL    HW229085   2.454   1.847   1.050
 9396SOL     OW29086   2.370   5.495   4.142
 9396SOL    HW129087   2.339   5.401   4.126
 9396SOL    HW229088   2.297   5.547   4.187
 9397SOL     OW29089   3.995   0.066   6.781
 9397SOL    HW129090   4.004   6.993   6.788
 9397SOL    HW229091   3.980   0.092   6.686
 9398SOL     OW29092   6.858   0.894   4.759
 9398SOL    HW129093   6.920   0.889   4.680
 9398SOL    HW229094   6.855   0.805   4.804
 9399SOL     OW29095   0.108   1.655   5.999
 9399SOL    HW129096   0.145   1.721   6.063
 9399SOL    HW229097   0.053   1.587   6.047
 9400SOL     OW29098   4.011   1.130   2.149
 9400SOL    HW129099   3.930   1.085   2.113
 9400SOL    HW229100   4.066   1.064   2.199
 9401SOL     OW29101   5.770   0.134   3.544
 9401SOL    HW129102   5.864   0.097   3.547
 9401SOL    HW229103   5.762   0.197   3.467
 9402SOL     OW29104   1.346   5.033   3.635
 9402SOL    HW129105   1.433   5.003   3.675
 9402SOL    HW229106   1.293   5.082   3.704
 9403SOL     OW29107   6.455   2.078   2.873
 9403SOL    HW129108   6.469   2.176   2.862
 9403SOL    HW229109   6.363   2.053   2.843
 9404SOL     OW29110   1.398   3.180   6.702
 9404SOL    HW129111   1.308   3.222   6.715
 9404SOL    HW229112   1.449   3.231   6.632
 9405SOL     OW29113   1.659   5.121   2.460
 9405SOL    HW129114   1.758   5.125   2.447
 9405SOL    HW229115   1.637   5.043   2.519
 9406SOL     OW29116   6.564   3.118   5.642
 9406SOL    HW129117   6.647   3.125   5.587
 9406SOL    HW229118   6.516   3.206   5.640
 9407SOL     OW29119   2.788   5.340   3.026
 9407SOL    HW129120   2.716   5.282   3.066
 9407SOL    HW229121   2.757   5.377   2.939
 9408SOL     OW29122   5.178   2.240   6.491
 9408SOL    HW129123   5.274   2.259   6.474
 9408SOL    HW229124   5.123   2.273   6.414
 9409SOL     OW29125   6.359   5.565   6.922
 9409SOL    HW129126   6.278   5.623   6.930
 9409SOL    HW229127   6.416   5.576   7.004
 9410SOL     OW29128   3.210   6.978   1.585
 9410SOL    HW129129   3.262   6.923   1.650
 9410SOL    HW229130   3.131   6.926   1.552
 9411SOL     OW29131   3.113   3.180   2.009
 9411SOL    HW129132   3.015   3.173   2.026
 9411SOL    HW229133   3.163   3.131   2.081
 9412SOL     OW29134   6.696   2.651   2.139
 9412SOL    HW129135   6.649   2.568   2.170
 9412SOL    HW229136   6.742   2.694   2.217
 9413SOL     OW29137   2.996   6.242   3.978
 9413SOL    HW129138   2.968   6.191   4.060
 9413SOL    HW229139   2.977   6.188   3.897
 9414SOL     OW29140   3.137   0.713   3.295
 9414SOL    HW129141   3.052   0.701   3.243
 9414SOL    HW229142   3.186   0.627   3.298
 9415SOL     OW29143   3.138   6.357   1.937
 9415SOL    HW129144   3.102   6.270   1.970
 9415SOL    HW229145   3.062   6.414   1.906
 9416SOL     OW29146   0.694   2.650   1.233
 9416SOL    HW129147   0.770   2.701   1.192
 9416SOL    HW229148   0.703   2.554   1.210
 9417SOL     OW29149   4.092   0.316   6.064
 9417SOL    HW129150   4.003   0.271   6.070
 9417SOL    HW229151   4.096   0.391   6.131
 9418SOL     OW29152   3.799   6.511   0.923
 9418SOL    HW129153   3.709   6.534   0.961
 9418SOL    HW229154   3.858   6.477   0.997
 9419SOL     OW29155   3.870   5.323   5.797
 9419SOL    HW129156   3.774   5.303   5.774
 9419SOL    HW229157   3.929   5.259   5.747
 9420SOL     OW29158   6.225   3.771   5.794
 9420SOL    HW129159   6.216   3.839   5.722
 9420SOL    HW229160   6.260   3.686   5.756
 9421SOL     OW29161   2.186   6.854   4.322
 9421SOL    HW129162   2.118   6.875   4.252
 9421SOL    HW229163   2.146   6.868   4.412
 9422SOL     OW29164   4.007   5.995   3.187
 9422SOL    HW129165   4.102   5.999   3.218
 9422SOL    HW229166   4.004   5.996   3.087
 9423SOL     OW29167   3.868   0.816   3.884
 9423SOL    HW129168   3.772   0.845   3.878
 9423SOL    HW229169   3.890   0.793   3.979
 9424SOL     OW29170   5.558   1.109   4.463
 9424SOL    HW129171   5.493   1.154   4.524
 9424SOL    HW229172   5.508   1.066   4.388
 9425SOL     OW29173   6.401   3.262   6.606
 9425SOL    HW129174   6.308   3.252   6.640
 9425SOL    HW229175   6.456   3.184   6.637
 9426SOL     OW29176   3.476   1.889   6.504
 9426SOL    HW129177   3.518   1.980   6.507
 9426SOL    HW229178   3.389   1.894   6.454
 9427SOL     OW29179   3.032   5.050   3.511
 9427SOL    HW129180   3.109   4.990   3.488
 9427SOL    HW229181   3.023   5.120   3.440
 9428SOL     OW29182   6.175   0.580   1.545
 9428SOL    HW129183   6.129   0.557   1.631
 9428SOL    HW229184   6.193   0.679   1.542
 9429SOL     OW29185   2.034   3.481   2.461
 9429SOL    HW129186   1.936   3.466   2.455
 9429SOL    HW229187   2.069   3.512   2.372
 9430SOL     OW29188   0.471   4.009   2.520
 9430SOL    HW129189   0.495   4.083   2.458
 9430SOL    HW229190   0.453   4.046   2.611
 9431SOL     OW29191   6.567   4.437   1.353
 9431SOL    HW129192   6.512   4.488   1.287
 9431SOL    HW229193   6.604   4.500   1.421
 9432SOL     OW29194   4.334   0.538   2.868
 9432SOL    HW129195   4.348   0.440   2.878
 9432SOL    HW229196   4.287   0.574   2.949
 9433SOL     OW29197   2.705   5.436   2.783
 9433SOL    HW129198   2.801   5.419   2.760
 9433SOL    HW229199   2.654   5.456   2.699
 9434SOL     OW29200   5.351   4.958   2.903
 9434SOL    HW129201   5.414   4.936   2.829
 9434SOL    HW229202   5.321   5.053   2.893
 9435SOL     OW29203   0.556   2.629   4.697
 9435SOL    HW129204   0.607   2.705   4.657
 9435SOL    HW229205   0.551   2.553   4.633
 9436SOL     OW29206   1.243   2.860   1.723
 9436SOL    HW129207   1.164   2.874   1.663
 9436SOL    HW229208   1.267   2.946   1.768
 9437SOL     OW29209   2.133   5.677   2.992
 9437SOL    HW129210   2.105   5.671   3.088
 9437SOL    HW229211   2.052   5.682   2.934
 9438SOL     OW29212   0.217   0.454   1.708
 9438SOL    HW129213   0.211   0.553   1.717
 9438SOL    HW229214   0.296   0.429   1.653
 9439SOL     OW29215   0.408   3.371   1.389
 9439SOL    HW129216   0.506   3.387   1.373
 9439SOL    HW229217   0.364   3.347   1.302
 9440SOL     OW29218   4.095   4.759   3.641
 9440SOL    HW129219   4.012   4.814   3.636
 9440SOL    HW229220   4.142   4.762   3.552
 9441SOL     OW29221   0.462   3.392   5.293
 9441SOL    HW129222   0.477   3.463   5.361
 9441SOL    HW229223   0.367   3.361   5.297
 9442SOL     OW29224   4.140   3.157   0.450
 9442SOL    HW129225   4.153   3.241   0.397
 9442SOL    HW229226   4.225   3.133   0.496
 9443SOL     OW29227   2.098   5.419   0.478
 9443SOL    HW129228   2.029   5.462   0.536
 9443SOL    HW229229   2.184   5.468   0.486
 9444SOL     OW29230   1.357   3.222   0.035
 9444SOL    HW129231   1.407   3.302   0.001
 9444SOL    HW229232   1.377   3.144   7.001
 9445SOL     OW29233   5.527   3.122   3.512
 9445SOL    HW129234   5.454   3.064   3.549
 9445SOL    HW229235   5.489   3.211   3.485
 9446SOL     OW29236   6.581   5.554   4.170
 9446SOL    HW129237   6.651   5.527   4.236
 9446SOL    HW229238   6.525   5.627   4.209
 9447SOL     OW29239   6.009   3.947   4.915
 9447SOL    HW129240   6.091   3.992   4.950
 9447SOL    HW229241   5.987   3.984   4.824
 9448SOL     OW29242   0.012   0.275   6.981
 9448SOL    HW129243   6.995   0.208   0.016
 9448SOL    HW229244   6.967   0.337   6.946
 9449SOL     OW29245   6.931   6.309   0.385
 9449SOL    HW129246   6.937   6.210   0.391
 9449SOL    HW229247   6.936   6.337   0.289
 9450SOL     OW29248   2.388   5.396   5.300
 9450SOL    HW129249   2.314   5.347   5.252
 9450SOL    HW229250   2.465   5.334   5.314
 9451SOL     OW29251   4.181   6.956   5.636
 9451SOL    HW129252   4.192   0.030   5.633
 9451SOL    HW229253   4.087   6.934   5.659
 9452SOL     OW29254   1.948   4.163   0.180
 9452SOL    HW129255   2.005   4.148   0.099
 9452SOL    HW229256   2.006   4.168   0.261
 9453SOL     OW29257   1.825   4.888   3.538
 9453SOL    HW129258   1.882   4.880   3.620
 9453SOL    HW229259   1.854   4.820   3.471
 9454SOL     OW29260   3.272   2.998   6.720
 9454SOL    HW129261   3.297   3.093   6.706
 9454SOL    HW229262   3.245   2.984   6.815
 9455SOL     OW29263   3.422   1.566   3.498
 9455SOL    HW129264   3.380   1.616   3.423
 9455SOL    HW229265   3.513   1.535   3.471
 9456SOL     OW29266   0.801   2.892   1.147
 9456SOL    HW129267   0.832   2.974   1.196
 9456SOL    HW229268   0.741   2.919   1.072
 9457SOL     OW29269   2.202   3.832   5.254
 9457SOL    HW129270   2.253   3.821   5.340
 9457SOL    HW229271   2.260   3.875   5.186
 9458SOL     OW29272   1.255   2.957   6.719
 9458SOL    HW129273   1.166   2.996   6.743
 9458SOL    HW229274   1.321   3.031   6.705
 9459SOL     OW29275   5.346   4.508   3.352
 9459SOL    HW129276   5.362   4.476   3.258
 9459SOL    HW229277   5.398   4.592   3.367
 9460SOL     OW29278   0.289   2.736   3.887
 9460SOL    HW129279   0.208   2.794   3.893
 9460SOL    HW229280   0.335   2.735   3.976
 9461SOL     OW29281   6.573   1.555   2.296
 9461SOL    HW129282   6.638   1.616   2.342
 9461SOL    HW229283   6.487   1.603   2.281
 9462SOL     OW29284   2.139   3.825   3.405
 9462SOL    HW129285   2.142   3.759   3.481
 9462SOL    HW229286   2.180   3.784   3.324
 9463SOL     OW29287   6.646   0.859   1.874
 9463SOL    HW129288   6.582   0.877   1.799
 9463SOL    HW229289   6.606   0.892   1.959
 9464SOL     OW29290   6.294   0.273   1.094
 9464SOL    HW129291   6.381   0.315   1.119
 9464SOL    HW229292   6.269   0.301   1.001
 9465SOL     OW29293   1.749   5.008   2.777
 9465SOL    HW129294   1.715   5.068   2.849
 9465SOL    HW229295   1.697   4.923   2.775
 9466SOL     OW29296   4.639   4.705   5.903
 9466SOL    HW129297   4.665   4.724   5.808
 9466SOL    HW229298   4.696   4.632   5.939
 9467SOL     OW29299   1.336   3.036   1.922
 9467SOL    HW129300   1.291   3.046   2.011
 9467SOL    HW229301   1.413   2.973   1.931
 9468SOL     OW29302   5.733   3.337   5.983
 9468SOL    HW129303   5.723   3.238   5.983
 9468SOL    HW229304   5.642   3.379   5.987
 9469SOL     OW29305   6.603   5.779   2.071
 9469SOL    HW129306   6.522   5.805   2.124
 9469SOL    HW229307   6.627   5.852   2.007
 9470SOL     OW29308   4.343   3.320   5.589
 9470SOL    HW129309   4.386   3.410   5.585
 9470SOL    HW229310   4.246   3.331   5.612
 9471SOL     OW29311   0.024   2.197   4.572
 9471SOL    HW129312   0.112   2.193   4.619
 9471SOL    HW229313   7.013   2.290   4.577
 9472SOL     OW29314   5.888   3.685   4.974
 9472SOL    HW129315   5.907   3.782   4.959
 9472SOL    HW229316   5.814   3.675   5.040
 9473SOL     OW29317   3.449   5.349   6.158
 9473SOL    HW129318   3.491   5.439   6.158
 9473SOL    HW229319   3.521   5.279   6.163
 9474SOL     OW29320   0.274   2.498   6.980
 9474SOL    HW129321   0.330   2.567   0.001
 9474SOL    HW229322   0.309   2.485   6.887
 9475SOL     OW29323   3.308   3.339   6.278
 9475SOL    HW129324   3.279   3.345   6.374
 9475SOL    HW229325   3.301   3.244   6.247
 9476SOL     OW29326   3.526   4.224   4.448
 9476SOL    HW129327   3.470   4.163   4.503
 9476SOL    HW229328   3.566   4.295   4.507
 9477SOL     OW29329   0.137   3.339   1.519
 9477SOL    HW129330   0.217   3.379   1.475
 9477SOL    HW229331   0.156   3.243   1.541
 9478SOL     OW29332   5.071   3.143   0.378
 9478SOL    HW129333   5.071   3.220   0.314
 9478SOL    HW229334   4.982   3.099   0.378
 9479SOL     OW29335   4.375   6.104   6.887
 9479SOL    HW129336   4.293   6.077   6.937
 9479SOL    HW229337   4.433   6.024   6.872
 9480SOL     OW29338   4.923   3.940   0.946
 9480SOL    HW129339   4.890   4.025   0.905
 9480SOL    HW229340   4.879   3.862   0.901
 9481SOL     OW29341   4.895   3.370   1.912
 9481SOL    HW129342   4.853   3.453   1.949
 9481SOL    HW229343   4.928   3.313   1.987
 9482SOL     OW29344   6.965   0.907   2.963
 9482SOL    HW129345   6.915   0.921   3.049
 9482SOL    HW229346   6.901   0.886   2.890
 9483SOL     OW29347   1.409   1.750   1.681
 9483SOL    HW129348   1.421   1.670   1.623
 9483SOL    HW229349   1.472   1.745   1.759
 9484SOL     OW29350   3.653   1.249   3.504
 9484SOL    HW129351   3.703   1.289   3.427
 9484SOL    HW229352   3.594   1.175   3.470
 9485SOL     OW29353   0.326   0.530   1.319
 9485SOL    HW129354   0.354   0.613   1.366
 9485SOL    HW229355   0.226   0.529   1.310
 9486SOL     OW29356   2.708   6.165   0.947
 9486SOL    HW129357   2.653   6.182   1.029
 9486SOL    HW229358   2.657   6.106   0.885
 9487SOL     OW29359   3.753   3.638   3.492
 9487SOL    HW129360   3.846   3.656   3.461
 9487SOL    HW229361   3.756   3.579   3.572
 9488SOL     OW29362   1.780   6.280   0.872
 9488SOL    HW129363   1.854   6.295   0.806
 9488SOL    HW229364   1.695   6.261   0.823
 9489SOL     OW29365   4.299   4.388   1.654
 9489SOL    HW129366   4.378   4.432   1.613
 9489SOL    HW229367   4.329   4.316   1.717
 9490SOL     OW29368   0.200   5.542   1.217
 9490SOL    HW129369   0.261   5.464   1.234
 9490SOL    HW229370   0.165   5.537   1.123
 9491SOL     OW29371   6.451   4.545   3.790
 9491SOL    HW129372   6.470   4.599   3.709
 9491SOL    HW229373   6.371   4.487   3.774
 9492SOL     OW29374   3.478   2.886   3.139
 9492SOL    HW129375   3.458   2.800   3.092
 9492SOL    HW229376   3.453   2.877   3.236
 9493SOL     OW29377   3.258   5.254   3.611
 9493SOL    HW129378   3.300   5.286   3.696
 9493SOL    HW229379   3.179   5.197   3.632
 9494SOL     OW29380   4.830   4.467   1.548
 9494SOL    HW129381   4.844   4.495   1.643
 9494SOL    HW229382   4.918   4.455   1.503
 9495SOL     OW29383   6.217   1.705   3.257
 9495SOL    HW129384   6.211   1.605   3.249
 9495SOL    HW229385   6.304   1.729   3.300
 9496SOL     OW29386   6.341   4.638   1.578
 9496SOL    HW129387   6.349   4.622   1.676
 9496SOL    HW229388   6.394   4.719   1.553
 9497SOL     OW29389   5.685   5.954   6.601
 9497SOL    HW129390   5.677   6.006   6.516
 9497SOL    HW229391   5.627   5.995   6.671
 9498SOL     OW29392   4.750   6.822   4.605
 9498SOL    HW129393   4.790   6.912   4.620
 9498SOL    HW229394   4.674   6.829   4.540
 9499SOL     OW29395   1.745   5.435   6.399
 9499SOL    HW129396   1.792   5.511   6.353
 9499SOL    HW229397   1.801   5.403   6.475
 9500SOL     OW29398   5.829   0.666   0.957
 9500SOL    HW129399   5.866   0.759   0.968
 9500SOL    HW229400   5.737   0.671   0.921
 9501SOL     OW29401   3.175   1.353   4.812
 9501SOL    HW129402   3.078   1.378   4.813
 9501SOL    HW229403   3.192   1.290   4.736
 9502SOL     OW29404   5.497   2.647   5.083
 9502SOL    HW129405   5.595   2.633   5.074
 9502SOL    HW229406   5.479   2.709   5.160
 9503SOL     OW29407   0.220   1.563   1.685
 9503SOL    HW129408   0.298   1.554   1.747
 9503SOL    HW229409   0.242   1.631   1.615
 9504SOL     OW29410   6.852   2.688   1.298
 9504SOL    HW129411   6.912   2.667   1.221
 9504SOL    HW229412   6.756   2.682   1.268
 9505SOL     OW29413   5.315   4.819   3.292
 9505SOL    HW129414   5.370   4.798   3.212
 9505SOL    HW229415   5.375   4.844   3.368
 9506SOL     OW29416   0.562   2.387   5.939
 9506SOL    HW129417   0.526   2.316   5.878
 9506SOL    HW229418   0.638   2.350   5.993
 9507SOL     OW29419   1.036   2.385   3.443
 9507SOL    HW129420   0.956   2.357   3.496
 9507SOL    HW229421   1.015   2.469   3.392
 9508SOL     OW29422   6.569   3.139   0.694
 9508SOL    HW129423   6.564   3.132   0.794
 9508SOL    HW229424   6.504   3.208   0.663
 9509SOL     OW29425   0.589   0.740   4.128
 9509SOL    HW129426   0.616   0.776   4.038
 9509SOL    HW229427   0.557   0.646   4.117
 9510SOL     OW29428   1.719   3.525   2.620
 9510SOL    HW129429   1.657   3.599   2.593
 9510SOL    HW229430   1.669   3.439   2.623
 9511SOL     OW29431   1.344   0.417   0.950
 9511SOL    HW129432   1.387   0.507   0.949
 9511SOL    HW229433   1.245   0.427   0.945
 9512SOL     OW29434   5.437   1.597   1.416
 9512SOL    HW129435   5.431   1.580   1.318
 9512SOL    HW229436   5.492   1.680   1.432
 9513SOL     OW29437   1.646   3.713   6.199
 9513SOL    HW129438   1.570   3.770   6.167
 9513SOL    HW229439   1.672   3.648   6.128
 9514SOL     OW29440   1.767   5.148   6.358
 9514SOL    HW129441   1.770   5.247   6.342
 9514SOL    HW229442   1.770   5.130   6.457
 9515SOL     OW29443   1.455   5.936   1.538
 9515SOL    HW129444   1.387   5.873   1.500
 9515SOL    HW229445   1.508   5.976   1.464
 9516SOL     OW29446   4.995   4.461   5.385
 9516SOL    HW129447   5.009   4.544   5.331
 9516SOL    HW229448   5.004   4.482   5.482
 9517SOL     OW29449   1.308   4.859   0.797
 9517SOL    HW129450   1.245   4.923   0.753
 9517SOL    HW229451   1.400   4.871   0.760
 9518SOL     OW29452   1.800   2.020   0.037
 9518SOL    HW129453   1.873   2.070   0.085
 9518SOL    HW229454   1.717   2.076   0.035
 9519SOL     OW29455   4.072   3.228   4.305
 9519SOL    HW129456   4.086   3.322   4.272
 9519SOL    HW229457   4.104   3.221   4.400
 9520SOL     OW29458   1.002   1.904   3.393
 9520SOL    HW129459   1.077   1.845   3.422
 9520SOL    HW229460   0.971   1.959   3.470
 9521SOL     OW29461   5.247   5.372   1.657
 9521SOL    HW129462   5.205   5.368   1.566
 9521SOL    HW229463   5.324   5.308   1.661
 9522SOL     OW29464   3.926   4.696   1.141
 9522SOL    HW129465   3.828   4.710   1.154
 9522SOL    HW229466   3.975   4.779   1.168
 9523SOL     OW29467   2.761   4.817   5.223
 9523SOL    HW129468   2.800   4.760   5.150
 9523SOL    HW229469   2.769   4.769   5.310
 9524SOL     OW29470   3.714   3.284   0.580
 9524SOL    HW129471   3.712   3.196   0.533
 9524SOL    HW229472   3.621   3.320   0.587
 9525SOL     OW29473   2.331   2.543   5.710
 9525SOL    HW129474   2.357   2.447   5.721
 9525SOL    HW229475   2.257   2.550   5.643
 9526SOL     OW29476   6.448   4.802   1.063
 9526SOL    HW129477   6.507   4.866   1.113
 9526SOL    HW229478   6.421   4.728   1.124
 9527SOL     OW29479   0.705   0.994   4.728
 9527SOL    HW129480   0.676   0.948   4.644
 9527SOL    HW229481   0.665   0.949   4.807
 9528SOL     OW29482   6.550   1.405   0.881
 9528SOL    HW129483   6.457   1.399   0.917
 9528SOL    HW229484   6.583   1.499   0.889
 9529SOL     OW29485   6.279   3.553   6.153
 9529SOL    HW129486   6.201   3.513   6.104
 9529SOL    HW229487   6.303   3.641   6.112
 9530SOL     OW29488   2.132   3.280   3.128
 9530SOL    HW129489   2.124   3.180   3.136
 9530SOL    HW229490   2.143   3.305   3.032
 9531SOL     OW29491   4.547   5.376   2.748
 9531SOL    HW129492   4.584   5.468   2.732
 9531SOL    HW229493   4.450   5.375   2.725
 9532SOL     OW29494   0.279   6.455   1.243
 9532SOL    HW129495   0.334   6.446   1.161
 9532SOL    HW229496   0.332   6.424   1.322
 9533SOL     OW29497   0.472   6.058   5.118
 9533SOL    HW129498   0.494   5.963   5.141
 9533SOL    HW229499   0.386   6.084   5.162
 9534SOL     OW29500   6.866   4.191   4.666
 9534SOL    HW129501   6.888   4.203   4.569
 9534SOL    HW229502   6.861   4.093   4.687
 9535SOL     OW29503   2.283   0.880   6.728
 9535SOL    HW129504   2.297   0.832   6.641
 9535SOL    HW229505   2.265   0.976   6.710
 9536SOL     OW29506   2.929   3.834   6.083
 9536SOL    HW129507   2.836   3.869   6.082
 9536SOL    HW229508   2.967   3.839   5.990
 9537SOL     OW29509   2.701   6.732   4.035
 9537SOL    HW129510   2.748   6.819   4.017
 9537SOL    HW229511   2.605   6.750   4.053
 9538SOL     OW29512   5.874   1.469   3.746
 9538SOL    HW129513   5.898   1.471   3.843
 9538SOL    HW229514   5.927   1.397   3.701
 9539SOL     OW29515   3.438   3.871   4.985
 9539SOL    HW129516   3.360   3.874   5.047
 9539SOL    HW229517   3.521   3.852   5.037
 9540SOL     OW29518   5.915   3.839   4.508
 9540SOL    HW129519   5.985   3.784   4.553
 9540SOL    HW229520   5.936   3.846   4.411
 9541SOL     OW29521   3.309   0.755   5.733
 9541SOL    HW129522   3.387   0.724   5.788
 9541SOL    HW229523   3.333   0.840   5.687
 9542SOL     OW29524   4.980   4.296   4.763
 9542SOL    HW129525   4.985   4.248   4.675
 9542SOL    HW229526   4.884   4.317   4.784
 9543SOL     OW29527   3.447   0.648   5.950
 9543SOL    HW129528   3.478   0.694   6.034
 9543SOL    HW229529   3.403   0.562   5.973
 9544SOL     OW29530   7.019   2.342   2.953
 9544SOL    HW129531   0.034   2.285   3.024
 9544SOL    HW229532   0.055   2.346   2.874
 9545SOL     OW29533   6.052   5.642   4.425
 9545SOL    HW129534   6.013   5.733   4.412
 9545SOL    HW229535   6.074   5.628   4.521
 9546SOL     OW29536   3.512   2.016   5.311
 9546SOL    HW129537   3.510   1.958   5.393
 9546SOL    HW229538   3.429   2.071   5.307
 9547SOL     OW29539   2.249   6.155   4.255
 9547SOL    HW129540   2.315   6.145   4.330
 9547SOL    HW229541   2.172   6.211   4.286
 9548SOL     OW29542   6.049   5.497   6.422
 9548SOL    HW129543   6.083   5.426   6.361
 9548SOL    HW229544   6.048   5.463   6.516
 9549SOL     OW29545   2.516   2.810   1.141
 9549SOL    HW129546   2.538   2.759   1.224
 9549SOL    HW229547   2.430   2.858   1.154
 9550SOL     OW29548   0.320   1.585   0.298
 9550SOL    HW129549   0.354   1.652   0.364
 9550SOL    HW229550   0.362   1.496   0.317
 9551SOL     OW29551   5.375   1.671   4.333
 9551SOL    HW129552   5.318   1.694   4.412
 9551SOL    HW229553   5.364   1.574   4.311
 9552SOL     OW29554   1.359   0.109   4.002
 9552SOL    HW129555   1.340   0.082   3.908
 9552SOL    HW229556   1.318   0.043   4.064
 9553SOL     OW29557   6.391   3.124   6.014
 9553SOL    HW129558   6.443   3.209   6.027
 9553SOL    HW229559   6.312   3.143   5.956
 9554SOL     OW29560   1.933   6.304   1.423
 9554SOL    HW129561   1.909   6.264   1.335
 9554SOL    HW229562   1.869   6.273   1.493
 9555SOL     OW29563   1.142   0.821   3.409
 9555SOL    HW129564   1.186   0.867   3.332
 9555SOL    HW229565   1.079   0.885   3.454
 9556SOL     OW29566   1.573   3.457   1.642
 9556SOL    HW129567   1.516   3.517   1.584
 9556SOL    HW229568   1.587   3.500   1.731
 9557SOL     OW29569   0.757   6.665   2.449
 9557SOL    HW129570   0.845   6.674   2.403
 9557SOL    HW229571   0.694   6.736   2.415
 9558SOL     OW29572   6.061   6.107   4.900
 9558SOL    HW129573   6.039   6.090   4.803
 9558SOL    HW229574   6.112   6.192   4.908
 9559SOL     OW29575   0.083   4.443   0.906
 9559SOL    HW129576   0.056   4.513   0.972
 9559SOL    HW229577   0.002   4.393   0.876
 9560SOL     OW29578   1.938   1.026   3.438
 9560SOL    HW129579   2.004   1.055   3.507
 9560SOL    HW229580   1.986   0.987   3.359
 9561SOL     OW29581   1.346   6.737   0.219
 9561SOL    HW129582   1.367   6.699   0.128
 9561SOL    HW229583   1.368   6.835   0.220
 9562SOL     OW29584   3.302   0.147   5.325
 9562SOL    HW129585   3.282   0.168   5.230
 9562SOL    HW229586   3.249   0.066   5.353
 9563SOL     OW29587   6.232   6.062   0.902
 9563SOL    HW129588   6.284   6.102   0.827
 9563SOL    HW229589   6.270   6.092   0.989
 9564SOL     OW29590   2.920   0.057   0.699
 9564SOL    HW129591   2.898   6.987   0.683
 9564SOL    HW229592   2.977   0.066   0.780
 9565SOL     OW29593   3.900   0.627   5.019
 9565SOL    HW129594   3.976   0.620   4.955
 9565SOL    HW229595   3.848   0.711   4.999
 9566SOL     OW29596   1.895   4.873   6.987
 9566SOL    HW129597   1.931   4.893   6.896
 9566SOL    HW229598   1.969   4.845   0.022
 9567SOL     OW29599   5.452   5.025   0.648
 9567SOL    HW129600   5.353   5.037   0.650
 9567SOL    HW229601   5.488   5.057   0.560
 9568SOL     OW29602   4.572   2.282   6.763
 9568SOL    HW129603   4.542   2.216   6.832
 9568SOL    HW229604   4.672   2.281   6.758
 9569SOL     OW29605   0.978   1.911   2.423
 9569SOL    HW129606   1.052   1.941   2.363
 9569SOL    HW229607   0.898   1.969   2.410
 9570SOL     OW29608   0.596   2.851   2.275
 9570SOL    HW129609   0.583   2.753   2.284
 9570SOL    HW229610   0.581   2.878   2.180
 9571SOL     OW29611   3.747   4.268   6.084
 9571SOL    HW129612   3.736   4.180   6.037
 9571SOL    HW229613   3.790   4.253   6.173
 9572SOL     OW29614   1.728   4.841   2.191
 9572SOL    HW129615   1.721   4.837   2.291
 9572SOL    HW229616   1.644   4.805   2.150
 9573SOL     OW29617   0.611   1.372   6.708
 9573SOL    HW129618   0.592   1.370   6.610
 9573SOL    HW229619   0.594   1.282   6.747
 9574SOL     OW29620   4.043   3.244   3.679
 9574SOL    HW129621   4.069   3.312   3.747
 9574SOL    HW229622   4.002   3.165   3.726
 9575SOL     OW29623   6.763   1.194   1.417
 9575SOL    HW129624   6.837   1.246   1.375
 9575SOL    HW229625   6.715   1.253   1.483
 9576SOL     OW29626   2.322   0.066   1.963
 9576SOL    HW129627   2.276   7.011   1.924
 9576SOL    HW229628   2.295   0.147   1.912
 9577SOL     OW29629   1.766   0.536   6.209
 9577SOL    HW129630   1.777   0.472   6.133
 9577SOL    HW229631   1.836   0.608   6.204
 9578SOL     OW29632   0.526   3.977   3.997
 9578SOL    HW129633   0.500   3.925   4.078
 9578SOL    HW229634   0.577   4.059   4.026
 9579SOL     OW29635   1.334   5.133   2.871
 9579SOL    HW129636   1.272   5.140   2.950
 9579SOL    HW229637   1.329   5.040   2.834
 9580SOL     OW29638   3.920   3.245   0.742
 9580SOL    HW129639   3.880   3.297   0.816
 9580SOL    HW229640   3.856   3.240   0.665
 9581SOL     OW29641   0.844   5.379   6.377
 9581SOL    HW129642   0.862   5.318   6.454
 9581SOL    HW229643   0.751   5.365   6.344
 9582SOL     OW29644   4.733   5.323   5.804
 9582SOL    HW129645   4.650   5.291   5.848
 9582SOL    HW229646   4.736   5.423   5.806
 9583SOL     OW29647   3.968   4.452   1.274
 9583SOL    HW129648   4.004   4.373   1.224
 9583SOL    HW229649   3.939   4.522   1.209
 9584SOL     OW29650   6.549   6.162   0.244
 9584SOL    HW129651   6.615   6.102   0.290
 9584SOL    HW229652   6.471   6.178   0.305
 9585SOL     OW29653   6.406   0.522   3.974
 9585SOL    HW129654   6.391   0.438   3.921
 9585SOL    HW229655   6.390   0.505   4.071
 9586SOL     OW29656   6.398   4.060   2.644
 9586SOL    HW129657   6.483   4.030   2.687
 9586SOL    HW229658   6.343   3.980   2.621
 9587SOL     OW29659   0.502   0.939   2.145
 9587SOL    HW129660   0.417   0.968   2.188
 9587SOL    HW229661   0.564   0.901   2.214
 9588SOL     OW29662   0.684   1.809   2.068
 9588SOL    HW129663   0.764   1.752   2.052
 9588SOL    HW229664   0.603   1.751   2.077
 9589SOL     OW29665   2.502   5.284   6.039
 9589SOL    HW129666   2.545   5.371   6.018
 9589SOL    HW229667   2.408   5.284   6.006
 9590SOL     OW29668   6.986   3.520   1.790
 9590SOL    HW129669   6.984   3.466   1.706
 9590SOL    HW229670   0.027   3.594   1.781
 9591SOL     OW29671   3.023   5.795   6.460
 9591SOL    HW129672   2.976   5.713   6.427
 9591SOL    HW229673   3.057   5.847   6.382
 9592SOL     OW29674   3.084   4.070   1.499
 9592SOL    HW129675   2.990   4.103   1.497
 9592SOL    HW229676   3.091   3.995   1.565
 9593SOL     OW29677   6.992   0.391   4.819
 9593SOL    HW129678   7.014   0.295   4.837
 9593SOL    HW229679   7.022   0.416   4.727
 9594SOL     OW29680   1.764   6.662   3.048
 9594SOL    HW129681   1.720   6.575   3.025
 9594SOL    HW229682   1.786   6.663   3.145
 9595SOL     OW29683   1.632   4.674   5.495
 9595SOL    HW129684   1.698   4.602   5.473
 9595SOL    HW229685   1.540   4.637   5.493
 9596SOL     OW29686   0.449   5.827   0.169
 9596SOL    HW129687   0.525   5.845   0.233
 9596SOL    HW229688   0.438   5.905   0.108
 9597SOL     OW29689   0.592   4.295   1.004
 9597SOL    HW129690   0.493   4.284   1.007
 9597SOL    HW229691   0.635   4.222   1.057
 9598SOL     OW29692   1.404   3.533   4.912
 9598SOL    HW129693   1.420   3.628   4.885
 9598SOL    HW229694   1.488   3.495   4.949
 9599SOL     OW29695   4.273   0.421   5.476
 9599SOL    HW129696   4.241   0.357   5.545
 9599SOL    HW229697   4.202   0.489   5.457
 9600SOL     OW29698   2.078   7.004   0.184
 9600SOL    HW129699   2.060   6.908   0.201
 9600SOL    HW229700   2.030   0.007   0.101
 9601SOL     OW29701   6.639   3.367   1.141
 9601SOL    HW129702   6.589   3.440   1.095
 9601SOL    HW229703   6.735   3.394   1.153
 9602SOL     OW29704   6.688   5.034   6.832
 9602SOL    HW129705   6.662   5.071   6.922
 9602SOL    HW229706   6.644   5.088   6.760
 9603SOL     OW29707   3.668   1.585   5.365
 9603SOL    HW129708   3.644   1.598   5.461
 9603SOL    HW229709   3.705   1.671   5.328
 9604SOL     OW29710   3.952   0.700   6.913
 9604SOL    HW129711   3.994   0.609   6.923
 9604SOL    HW229712   4.022   0.765   6.886
 9605SOL     OW29713   0.458   4.778   4.114
 9605SOL    HW129714   0.448   4.787   4.015
 9605SOL    HW229715   0.501   4.860   4.151
 9606SOL     OW29716   1.907   6.174   5.704
 9606SOL    HW129717   1.982   6.170   5.638
 9606SOL    HW229718   1.832   6.228   5.665
 9607SOL     OW29719   1.606   1.408   1.909
 9607SOL    HW129720   1.613   1.478   1.838
 9607SOL    HW229721   1.646   1.322   1.876
 9608SOL     OW29722   6.677   6.606   2.265
 9608SOL    HW129723   6.673   6.589   2.167
 9608SOL    HW229724   6.740   6.682   2.283
 9609SOL     OW29725   2.061   3.633   6.376
 9609SOL    HW129726   2.084   3.536   6.367
 9609SOL    HW229727   2.123   3.687   6.319
 9610SOL     OW29728   2.269   5.244   4.101
 9610SOL    HW129729   2.311   5.153   4.098
 9610SOL    HW229730   2.176   5.236   4.138
 9611SOL     OW29731   0.350   6.680   6.753
 9611SOL    HW129732   0.433   6.715   6.797
 9611SOL    HW229733   0.354   6.580   6.750
 9612SOL     OW29734   0.723   3.315   1.910
 9612SOL    HW129735   0.806   3.308   1.966
 9612SOL    HW229736   0.643   3.321   1.970
 9613SOL     OW29737   4.098   6.384   3.481
 9613SOL    HW129738   4.099   6.478   3.446
 9613SOL    HW229739   4.049   6.382   3.569
 9614SOL     OW29740   3.881   2.157   0.899
 9614SOL    HW129741   3.951   2.214   0.856
 9614SOL    HW229742   3.813   2.215   0.944
 9615SOL     OW29743   0.464   6.988   1.819
 9615SOL    HW129744   0.488   0.060   1.821
 9615SOL    HW229745   0.445   6.961   1.725
 9616SOL     OW29746   4.631   3.660   1.425
 9616SOL    HW129747   4.714   3.608   1.445
 9616SOL    HW229748   4.652   3.757   1.422
 9617SOL     OW29749   1.328   3.730   4.305
 9617SOL    HW129750   1.353   3.804   4.241
 9617SOL    HW229751   1.261   3.765   4.371
 9618SOL     OW29752   3.605   6.656   6.103
 9618SOL    HW129753   3.637   6.590   6.171
 9618SOL    HW229754   3.560   6.608   6.027
 9619SOL     OW29755   0.626   6.801   0.162
 9619SOL    HW129756   0.568   6.719   0.158
 9619SOL    HW229757   0.711   6.779   0.212
 9620SOL     OW29758   5.324   2.912   6.987
 9620SOL    HW129759   5.417   2.929   6.955
 9620SOL    HW229760   5.316   2.817   7.018
 9621SOL     OW29761   1.648   0.817   3.263
 9621SOL    HW129762   1.561   0.784   3.300
 9621SOL    HW229763   1.634   0.846   3.168
 9622SOL     OW29764   5.572   1.002   0.414
 9622SOL    HW129765   5.606   1.071   0.479
 9622SOL    HW229766   5.484   1.032   0.377
 9623SOL     OW29767   4.202   5.089   4.949
 9623SOL    HW129768   4.300   5.083   4.967
 9623SOL    HW229769   4.161   4.998   4.960
 9624SOL     OW29770   6.217   4.432   3.635
 9624SOL    HW129771   6.135   4.490   3.634
 9624SOL    HW229772   6.281   4.465   3.565
 9625SOL     OW29773   4.984   5.477   6.990
 9625SOL    HW129774   4.893   5.473   6.948
 9625SOL    HW229775   5.038   5.399   6.960
 9626SOL     OW29776   2.329   6.329   0.183
 9626SOL    HW129777   2.237   6.310   0.216
 9626SOL    HW229778   2.351   6.425   0.197
 9627SOL     OW29779   6.917   3.874   3.802
 9627SOL    HW129780   6.828   3.908   3.832
 9627SOL    HW229781   6.987   3.903   3.868
 9628SOL     OW29782   6.374   4.671   0.063
 9628SOL    HW129783   6.448   4.689   0.127
 9628SOL    HW229784   6.400   4.700   6.997
 9629SOL     OW29785   0.028   6.495   2.778
 9629SOL    HW129786   6.972   6.505   2.721
 9629SOL    HW229787   0.097   6.442   2.729
 9630SOL     OW29788   6.163   6.370   4.923
 9630SOL    HW129789   6.152   6.443   4.856
 9630SOL    HW229790   6.152   6.407   5.016
 9631SOL     OW29791   5.423   1.375   0.200
 9631SOL    HW129792   5.339   1.345   0.155
 9631SOL    HW229793   5.401   1.437   0.274
 9632SOL     OW29794   1.943   5.191   2.081
 9632SOL    HW129795   1.942   5.095   2.110
 9632SOL    HW229796   2.027   5.235   2.114
 9633SOL     OW29797   4.472   4.553   0.261
 9633SOL    HW129798   4.479   4.642   0.306
 9633SOL    HW229799   4.491   4.481   0.328
 9634SOL     OW29800   0.116   6.593   4.178
 9634SOL    HW129801   0.176   6.649   4.234
 9634SOL    HW229802   0.119   6.626   4.083
 9635SOL     OW29803   2.614   4.486   5.532
 9635SOL    HW129804   2.571   4.559   5.585
 9635SOL    HW229805   2.582   4.397   5.565
 9636SOL     OW29806   4.719   1.781   6.276
 9636SOL    HW129807   4.661   1.841   6.221
 9636SOL    HW229808   4.671   1.755   6.360
 9637SOL     OW29809   3.345   2.456   0.142
 9637SOL    HW129810   3.325   2.545   0.184
 9637SOL    HW229811   3.348   2.466   0.043
 9638SOL     OW29812   0.173   3.764   6.385
 9638SOL    HW129813   0.203   3.710   6.463
 9638SOL    HW229814   0.114   3.709   6.326
 9639SOL     OW29815   4.537   1.655   2.343
 9639SOL    HW129816   4.582   1.679   2.257
 9639SOL    HW229817   4.533   1.555   2.352
 9640SOL     OW29818   3.239   1.074   2.912
 9640SOL    HW129819   3.290   1.101   2.994
 9640SOL    HW229820   3.160   1.020   2.938
 9641SOL     OW29821   5.710   5.788   1.460
 9641SOL    HW129822   5.805   5.757   1.463
 9641SOL    HW229823   5.657   5.738   1.529
 9642SOL     OW29824   2.175   5.748   4.974
 9642SOL    HW129825   2.125   5.785   4.896
 9642SOL    HW229826   2.274   5.753   4.956
 9643SOL     OW29827   6.019   4.764   4.129
 9643SOL    HW129828   6.107   4.739   4.088
 9643SOL    HW229829   5.991   4.691   4.193
 9644SOL     OW29830   0.394   4.868   4.631
 9644SOL    HW129831   0.472   4.825   4.586
 9644SOL    HW229832   0.363   4.809   4.706
 9645SOL     OW29833   3.043   4.851   3.848
 9645SOL    HW129834   3.138   4.846   3.817
 9645SOL    HW229835   3.038   4.825   3.944
 9646SOL     OW29836   2.530   4.550   1.965
 9646SOL    HW129837   2.629   4.565   1.967
 9646SOL    HW229838   2.487   4.615   1.902
 9647SOL     OW29839   0.709   5.620   2.200
 9647SOL    HW129840   0.712   5.703   2.256
 9647SOL    HW229841   0.708   5.539   2.259
 9648SOL     OW29842   3.223   1.902   0.100
 9648SOL    HW129843   3.144   1.896   0.160
 9648SOL    HW229844   3.196   1.884   0.005
 9649SOL     OW29845   2.347   4.486   6.800
 9649SOL    HW129846   2.411   4.523   6.867
 9649SOL    HW229847   2.325   4.557   6.732
 9650SOL     OW29848   4.834   4.527   3.051
 9650SOL    HW129849   4.819   4.611   3.000
 9650SOL    HW229850   4.748   4.476   3.059
 9651SOL     OW29851   5.739   1.421   0.701
 9651SOL    HW129852   5.667   1.443   0.768
 9651SOL    HW229853   5.805   1.359   0.742
 9652SOL     OW29854   2.068   4.141   1.499
 9652SOL    HW129855   2.107   4.072   1.439
 9652SOL    HW229856   2.002   4.098   1.561
 9653SOL     OW29857   4.455   5.020   5.067
 9653SOL    HW129858   4.514   5.095   5.037
 9653SOL    HW229859   4.418   5.042   5.157
 9654SOL     OW29860   3.427   3.216   2.543
 9654SOL    HW129861   3.331   3.209   2.519
 9654SOL    HW229862   3.460   3.127   2.576
 9655SOL     OW29863   0.383   1.604   0.675
 9655SOL    HW129864   0.338   1.517   0.657
 9655SOL    HW229865   0.352   1.640   0.763
 9656SOL     OW29866   4.355   1.888   1.091
 9656SOL    HW129867   4.359   1.866   0.994
 9656SOL    HW229868   4.327   1.807   1.143
 9657SOL     OW29869   6.206   2.917   3.510
 9657SOL    HW129870   6.225   2.822   3.534
 9657SOL    HW229871   6.109   2.928   3.490
 9658SOL     OW29872   5.485   2.218   2.471
 9658SOL    HW129873   5.415   2.205   2.401
 9658SOL    HW229874   5.505   2.131   2.516
 9659SOL     OW29875   0.131   2.794   0.204
 9659SOL    HW129876   0.085   2.879   0.229
 9659SOL    HW229877   0.228   2.810   0.191
 9660SOL     OW29878   0.906   6.532   2.158
 9660SOL    HW129879   0.846   6.605   2.127
 9660SOL    HW229880   0.953   6.561   2.241
 9661SOL     OW29881   3.150   6.254   1.155
 9661SOL    HW129882   3.182   6.290   1.067
 9661SOL    HW229883   3.209   6.177   1.182
 9662SOL     OW29884   4.453   2.667   5.296
 9662SOL    HW129885   4.360   2.670   5.334
 9662SOL    HW229886   4.502   2.750   5.322
 9663SOL     OW29887   6.483   6.969   2.927
 9663SOL    HW129888   6.579   6.992   2.912
 9663SOL    HW229889   6.431   6.984   2.843
 9664SOL     OW29890   5.300   6.117   4.762
 9664SOL    HW129891   5.315   6.064   4.845
 9664SOL    HW229892   5.241   6.195   4.782
 9665SOL     OW29893   5.909   6.132   6.617
 9665SOL    HW129894   5.848   6.054   6.625
 9665SOL    HW229895   5.998   6.101   6.581
 9666SOL     OW29896   6.843   3.882   2.532
 9666SOL    HW129897   6.775   3.889   2.604
 9666SOL    HW229898   6.879   3.788   2.529
 9667SOL     OW29899   4.515   3.314   6.264
 9667SOL    HW129900   4.477   3.320   6.172
 9667SOL    HW229901   4.441   3.298   6.330
 9668SOL     OW29902   6.669   0.322   5.977
 9668SOL    HW129903   6.671   0.416   6.010
 9668SOL    HW229904   6.655   0.321   5.878
 9669SOL     OW29905   2.086   0.235   2.624
 9669SOL    HW129906   2.163   0.225   2.561
 9669SOL    HW229907   2.096   0.171   2.701
 9670SOL     OW29908   6.382   5.037   6.433
 9670SOL    HW129909   6.327   5.111   6.470
 9670SOL    HW229910   6.328   4.953   6.431
 9671SOL     OW29911   6.019   4.946   6.781
 9671SOL    HW129912   6.112   4.973   6.757
 9671SOL    HW229913   6.021   4.892   6.865
 9672SOL     OW29914   1.682   5.549   4.071
 9672SOL    HW129915   1.607   5.485   4.088
 9672SOL    HW229916   1.769   5.503   4.087
 9673SOL     OW29917   4.689   3.417   1.027
 9673SOL    HW129918   4.778   3.375   1.046
 9673SOL    HW229919   4.689   3.455   0.934
 9674SOL     OW29920   2.562   6.588   2.813
 9674SOL    HW129921   2.624   6.593   2.734
 9674SOL    HW229922   2.496   6.663   2.808
 9675SOL     OW29923   5.624   2.738   0.044
 9675SOL    HW129924   5.692   2.785   0.100
 9675SOL    HW229925   5.590   2.658   0.093
 9676SOL     OW29926   1.612   4.032   5.745
 9676SOL    HW129927   1.572   3.950   5.704
 9676SOL    HW229928   1.709   4.018   5.762
 9677SOL     OW29929   0.106   5.463   4.956
 9677SOL    HW129930   0.074   5.550   4.918
 9677SOL    HW229931   0.121   5.473   5.054
 9678SOL     OW29932   2.885   3.551   3.554
 9678SOL    HW129933   2.912   3.617   3.625
 9678SOL    HW229934   2.952   3.477   3.551
 9679SOL     OW29935   3.434   1.302   3.634
 9679SOL    HW129936   3.402   1.393   3.607
 9679SOL    HW229937   3.530   1.292   3.606
 9680SOL     OW29938   4.146   1.157   2.909
 9680SOL    HW129939   4.239   1.147   2.873
 9680SOL    HW229940   4.082   1.169   2.833
 9681SOL     OW29941   2.995   1.897   0.649
 9681SOL    HW129942   2.940   1.972   0.612
 9681SOL    HW229943   2.995   1.820   0.585
 9682SOL     OW29944   5.317   4.709   3.650
 9682SOL    HW129945   5.308   4.809   3.655
 9682SOL    HW229946   5.409   4.682   3.681
 9683SOL     OW29947   2.591   5.485   1.005
 9683SOL    HW129948   2.687   5.458   1.010
 9683SOL    HW229949   2.553   5.456   0.917
 9684SOL     OW29950   0.090   3.290   6.375
 9684SOL    HW129951   0.031   3.340   6.311
 9684SOL    HW229952   0.080   3.330   6.466
 9685SOL     OW29953   3.351   4.506   0.876
 9685SOL    HW129954   3.314   4.486   0.786
 9685SOL    HW229955   3.371   4.420   0.924
 9686SOL     OW29956   6.612   1.767   0.243
 9686SOL    HW129957   6.593   1.847   0.186
 9686SOL    HW229958   6.711   1.754   0.250
 9687SOL     OW29959   1.905   0.844   4.417
 9687SOL    HW129960   1.810   0.826   4.441
 9687SOL    HW229961   1.932   0.934   4.451
 9688SOL     OW29962   1.107   3.190   2.612
 9688SOL    HW129963   1.073   3.281   2.636
 9688SOL    HW229964   1.105   3.178   2.513
 9689SOL     OW29965   0.625   4.678   6.093
 9689SOL    HW129966   0.607   4.621   6.172
 9689SOL    HW229967   0.720   4.666   6.065
 9690SOL     OW29968   6.044   5.630   6.939
 9690SOL    HW129969   5.997   5.718   6.950
 9690SOL    HW229970   6.034   5.576   7.023
 9691SOL     OW29971   3.188   5.135   0.671
 9691SOL    HW129972   3.282   5.136   0.704
 9691SOL    HW229973   3.148   5.045   0.688
 9692SOL     OW29974   3.447   5.457   2.763
 9692SOL    HW129975   3.496   5.427   2.845
 9692SOL    HW229976   3.465   5.393   2.689
 9693SOL     OW29977   5.910   4.795   1.994
 9693SOL    HW129978   6.005   4.783   1.963
 9693SOL    HW229979   5.896   4.743   2.078
 9694SOL     OW29980   2.121   0.801   0.433
 9694SOL    HW129981   2.192   0.747   0.478
 9694SOL    HW229982   2.062   0.741   0.379
 9695SOL     OW29983   6.938   3.070   3.298
 9695SOL    HW129984   6.946   2.971   3.311
 9695SOL    HW229985   0.003   3.110   3.287
 9696SOL     OW29986   5.237   3.436   1.174
 9696SOL    HW129987   5.282   3.433   1.085
 9696SOL    HW229988   5.284   3.376   1.238
 9697SOL     OW29989   0.344   5.277   6.924
 9697SOL    HW129990   0.295   5.299   6.839
 9697SOL    HW229991   0.441   5.260   6.903
 9698SOL     OW29992   4.794   1.618   5.935
 9698SOL    HW129993   4.824   1.586   6.025
 9698SOL    HW229994   4.704   1.661   5.942
 9699SOL     OW29995   6.486   5.333   6.836
 9699SOL    HW129996   6.430   5.412   6.861
 9699SOL    HW229997   6.571   5.335   6.889
 9700SOL     OW29998   4.972   5.723   4.975
 9700SOL    HW129999   4.973   5.704   5.074
 9700SOL    HW230000   4.878   5.744   4.947
 9701SOL     OW30001   4.532   5.142   5.853
 9701SOL    HW130002   4.435   5.168   5.852
 9701SOL    HW230003   4.552   5.086   5.773
 9702SOL     OW30004   4.614   0.329   6.528
 9702SOL    HW130005   4.558   0.271   6.469
 9702SOL    HW230006   4.573   0.334   6.619
 9703SOL     OW30007   4.830   3.998   3.812
 9703SOL    HW130008   4.802   3.933   3.741
 9703SOL    HW230009   4.819   4.092   3.778
 9704SOL     OW30010   3.934   0.438   1.933
 9704SOL    HW130011   3.914   0.391   1.847
 9704SOL    HW230012   3.853   0.438   1.991
 9705SOL     OW30013   5.359   4.650   5.861
 9705SOL    HW130014   5.270   4.626   5.822
 9705SOL    HW230015   5.421   4.678   5.787
 9706SOL     OW30016   1.458   3.337   0.515
 9706SOL    HW130017   1.533   3.329   0.449
 9706SOL    HW230018   1.460   3.258   0.577
 9707SOL     OW30019   6.788   4.824   2.389
 9707SOL    HW130020   6.828   4.815   2.480
 9707SOL    HW230021   6.721   4.750   2.375
 9708SOL     OW30022   1.844   1.633   3.892
 9708SOL    HW130023   1.832   1.679   3.804
 9708SOL    HW230024   1.754   1.607   3.928
 9709SOL     OW30025   5.353   6.292   3.153
 9709SOL    HW130026   5.285   6.365   3.144
 9709SOL    HW230027   5.440   6.331   3.183
 9710SOL     OW30028   6.776   1.431   1.591
 9710SOL    HW130029   6.751   1.519   1.549
 9710SOL    HW230030   6.781   1.441   1.690
 9711SOL     OW30031   2.947   5.526   6.154
 9711SOL    HW130032   2.930   5.624   6.166
 9711SOL    HW230033   2.943   5.503   6.057
 9712SOL     OW30034   5.562   3.475   6.562
 9712SOL    HW130035   5.580   3.473   6.464
 9712SOL    HW230036   5.638   3.431   6.611
 9713SOL     OW30037   0.947   4.539   3.665
 9713SOL    HW130038   0.957   4.631   3.701
 9713SOL    HW230039   0.880   4.489   3.719
 9714SOL     OW30040   3.903   6.483   6.519
 9714SOL    HW130041   3.833   6.520   6.580
 9714SOL    HW230042   3.867   6.479   6.426
 9715SOL     OW30043   5.532   4.044   6.211
 9715SOL    HW130044   5.495   3.952   6.205
 9715SOL    HW230045   5.605   4.055   6.143
 9716SOL     OW30046   4.008   4.289   7.002
 9716SOL    HW130047   3.955   4.242   0.047
 9716SOL    HW230048   4.019   4.228   6.923
 9717SOL     OW30049   5.378   6.123   6.118
 9717SOL    HW130050   5.398   6.049   6.053
 9717SOL    HW230051   5.303   6.095   6.178
 9718SOL     OW30052   4.807   3.095   0.340
 9718SOL    HW130053   4.750   3.013   0.348
 9718SOL    HW230054   4.760   3.173   0.381
 9719SOL     OW30055   6.201   1.211   5.745
 9719SOL    HW130056   6.169   1.305   5.753
 9719SOL    HW230057   6.166   1.157   5.822
 9720SOL     OW30058   0.337   5.444   2.207
 9720SOL    HW130059   0.305   5.539   2.213
 9720SOL    HW230060   0.284   5.396   2.137
 9721SOL     OW30061   6.705   1.701   0.915
 9721SOL    HW130062   6.686   1.685   0.818
 9721SOL    HW230063   6.628   1.749   0.956
 9722SOL     OW30064   5.616   0.868   4.207
 9722SOL    HW130065   5.627   0.804   4.131
 9722SOL    HW230066   5.689   0.853   4.274
 9723SOL     OW30067   2.360   6.745   2.723
 9723SOL    HW130068   2.314   6.675   2.668
 9723SOL    HW230069   2.399   6.815   2.664
 9724SOL     OW30070   2.097   4.493   0.293
 9724SOL    HW130071   2.063   4.548   0.217
 9724SOL    HW230072   2.022   4.471   0.355
 9725SOL     OW30073   4.116   4.998   6.174
 9725SOL    HW130074   4.196   5.024   6.228
 9725SOL    HW230075   4.064   4.928   6.224
 9726SOL     OW30076   5.212   1.404   4.480
 9726SOL    HW130077   5.295   1.380   4.530
 9726SOL    HW230078   5.181   1.495   4.510
 9727SOL     OW30079   1.511   3.478   6.536
 9727SOL    HW130080   1.524   3.576   6.546
 9727SOL    HW230081   1.479   3.457   6.443
 9728SOL     OW30082   0.625   0.782   5.636
 9728SOL    HW130083   0.692   0.828   5.695
 9728SOL    HW230084   0.660   0.692   5.610
 9729SOL     OW30085   0.663   3.708   4.147
 9729SOL    HW130086   0.703   3.799   4.152
 9729SOL    HW230087   0.733   3.639   4.168
 9730SOL     OW30088   1.001   3.786   4.085
 9730SOL    HW130089   1.042   3.832   4.006
 9730SOL    HW230090   0.982   3.853   4.157
 9731SOL     OW30091   4.943   4.588   1.021
 9731SOL    HW130092   4.850   4.612   1.049
 9731SOL    HW230093   4.939   4.521   0.947
 9732SOL     OW30094   6.454   5.637   3.044
 9732SOL    HW130095   6.455   5.554   2.988
 9732SOL    HW230096   6.526   5.632   3.113
 9733SOL     OW30097   6.272   5.076   0.471
 9733SOL    HW130098   6.344   5.015   0.438
 9733SOL    HW230099   6.241   5.045   0.561
 9734SOL     OW30100   6.761   1.422   1.884
 9734SOL    HW130101   6.855   1.452   1.897
 9734SOL    HW230102   6.709   1.438   1.968
 9735SOL     OW30103   1.882   4.369   4.169
 9735SOL    HW130104   1.819   4.423   4.113
 9735SOL    HW230105   1.970   4.417   4.174
 9736SOL     OW30106   6.487   0.885   6.826
 9736SOL    HW130107   6.438   0.799   6.835
 9736SOL    HW230108   6.511   0.920   6.917
 9737SOL     OW30109   5.392   2.753   3.272
 9737SOL    HW130110   5.358   2.670   3.229
 9737SOL    HW230111   5.317   2.802   3.316
 9738SOL     OW30112   1.649   0.422   1.501
 9738SOL    HW130113   1.562   0.391   1.539
 9738SOL    HW230114   1.719   0.422   1.572
 9739SOL     OW30115   5.966   4.836   2.379
 9739SOL    HW130116   5.968   4.746   2.336
 9739SOL    HW230117   6.054   4.853   2.424
 9740SOL     OW30118   6.451   1.769   3.407
 9740SOL    HW130119   6.522   1.737   3.345
 9740SOL    HW230120   6.416   1.857   3.375
 9741SOL     OW30121   3.669   0.773   2.568
 9741SOL    HW130122   3.753   0.734   2.606
 9741SOL    HW230123   3.685   0.870   2.547
 9742SOL     OW30124   4.346   0.399   0.847
 9742SOL    HW130125   4.446   0.388   0.854
 9742SOL    HW230126   4.301   0.318   0.883
 9743SOL     OW30127   6.965   2.499   5.246
 9743SOL    HW130128   7.022   2.554   5.185
 9743SOL    HW230129   6.946   2.411   5.203
 9744SOL     OW30130   1.218   0.311   3.052
 9744SOL    HW130131   1.141   0.347   3.103
 9744SOL    HW230132   1.242   0.220   3.087
 9745SOL     OW30133   5.196   3.279   5.926
 9745SOL    HW130134   5.134   3.320   5.859
 9745SOL    HW230135   5.173   3.183   5.939
 9746SOL     OW30136   6.591   0.320   5.427
 9746SOL    HW130137   6.588   0.411   5.387
 9746SOL    HW230138   6.686   0.289   5.434
 9747SOL     OW30139   2.274   0.746   1.609
 9747SOL    HW130140   2.223   0.703   1.684
 9747SOL    HW230141   2.286   0.843   1.630
 9748SOL     OW30142   0.445   1.509   3.486
 9748SOL    HW130143   0.541   1.520   3.458
 9748SOL    HW230144   0.426   1.571   3.563
 9749SOL     OW30145   2.461   0.807   4.857
 9749SOL    HW130146   2.518   0.746   4.801
 9749SOL    HW230147   2.386   0.843   4.802
 9750SOL     OW30148   5.691   4.180   3.307
 9750SOL    HW130149   5.696   4.275   3.338
 9750SOL    HW230150   5.601   4.142   3.329
 9751SOL     OW30151   1.560   0.680   1.438
 9751SOL    HW130152   1.460   0.678   1.446
 9751SOL    HW230153   1.597   0.589   1.457
 9752SOL     OW30154   4.658   2.054   5.418
 9752SOL    HW130155   4.612   2.037   5.505
 9752SOL    HW230156   4.593   2.091   5.352
 9753SOL     OW30157   6.021   5.955   5.963
 9753SOL    HW130158   6.094   5.914   5.909
 9753SOL    HW230159   6.023   6.054   5.953
 9754SOL     OW30160   1.361   1.342   6.185
 9754SOL    HW130161   1.438   1.279   6.187
 9754SOL    HW230162   1.283   1.296   6.142
 9755SOL     OW30163   3.296   3.376   4.336
 9755SOL    HW130164   3.300   3.335   4.427
 9755SOL    HW230165   3.384   3.420   4.315
 9756SOL     OW30166   6.418   3.523   0.851
 9756SOL    HW130167   6.361   3.603   0.833
 9756SOL    HW230168   6.369   3.440   0.823
 9757SOL     OW30169   5.590   3.803   3.931
 9757SOL    HW130170   5.591   3.783   3.833
 9757SOL    HW230171   5.495   3.808   3.962
 9758SOL     OW30172   2.460   6.854   0.008
 9758SOL    HW130173   2.556   6.827   0.007
 9758SOL    HW230174   2.408   6.794   6.974
 9759SOL     OW30175   1.458   0.460   0.038
 9759SOL    HW130176   1.410   0.530   0.092
 9759SOL    HW230177   1.483   0.383   0.097
 9760SOL     OW30178   4.364   2.443   4.668
 9760SOL    HW130179   4.463   2.451   4.684
 9760SOL    HW230180   4.318   2.521   4.710
 9761SOL     OW30181   5.913   1.617   2.969
 9761SOL    HW130182   5.952   1.541   2.918
 9761SOL    HW230183   5.816   1.626   2.948
 9762SOL     OW30184   3.350   1.254   4.325
 9762SOL    HW130185   3.419   1.322   4.347
 9762SOL    HW230186   3.335   1.195   4.404
 9763SOL     OW30187   5.217   1.904   2.033
 9763SOL    HW130188   5.293   1.926   1.972
 9763SOL    HW230189   5.136   1.955   2.005
 9764SOL     OW30190   0.039   3.013   2.882
 9764SOL    HW130191   0.137   2.992   2.884
 9764SOL    HW230192   0.001   2.986   2.794
 9765SOL     OW30193   6.968   1.318   3.893
 9765SOL    HW130194   0.022   1.308   3.834
 9765SOL    HW230195   6.901   1.248   3.871
 9766SOL     OW30196   2.965   0.188   2.512
 9766SOL    HW130197   3.008   0.278   2.498
 9766SOL    HW230198   2.866   0.197   2.501
 9767SOL     OW30199   5.048   0.782   4.566
 9767SOL    HW130200   4.984   0.749   4.498
 9767SOL    HW230201   5.105   0.707   4.599
 9768SOL     OW30202   5.648   2.002   2.844
 9768SOL    HW130203   5.616   1.972   2.934
 9768SOL    HW230204   5.747   2.018   2.847
 9769SOL     OW30205   3.623   1.078   2.732
 9769SOL    HW130206   3.619   1.172   2.768
 9769SOL    HW230207   3.658   1.080   2.638
 9770SOL     OW30208   5.762   0.804   6.694
 9770SOL    HW130209   5.686   0.741   6.688
 9770SOL    HW230210   5.815   0.802   6.609
 9771SOL     OW30211   2.968   5.637   0.301
 9771SOL    HW130212   2.876   5.667   0.275
 9771SOL    HW230213   2.981   5.541   0.273
 9772SOL     OW30214   1.633   6.363   2.913
 9772SOL    HW130215   1.686   6.381   2.831
 9772SOL    HW230216   1.627   6.264   2.929
 9773SOL     OW30217   5.704   5.437   4.520
 9773SOL    HW130218   5.752   5.490   4.589
 9773SOL    HW230219   5.731   5.469   4.429
 9774SOL     OW30220   0.218   4.704   2.408
 9774SOL    HW130221   0.134   4.649   2.402
 9774SOL    HW230222   0.285   4.654   2.463
 9775SOL     OW30223   2.404   0.386   3.129
 9775SOL    HW130224   2.496   0.414   3.155
 9775SOL    HW230225   2.374   0.309   3.185
 9776SOL     OW30226   1.694   4.523   4.535
 9776SOL    HW130227   1.696   4.493   4.631
 9776SOL    HW230228   1.686   4.443   4.476
 9777SOL     OW30229   6.189   5.737   6.464
 9777SOL    HW130230   6.143   5.794   6.395
 9777SOL    HW230231   6.158   5.643   6.456
 9778SOL     OW30232   0.239   0.907   4.146
 9778SOL    HW130233   0.279   0.823   4.182
 9778SOL    HW230234   0.191   0.955   4.219
 9779SOL     OW30235   1.681   1.614   5.269
 9779SOL    HW130236   1.773   1.585   5.296
 9779SOL    HW230237   1.613   1.566   5.325
 9780SOL     OW30238   2.620   1.872   1.081
 9780SOL    HW130239   2.689   1.944   1.092
 9780SOL    HW230240   2.645   1.793   1.137
 9781SOL     OW30241   1.733   4.303   4.402
 9781SOL    HW130242   1.782   4.334   4.321
 9781SOL    HW230243   1.659   4.241   4.375
 9782SOL     OW30244   6.448   1.485   1.258
 9782SOL    HW130245   6.388   1.414   1.222
 9782SOL    HW230246   6.528   1.444   1.300
 9783SOL     OW30247   4.341   2.171   3.266
 9783SOL    HW130248   4.422   2.145   3.318
 9783SOL    HW230249   4.365   2.243   3.200
 9784SOL     OW30250   4.231   1.108   4.100
 9784SOL    HW130251   4.207   1.191   4.150
 9784SOL    HW230252   4.164   1.037   4.120
 9785SOL     OW30253   0.431   3.634   5.719
 9785SOL    HW130254   0.445   3.699   5.644
 9785SOL    HW230255   0.511   3.636   5.780
 9786SOL     OW30256   2.159   4.287   6.848
 9786SOL    HW130257   2.227   4.360   6.840
 9786SOL    HW230258   2.164   4.247   6.939
 9787SOL     OW30259   4.603   4.245   1.672
 9787SOL    HW130260   4.649   4.325   1.711
 9787SOL    HW230261   4.515   4.232   1.716
 9788SOL     OW30262   0.371   0.297   3.745
 9788SOL    HW130263   0.312   0.369   3.782
 9788SOL    HW230264   0.338   0.272   3.654
 9789SOL     OW30265   0.740   5.630   1.032
 9789SOL    HW130266   0.813   5.563   1.020
 9789SOL    HW230267   0.739   5.692   0.953
 9790SOL     OW30268   5.971   4.599   6.702
 9790SOL    HW130269   6.034   4.576   6.627
 9790SOL    HW230270   5.953   4.698   6.700
 9791SOL     OW30271   0.924   0.859   2.795
 9791SOL    HW130272   1.013   0.906   2.802
 9791SOL    HW230273   0.855   0.912   2.845
 9792SOL     OW30274   4.822   5.329   1.083
 9792SOL    HW130275   4.826   5.370   1.174
 9792SOL    HW230276   4.756   5.254   1.083
 9793SOL     OW30277   4.761   5.974   3.671
 9793SOL    HW130278   4.723   5.934   3.588
 9793SOL    HW230279   4.808   6.060   3.649
 9794SOL     OW30280   6.836   4.354   0.867
 9794SOL    HW130281   6.805   4.342   0.961
 9794SOL    HW230282   6.852   4.265   0.825
 9795SOL     OW30283   2.373   1.808   4.417
 9795SOL    HW130284   2.348   1.833   4.324
 9795SOL    HW230285   2.291   1.793   4.471
 9796SOL     OW30286   3.932   2.559   1.426
 9796SOL    HW130287   4.021   2.535   1.387
 9796SOL    HW230288   3.893   2.479   1.471
 9797SOL     OW30289   2.268   5.387   6.301
 9797SOL    HW130290   2.324   5.304   6.306
 9797SOL    HW230291   2.291   5.438   6.218
 9798SOL     OW30292   2.902   0.139   1.394
 9798SOL    HW130293   2.940   0.232   1.392
 9798SOL    HW230294   2.858   0.123   1.483
 9799SOL     OW30295   4.121   3.653   3.806
 9799SOL    HW130296   4.080   3.716   3.741
 9799SOL    HW230297   4.148   3.703   3.889
 9800SOL     OW30298   3.939   6.435   4.598
 9800SOL    HW130299   3.962   6.348   4.643
 9800SOL    HW230300   4.015   6.499   4.609
 9801SOL     OW30301   4.780   3.810   0.616
 9801SOL    HW130302   4.853   3.764   0.666
 9801SOL    HW230303   4.722   3.859   0.680
 9802SOL     OW30304   0.733   3.359   1.162
 9802SOL    HW130305   0.714   3.366   1.260
 9802SOL    HW230306   0.649   3.381   1.111
 9803SOL     OW30307   0.512   2.112   6.630
 9803SOL    HW130308   0.444   2.043   6.606
 9803SOL    HW230309   0.515   2.123   6.729
 9804SOL     OW30310   1.009   6.823   2.938
 9804SOL    HW130311   0.941   6.890   2.910
 9804SOL    HW230312   1.098   6.867   2.949
 9805SOL     OW30313   1.027   0.446   5.193
 9805SOL    HW130314   1.121   0.416   5.184
 9805SOL    HW230315   0.965   0.374   5.162
 9806SOL     OW30316   1.520   1.232   0.422
 9806SOL    HW130317   1.576   1.181   0.487
 9806SOL    HW230318   1.489   1.171   0.350
 9807SOL     OW30319   2.350   3.824   0.186
 9807SOL    HW130320   2.256   3.821   0.151
 9807SOL    HW230321   2.413   3.843   0.110
 9808SOL     OW30322   4.813   1.118   5.780
 9808SOL    HW130323   4.778   1.101   5.872
 9808SOL    HW230324   4.778   1.206   5.748
 9809SOL     OW30325   0.544   2.124   6.910
 9809SOL    HW130326   0.518   2.034   6.944
 9809SOL    HW230327   0.642   2.139   6.926
 9810SOL     OW30328   2.110   2.876   3.469
 9810SOL    HW130329   2.014   2.858   3.449
 9810SOL    HW230330   2.124   2.974   3.481
 9811SOL     OW30331   5.659   4.769   3.587
 9811SOL    HW130332   5.656   4.719   3.674
 9811SOL    HW230333   5.663   4.867   3.606
 9812SOL     OW30334   3.685   2.098   5.673
 9812SOL    HW130335   3.629   2.023   5.637
 9812SOL    HW230336   3.782   2.076   5.662
 9813SOL     OW30337   5.585   1.006   0.129
 9813SOL    HW130338   5.643   1.033   0.206
 9813SOL    HW230339   5.633   0.938   0.074
 9814SOL     OW30340   0.326   0.375   0.513
 9814SOL    HW130341   0.230   0.350   0.515
 9814SOL    HW230342   0.382   0.295   0.536
 9815SOL     OW30343   5.473   3.881   3.286
 9815SOL    HW130344   5.375   3.863   3.285
 9815SOL    HW230345   5.491   3.960   3.344
 9816SOL     OW30346   6.802   1.084   6.553
 9816SOL    HW130347   6.723   1.105   6.610
 9816SOL    HW230348   6.790   0.993   6.512
 9817SOL     OW30349   2.372   6.340   2.732
 9817SOL    HW130350   2.371   6.284   2.814
 9817SOL    HW230351   2.466   6.367   2.710
 9818SOL     OW30352   1.670   0.779   4.929
 9818SOL    HW130353   1.622   0.797   5.015
 9818SOL    HW230354   1.739   0.708   4.944
 9819SOL     OW30355   4.809   2.940   3.847
 9819SOL    HW130356   4.773   2.952   3.940
 9819SOL    HW230357   4.850   3.026   3.817
 9820SOL     OW30358   4.750   3.318   6.089
 9820SOL    HW130359   4.705   3.288   6.172
 9820SOL    HW230360   4.766   3.239   6.029
 9821SOL     OW30361   5.262   0.570   0.603
 9821SOL    HW130362   5.304   0.482   0.625
 9821SOL    HW230363   5.163   0.563   0.615
 9822SOL     OW30364   2.795   5.830   3.649
 9822SOL    HW130365   2.853   5.813   3.729
 9822SOL    HW230366   2.756   5.744   3.617
 9823SOL     OW30367   2.520   0.340   1.222
 9823SOL    HW130368   2.516   0.439   1.236
 9823SOL    HW230369   2.484   0.317   1.132
 9824SOL     OW30370   2.046   5.268   4.296
 9824SOL    HW130371   2.011   5.180   4.330
 9824SOL    HW230372   2.095   5.315   4.368
 9825SOL     OW30373   5.562   6.639   4.219
 9825SOL    HW130374   5.558   6.641   4.119
 9825SOL    HW230375   5.618   6.562   4.249
 9826SOL     OW30376   4.397   5.445   5.098
 9826SOL    HW130377   4.486   5.421   5.136
 9826SOL    HW230378   4.396   5.425   5.001
 9827SOL     OW30379   1.588   4.155   3.766
 9827SOL    HW130380   1.614   4.109   3.681
 9827SOL    HW230381   1.614   4.251   3.761
 9828SOL     OW30382   2.994   2.471   5.361
 9828SOL    HW130383   3.062   2.431   5.301
 9828SOL    HW230384   3.000   2.571   5.356
 9829SOL     OW30385   4.641   5.769   6.463
 9829SOL    HW130386   4.549   5.739   6.436
 9829SOL    HW230387   4.684   5.817   6.386
 9830SOL     OW30388   5.080   1.665   1.836
 9830SOL    HW130389   5.170   1.696   1.868
 9830SOL    HW230390   5.082   1.566   1.821
 9831SOL     OW30391   1.323   4.841   2.844
 9831SOL    HW130392   1.231   4.863   2.873
 9831SOL    HW230393   1.327   4.840   2.744
 9832SOL     OW30394   5.199   5.585   2.691
 9832SOL    HW130395   5.180   5.653   2.761
 9832SOL    HW230396   5.289   5.544   2.707
 9833SOL     OW30397   3.553   3.541   4.279
 9833SOL    HW130398   3.622   3.487   4.231
 9833SOL    HW230399   3.588   3.568   4.369
 9834SOL     OW30400   2.330   4.721   5.393
 9834SOL    HW130401   2.382   4.802   5.366
 9834SOL    HW230402   2.244   4.719   5.342
 9835SOL     OW30403   3.621   3.259   4.562
 9835SOL    HW130404   3.669   3.204   4.495
 9835SOL    HW230405   3.522   3.243   4.554
 9836SOL     OW30406   0.429   4.116   3.789
 9836SOL    HW130407   0.447   4.027   3.829
 9836SOL    HW230408   0.425   4.107   3.689
 9837SOL     OW30409   4.362   1.000   2.116
 9837SOL    HW130410   4.331   0.973   2.025
 9837SOL    HW230411   4.296   0.970   2.184
 9838SOL     OW30412   1.575   6.980   0.361
 9838SOL    HW130413   1.650   0.020   0.355
 9838SOL    HW230414   1.565   6.949   0.456
 9839SOL     OW30415   5.052   6.581   3.966
 9839SOL    HW130416   5.039   6.572   4.064
 9839SOL    HW230417   5.047   6.678   3.940
 9840SOL     OW30418   5.661   1.859   0.697
 9840SOL    HW130419   5.731   1.890   0.763
 9840SOL    HW230420   5.696   1.780   0.647
 9841SOL     OW30421   1.318   4.156   4.785
 9841SOL    HW130422   1.379   4.079   4.807
 9841SOL    HW230423   1.369   4.225   4.734
 9842SOL     OW30424   3.495   3.489   1.602
 9842SOL    HW130425   3.414   3.491   1.661
 9842SOL    HW230426   3.569   3.440   1.649
 9843SOL     OW30427   6.628   0.444   2.431
 9843SOL    HW130428   6.636   0.442   2.332
 9843SOL    HW230429   6.659   0.356   2.468
 9844SOL     OW30430   6.276   1.312   3.514
 9844SOL    HW130431   6.344   1.238   3.518
 9844SOL    HW230432   6.313   1.394   3.557
 9845SOL     OW30433   1.649   2.199   4.275
 9845SOL    HW130434   1.732   2.143   4.282
 9845SOL    HW230435   1.632   2.221   4.178
 9846SOL     OW30436   3.651   2.544   1.197
 9846SOL    HW130437   3.719   2.601   1.243
 9846SOL    HW230438   3.585   2.509   1.264
 9847SOL     OW30439   3.619   3.019   2.615
 9847SOL    HW130440   3.647   2.981   2.527
 9847SOL    HW230441   3.696   3.018   2.678
 9848SOL     OW30442   4.227   4.520   5.707
 9848SOL    HW130443   4.281   4.580   5.766
 9848SOL    HW230444   4.218   4.431   5.750
 9849SOL     OW30445   0.981   6.803   6.664
 9849SOL    HW130446   0.982   6.798   6.564
 9849SOL    HW230447   1.071   6.834   6.696
 9850SOL     OW30448   7.023   0.801   3.947
 9850SOL    HW130449   0.060   0.797   4.025
 9850SOL    HW230450   6.930   0.787   3.979
 9851SOL     OW30451   1.655   0.381   4.369
 9851SOL    HW130452   1.723   0.391   4.296
 9851SOL    HW230453   1.579   0.324   4.335
 9852SOL     OW30454   2.402   1.994   4.652
 9852SOL    HW130455   2.313   2.039   4.650
 9852SOL    HW230456   2.406   1.925   4.580
 9853SOL     OW30457   5.638   3.372   5.593
 9853SOL    HW130458   5.666   3.432   5.667
 9853SOL    HW230459   5.544   3.342   5.608
 9854SOL     OW30460   0.511   6.228   4.115
 9854SOL    HW130461   0.567   6.272   4.044
 9854SOL    HW230462   0.419   6.213   4.080
 9855SOL     OW30463   1.928   3.498   1.585
 9855SOL    HW130464   1.937   3.485   1.684
 9855SOL    HW230465   1.982   3.429   1.538
 9856SOL     OW30466   4.791   4.435   4.072
 9856SOL    HW130467   4.791   4.421   3.973
 9856SOL    HW230468   4.725   4.373   4.115
 9857SOL     OW30469   4.961   2.706   2.766
 9857SOL    HW130470   5.021   2.732   2.690
 9857SOL    HW230471   5.016   2.681   2.846
 9858SOL     OW30472   0.439   6.539   1.050
 9858SOL    HW130473   0.483   6.517   0.963
 9858SOL    HW230474   0.412   6.635   1.051
 9859SOL     OW30475   6.876   5.747   3.167
 9859SOL    HW130476   6.835   5.659   3.145
 9859SOL    HW230477   6.822   5.820   3.126
 9860SOL     OW30478   2.171   2.570   4.671
 9860SOL    HW130479   2.239   2.530   4.733
 9860SOL    HW230480   2.204   2.658   4.636
 9861SOL     OW30481   2.838   0.677   3.187
 9861SOL    HW130482   2.843   0.655   3.284
 9861SOL    HW230483   2.814   0.773   3.175
 9862SOL     OW30484   2.264   3.525   6.690
 9862SOL    HW130485   2.176   3.492   6.657
 9862SOL    HW230486   2.320   3.554   6.613
 9863SOL     OW30487   2.919   5.566   1.035
 9863SOL    HW130488   2.943   5.471   1.056
 9863SOL    HW230489   3.001   5.617   1.011
 9864SOL     OW30490   3.532   0.871   4.250
 9864SOL    HW130491   3.533   0.834   4.343
 9864SOL    HW230492   3.526   0.795   4.185
 9865SOL     OW30493   1.244   6.607   4.343
 9865SOL    HW130494   1.180   6.680   4.320
 9865SOL    HW230495   1.338   6.640   4.338
 9866SOL     OW30496   6.245   4.783   6.110
 9866SOL    HW130497   6.162   4.732   6.085
 9866SOL    HW230498   6.323   4.745   6.062
 9867SOL     OW30499   6.899   1.753   2.155
 9867SOL    HW130500   6.992   1.774   2.124
 9867SOL    HW230501   6.833   1.800   2.095
 9868SOL     OW30502   0.050   2.973   4.420
 9868SOL    HW130503   0.088   2.951   4.330
 9868SOL    HW230504   6.977   2.958   4.419
 9869SOL     OW30505   0.287   2.416   1.715
 9869SOL    HW130506   0.267   2.382   1.623
 9869SOL    HW230507   0.268   2.344   1.782
 9870SOL     OW30508   4.060   5.664   2.755
 9870SOL    HW130509   4.062   5.692   2.659
 9870SOL    HW230510   3.968   5.630   2.777
 9871SOL     OW30511   6.504   4.285   5.872
 9871SOL    HW130512   6.485   4.382   5.885
 9871SOL    HW230513   6.559   4.272   5.789
 9872SOL     OW30514   3.878   5.615   4.458
 9872SOL    HW130515   3.858   5.665   4.374
 9872SOL    HW230516   3.970   5.577   4.454
 9873SOL     OW30517   2.210   2.752   0.864
 9873SOL    HW130518   2.231   2.820   0.934
 9873SOL    HW230519   2.213   2.660   0.905
 9874SOL     OW30520   6.794   2.834   5.587
 9874SOL    HW130521   6.751   2.916   5.549
 9874SOL    HW230522   6.873   2.810   5.531
 9875SOL     OW30523   6.062   5.855   2.798
 9875SOL    HW130524   6.002   5.923   2.841
 9875SOL    HW230525   6.153   5.896   2.785
 9876SOL     OW30526   5.384   0.155   4.290
 9876SOL    HW130527   5.422   0.129   4.379
 9876SOL    HW230528   5.378   0.074   4.231
 9877SOL     OW30529   0.166   4.742   4.068
 9877SOL    HW130530   0.205   4.778   3.983
 9877SOL    HW230531   0.235   4.690   4.118
 9878SOL     OW30532   3.058   3.364   6.071
 9878SOL    HW130533   3.053   3.306   6.152
 9878SOL    HW230534   3.033   3.311   5.990
 9879SOL     OW30535   5.549   5.196   5.813
 9879SOL    HW130536   5.628   5.189   5.874
 9879SOL    HW230537   5.559   5.277   5.755
 9880SOL     OW30538   2.748   1.155   0.642
 9880SOL    HW130539   2.711   1.216   0.712
 9880SOL    HW230540   2.739   1.060   0.672
 9881SOL     OW30541   6.802   1.954   4.687
 9881SOL    HW130542   6.753   1.867   4.696
 9881SOL    HW230543   6.899   1.939   4.708
 9882SOL     OW30544   2.601   4.046   5.763
 9882SOL    HW130545   2.686   4.096   5.743
 9882SOL    HW230546   2.590   3.971   5.698
 9883SOL     OW30547   1.118   6.585   0.743
 9883SOL    HW130548   1.092   6.672   0.702
 9883SOL    HW230549   1.036   6.530   0.759
 9884SOL     OW30550   4.285   1.297   0.711
 9884SOL    HW130551   4.297   1.252   0.799
 9884SOL    HW230552   4.247   1.232   0.645
 9885SOL     OW30553   0.518   3.259   4.615
 9885SOL    HW130554   0.459   3.284   4.539
 9885SOL    HW230555   0.469   3.273   4.701
 9886SOL     OW30556   0.704   5.996   1.367
 9886SOL    HW130557   0.717   6.071   1.302
 9886SOL    HW230558   0.637   5.931   1.329
 9887SOL     OW30559   3.696   0.046   6.817
 9887SOL    HW130560   3.790   0.012   6.812
 9887SOL    HW230561   3.632   6.996   6.805
 9888SOL     OW30562   5.717   4.931   3.238
 9888SOL    HW130563   5.638   4.992   3.225
 9888SOL    HW230564   5.774   4.933   3.156
 9889SOL     OW30565   7.007   4.428   1.880
 9889SOL    HW130566   0.078   4.440   1.857
 9889SOL    HW230567   7.000   4.366   1.959
 9890SOL     OW30568   0.415   2.527   1.232
 9890SOL    HW130569   0.378   2.560   1.319
 9890SOL    HW230570   0.493   2.584   1.205
 9891SOL     OW30571   6.385   4.360   1.573
 9891SOL    HW130572   6.330   4.442   1.588
 9891SOL    HW230573   6.393   4.343   1.475
 9892SOL     OW30574   1.607   5.486   3.267
 9892SOL    HW130575   1.621   5.581   3.238
 9892SOL    HW230576   1.546   5.440   3.202
 9893SOL     OW30577   6.315   6.767   2.217
 9893SOL    HW130578   6.328   6.709   2.136
 9893SOL    HW230579   6.217   6.780   2.233
 9894SOL     OW30580   2.812   1.746   6.132
 9894SOL    HW130581   2.867   1.708   6.058
 9894SOL    HW230582   2.850   1.834   6.160
 9895SOL     OW30583   5.949   2.647   5.397
 9895SOL    HW130584   5.958   2.625   5.494
 9895SOL    HW230585   5.853   2.661   5.374
 9896SOL     OW30586   5.418   1.729   0.701
 9896SOL    HW130587   5.496   1.789   0.684
 9896SOL    HW230588   5.344   1.753   0.637
 9897SOL     OW30589   4.855   0.633   2.995
 9897SOL    HW130590   4.808   0.551   3.028
 9897SOL    HW230591   4.856   0.702   3.066
 9898SOL     OW30592   6.981   4.467   5.495
 9898SOL    HW130593   6.943   4.381   5.529
 9898SOL    HW230594   7.020   4.519   5.571
 9899SOL     OW30595   6.806   6.073   2.454
 9899SOL    HW130596   6.866   6.152   2.467
 9899SOL    HW230597   6.859   5.997   2.418
 9900SOL     OW30598   1.560   2.945   3.044
 9900SOL    HW130599   1.525   2.917   2.955
 9900SOL    HW230600   1.595   3.038   3.038
 9901SOL     OW30601   1.935   1.083   0.136
 9901SOL    HW130602   2.020   1.083   0.083
 9901SOL    HW230603   1.858   1.104   0.075
 9902SOL     OW30604   4.527   3.881   1.148
 9902SOL    HW130605   4.531   3.981   1.140
 9902SOL    HW230606   4.574   3.852   1.231
 9903SOL     OW30607   4.970   6.818   2.174
 9903SOL    HW130608   4.933   6.760   2.102
 9903SOL    HW230609   4.914   6.900   2.182
 9904SOL     OW30610   6.982   3.798   6.737
 9904SOL    HW130611   7.001   3.896   6.733
 9904SOL    HW230612   0.036   3.750   6.774
 9905SOL     OW30613   1.416   6.750   6.744
 9905SOL    HW130614   1.342   6.699   6.700
 9905SOL    HW230615   1.504   6.719   6.708
 9906SOL     OW30616   1.950   3.391   0.064
 9906SOL    HW130617   2.048   3.393   0.048
 9906SOL    HW230618   1.926   3.309   0.116
 9907SOL     OW30619   1.343   0.329   3.656
 9907SOL    HW130620   1.309   0.318   3.562
 9907SOL    HW230621   1.266   0.325   3.720
 9908SOL     OW30622   0.729   3.561   5.862
 9908SOL    HW130623   0.767   3.594   5.776
 9908SOL    HW230624   0.710   3.462   5.854
 9909SOL     OW30625   3.399   0.390   2.587
 9909SOL    HW130626   3.498   0.378   2.590
 9909SOL    HW230627   3.370   0.452   2.660
 9910SOL     OW30628   1.197   4.952   1.739
 9910SOL    HW130629   1.258   5.015   1.691
 9910SOL    HW230630   1.119   4.930   1.680
 9911SOL     OW30631   4.332   5.976   2.225
 9911SOL    HW130632   4.300   6.061   2.266
 9911SOL    HW230633   4.278   5.899   2.258
 9912SOL     OW30634   4.250   0.661   1.247
 9912SOL    HW130635   4.200   0.746   1.234
 9912SOL    HW230636   4.232   0.599   1.171
 9913SOL     OW30637   6.200   3.716   1.552
 9913SOL    HW130638   6.132   3.785   1.527
 9913SOL    HW230639   6.197   3.701   1.651
 9914SOL     OW30640   1.217   0.630   5.278
 9914SOL    HW130641   1.159   0.575   5.218
 9914SOL    HW230642   1.160   0.697   5.327
 9915SOL     OW30643   4.993   2.682   3.666
 9915SOL    HW130644   4.907   2.702   3.714
 9915SOL    HW230645   5.004   2.583   3.657
 9916SOL     OW30646   2.081   2.216   3.507
 9916SOL    HW130647   2.057   2.156   3.584
 9916SOL    HW230648   2.176   2.247   3.519
 9917SOL     OW30649   3.409   3.802   4.656
 9917SOL    HW130650   3.429   3.704   4.659
 9917SOL    HW230651   3.404   3.838   4.750
 9918SOL     OW30652   0.762   2.122   1.782
 9918SOL    HW130653   0.818   2.181   1.723
 9918SOL    HW230654   0.737   2.171   1.864
 9919SOL     OW30655   2.338   5.583   1.307
 9919SOL    HW130656   2.408   5.640   1.265
 9919SOL    HW230657   2.304   5.517   1.241
 9920SOL     OW30658   3.635   6.555   2.359
 9920SOL    HW130659   3.657   6.581   2.266
 9920SOL    HW230660   3.586   6.629   2.405
 9921SOL     OW30661   4.383   6.766   4.543
 9921SOL    HW130662   4.418   6.675   4.517
 9921SOL    HW230663   4.432   6.836   4.492
 9922SOL     OW30664   4.808   4.904   0.982
 9922SOL    HW130665   4.759   4.825   1.019
 9922SOL    HW230666   4.742   4.975   0.956
 9923SOL     OW30667   0.259   2.900   6.885
 9923SOL    HW130668   0.192   2.839   6.928
 9923SOL    HW230669   0.282   2.866   6.794
 9924SOL     OW30670   4.810   1.734   3.471
 9924SOL    HW130671   4.758   1.798   3.528
 9924SOL    HW230672   4.757   1.711   3.390
 9925SOL     OW30673   1.569   4.879   3.955
 9925SOL    HW130674   1.507   4.920   4.022
 9925SOL    HW230675   1.654   4.853   4.001
 9926SOL     OW30676   3.487   2.487   0.601
 9926SOL    HW130677   3.391   2.498   0.626
 9926SOL    HW230678   3.494   2.459   0.506
 9927SOL     OW30679   0.875   1.795   0.630
 9927SOL    HW130680   0.901   1.808   0.726
 9927SOL    HW230681   0.811   1.866   0.603
 9928SOL     OW30682   5.353   3.707   2.584
 9928SOL    HW130683   5.413   3.631   2.557
 9928SOL    HW230684   5.284   3.721   2.513
 9929SOL     OW30685   3.658   4.138   4.763
 9929SOL    HW130686   3.562   4.151   4.788
 9929SOL    HW230687   3.714   4.140   4.845
 9930SOL     OW30688   0.809   0.373   6.502
 9930SOL    HW130689   0.754   0.291   6.522
 9930SOL    HW230690   0.862   0.359   6.419
 9931SOL     OW30691   6.678   5.448   4.427
 9931SOL    HW130692   6.676   5.364   4.372
 9931SOL    HW230693   6.772   5.471   4.449
 9932SOL     OW30694   1.925   1.982   6.814
 9932SOL    HW130695   1.868   1.986   6.896
 9932SOL    HW230696   1.955   1.888   6.799
 9933SOL     OW30697   1.583   1.106   4.327
 9933SOL    HW130698   1.516   1.086   4.255
 9933SOL    HW230699   1.659   1.158   4.288
 9934SOL     OW30700   6.145   1.497   6.797
 9934SOL    HW130701   6.100   1.586   6.793
 9934SOL    HW230702   6.139   1.461   6.890
 9935SOL     OW30703   2.252   0.671   0.735
 9935SOL    HW130704   2.260   0.603   0.662
 9935SOL    HW230705   2.249   0.625   0.824
 9936SOL     OW30706   6.865   5.272   0.078
 9936SOL    HW130707   6.955   5.309   0.102
 9936SOL    HW230708   6.813   5.341   0.028
 9937SOL     OW30709   1.710   1.199   3.345
 9937SOL    HW130710   1.802   1.159   3.346
 9937SOL    HW230711   1.645   1.132   3.381
 9938SOL     OW30712   5.870   0.043   3.946
 9938SOL    HW130713   5.838   0.122   3.894
 9938SOL    HW230714   5.940   7.020   3.893
 9939SOL     OW30715   2.559   2.552   1.023
 9939SOL    HW130716   2.534   2.647   1.038
 9939SOL    HW230717   2.635   2.548   0.958
 9940SOL     OW30718   0.943   0.101   3.520
 9940SOL    HW130719   0.932   0.196   3.548
 9940SOL    HW230720   0.892   0.085   3.435
 9941SOL     OW30721   2.935   5.645   5.539
 9941SOL    HW130722   2.948   5.599   5.627
 9941SOL    HW230723   2.942   5.577   5.465
 9942SOL     OW30724   4.853   5.621   1.731
 9942SOL    HW130725   4.901   5.668   1.804
 9942SOL    HW230726   4.835   5.684   1.655
 9943SOL     OW30727   1.137   4.215   6.497
 9943SOL    HW130728   1.040   4.193   6.485
 9943SOL    HW230729   1.190   4.130   6.503
 9944SOL     OW30730   0.461   5.306   6.579
 9944SOL    HW130731   0.475   5.335   6.485
 9944SOL    HW230732   0.540   5.331   6.635
 9945SOL     OW30733   5.207   4.248   6.849
 9945SOL    HW130734   5.215   4.241   6.750
 9945SOL    HW230735   5.213   4.157   6.890
 9946SOL     OW30736   6.046   0.147   3.228
 9946SOL    HW130737   6.143   0.163   3.208
 9946SOL    HW230738   6.015   0.066   3.178
 9947SOL     OW30739   2.557   1.583   4.497
 9947SOL    HW130740   2.648   1.618   4.474
 9947SOL    HW230741   2.491   1.658   4.496
 9948SOL     OW30742   0.043   5.947   5.165
 9948SOL    HW130743   7.014   5.927   5.247
 9948SOL    HW230744   0.113   6.015   5.187
 9949SOL     OW30745   6.772   5.119   3.884
 9949SOL    HW130746   6.865   5.099   3.915
 9949SOL    HW230747   6.707   5.060   3.932
 9950SOL     OW30748   0.006   5.760   5.694
 9950SOL    HW130749   7.017   5.775   5.792
 9950SOL    HW230750   6.969   5.818   5.642
 9951SOL     OW30751   1.792   2.193   2.987
 9951SOL    HW130752   1.805   2.129   2.911
 9951SOL    HW230753   1.694   2.206   3.003
 9952SOL     OW30754   1.196   3.599   0.703
 9952SOL    HW130755   1.117   3.540   0.718
 9952SOL    HW230756   1.208   3.613   0.604
 9953SOL     OW30757   5.384   2.973   3.830
 9953SOL    HW130758   5.405   2.940   3.922
 9953SOL    HW230759   5.305   2.924   3.794
 9954SOL     OW30760   1.687   6.748   4.726
 9954SOL    HW130761   1.706   6.829   4.670
 9954SOL    HW230762   1.698   6.771   4.823
 9955SOL     OW30763   3.940   3.711   6.686
 9955SOL    HW130764   3.853   3.666   6.702
 9955SOL    HW230765   3.933   3.772   6.607
 9956SOL     OW30766   0.847   3.406   2.180
 9956SOL    HW130767   0.845   3.486   2.239
 9956SOL    HW230768   0.780   3.339   2.213
 9957SOL     OW30769   5.894   0.151   2.099
 9957SOL    HW130770   5.963   0.207   2.145
 9957SOL    HW230771   5.805   0.194   2.107
 9958SOL     OW30772   3.374   6.117   5.779
 9958SOL    HW130773   3.278   6.090   5.776
 9958SOL    HW230774   3.403   6.127   5.874
 9959SOL     OW30775   4.048   3.702   2.464
 9959SOL    HW130776   4.074   3.613   2.426
 9959SOL    HW230777   4.131   3.753   2.489
 9960SOL     OW30778   0.848   6.487   1.093
 9960SOL    HW130779   0.841   6.389   1.111
 9960SOL    HW230780   0.849   6.536   1.180
 9961SOL     OW30781   1.565   4.278   3.188
 9961SOL    HW130782   1.474   4.281   3.146
 9961SOL    HW230783   1.556   4.287   3.288
 9962SOL     OW30784   4.330   0.868   1.862
 9962SOL    HW130785   4.265   0.917   1.805
 9962SOL    HW230786   4.281   0.816   1.931
 9963SOL     OW30787   2.876   2.527   6.027
 9963SOL    HW130788   2.823   2.599   6.073
 9963SOL    HW230789   2.973   2.552   6.028
 9964SOL     OW30790   4.283   5.122   5.644
 9964SOL    HW130791   4.266   5.162   5.734
 9964SOL    HW230792   4.333   5.188   5.587
 9965SOL     OW30793   3.597   4.976   5.112
 9965SOL    HW130794   3.579   5.046   5.042
 9965SOL    HW230795   3.512   4.928   5.133
 9966SOL     OW30796   1.816   4.662   1.951
 9966SOL    HW130797   1.875   4.582   1.943
 9966SOL    HW230798   1.767   4.660   2.038
 9967SOL     OW30799   5.712   4.740   2.427
 9967SOL    HW130800   5.803   4.778   2.413
 9967SOL    HW230801   5.642   4.805   2.397
 9968SOL     OW30802   3.495   6.083   6.018
 9968SOL    HW130803   3.566   6.122   6.076
 9968SOL    HW230804   3.440   6.019   6.071
 9969SOL     OW30805   1.103   3.117   3.841
 9969SOL    HW130806   1.187   3.161   3.872
 9969SOL    HW230807   1.073   3.158   3.755
 9970SOL     OW30808   0.011   4.914   2.549
 9970SOL    HW130809   0.021   4.931   2.647
 9970SOL    HW230810   0.086   4.856   2.517
 9971SOL     OW30811   2.136   3.632   0.759
 9971SOL    HW130812   2.058   3.664   0.812
 9971SOL    HW230813   2.165   3.704   0.696
 9972SOL     OW30814   3.312   4.240   0.605
 9972SOL    HW130815   3.246   4.170   0.634
 9972SOL    HW230816   3.368   4.205   0.531
 9973SOL     OW30817   3.957   1.793   4.400
 9973SOL    HW130818   4.018   1.870   4.421
 9973SOL    HW230819   4.009   1.707   4.408
 9974SOL     OW30820   6.632   3.411   3.070
 9974SOL    HW130821   6.671   3.339   3.012
 9974SOL    HW230822   6.593   3.370   3.153
 9975SOL     OW30823   0.016   4.584   6.696
 9975SOL    HW130824   0.014   4.668   6.642
 9975SOL    HW230825   7.014   4.605   6.790
 9976SOL     OW30826   6.631   4.960   4.970
 9976SOL    HW130827   6.617   4.882   5.031
 9976SOL    HW230828   6.723   4.957   4.933
 9977SOL     OW30829   6.497   5.003   6.089
 9977SOL    HW130830   6.559   5.082   6.088
 9977SOL    HW230831   6.441   5.006   6.172
 9978SOL     OW30832   6.176   1.763   5.028
 9978SOL    HW130833   6.084   1.802   5.016
 9978SOL    HW230834   6.224   1.762   4.941
 9979SOL     OW30835   6.352   4.078   5.965
 9979SOL    HW130836   6.419   4.149   5.944
 9979SOL    HW230837   6.262   4.105   5.929
 9980SOL     OW30838   1.474   1.287   0.044
 9980SOL    HW130839   1.448   1.235   0.125
 9980SOL    HW230840   1.428   1.376   0.044
 9981SOL     OW30841   2.796   1.598   0.206
 9981SOL    HW130842   2.818   1.500   0.208
 9981SOL    HW230843   2.835   1.639   0.124
 9982SOL     OW30844   0.712   1.674   3.905
 9982SOL    HW130845   0.754   1.631   3.985
 9982SOL    HW230846   0.784   1.705   3.843
 9983SOL     OW30847   1.075   0.881   1.628
 9983SOL    HW130848   1.005   0.827   1.675
 9983SOL    HW230849   1.112   0.829   1.551
 9984SOL     OW30850   0.695   0.226   0.294
 9984SOL    HW130851   0.604   0.223   0.254
 9984SOL    HW230852   0.758   0.173   0.238
 9985SOL     OW30853   3.626   6.848   1.286
 9985SOL    HW130854   3.610   6.759   1.244
 9985SOL    HW230855   3.717   6.882   1.260
 9986SOL     OW30856   5.021   4.440   6.878
 9986SOL    HW130857   5.102   4.385   6.859
 9986SOL    HW230858   5.016   4.515   6.812
 9987SOL     OW30859   5.841   1.600   2.123
 9987SOL    HW130860   5.786   1.680   2.102
 9987SOL    HW230861   5.791   1.517   2.097
 9988SOL     OW30862   0.219   5.014   4.488
 9988SOL    HW130863   0.203   5.099   4.538
 9988SOL    HW230864   0.288   4.959   4.535
 9989SOL     OW30865   5.218   3.519   3.601
 9989SOL    HW130866   5.300   3.575   3.612
 9989SOL    HW230867   5.222   3.473   3.512
 9990SOL     OW30868   2.566   0.429   3.571
 9990SOL    HW130869   2.608   0.349   3.614
 9990SOL    HW230870   2.614   0.451   3.486
 9991SOL     OW30871   1.187   3.362   4.957
 9991SOL    HW130872   1.251   3.438   4.948
 9991SOL    HW230873   1.156   3.333   4.866
 9992SOL     OW30874   3.811   3.379   0.945
 9992SOL    HW130875   3.822   3.407   1.041
 9992SOL    HW230876   3.719   3.342   0.931
 9993SOL     OW30877   3.921   6.218   2.926
 9993SOL    HW130878   3.856   6.294   2.936
 9993SOL    HW230879   4.012   6.249   2.956
 9994SOL     OW30880   0.239   4.113   3.320
 9994SOL    HW130881   0.235   4.198   3.268
 9994SOL    HW230882   0.147   4.074   3.327
 9995SOL     OW30883   2.880   0.250   3.179
 9995SOL    HW130884   2.944   0.324   3.158
 9995SOL    HW230885   2.899   0.172   3.119
 9996SOL     OW30886   2.947   2.528   1.167
 9996SOL    HW130887   2.943   2.620   1.205
 9996SOL    HW230888   2.943   2.461   1.241
 9997SOL     OW30889   4.635   1.216   0.884
 9997SOL    HW130890   4.688   1.217   0.799
 9997SOL    HW230891   4.697   1.211   0.962
 9998SOL     OW30892   5.535   3.830   2.757
 9998SOL    HW130893   5.486   3.843   2.843
 9998SOL    HW230894   5.474   3.789   2.689
 9999SOL     OW30895   6.922   5.873   5.376
 9999SOL    HW130896   6.916   5.773   5.370
 9999SOL    HW230897   6.866   5.906   5.452
10000SOL     OW30898   5.997   2.212   6.570
10000SOL    HW130899   6.024   2.116   6.554
10000SOL    HW230900   6.061   2.253   6.635
10001SOL     OW30901   4.506   0.309   1.551
10001SOL    HW130902   4.442   0.384   1.567
10001SOL    HW230903   4.501   0.243   1.626
10002SOL     OW30904   1.367   1.309   2.045
10002SOL    HW130905   1.364   1.209   2.045
10002SOL    HW230906   1.445   1.340   1.990
10003SOL     OW30907   3.281   2.060   2.559
10003SOL    HW130908   3.359   2.064   2.622
10003SOL    HW230909   3.199   2.090   2.606
10004SOL     OW30910   5.131   2.786   4.755
10004SOL    HW130911   5.220   2.794   4.799
10004SOL    HW230912   5.128   2.704   4.698
10005SOL     OW30913   4.074   5.341   2.987
10005SOL    HW130914   4.167   5.309   3.004
10005SOL    HW230915   4.052   5.415   3.051
10006SOL     OW30916   5.485   1.779   5.213
10006SOL    HW130917   5.392   1.810   5.194
10006SOL    HW230918   5.485   1.726   5.298
10007SOL     OW30919   0.593   3.571   4.564
10007SOL    HW130920   0.591   3.540   4.659
10007SOL    HW230921   0.528   3.647   4.553
10008SOL     OW30922   3.986   1.130   2.706
10008SOL    HW130923   3.965   1.032   2.700
10008SOL    HW230924   3.911   1.183   2.666
10009SOL     OW30925   1.803   4.133   1.946
10009SOL    HW130926   1.772   4.107   2.038
10009SOL    HW230927   1.903   4.123   1.941
10010SOL     OW30928   2.148   6.163   0.480
10010SOL    HW130929   2.100   6.215   0.409
10010SOL    HW230930   2.245   6.155   0.456
10011SOL     OW30931   0.548   3.569   6.339
10011SOL    HW130932   0.606   3.505   6.289
10011SOL    HW230933   0.487   3.615   6.274
10012SOL     OW30934   4.818   6.592   2.436
10012SOL    HW130935   4.862   6.679   2.457
10012SOL    HW230936   4.767   6.601   2.351
10013SOL     OW30937   1.884   1.813   4.652
10013SOL    HW130938   1.893   1.879   4.726
10013SOL    HW230939   1.837   1.731   4.686
10014SOL     OW30940   0.261   1.802   1.506
10014SOL    HW130941   0.196   1.870   1.472
10014SOL    HW230942   0.281   1.820   1.603
10015SOL     OW30943   4.095   4.658   0.343
10015SOL    HW130944   4.150   4.657   0.260
10015SOL    HW230945   4.086   4.752   0.376
10016SOL     OW30946   2.060   0.363   4.821
10016SOL    HW130947   2.144   0.369   4.876
10016SOL    HW230948   2.008   0.282   4.848
10017SOL     OW30949   2.127   1.391   2.534
10017SOL    HW130950   2.079   1.475   2.558
10017SOL    HW230951   2.213   1.386   2.585
10018SOL     OW30952   6.494   4.809   5.899
10018SOL    HW130953   6.495   4.876   5.973
10018SOL    HW230954   6.529   4.851   5.815
10019SOL     OW30955   0.622   1.697   3.139
10019SOL    HW130956   0.716   1.707   3.106
10019SOL    HW230957   0.577   1.786   3.140
10020SOL     OW30958   0.677   1.087   1.156
10020SOL    HW130959   0.629   1.125   1.077
10020SOL    HW230960   0.649   1.134   1.239
10021SOL     OW30961   1.236   2.061   2.709
10021SOL    HW130962   1.233   1.991   2.780
10021SOL    HW230963   1.143   2.085   2.681
10022SOL     OW30964   3.808   6.939   0.833
10022SOL    HW130965   3.872   6.865   0.855
10022SOL    HW230966   3.843   7.025   0.868
10023SOL     OW30967   2.165   4.997   5.527
10023SOL    HW130968   2.179   4.917   5.586
10023SOL    HW230969   2.125   4.968   5.440
10024SOL     OW30970   1.925   6.312   2.114
10024SOL    HW130971   1.826   6.313   2.102
10024SOL    HW230972   1.962   6.403   2.096
10025SOL     OW30973   2.023   2.200   1.469
10025SOL    HW130974   1.949   2.157   1.417
10025SOL    HW230975   2.032   2.296   1.440
10026SOL     OW30976   3.707   6.224   3.206
10026SOL    HW130977   3.725   6.136   3.161
10026SOL    HW230978   3.623   6.264   3.169
10027SOL     OW30979   1.236   4.222   5.136
10027SOL    HW130980   1.227   4.293   5.066
10027SOL    HW230981   1.323   4.173   5.122
10028SOL     OW30982   1.349   1.519   2.206
10028SOL    HW130983   1.329   1.446   2.142
10028SOL    HW230984   1.338   1.486   2.300
10029SOL     OW30985   2.426   1.986   4.147
10029SOL    HW130986   2.509   1.966   4.200
10029SOL    HW230987   2.411   1.913   4.080
10030SOL     OW30988   2.263   0.283   4.296
10030SOL    HW130989   2.171   0.269   4.332
10030SOL    HW230990   2.268   0.373   4.253
10031SOL     OW30991   5.956   4.868   3.717
10031SOL    HW130992   6.038   4.894   3.768
10031SOL    HW230993   5.875   4.910   3.760
10032SOL     OW30994   3.785   0.519   5.391
10032SOL    HW130995   3.756   0.479   5.304
10032SOL    HW230996   3.716   0.584   5.422
10033SOL     OW30997   4.512   1.532   4.142
10033SOL    HW130998   4.557   1.528   4.053
10033SOL    HW230999   4.421   1.572   4.132
10034SOL     OW31000   3.918   0.329   4.034
10034SOL    HW131001   3.868   0.254   4.077
10034SOL    HW231002   3.898   0.330   3.936
10035SOL     OW31003   0.235   4.697   2.879
10035SOL    HW131004   0.309   4.735   2.824
10035SOL    HW231005   0.151   4.750   2.863
10036SOL     OW31006   5.754   1.200   1.219
10036SOL    HW131007   5.684   1.135   1.247
10036SOL    HW231008   5.811   1.224   1.298
10037SOL     OW31009   5.791   1.821   1.128
10037SOL    HW131010   5.697   1.836   1.156
10037SOL    HW231011   5.852   1.871   1.189
10038SOL     OW31012   4.397   1.163   6.337
10038SOL    HW131013   4.349   1.238   6.383
10038SOL    HW231014   4.431   1.194   6.248
10039SOL     OW31015   3.971   0.197   5.224
10039SOL    HW131016   3.989   0.099   5.219
10039SOL    HW231017   4.042   0.247   5.174
10040SOL     OW31018   4.097   5.780   6.214
10040SOL    HW131019   4.184   5.830   6.204
10040SOL    HW231020   4.097   5.731   6.301
10041SOL     OW31021   4.336   5.941   6.530
10041SOL    HW131022   4.358   5.969   6.436
10041SOL    HW231023   4.415   5.958   6.589
10042SOL     OW31024   1.001   2.021   4.967
10042SOL    HW131025   1.020   1.929   4.933
10042SOL    HW231026   1.018   2.087   4.894
10043SOL     OW31027   0.311   2.383   4.396
10043SOL    HW131028   0.265   2.404   4.310
10043SOL    HW231029   0.315   2.284   4.409
10044SOL     OW31030   2.831   1.248   4.856
10044SOL    HW131031   2.731   1.239   4.864
10044SOL    HW231032   2.872   1.239   4.947
10045SOL     OW31033   5.143   0.059   3.561
10045SOL    HW131034   5.137   0.071   3.462
10045SOL    HW231035   5.051   0.057   3.600
10046SOL     OW31036   1.790   3.562   1.350
10046SOL    HW131037   1.729   3.639   1.367
10046SOL    HW231038   1.840   3.539   1.434
10047SOL     OW31039   6.609   3.876   5.273
10047SOL    HW131040   6.551   3.811   5.223
10047SOL    HW231041   6.605   3.856   5.371
10048SOL     OW31042   6.199   1.119   3.111
10048SOL    HW131043   6.228   1.082   3.023
10048SOL    HW231044   6.121   1.180   3.097
10049SOL     OW31045   0.152   0.647   6.931
10049SOL    HW131046   0.207   0.564   6.926
10049SOL    HW231047   0.191   0.710   6.998
10050SOL     OW31048   5.560   3.403   5.037
10050SOL    HW131049   5.588   3.397   5.133
10050SOL    HW231050   5.638   3.430   4.981
10051SOL     OW31051   4.970   2.672   5.054
10051SOL    HW131052   5.039   2.723   5.106
10051SOL    HW231053   4.885   2.724   5.051
10052SOL     OW31054   2.022   1.835   2.808
10052SOL    HW131055   2.035   1.815   2.711
10052SOL    HW231056   1.976   1.759   2.853
10053SOL     OW31057   3.302   5.758   2.609
10053SOL    HW131058   3.229   5.698   2.639
10053SOL    HW231059   3.336   5.727   2.520
10054SOL     OW31060   5.396   6.028   6.417
10054SOL    HW131061   5.375   5.934   6.389
10054SOL    HW231062   5.492   6.048   6.397
10055SOL     OW31063   5.544   2.153   4.729
10055SOL    HW131064   5.471   2.205   4.685
10055SOL    HW231065   5.576   2.082   4.667
10056SOL     OW31066   5.462   4.113   3.441
10056SOL    HW131067   5.372   4.075   3.426
10056SOL    HW231068   5.462   4.169   3.524
10057SOL     OW31069   4.226   1.825   5.084
10057SOL    HW131070   4.205   1.727   5.086
10057SOL    HW231071   4.287   1.848   5.160
10058SOL     OW31072   0.252   3.460   4.579
10058SOL    HW131073   0.318   3.463   4.503
10058SOL    HW231074   0.162   3.486   4.545
10059SOL     OW31075   6.370   0.430   1.744
10059SOL    HW131076   6.378   0.412   1.646
10059SOL    HW231077   6.459   0.459   1.780
10060SOL     OW31078   1.485   2.273   1.865
10060SOL    HW131079   1.457   2.356   1.912
10060SOL    HW231080   1.498   2.291   1.768
10061SOL     OW31081   4.525   1.137   3.723
10061SOL    HW131082   4.435   1.140   3.679
10061SOL    HW231083   4.591   1.186   3.667
10062SOL     OW31084   6.374   0.295   4.567
10062SOL    HW131085   6.404   0.291   4.663
10062SOL    HW231086   6.430   0.233   4.512
10063SOL     OW31087   2.871   1.005   3.990
10063SOL    HW131088   2.796   0.957   3.945
10063SOL    HW231089   2.850   1.102   3.997
10064SOL     OW31090   4.925   6.977   6.946
10064SOL    HW131091   4.971   7.016   6.866
10064SOL    HW231092   4.828   6.963   6.925
10065SOL     OW31093   2.712   0.819   2.312
10065SOL    HW131094   2.650   0.892   2.342
10065SOL    HW231095   2.788   0.811   2.377
10066SOL     OW31096   0.504   2.440   4.110
10066SOL    HW131097   0.450   2.521   4.133
10066SOL    HW231098   0.465   2.361   4.157
10067SOL     OW31099   6.868   3.841   5.202
10067SOL    HW131100   6.771   3.857   5.225
10067SOL    HW231101   6.875   3.812   5.107
10068SOL     OW31102   0.185   3.155   3.256
10068SOL    HW131103   0.218   3.162   3.162
10068SOL    HW231104   0.252   3.196   3.318
10069SOL     OW31105   2.403   4.891   2.125
10069SOL    HW131106   2.455   4.877   2.041
10069SOL    HW231107   2.308   4.862   2.111
10070SOL     OW31108   6.833   6.411   4.907
10070SOL    HW131109   6.795   6.339   4.850
10070SOL    HW231110   6.920   6.443   4.869
10071SOL     OW31111   6.421   6.168   4.670
10071SOL    HW131112   6.395   6.113   4.749
10071SOL    HW231113   6.437   6.262   4.700
10072SOL     OW31114   6.728   6.890   4.147
10072SOL    HW131115   6.722   6.794   4.119
10072SOL    HW231116   6.824   6.918   4.151
10073SOL     OW31117   6.170   4.713   5.263
10073SOL    HW131118   6.246   4.658   5.296
10073SOL    HW231119   6.185   4.737   5.167
10074SOL     OW31120   2.180   0.559   5.480
10074SOL    HW131121   2.177   0.569   5.380
10074SOL    HW231122   2.227   0.637   5.520
10075SOL     OW31123   1.829   2.826   2.766
10075SOL    HW131124   1.907   2.816   2.703
10075SOL    HW231125   1.765   2.751   2.751
10076SOL     OW31126   6.214   0.088   4.407
10076SOL    HW131127   6.138   0.084   4.342
10076SOL    HW231128   6.271   0.168   4.387
10077SOL     OW31129   4.168   2.662   6.335
10077SOL    HW131130   4.212   2.723   6.402
10077SOL    HW231131   4.212   2.572   6.338
10078SOL     OW31132   0.432   5.408   3.597
10078SOL    HW131133   0.502   5.478   3.585
10078SOL    HW231134   0.341   5.449   3.587
10079SOL     OW31135   5.651   3.070   3.843
10079SOL    HW131136   5.567   3.029   3.808
10079SOL    HW231137   5.656   3.166   3.815
10080SOL     OW31138   4.505   0.811   5.696
10080SOL    HW131139   4.476   0.750   5.621
10080SOL    HW231140   4.602   0.831   5.687
10081SOL     OW31141   6.800   0.958   0.715
10081SOL    HW131142   6.824   1.008   0.632
10081SOL    HW231143   6.756   1.020   0.780
10082SOL     OW31144   0.431   5.345   1.577
10082SOL    HW131145   0.358   5.408   1.603
10082SOL    HW231146   0.485   5.323   1.658
10083SOL     OW31147   3.694   0.474   3.367
10083SOL    HW131148   3.684   0.562   3.321
10083SOL    HW231149   3.623   0.411   3.334
10084SOL     OW31150   2.226   0.907   5.891
10084SOL    HW131151   2.203   0.942   5.981
10084SOL    HW231152   2.273   0.977   5.838
10085SOL     OW31153   2.120   5.608   0.747
10085SOL    HW131154   2.193   5.554   0.789
10085SOL    HW231155   2.159   5.691   0.707
10086SOL     OW31156   4.792   5.751   2.346
10086SOL    HW131157   4.873   5.726   2.293
10086SOL    HW231158   4.737   5.816   2.293
10087SOL     OW31159   6.963   6.660   4.375
10087SOL    HW131160   6.909   6.599   4.433
10087SOL    HW231161   7.022   6.606   4.315
10088SOL     OW31162   6.282   0.309   2.507
10088SOL    HW131163   6.184   0.311   2.529
10088SOL    HW231164   6.335   0.329   2.589
10089SOL     OW31165   2.929   1.845   3.014
10089SOL    HW131166   2.950   1.764   2.959
10089SOL    HW231167   3.013   1.880   3.055
10090SOL     OW31168   0.715   5.015   1.818
10090SOL    HW131169   0.708   5.110   1.788
10090SOL    HW231170   0.790   5.007   1.883
10091SOL     OW31171   0.032   4.917   6.731
10091SOL    HW131172   6.964   4.920   6.694
10091SOL    HW231173   0.051   5.003   6.780
10092SOL     OW31174   2.001   2.794   5.788
10092SOL    HW131175   2.048   2.869   5.834
10092SOL    HW231176   2.052   2.766   5.707
10093SOL     OW31177   5.407   3.316   5.690
10093SOL    HW131178   5.379   3.243   5.627
10093SOL    HW231179   5.357   3.306   5.777
10094SOL     OW31180   3.623   5.522   1.279
10094SOL    HW131181   3.670   5.493   1.362
10094SOL    HW231182   3.525   5.502   1.288
10095SOL     OW31183   5.729   2.190   4.949
10095SOL    HW131184   5.667   2.188   4.870
10095SOL    HW231185   5.808   2.248   4.927
10096SOL     OW31186   4.360   5.367   3.054
10096SOL    HW131187   4.359   5.315   2.969
10096SOL    HW231188   4.402   5.457   3.039
10097SOL     OW31189   1.016   1.842   0.156
10097SOL    HW131190   1.069   1.923   0.181
10097SOL    HW231191   0.919   1.863   0.158
10098SOL     OW31192   3.142   0.602   5.077
10098SOL    HW131193   3.153   0.525   5.140
10098SOL    HW231194   3.068   0.583   5.013
10099SOL     OW31195   0.328   4.923   1.292
10099SOL    HW131196   0.344   4.978   1.375
10099SOL    HW231197   0.303   4.830   1.318
10100SOL     OW31198   4.563   6.474   5.441
10100SOL    HW131199   4.620   6.401   5.401
10100SOL    HW231200   4.522   6.440   5.526
10101SOL     OW31201   6.276   3.373   2.013
10101SOL    HW131202   6.265   3.303   2.083
10101SOL    HW231203   6.275   3.463   2.057
10102SOL     OW31204   6.830   1.093   1.880
10102SOL    HW131205   6.752   1.032   1.871
10102SOL    HW231206   6.894   1.056   1.947
10103SOL     OW31207   3.645   0.609   5.750
10103SOL    HW131208   3.702   0.684   5.718
10103SOL    HW231209   3.601   0.634   5.836
10104SOL     OW31210   1.816   1.548   4.799
10104SOL    HW131211   1.745   1.614   4.822
10104SOL    HW231212   1.862   1.519   4.883
10105SOL     OW31213   1.361   0.653   6.632
10105SOL    HW131214   1.369   0.571   6.688
10105SOL    HW231215   1.293   0.714   6.671
10106SOL     OW31216   3.995   6.333   0.348
10106SOL    HW131217   3.982   6.326   0.249
10106SOL    HW231218   3.908   6.352   0.392
10107SOL     OW31219   5.878   1.545   5.598
10107SOL    HW131220   5.896   1.642   5.619
10107SOL    HW231221   5.784   1.535   5.566
10108SOL     OW31222   6.936   0.990   0.481
10108SOL    HW131223   6.871   1.032   0.418
10108SOL    HW231224   6.943   0.892   0.461
10109SOL     OW31225   5.804   1.009   0.567
10109SOL    HW131226   5.743   0.974   0.637
10109SOL    HW231227   5.778   0.970   0.478
10110SOL     OW31228   5.033   4.841   4.636
10110SOL    HW131229   5.121   4.835   4.589
10110SOL    HW231230   4.973   4.767   4.606
10111SOL     OW31231   5.600   3.563   4.069
10111SOL    HW131232   5.611   3.648   4.019
10111SOL    HW231233   5.664   3.560   4.145
10112SOL     OW31234   5.815   3.763   3.627
10112SOL    HW131235   5.725   3.732   3.657
10112SOL    HW231236   5.805   3.841   3.565
10113SOL     OW31237   4.294   6.949   6.562
10113SOL    HW131238   4.329   6.859   6.537
10113SOL    HW231239   4.199   6.958   6.530
10114SOL     OW31240   4.252   2.140   1.588
10114SOL    HW131241   4.235   2.178   1.497
10114SOL    HW231242   4.200   2.191   1.656
10115SOL     OW31243   4.060   0.620   5.377
10115SOL    HW131244   4.093   0.629   5.283
10115SOL    HW231245   3.969   0.579   5.377
10116SOL     OW31246   0.393   6.968   0.163
10116SOL    HW131247   0.330   6.928   0.096
10116SOL    HW231248   0.480   6.919   0.160
10117SOL     OW31249   6.869   6.453   6.233
10117SOL    HW131250   6.839   6.539   6.274
10117SOL    HW231251   6.910   6.472   6.144
10118SOL     OW31252   2.128   3.875   2.993
10118SOL    HW131253   2.164   3.930   3.068
10118SOL    HW231254   2.157   3.780   3.004
10119SOL     OW31255   6.886   5.690   4.821
10119SOL    HW131256   6.908   5.723   4.729
10119SOL    HW231257   6.942   5.738   4.888
10120SOL     OW31258   1.958   3.343   4.462
10120SOL    HW131259   2.018   3.381   4.533
10120SOL    HW231260   1.980   3.386   4.374
10121SOL     OW31261   5.721   4.070   6.627
10121SOL    HW131262   5.735   3.995   6.563
10121SOL    HW231263   5.699   4.033   6.718
10122SOL     OW31264   5.646   3.024   2.639
10122SOL    HW131265   5.618   3.088   2.568
10122SOL    HW231266   5.576   2.953   2.648
10123SOL     OW31267   5.646   5.769   1.179
10123SOL    HW131268   5.678   5.770   1.274
10123SOL    HW231269   5.693   5.842   1.128
10124SOL     OW31270   1.163   5.050   0.647
10124SOL    HW131271   1.064   5.045   0.639
10124SOL    HW231272   1.205   5.034   0.557
10125SOL     OW31273   1.611   1.585   2.126
10125SOL    HW131274   1.519   1.558   2.154
10125SOL    HW231275   1.644   1.524   2.054
10126SOL     OW31276   6.826   0.351   0.433
10126SOL    HW131277   6.755   0.314   0.493
10126SOL    HW231278   6.815   0.311   0.341
10127SOL     OW31279   2.681   4.017   0.051
10127SOL    HW131280   2.674   4.109   0.011
10127SOL    HW231281   2.631   3.952   7.020
10128SOL     OW31282   3.018   1.341   6.746
10128SOL    HW131283   3.092   1.379   6.801
10128SOL    HW231284   3.006   1.397   6.664
10129SOL     OW31285   6.455   1.466   3.142
10129SOL    HW131286   6.531   1.438   3.201
10129SOL    HW231287   6.444   1.565   3.147
10130SOL     OW31288   1.225   2.186   1.161
10130SOL    HW131289   1.278   2.270   1.160
10130SOL    HW231290   1.248   2.132   1.242
10131SOL     OW31291   1.821   6.778   4.241
10131SOL    HW131292   1.891   6.776   4.169
10131SOL    HW231293   1.854   6.728   4.321
10132SOL     OW31294   3.227   0.173   3.744
10132SOL    HW131295   3.129   0.188   3.736
10132SOL    HW231296   3.269   0.251   3.791
10133SOL     OW31297   4.564   6.311   0.489
10133SOL    HW131298   4.527   6.402   0.503
10133SOL    HW231299   4.566   6.261   0.576
10134SOL     OW31300   6.222   0.867   2.546
10134SOL    HW131301   6.254   0.813   2.624
10134SOL    HW231302   6.130   0.838   2.520
10135SOL     OW31303   4.894   3.709   3.675
10135SOL    HW131304   4.884   3.768   3.595
10135SOL    HW231305   4.965   3.745   3.735
10136SOL     OW31306   4.846   1.895   2.401
10136SOL    HW131307   4.867   1.877   2.305
10136SOL    HW231308   4.796   1.981   2.409
10137SOL     OW31309   0.111   3.947   4.271
10137SOL    HW131310   0.113   3.870   4.335
10137SOL    HW231311   0.201   3.991   4.269
10138SOL     OW31312   5.623   3.630   0.414
10138SOL    HW131313   5.561   3.676   0.351
10138SOL    HW231314   5.627   3.532   0.393
10139SOL     OW31315   2.933   3.248   3.413
10139SOL    HW131316   3.007   3.232   3.479
10139SOL    HW231317   2.845   3.230   3.457
10140SOL     OW31318   7.000   6.575   6.800
10140SOL    HW131319   6.929   6.638   6.769
10140SOL    HW231320   0.034   6.552   6.723
10141SOL     OW31321   4.468   1.080   5.817
10141SOL    HW131322   4.503   1.009   5.757
10141SOL    HW231323   4.438   1.158   5.763
10142SOL     OW31324   6.210   6.557   5.998
10142SOL    HW131325   6.172   6.511   5.919
10142SOL    HW231326   6.281   6.501   6.039
10143SOL     OW31327   5.664   1.819   0.202
10143SOL    HW131328   5.621   1.861   0.122
10143SOL    HW231329   5.698   1.891   0.263
10144SOL     OW31330   3.930   0.080   6.496
10144SOL    HW131331   3.836   0.084   6.462
10144SOL    HW231332   3.963   7.012   6.492
10145SOL     OW31333   3.111   5.407   3.230
10145SOL    HW131334   3.162   5.436   3.312
10145SOL    HW231335   3.035   5.470   3.215
10146SOL     OW31336   5.197   4.220   4.908
10146SOL    HW131337   5.173   4.232   5.005
10146SOL    HW231338   5.122   4.254   4.851
10147SOL     OW31339   5.075   4.221   6.262
10147SOL    HW131340   5.015   4.289   6.305
10147SOL    HW231341   5.082   4.141   6.322
10148SOL     OW31342   4.986   4.991   6.922
10148SOL    HW131343   5.063   4.929   6.909
10148SOL    HW231344   4.931   4.961   7.000
10149SOL     OW31345   5.442   3.785   1.714
10149SOL    HW131346   5.386   3.737   1.647
10149SOL    HW231347   5.415   3.881   1.719
10150SOL     OW31348   3.771   3.127   1.119
10150SOL    HW131349   3.742   3.182   1.041
10150SOL    HW231350   3.812   3.187   1.188
10151SOL     OW31351   0.884   6.035   6.981
10151SOL    HW131352   0.907   6.027   0.052
10151SOL    HW231353   0.861   5.944   6.945
10152SOL     OW31354   6.618   6.550   3.648
10152SOL    HW131355   6.603   6.607   3.729
10152SOL    HW231356   6.534   6.501   3.625
10153SOL     OW31357   4.289   6.022   3.242
10153SOL    HW131358   4.340   5.953   3.293
10153SOL    HW231359   4.297   6.110   3.288
10154SOL     OW31360   3.759   6.040   4.693
10154SOL    HW131361   3.699   6.111   4.656
10154SOL    HW231362   3.735   5.951   4.653
10155SOL     OW31363   4.513   2.436   6.543
10155SOL    HW131364   4.543   2.530   6.564
10155SOL    HW231365   4.544   2.375   6.616
10156SOL     OW31366   5.063   0.686   2.190
10156SOL    HW131367   5.098   0.618   2.254
10156SOL    HW231368   5.018   0.639   2.113
10157SOL     OW31369   0.085   1.821   0.351
10157SOL    HW131370   0.181   1.791   0.351
10157SOL    HW231371   0.070   1.884   0.426
10158SOL     OW31372   6.757   5.858   0.767
10158SOL    HW131373   6.788   5.787   0.704
10158SOL    HW231374   6.730   5.940   0.715
10159SOL     OW31375   2.944   2.411   1.438
10159SOL    HW131376   2.957   2.477   1.512
10159SOL    HW231377   3.012   2.338   1.447
10160SOL     OW31378   1.499   2.899   2.673
10160SOL    HW131379   1.565   2.972   2.692
10160SOL    HW231380   1.544   2.810   2.683
10161SOL     OW31381   3.617   3.759   0.360
10161SOL    HW131382   3.625   3.682   0.298
10161SOL    HW231383   3.591   3.726   0.451
10162SOL     OW31384   3.644   4.723   0.556
10162SOL    HW131385   3.643   4.716   0.656
10162SOL    HW231386   3.731   4.690   0.521
10163SOL     OW31387   0.043   3.553   0.484
10163SOL    HW131388   0.031   3.567   0.386
10163SOL    HW231389   0.026   3.457   0.507
10164SOL     OW31390   6.254   3.764   5.042
10164SOL    HW131391   6.204   3.812   5.115
10164SOL    HW231392   6.213   3.674   5.027
10165SOL     OW31393   6.887   1.524   3.571
10165SOL    HW131394   6.803   1.558   3.615
10165SOL    HW231395   6.893   1.560   3.478
10166SOL     OW31396   2.950   1.749   1.603
10166SOL    HW131397   2.922   1.845   1.600
10166SOL    HW231398   3.042   1.740   1.563
10167SOL     OW31399   1.073   5.070   0.359
10167SOL    HW131400   0.987   5.026   0.384
10167SOL    HW231401   1.146   5.002   0.358
10168SOL     OW31402   6.412   2.623   6.530
10168SOL    HW131403   6.389   2.527   6.545
10168SOL    HW231404   6.357   2.659   6.454
10169SOL     OW31405   0.622   4.266   3.448
10169SOL    HW131406   0.549   4.204   3.476
10169SOL    HW231407   0.641   4.330   3.522
10170SOL     OW31408   6.736   5.561   6.281
10170SOL    HW131409   6.799   5.497   6.238
10170SOL    HW231410   6.691   5.517   6.359
10171SOL     OW31411   1.139   2.762   5.037
10171SOL    HW131412   1.202   2.822   4.988
10171SOL    HW231413   1.190   2.685   5.077
10172SOL     OW31414   1.146   5.529   4.659
10172SOL    HW131415   1.121   5.555   4.566
10172SOL    HW231416   1.078   5.464   4.694
10173SOL     OW31417   1.651   1.981   0.577
10173SOL    HW131418   1.679   1.908   0.515
10173SOL    HW231419   1.643   1.944   0.670
10174SOL     OW31420   5.537   5.154   3.197
10174SOL    HW131421   5.557   5.161   3.099
10174SOL    HW231422   5.488   5.236   3.226
10175SOL     OW31423   5.077   2.960   2.937
10175SOL    HW131424   5.117   3.003   3.019
10175SOL    HW231425   4.988   3.001   2.918
10176SOL     OW31426   0.114   2.892   4.955
10176SOL    HW131427   0.100   2.797   4.983
10176SOL    HW231428   0.155   2.895   4.864
10177SOL     OW31429   1.940   0.837   0.958
10177SOL    HW131430   1.957   0.743   0.989
10177SOL    HW231431   1.869   0.837   0.889
10178SOL     OW31432   6.841   0.711   0.408
10178SOL    HW131433   6.906   0.644   0.372
10178SOL    HW231434   6.753   0.700   0.360
10179SOL     OW31435   0.415   2.331   6.777
10179SOL    HW131436   0.506   2.338   6.736
10179SOL    HW231437   0.416   2.262   6.849
10180SOL     OW31438   4.126   0.602   6.663
10180SOL    HW131439   4.173   0.531   6.611
10180SOL    HW231440   4.033   0.612   6.628
10181SOL     OW31441   0.120   2.802   1.580
10181SOL    HW131442   0.094   2.724   1.637
10181SOL    HW231443   0.044   2.828   1.521
10182SOL     OW31444   4.601   0.712   0.778
10182SOL    HW131445   4.639   0.647   0.711
10182SOL    HW231446   4.509   0.682   0.804
10183SOL     OW31447   5.916   2.273   5.565
10183SOL    HW131448   5.954   2.297   5.476
10183SOL    HW231449   5.885   2.355   5.612
10184SOL     OW31450   4.289   1.870   6.500
10184SOL    HW131451   4.350   1.947   6.519
10184SOL    HW231452   4.279   1.815   6.583
10185SOL     OW31453   6.162   6.495   3.164
10185SOL    HW131454   6.225   6.531   3.095
10185SOL    HW231455   6.121   6.571   3.215
10186SOL     OW31456   4.924   4.122   4.510
10186SOL    HW131457   4.893   4.066   4.433
10186SOL    HW231458   4.983   4.196   4.476
10187SOL     OW31459   1.329   4.278   6.739
10187SOL    HW131460   1.271   4.285   6.658
10187SOL    HW231461   1.421   4.312   6.717
10188SOL     OW31462   3.681   4.117   6.895
10188SOL    HW131463   3.762   4.057   6.897
10188SOL    HW231464   3.688   4.184   6.969
10189SOL     OW31465   0.332   1.459   6.709
10189SOL    HW131466   0.391   1.482   6.786
10189SOL    HW231467   0.292   1.368   6.723
10190SOL     OW31468   3.861   3.487   1.219
10190SOL    HW131469   3.905   3.401   1.243
10190SOL    HW231470   3.884   3.557   1.286
10191SOL     OW31471   4.531   5.296   6.515
10191SOL    HW131472   4.570   5.210   6.545
10191SOL    HW231473   4.574   5.325   6.429
10192SOL     OW31474   4.359   0.884   5.436
10192SOL    HW131475   4.394   0.910   5.346
10192SOL    HW231476   4.387   0.790   5.458
10193SOL     OW31477   3.624   3.225   2.324
10193SOL    HW131478   3.562   3.229   2.403
10193SOL    HW231479   3.670   3.313   2.314
10194SOL     OW31480   4.935   0.540   5.037
10194SOL    HW131481   4.905   0.599   4.963
10194SOL    HW231482   4.982   0.595   5.107
10195SOL     OW31483   6.935   6.570   0.394
10195SOL    HW131484   6.924   6.473   0.417
10195SOL    HW231485   6.849   6.618   0.412
10196SOL     OW31486   3.653   2.125   4.190
10196SOL    HW131487   3.714   2.195   4.229
10196SOL    HW231488   3.681   2.106   4.096
10197SOL     OW31489   5.391   2.028   4.398
10197SOL    HW131490   5.304   1.982   4.418
10197SOL    HW231491   5.465   1.979   4.443
10198SOL     OW31492   3.489   6.624   2.049
10198SOL    HW131493   3.429   6.703   2.036
10198SOL    HW231494   3.548   6.614   1.969
10199SOL     OW31495   0.944   2.303   0.741
10199SOL    HW131496   1.006   2.231   0.709
10199SOL    HW231497   0.930   2.294   0.840
10200SOL     OW31498   4.687   3.286   5.337
10200SOL    HW131499   4.600   3.239   5.349
10200SOL    HW231500   4.672   3.375   5.295
10201SOL     OW31501   1.047   5.641   6.992
10201SOL    HW131502   1.143   5.668   6.993
10201SOL    HW231503   1.036   5.560   6.934
10202SOL     OW31504   2.729   4.639   0.110
10202SOL    HW131505   2.699   4.544   0.099
10202SOL    HW231506   2.826   4.646   0.085
10203SOL     OW31507   6.700   2.682   2.461
10203SOL    HW131508   6.731   2.611   2.524
10203SOL    HW231509   6.604   2.702   2.478
10204SOL     OW31510   3.905   5.418   6.449
10204SOL    HW131511   3.848   5.431   6.530
10204SOL    HW231512   3.975   5.349   6.469
10205SOL     OW31513   2.933   1.083   2.236
10205SOL    HW131514   2.894   1.082   2.328
10205SOL    HW231515   2.982   1.169   2.221
10206SOL     OW31516   6.679   0.195   6.832
10206SOL    HW131517   6.587   0.187   6.793
10206SOL    HW231518   6.708   0.105   6.866
10207SOL     OW31519   1.207   2.185   0.259
10207SOL    HW131520   1.223   2.234   0.345
10207SOL    HW231521   1.293   2.176   0.209
10208SOL     OW31522   6.212   5.382   3.360
10208SOL    HW131523   6.238   5.450   3.429
10208SOL    HW231524   6.288   5.369   3.296
10209SOL     OW31525   6.955   6.984   6.763
10209SOL    HW131526   6.909   7.000   6.851
10209SOL    HW231527   6.967   0.045   6.715
10210SOL     OW31528   5.404   6.213   0.835
10210SOL    HW131529   5.405   6.113   0.842
10210SOL    HW231530   5.316   6.247   0.866
10211SOL     OW31531   4.160   6.387   4.983
10211SOL    HW131532   4.252   6.379   5.021
10211SOL    HW231533   4.095   6.345   5.047
10212SOL     OW31534   0.108   6.631   5.501
10212SOL    HW131535   0.168   6.623   5.422
10212SOL    HW231536   0.014   6.609   5.474
10213SOL     OW31537   5.573   3.126   2.405
10213SOL    HW131538   5.595   3.130   2.308
10213SOL    HW231539   5.488   3.176   2.422
10214SOL     OW31540   0.800   1.620   1.615
10214SOL    HW131541   0.803   1.706   1.666
10214SOL    HW231542   0.842   1.633   1.525
10215SOL     OW31543   3.401   2.899   3.403
10215SOL    HW131544   3.304   2.905   3.379
10215SOL    HW231545   3.409   2.892   3.503
10216SOL     OW31546   1.006   1.056   1.061
10216SOL    HW131547   1.034   0.961   1.053
10216SOL    HW231548   0.906   1.062   1.054
10217SOL     OW31549   1.957   2.304   3.846
10217SOL    HW131550   1.986   2.209   3.837
10217SOL    HW231551   1.857   2.308   3.842
10218SOL     OW31552   1.352   0.621   1.816
10218SOL    HW131553   1.327   0.652   1.908
10218SOL    HW231554   1.436   0.666   1.787
10219SOL     OW31555   0.687   2.603   2.804
10219SOL    HW131556   0.780   2.574   2.827
10219SOL    HW231557   0.680   2.702   2.815
10220SOL     OW31558   3.979   1.471   1.474
10220SOL    HW131559   3.991   1.522   1.559
10220SOL    HW231560   3.884   1.476   1.444
10221SOL     OW31561   1.877   3.756   4.386
10221SOL    HW131562   1.956   3.777   4.328
10221SOL    HW231563   1.851   3.661   4.374
10222SOL     OW31564   2.341   3.754   5.472
10222SOL    HW131565   2.409   3.696   5.428
10222SOL    HW231566   2.283   3.699   5.531
10223SOL     OW31567   2.345   5.044   0.279
10223SOL    HW131568   2.406   5.108   0.325
10223SOL    HW231569   2.399   4.977   0.229
10224SOL     OW31570   6.337   2.365   5.653
10224SOL    HW131571   6.302   2.456   5.630
10224SOL    HW231572   6.260   2.304   5.674
10225SOL     OW31573   2.112   6.023   6.341
10225SOL    HW131574   2.096   6.015   6.243
10225SOL    HW231575   2.117   5.932   6.382
10226SOL     OW31576   2.214   0.515   6.301
10226SOL    HW131577   2.210   0.415   6.303
10226SOL    HW231578   2.187   0.551   6.391
10227SOL     OW31579   4.911   4.428   0.791
10227SOL    HW131580   4.916   4.329   0.782
10227SOL    HW231581   4.901   4.470   0.701
10228SOL     OW31582   1.199   5.680   1.780
10228SOL    HW131583   1.260   5.601   1.787
10228SOL    HW231584   1.104   5.648   1.782
10229SOL     OW31585   1.691   2.135   4.521
10229SOL    HW131586   1.655   2.197   4.451
10229SOL    HW231587   1.642   2.048   4.516
10230SOL     OW31588   6.313   6.592   2.958
10230SOL    HW131589   6.403   6.632   2.975
10230SOL    HW231590   6.275   6.628   2.874
10231SOL     OW31591   6.463   4.911   5.632
10231SOL    HW131592   6.484   4.998   5.675
10231SOL    HW231593   6.365   4.893   5.637
10232SOL     OW31594   2.808   2.025   4.470
10232SOL    HW131595   2.771   2.071   4.551
10232SOL    HW231596   2.904   2.052   4.459
10233SOL     OW31597   4.518   3.995   5.602
10233SOL    HW131598   4.577   4.036   5.671
10233SOL    HW231599   4.554   4.014   5.511
10234SOL     OW31600   6.325   0.674   6.871
10234SOL    HW131601   6.233   0.702   6.843
10234SOL    HW231602   6.324   0.648   6.968
10235SOL     OW31603   3.511   2.138   0.396
10235SOL    HW131604   3.586   2.174   0.451
10235SOL    HW231605   3.548   2.097   0.313
10236SOL     OW31606   1.714   1.041   1.573
10236SOL    HW131607   1.756   1.017   1.485
10236SOL    HW231608   1.628   1.088   1.557
10237SOL     OW31609   0.087   4.355   6.990
10237SOL    HW131610   0.003   4.333   0.014
10237SOL    HW231611   0.069   4.355   6.892
10238SOL     OW31612   3.711   4.020   2.414
10238SOL    HW131613   3.701   3.939   2.471
10238SOL    HW231614   3.677   4.100   2.464
10239SOL     OW31615   2.012   3.748   5.629
10239SOL    HW131616   1.988   3.720   5.722
10239SOL    HW231617   2.077   3.824   5.633
10240SOL     OW31618   2.024   4.287   2.654
10240SOL    HW131619   1.931   4.299   2.688
10240SOL    HW231620   2.067   4.210   2.700
10241SOL     OW31621   6.657   6.634   2.806
10241SOL    HW131622   6.606   6.563   2.757
10241SOL    HW231623   6.673   6.605   2.900
10242SOL     OW31624   0.169   1.331   1.568
10242SOL    HW131625   0.077   1.300   1.593
10242SOL    HW231626   0.182   1.425   1.599
10243SOL     OW31627   1.511   4.690   2.050
10243SOL    HW131628   1.475   4.597   2.039
10243SOL    HW231629   1.479   4.747   1.975
10244SOL     OW31630   1.882   4.480   0.475
10244SOL    HW131631   1.823   4.554   0.441
10244SOL    HW231632   1.890   4.487   0.574
10245SOL     OW31633   2.935   4.818   0.311
10245SOL    HW131634   2.925   4.726   0.347
10245SOL    HW231635   2.880   4.882   0.365
10246SOL     OW31636   3.378   3.594   3.217
10246SOL    HW131637   3.312   3.519   3.230
10246SOL    HW231638   3.464   3.571   3.263
10247SOL     OW31639   6.968   4.167   6.001
10247SOL    HW131640   0.029   4.136   6.040
10247SOL    HW231641   6.927   4.235   6.062
10248SOL     OW31642   1.501   0.170   3.168
10248SOL    HW131643   1.565   0.135   3.236
10248SOL    HW231644   1.542   0.250   3.122
10249SOL     OW31645   2.932   6.967   0.020
10249SOL    HW131646   3.023   6.928   0.036
10249SOL    HW231647   2.939   0.021   6.986
10250SOL     OW31648   6.432   3.358   1.800
10250SOL    HW131649   6.365   3.372   1.873
10250SOL    HW231650   6.524   3.367   1.838
10251SOL     OW31651   2.237   1.441   4.937
10251SOL    HW131652   2.157   1.476   4.987
10251SOL    HW231653   2.226   1.462   4.840
10252SOL     OW31654   4.254   4.631   0.118
10252SOL    HW131655   4.342   4.597   0.152
10252SOL    HW231656   4.270   4.712   0.062
10253SOL     OW31657   2.877   6.481   0.565
10253SOL    HW131658   2.782   6.453   0.584
10253SOL    HW231659   2.938   6.431   0.627
10254SOL     OW31660   5.067   0.747   5.192
10254SOL    HW131661   5.084   0.782   5.100
10254SOL    HW231662   5.155   0.734   5.239
10255SOL     OW31663   1.437   6.244   1.272
10255SOL    HW131664   1.447   6.321   1.209
10255SOL    HW231665   1.378   6.271   1.349
10256SOL     OW31666   5.984   1.176   2.019
10256SOL    HW131667   5.901   1.169   1.964
10256SOL    HW231668   6.024   1.267   2.008
10257SOL     OW31669   2.478   4.918   4.729
10257SOL    HW131670   2.552   4.970   4.686
10257SOL    HW231671   2.496   4.820   4.718
10258SOL     OW31672   3.334   0.873   3.878
10258SOL    HW131673   3.323   0.919   3.790
10258SOL    HW231674   3.273   0.916   3.945
10259SOL     OW31675   0.892   4.551   3.393
10259SOL    HW131676   0.912   4.467   3.343
10259SOL    HW231677   0.906   4.535   3.491
10260SOL     OW31678   0.965   0.919   3.618
10260SOL    HW131679   0.951   1.014   3.589
10260SOL    HW231680   0.958   0.914   3.718
10261SOL     OW31681   0.041   5.729   3.463
10261SOL    HW131682   6.999   5.791   3.422
10261SOL    HW231683   0.063   5.761   3.555
10262SOL     OW31684   1.909   6.916   5.424
10262SOL    HW131685   1.969   6.916   5.345
10262SOL    HW231686   1.817   6.886   5.397
10263SOL     OW31687   5.363   0.758   6.711
10263SOL    HW131688   5.327   0.845   6.746
10263SOL    HW231689   5.312   0.731   6.629
10264SOL     OW31690   5.746   1.249   6.678
10264SOL    HW131691   5.691   1.254   6.761
10264SOL    HW231692   5.689   1.268   6.599
10265SOL     OW31693   2.440   2.400   2.180
10265SOL    HW131694   2.443   2.484   2.126
10265SOL    HW231695   2.533   2.366   2.195
10266SOL     OW31696   3.533   2.870   3.897
10266SOL    HW131697   3.540   2.805   3.973
10266SOL    HW231698   3.562   2.961   3.928
10267SOL     OW31699   6.157   2.326   6.771
10267SOL    HW131700   6.242   2.332   6.824
10267SOL    HW231701   6.082   2.367   6.822
10268SOL     OW31702   5.649   5.389   2.546
10268SOL    HW131703   5.596   5.311   2.514
10268SOL    HW231704   5.740   5.386   2.505
10269SOL     OW31705   0.821   3.336   0.117
10269SOL    HW131706   0.916   3.306   0.128
10269SOL    HW231707   0.813   3.392   0.034
10270SOL     OW31708   3.289   4.918   2.905
10270SOL    HW131709   3.225   4.861   2.853
10270SOL    HW231710   3.381   4.909   2.867
10271SOL     OW31711   3.533   2.619   6.124
10271SOL    HW131712   3.506   2.677   6.048
10271SOL    HW231713   3.604   2.555   6.093
10272SOL     OW31714   0.787   0.720   4.383
10272SOL    HW131715   0.718   0.703   4.312
10272SOL    HW231716   0.757   0.678   4.469
10273SOL     OW31717   2.874   5.810   2.511
10273SOL    HW131718   2.930   5.744   2.559
10273SOL    HW231719   2.914   5.830   2.422
10274SOL     OW31720   6.942   5.542   4.450
10274SOL    HW131721   6.911   5.628   4.410
10274SOL    HW231722   0.008   5.521   4.415
10275SOL     OW31723   0.718   7.014   1.657
10275SOL    HW131724   0.622   0.004   1.631
10275SOL    HW231725   0.770   6.985   1.577
10276SOL     OW31726   5.696   5.128   5.485
10276SOL    HW131727   5.605   5.159   5.513
10276SOL    HW231728   5.688   5.036   5.446
10277SOL     OW31729   2.120   5.078   3.538
10277SOL    HW131730   2.172   5.035   3.464
10277SOL    HW231731   2.031   5.034   3.546
10278SOL     OW31732   6.915   1.603   4.730
10278SOL    HW131733   6.878   1.518   4.695
10278SOL    HW231734   6.901   1.608   4.829
10279SOL     OW31735   2.778   4.728   3.790
10279SOL    HW131736   2.716   4.807   3.792
10279SOL    HW231737   2.870   4.758   3.817
10280SOL     OW31738   0.205   2.846   0.870
10280SOL    HW131739   0.282   2.797   0.911
10280SOL    HW231740   0.171   2.915   0.934
10281SOL     OW31741   6.030   1.402   2.843
10281SOL    HW131742   5.978   1.343   2.781
10281SOL    HW231743   6.128   1.388   2.829
10282SOL     OW31744   5.524   4.454   4.861
10282SOL    HW131745   5.512   4.401   4.945
10282SOL    HW231746   5.621   4.474   4.847
10283SOL     OW31747   0.961   3.135   0.339
10283SOL    HW131748   1.041   3.194   0.328
10283SOL    HW231749   0.878   3.190   0.339
10284SOL     OW31750   4.766   2.840   5.081
10284SOL    HW131751   4.776   2.937   5.061
10284SOL    HW231752   4.719   2.828   5.169
10285SOL     OW31753   5.380   0.476   2.056
10285SOL    HW131754   5.468   0.500   2.097
10285SOL    HW231755   5.342   0.396   2.101
10286SOL     OW31756   2.796   1.995   3.664
10286SOL    HW131757   2.769   2.069   3.727
10286SOL    HW231758   2.743   1.913   3.686
10287SOL     OW31759   2.186   6.276   1.128
10287SOL    HW131760   2.165   6.194   1.182
10287SOL    HW231761   2.285   6.285   1.119
10288SOL     OW31762   4.593   6.756   3.659
10288SOL    HW131763   4.631   6.755   3.566
10288SOL    HW231764   4.662   6.724   3.723
10289SOL     OW31765   1.380   6.524   1.336
10289SOL    HW131766   1.438   6.514   1.256
10289SOL    HW231767   1.370   6.620   1.359
10290SOL     OW31768   3.333   4.015   2.239
10290SOL    HW131769   3.296   4.008   2.146
10290SOL    HW231770   3.409   3.950   2.249
10291SOL     OW31771   3.814   1.339   2.901
10291SOL    HW131772   3.714   1.332   2.897
10291SOL    HW231773   3.847   1.392   2.823
10292SOL     OW31774   1.459   0.706   5.125
10292SOL    HW131775   1.409   0.697   5.211
10292SOL    HW231776   1.394   0.716   5.049
10293SOL     OW31777   1.894   4.426   3.673
10293SOL    HW131778   1.928   4.332   3.661
10293SOL    HW231779   1.925   4.482   3.596
10294SOL     OW31780   5.746   3.086   2.872
10294SOL    HW131781   5.697   3.077   2.785
10294SOL    HW231782   5.751   2.996   2.916
10295SOL     OW31783   6.183   5.078   6.185
10295SOL    HW131784   6.250   5.087   6.259
10295SOL    HW231785   6.189   4.986   6.147
10296SOL     OW31786   4.784   2.110   0.476
10296SOL    HW131787   4.830   2.135   0.561
10296SOL    HW231788   4.826   2.027   0.439
10297SOL     OW31789   2.343   0.040   6.867
10297SOL    HW131790   2.405   7.015   6.927
10297SOL    HW231791   2.309   7.005   6.795
10298SOL     OW31792   2.947   4.462   1.388
10298SOL    HW131793   2.851   4.457   1.362
10298SOL    HW231794   2.961   4.540   1.449
10299SOL     OW31795   4.719   5.502   2.992
10299SOL    HW131796   4.708   5.404   2.974
10299SOL    HW231797   4.635   5.550   2.967
10300SOL     OW31798   1.150   3.659   3.714
10300SOL    HW131799   1.136   3.643   3.811
10300SOL    HW231800   1.118   3.579   3.662
10301SOL     OW31801   5.396   2.768   4.511
10301SOL    HW131802   5.325   2.790   4.444
10301SOL    HW231803   5.433   2.853   4.549
10302SOL     OW31804   2.189   6.548   4.201
10302SOL    HW131805   2.197   6.603   4.118
10302SOL    HW231806   2.180   6.609   4.280
10303SOL     OW31807   1.955   6.286   2.533
10303SOL    HW131808   1.981   6.196   2.568
10303SOL    HW231809   1.897   6.331   2.600
10304SOL     OW31810   5.374   6.996   1.940
10304SOL    HW131811   5.344   0.058   1.978
10304SOL    HW231812   5.294   6.941   1.915
10305SOL     OW31813   0.937   4.449   0.244
10305SOL    HW131814   1.029   4.419   0.270
10305SOL    HW231815   0.941   4.497   0.156
10306SOL     OW31816   4.850   6.917   6.272
10306SOL    HW131817   4.862   6.888   6.178
10306SOL    HW231818   4.753   6.909   6.297
10307SOL     OW31819   2.428   2.062   5.389
10307SOL    HW131820   2.490   2.073   5.311
10307SOL    HW231821   2.370   2.143   5.396
10308SOL     OW31822   2.421   5.120   3.732
10308SOL    HW131823   2.392   5.043   3.789
10308SOL    HW231824   2.351   5.191   3.733
10309SOL     OW31825   6.534   1.854   5.080
10309SOL    HW131826   6.632   1.869   5.092
10309SOL    HW231827   6.511   1.861   4.983
10310SOL     OW31828   3.285   3.765   1.560
10310SOL    HW131829   3.237   3.690   1.515
10310SOL    HW231830   3.287   3.748   1.659
10311SOL     OW31831   0.667   6.227   0.325
10311SOL    HW131832   0.682   6.322   0.352
10311SOL    HW231833   0.570   6.214   0.302
10312SOL     OW31834   3.149   5.886   2.073
10312SOL    HW131835   3.100   5.914   1.991
10312SOL    HW231836   3.146   5.786   2.081
10313SOL     OW31837   4.873   6.975   1.816
10313SOL    HW131838   4.929   6.904   1.775
10313SOL    HW231839   4.900   0.038   1.780
10314SOL     OW31840   6.361   0.573   2.126
10314SOL    HW131841   6.406   0.493   2.166
10314SOL    HW231842   6.263   0.570   2.146
10315SOL     OW31843   5.598   6.152   4.384
10315SOL    HW131844   5.540   6.233   4.372
10315SOL    HW231845   5.632   6.123   4.295
10316SOL     OW31846   6.826   2.931   4.519
10316SOL    HW131847   6.826   2.971   4.611
10316SOL    HW231848   6.814   2.832   4.527
10317SOL     OW31849   3.547   5.744   5.162
10317SOL    HW131850   3.582   5.757   5.069
10317SOL    HW231851   3.466   5.686   5.159
10318SOL     OW31852   5.365   5.762   6.382
10318SOL    HW131853   5.435   5.804   6.325
10318SOL    HW231854   5.372   5.662   6.376
10319SOL     OW31855   1.295   2.105   5.945
10319SOL    HW131856   1.331   2.197   5.933
10319SOL    HW231857   1.198   2.110   5.968
10320SOL     OW31858   0.567   0.496   3.114
10320SOL    HW131859   0.474   0.524   3.089
10320SOL    HW231860   0.563   0.435   3.193
10321SOL     OW31861   4.003   0.549   2.626
10321SOL    HW131862   3.996   0.591   2.716
10321SOL    HW231863   3.980   0.452   2.633
10322SOL     OW31864   6.358   5.434   6.496
10322SOL    HW131865   6.302   5.354   6.519
10322SOL    HW231866   6.445   5.403   6.457
10323SOL     OW31867   6.263   3.826   6.084
10323SOL    HW131868   6.346   3.881   6.093
10323SOL    HW231869   6.246   3.806   5.987
10324SOL     OW31870   3.037   3.072   2.631
10324SOL    HW131871   2.971   3.069   2.705
10324SOL    HW231872   3.113   3.010   2.650
10325SOL     OW31873   0.045   3.464   3.068
10325SOL    HW131874   7.020   3.548   3.091
10325SOL    HW231875   0.118   3.451   3.135
10326SOL     OW31876   4.114   3.417   0.632
10326SOL    HW131877   4.059   3.350   0.681
10326SOL    HW231878   4.204   3.378   0.612
10327SOL     OW31879   2.681   2.363   1.788
10327SOL    HW131880   2.769   2.380   1.832
10327SOL    HW231881   2.632   2.291   1.838
10328SOL     OW31882   6.402   2.261   1.768
10328SOL    HW131883   6.328   2.273   1.702
10328SOL    HW231884   6.366   2.217   1.850
10329SOL     OW31885   3.470   0.349   3.274
10329SOL    HW131886   3.434   0.341   3.181
10329SOL    HW231887   3.411   0.298   3.337
10330SOL     OW31888   4.150   6.568   2.025
10330SOL    HW131889   4.236   6.619   2.012
10330SOL    HW231890   4.142   6.542   2.121
10331SOL     OW31891   6.675   1.125   4.592
10331SOL    HW131892   6.710   1.045   4.642
10331SOL    HW231893   6.658   1.100   4.497
10332SOL     OW31894   6.251   1.016   1.225
10332SOL    HW131895   6.242   0.997   1.322
10332SOL    HW231896   6.228   0.933   1.173
10333SOL     OW31897   6.382   5.047   4.761
10333SOL    HW131898   6.410   5.086   4.848
10333SOL    HW231899   6.416   4.953   4.755
10334SOL     OW31900   3.396   6.415   4.054
10334SOL    HW131901   3.390   6.396   3.956
10334SOL    HW231902   3.308   6.395   4.097
10335SOL     OW31903   2.827   4.363   6.489
10335SOL    HW131904   2.798   4.439   6.430
10335SOL    HW231905   2.900   4.394   6.550
10336SOL     OW31906   5.950   0.335   2.818
10336SOL    HW131907   5.912   0.351   2.910
10336SOL    HW231908   6.034   0.281   2.826
10337SOL     OW31909   6.920   6.374   5.757
10337SOL    HW131910   6.998   6.393   5.698
10337SOL    HW231911   6.840   6.355   5.701
10338SOL     OW31912   2.180   6.106   1.541
10338SOL    HW131913   2.145   6.150   1.459
10338SOL    HW231914   2.105   6.056   1.586
10339SOL     OW31915   2.799   5.383   0.017
10339SOL    HW131916   2.852   5.419   6.965
10339SOL    HW231917   2.745   5.304   7.013
10340SOL     OW31918   1.317   5.523   1.275
10340SOL    HW131919   1.354   5.490   1.362
10340SOL    HW231920   1.221   5.548   1.287
10341SOL     OW31921   2.123   3.285   2.132
10341SOL    HW131922   2.158   3.368   2.089
10341SOL    HW231923   2.026   3.297   2.153
10342SOL     OW31924   1.399   6.794   5.093
10342SOL    HW131925   1.427   6.705   5.057
10342SOL    HW231926   1.467   6.863   5.068
10343SOL     OW31927   2.768   5.020   0.498
10343SOL    HW131928   2.839   5.090   0.507
10343SOL    HW231929   2.693   5.056   0.442
10344SOL     OW31930   4.019   4.340   1.671
10344SOL    HW131931   4.112   4.373   1.689
10344SOL    HW231932   3.956   4.417   1.672
10345SOL     OW31933   1.836   0.942   6.730
10345SOL    HW131934   1.747   0.942   6.776
10345SOL    HW231935   1.884   1.027   6.751
10346SOL     OW31936   6.153   0.342   1.878
10346SOL    HW131937   6.242   0.383   1.858
10346SOL    HW231938   6.091   0.412   1.912
10347SOL     OW31939   5.305   2.544   2.415
10347SOL    HW131940   5.254   2.610   2.470
10347SOL    HW231941   5.243   2.497   2.352
10348SOL     OW31942   6.182   1.532   0.350
10348SOL    HW131943   6.230   1.507   0.434
10348SOL    HW231944   6.111   1.463   0.331
10349SOL     OW31945   6.401   1.259   1.458
10349SOL    HW131946   6.446   1.221   1.377
10349SOL    HW231947   6.466   1.262   1.534
10350SOL     OW31948   2.374   5.971   5.644
10350SOL    HW131949   2.307   5.896   5.641
10350SOL    HW231950   2.330   6.052   5.682
10351SOL     OW31951   4.675   5.005   6.313
10351SOL    HW131952   4.697   5.097   6.279
10351SOL    HW231953   4.650   4.946   6.237
10352SOL     OW31954   4.853   2.209   6.969
10352SOL    HW131955   4.920   2.274   7.006
10352SOL    HW231956   4.899   2.144   6.909
10353SOL     OW31957   6.459   2.901   5.485
10353SOL    HW131958   6.481   2.985   5.534
10353SOL    HW231959   6.367   2.907   5.447
10354SOL     OW31960   6.106   1.965   2.141
10354SOL    HW131961   6.027   1.946   2.082
10354SOL    HW231962   6.084   2.041   2.202
10355SOL     OW31963   1.776   0.153   2.134
10355SOL    HW131964   1.866   0.129   2.098
10355SOL    HW231965   1.725   0.206   2.066
10356SOL     OW31966   6.668   4.233   5.656
10356SOL    HW131967   6.722   4.250   5.574
10356SOL    HW231968   6.720   4.175   5.719
10357SOL     OW31969   3.061   2.860   6.534
10357SOL    HW131970   3.069   2.915   6.450
10357SOL    HW231971   3.048   2.764   6.510
10358SOL     OW31972   6.011   3.512   3.777
10358SOL    HW131973   6.106   3.488   3.800
10358SOL    HW231974   6.010   3.589   3.713
10359SOL     OW31975   5.689   1.401   1.708
10359SOL    HW131976   5.747   1.468   1.663
10359SOL    HW231977   5.600   1.398   1.663
10360SOL     OW31978   4.708   5.290   1.512
10360SOL    HW131979   4.763   5.224   1.462
10360SOL    HW231980   4.707   5.266   1.609
10361SOL     OW31981   3.023   1.582   2.929
10361SOL    HW131982   3.094   1.535   2.875
10361SOL    HW231983   2.936   1.535   2.918
10362SOL     OW31984   0.192   5.526   3.510
10362SOL    HW131985   0.137   5.610   3.504
10362SOL    HW231986   0.197   5.483   3.420
10363SOL     OW31987   4.549   2.595   0.826
10363SOL    HW131988   4.575   2.558   0.737
10363SOL    HW231989   4.621   2.657   0.859
10364SOL     OW31990   3.533   3.638   1.928
10364SOL    HW131991   3.523   3.670   2.023
10364SOL    HW231992   3.611   3.683   1.886
10365SOL     OW31993   5.082   4.386   5.651
10365SOL    HW131994   5.016   4.363   5.722
10365SOL    HW231995   5.171   4.347   5.675
10366SOL     OW31996   3.895   6.935   4.189
10366SOL    HW131997   3.799   6.961   4.175
10366SOL    HW231998   3.901   6.875   4.269
10367SOL     OW31999   6.949   2.422   2.211
10367SOL    HW132000   6.904   2.391   2.128
10367SOL    HW232001   6.951   2.348   2.278
10368SOL     OW32002   2.570   1.151   2.681
10368SOL    HW132003   2.667   1.148   2.702
10368SOL    HW232004   2.516   1.142   2.765
10369SOL     OW32005   2.743   0.936   5.575
10369SOL    HW132006   2.806   0.898   5.643
10369SOL    HW232007   2.793   0.952   5.490
10370SOL     OW32008   5.672   1.211   5.164
10370SOL    HW132009   5.743   1.213   5.093
10370SOL    HW232010   5.616   1.294   5.157
10371SOL     OW32011   1.980   6.119   4.526
10371SOL    HW132012   1.945   6.199   4.477
10371SOL    HW232013   2.047   6.071   4.469
10372SOL     OW32014   1.581   0.961   6.845
10372SOL    HW132015   1.575   0.861   6.841
10372SOL    HW232016   1.516   1.001   6.781
10373SOL     OW32017   1.655   6.782   5.384
10373SOL    HW132018   1.559   6.803   5.399
10373SOL    HW232019   1.667   6.743   5.293
10374SOL     OW32020   3.023   1.099   3.382
10374SOL    HW132021   3.026   1.198   3.388
10374SOL    HW232022   3.027   1.060   3.474
10375SOL     OW32023   2.533   1.682   6.274
10375SOL    HW132024   2.525   1.762   6.215
10375SOL    HW232025   2.604   1.621   6.238
10376SOL     OW32026   1.219   5.532   3.597
10376SOL    HW132027   1.142   5.471   3.579
10376SOL    HW232028   1.276   5.540   3.515
10377SOL     OW32029   6.674   0.927   3.494
10377SOL    HW132030   6.631   0.979   3.421
10377SOL    HW232031   6.773   0.922   3.477
10378SOL     OW32032   5.564   6.300   5.440
10378SOL    HW132033   5.616   6.346   5.511
10378SOL    HW232034   5.627   6.263   5.371
10379SOL     OW32035   3.674   6.740   3.937
10379SOL    HW132036   3.683   6.839   3.935
10379SOL    HW232037   3.608   6.714   4.007
10380SOL     OW32038   0.723   2.637   5.007
10380SOL    HW132039   0.635   2.663   4.967
10380SOL    HW232040   0.742   2.693   5.087
10381SOL     OW32041   4.116   4.772   0.695
10381SOL    HW132042   4.062   4.700   0.739
10381SOL    HW232043   4.214   4.750   0.703
10382SOL     OW32044   1.779   4.863   1.363
10382SOL    HW132045   1.826   4.949   1.341
10382SOL    HW232046   1.815   4.826   1.448
10383SOL     OW32047   0.642   4.031   1.103
10383SOL    HW132048   0.651   3.992   1.012
10383SOL    HW232049   0.703   3.983   1.166
10384SOL     OW32050   6.831   0.123   1.744
10384SOL    HW132051   6.906   0.063   1.770
10384SOL    HW232052   6.760   0.071   1.697
10385SOL     OW32053   4.054   6.182   5.794
10385SOL    HW132054   4.121   6.162   5.865
10385SOL    HW232055   4.040   6.100   5.738
10386SOL     OW32056   6.605   2.111   5.469
10386SOL    HW132057   6.612   2.181   5.540
10386SOL    HW232058   6.558   2.031   5.506
10387SOL     OW32059   4.396   1.335   2.598
10387SOL    HW132060   4.349   1.401   2.540
10387SOL    HW232061   4.493   1.332   2.574
10388SOL     OW32062   1.906   5.624   2.179
10388SOL    HW132063   2.005   5.624   2.195
10388SOL    HW232064   1.867   5.537   2.211
10389SOL     OW32065   6.750   6.462   1.359
10389SOL    HW132066   6.809   6.385   1.387
10389SOL    HW232067   6.765   6.483   1.263
10390SOL     OW32068   1.821   2.536   1.226
10390SOL    HW132069   1.891   2.515   1.295
10390SOL    HW232070   1.751   2.594   1.267
10391SOL     OW32071   0.247   6.486   3.865
10391SOL    HW132072   0.328   6.542   3.882
10391SOL    HW232073   0.230   6.482   3.766
10392SOL     OW32074   6.689   4.254   6.165
10392SOL    HW132075   6.756   4.213   6.226
10392SOL    HW232076   6.631   4.183   6.126
10393SOL     OW32077   2.569   2.488   2.997
10393SOL    HW132078   2.507   2.555   2.957
10393SOL    HW232079   2.519   2.404   3.017
10394SOL     OW32080   2.272   6.044   4.918
10394SOL    HW132081   2.352   6.052   4.977
10394SOL    HW232082   2.281   5.962   4.861
10395SOL     OW32083   6.947   0.905   3.506
10395SOL    HW132084   6.941   0.958   3.590
10395SOL    HW232085   0.016   0.885   3.485
10396SOL     OW32086   3.415   1.267   3.926
10396SOL    HW132087   3.429   1.238   3.831
10396SOL    HW232088   3.393   1.187   3.982
10397SOL     OW32089   2.786   1.646   4.380
10397SOL    HW132090   2.882   1.638   4.408
10397SOL    HW232091   2.777   1.616   4.285
10398SOL     OW32092   4.848   2.451   0.565
10398SOL    HW132093   4.803   2.540   0.568
10398SOL    HW232094   4.923   2.450   0.632
10399SOL     OW32095   4.560   1.636   4.401
10399SOL    HW132096   4.601   1.564   4.456
10399SOL    HW232097   4.550   1.605   4.307
10400SOL     OW32098   4.268   5.661   0.185
10400SOL    HW132099   4.169   5.661   0.193
10400SOL    HW232100   4.295   5.630   0.094
10401SOL     OW32101   7.023   7.022   2.174
10401SOL    HW132102   6.965   0.053   2.233
10401SOL    HW232103   0.085   7.005   2.220
10402SOL     OW32104   6.903   1.844   5.781
10402SOL    HW132105   6.976   1.819   5.844
10402SOL    HW232106   6.851   1.762   5.756
10403SOL     OW32107   4.202   1.343   3.111
10403SOL    HW132108   4.123   1.403   3.124
10403SOL    HW232109   4.183   1.278   3.037
10404SOL     OW32110   6.623   6.682   4.397
10404SOL    HW132111   6.627   6.677   4.497
10404SOL    HW232112   6.683   6.756   4.365
10405SOL     OW32113   1.190   5.833   4.715
10405SOL    HW132114   1.169   5.736   4.703
10405SOL    HW232115   1.258   5.843   4.787
10406SOL     OW32116   2.061   3.342   5.305
10406SOL    HW132117   2.139   3.400   5.283
10406SOL    HW232118   2.069   3.309   5.399
10407SOL     OW32119   2.414   0.562   6.684
10407SOL    HW132120   2.373   0.478   6.719
10407SOL    HW232121   2.481   0.597   6.750
10408SOL     OW32122   4.398   6.258   1.782
10408SOL    HW132123   4.376   6.202   1.862
10408SOL    HW232124   4.431   6.347   1.811
10409SOL     OW32125   0.519   3.720   0.213
10409SOL    HW132126   0.585   3.789   0.244
10409SOL    HW232127   0.516   3.645   0.280
10410SOL     OW32128   5.874   2.592   1.562
10410SOL    HW132129   5.946   2.659   1.542
10410SOL    HW232130   5.851   2.542   1.478
10411SOL     OW32131   3.646   5.813   4.622
10411SOL    HW132132   3.687   5.729   4.585
10411SOL    HW232133   3.550   5.818   4.594
10412SOL     OW32134   6.531   1.243   0.183
10412SOL    HW132135   6.432   1.229   0.183
10412SOL    HW232136   6.562   1.263   0.090
10413SOL     OW32137   6.736   2.069   1.830
10413SOL    HW132138   6.793   2.139   1.786
10413SOL    HW232139   6.652   2.057   1.778
10414SOL     OW32140   3.738   5.735   6.062
10414SOL    HW132141   3.773   5.644   6.082
10414SOL    HW232142   3.781   5.801   6.123
10415SOL     OW32143   1.667   4.501   4.032
10415SOL    HW132144   1.717   4.587   4.026
10415SOL    HW232145   1.644   4.470   3.940
10416SOL     OW32146   6.274   6.970   5.240
10416SOL    HW132147   6.301   0.023   5.296
10416SOL    HW232148   6.287   6.886   5.293
10417SOL     OW32149   5.161   5.536   4.848
10417SOL    HW132150   5.136   5.462   4.787
10417SOL    HW232151   5.078   5.570   4.894
10418SOL     OW32152   6.428   4.212   6.391
10418SOL    HW132153   6.409   4.289   6.330
10418SOL    HW232154   6.516   4.226   6.436
10419SOL     OW32155   3.494   6.834   5.598
10419SOL    HW132156   3.403   6.830   5.558
10419SOL    HW232157   3.562   6.809   5.528
10420SOL     OW32158   6.827   4.130   3.992
10420SOL    HW132159   6.923   4.156   3.986
10420SOL    HW232160   6.793   4.107   3.900
10421SOL     OW32161   1.901   3.515   4.246
10421SOL    HW132162   1.815   3.483   4.206
10421SOL    HW232163   1.973   3.511   4.177
10422SOL     OW32164   6.795   3.351   5.218
10422SOL    HW132165   6.890   3.379   5.229
10422SOL    HW232166   6.786   3.291   5.138
10423SOL     OW32167   4.974   5.264   5.468
10423SOL    HW132168   5.046   5.247   5.535
10423SOL    HW232169   4.884   5.259   5.513
10424SOL     OW32170   3.721   2.999   0.587
10424SOL    HW132171   3.675   2.926   0.536
10424SOL    HW232172   3.805   3.025   0.538
10425SOL     OW32173   0.766   5.853   2.475
10425SOL    HW132174   0.855   5.814   2.498
10425SOL    HW232175   0.779   5.928   2.409
10426SOL     OW32176   5.315   4.362   6.547
10426SOL    HW132177   5.320   4.370   6.448
10426SOL    HW232178   5.336   4.450   6.589
10427SOL     OW32179   5.090   0.761   0.359
10427SOL    HW132180   5.048   0.770   0.268
10427SOL    HW232181   5.188   0.743   0.348
10428SOL     OW32182   3.176   1.409   3.944
10428SOL    HW132183   3.168   1.503   3.909
10428SOL    HW232184   3.271   1.378   3.932
10429SOL     OW32185   0.616   3.681   2.968
10429SOL    HW132186   0.645   3.760   2.913
10429SOL    HW232187   0.519   3.664   2.953
10430SOL     OW32188   3.468   6.678   5.032
10430SOL    HW132189   3.545   6.615   5.027
10430SOL    HW232190   3.414   6.659   5.115
10431SOL     OW32191   2.763   6.601   4.447
10431SOL    HW132192   2.838   6.654   4.485
10431SOL    HW232193   2.686   6.662   4.425
10432SOL     OW32194   6.448   0.801   4.774
10432SOL    HW132195   6.474   0.705   4.785
10432SOL    HW232196   6.511   0.858   4.827
10433SOL     OW32197   0.424   6.857   2.599
10433SOL    HW132198   0.422   6.875   2.697
10433SOL    HW232199   0.431   6.758   2.583
10434SOL     OW32200   3.141   6.436   3.690
10434SOL    HW132201   3.186   6.483   3.614
10434SOL    HW232202   3.073   6.496   3.732
10435SOL     OW32203   1.849   2.242   5.571
10435SOL    HW132204   1.751   2.254   5.555
10435SOL    HW232205   1.871   2.267   5.666
10436SOL     OW32206   5.940   4.068   4.675
10436SOL    HW132207   5.929   4.159   4.636
10436SOL    HW232208   5.956   4.001   4.602
10437SOL     OW32209   6.133   4.563   5.870
10437SOL    HW132210   6.062   4.581   5.938
10437SOL    HW232211   6.092   4.540   5.782
10438SOL     OW32212   1.072   6.113   5.898
10438SOL    HW132213   1.017   6.136   5.978
10438SOL    HW232214   1.127   6.192   5.872
10439SOL     OW32215   5.055   1.139   4.980
10439SOL    HW132216   5.145   1.115   5.017
10439SOL    HW232217   5.060   1.142   4.880
10440SOL     OW32218   0.279   6.855   6.963
10440SOL    HW132219   0.302   6.944   6.923
10440SOL    HW232220   0.309   6.782   6.902
10441SOL     OW32221   3.219   1.572   1.293
10441SOL    HW132222   3.138   1.624   1.265
10441SOL    HW232223   3.192   1.479   1.317
10442SOL     OW32224   4.229   6.733   5.174
10442SOL    HW132225   4.183   6.720   5.086
10442SOL    HW232226   4.292   6.810   5.168
10443SOL     OW32227   5.175   2.298   3.246
10443SOL    HW132228   5.179   2.242   3.328
10443SOL    HW232229   5.096   2.272   3.190
10444SOL     OW32230   3.943   5.435   2.510
10444SOL    HW132231   3.940   5.401   2.604
10444SOL    HW232232   3.857   5.479   2.487
10445SOL     OW32233   0.621   3.730   3.250
10445SOL    HW132234   0.715   3.762   3.257
10445SOL    HW232235   0.602   3.703   3.156
10446SOL     OW32236   2.357   3.153   6.324
10446SOL    HW132237   2.423   3.194   6.260
10446SOL    HW232238   2.265   3.183   6.299
10447SOL     OW32239   0.191   0.558   2.788
10447SOL    HW132240   0.124   0.540   2.861
10447SOL    HW232241   0.271   0.501   2.802
10448SOL     OW32242   4.236   0.652   2.061
10448SOL    HW132243   4.215   0.579   1.996
10448SOL    HW232244   4.243   0.613   2.153
10449SOL     OW32245   1.757   5.883   6.309
10449SOL    HW132246   1.812   5.804   6.281
10449SOL    HW232247   1.671   5.851   6.349
10450SOL     OW32248   0.052   1.489   6.822
10450SOL    HW132249   0.075   1.507   6.727
10450SOL    HW232250   0.135   1.486   6.877
10451SOL     OW32251   2.100   5.881   2.724
10451SOL    HW132252   2.162   5.848   2.652
10451SOL    HW232253   2.048   5.804   2.761
10452SOL     OW32254   6.402   3.009   2.798
10452SOL    HW132255   6.396   3.107   2.779
10452SOL    HW232256   6.413   2.995   2.897
10453SOL     OW32257   5.795   6.414   1.839
10453SOL    HW132258   5.807   6.367   1.927
10453SOL    HW232259   5.843   6.364   1.767
10454SOL     OW32260   5.992   2.827   0.119
10454SOL    HW132261   6.009   2.748   0.177
10454SOL    HW232262   6.079   2.861   0.082
10455SOL     OW32263   0.239   6.454   3.583
10455SOL    HW132264   0.188   6.488   3.503
10455SOL    HW232265   0.256   6.356   3.572
10456SOL     OW32266   1.206   5.216   0.871
10456SOL    HW132267   1.190   5.154   0.794
10456SOL    HW232268   1.175   5.307   0.847
10457SOL     OW32269   3.652   2.712   0.176
10457SOL    HW132270   3.745   2.701   0.139
10457SOL    HW232271   3.589   2.733   0.102
10458SOL     OW32272   6.227   0.027   6.092
10458SOL    HW132273   6.179   0.030   6.005
10458SOL    HW232274   6.318   0.068   6.083
10459SOL     OW32275   4.596   6.062   1.290
10459SOL    HW132276   4.518   6.077   1.229
10459SOL    HW232277   4.565   6.017   1.374
10460SOL     OW32278   1.294   3.984   1.346
10460SOL    HW132279   1.359   3.926   1.395
10460SOL    HW232280   1.246   4.043   1.410
10461SOL     OW32281   6.101   5.096   5.301
10461SOL    HW132282   6.123   5.033   5.226
10461SOL    HW232283   6.021   5.150   5.276
10462SOL     OW32284   5.086   2.520   2.923
10462SOL    HW132285   5.125   2.451   2.862
10462SOL    HW232286   5.128   2.513   3.013
10463SOL     OW32287   4.474   2.550   6.153
10463SOL    HW132288   4.424   2.579   6.072
10463SOL    HW232289   4.412   2.507   6.218
10464SOL     OW32290   6.540   6.483   2.569
10464SOL    HW132291   6.441   6.491   2.562
10464SOL    HW232292   6.579   6.466   2.479
10465SOL     OW32293   5.952   5.565   0.913
10465SOL    HW132294   5.852   5.559   0.923
10465SOL    HW232295   5.976   5.657   0.882
10466SOL     OW32296   4.440   4.744   5.406
10466SOL    HW132297   4.394   4.799   5.476
10466SOL    HW232298   4.520   4.699   5.447
10467SOL     OW32299   2.408   2.015   0.196
10467SOL    HW132300   2.376   1.923   0.172
10467SOL    HW232301   2.478   2.008   0.267
10468SOL     OW32302   3.849   5.200   3.097
10468SOL    HW132303   3.776   5.260   3.130
10468SOL    HW232304   3.915   5.254   3.044
10469SOL     OW32305   3.799   4.300   5.496
10469SOL    HW132306   3.893   4.301   5.462
10469SOL    HW232307   3.784   4.379   5.556
10470SOL     OW32308   1.591   1.927   3.920
10470SOL    HW132309   1.662   1.983   3.961
10470SOL    HW232310   1.565   1.966   3.831
10471SOL     OW32311   2.548   0.322   0.693
10471SOL    HW132312   2.556   0.282   0.602
10471SOL    HW232313   2.589   0.413   0.693
10472SOL     OW32314   3.662   5.994   0.479
10472SOL    HW132315   3.562   5.992   0.488
10472SOL    HW232316   3.702   6.041   0.558
10473SOL     OW32317   6.029   0.085   6.816
10473SOL    HW132318   6.046   0.070   6.719
10473SOL    HW232319   5.948   0.143   6.827
10474SOL     OW32320   4.587   1.076   4.069
10474SOL    HW132321   4.537   1.067   3.983
10474SOL    HW232322   4.529   1.045   4.144
10475SOL     OW32323   4.438   6.367   1.155
10475SOL    HW132324   4.517   6.423   1.133
10475SOL    HW232325   4.375   6.420   1.212
10476SOL     OW32326   6.405   6.441   6.915
10476SOL    HW132327   6.362   6.507   6.853
10476SOL    HW232328   6.344   6.364   6.929
10477SOL     OW32329   6.434   1.282   4.625
10477SOL    HW132330   6.512   1.223   4.604
10477SOL    HW232331   6.436   1.306   4.722
10478SOL     OW32332   6.606   0.710   0.984
10478SOL    HW132333   6.699   0.748   0.985
10478SOL    HW232334   6.603   0.631   0.923
10479SOL     OW32335   6.964   1.651   2.856
10479SOL    HW132336   6.956   1.699   2.944
10479SOL    HW232337   7.004   1.561   2.871
10480SOL     OW32338   0.775   0.664   2.164
10480SOL    HW132339   0.854   0.605   2.147
10480SOL    HW232340   0.694   0.626   2.121
10481SOL     OW32341   2.013   5.940   4.047
10481SOL    HW132342   1.965   6.025   4.068
10481SOL    HW232343   2.081   5.957   3.976
10482SOL     OW32344   6.642   4.967   4.148
10482SOL    HW132345   6.569   4.899   4.143
10482SOL    HW232346   6.721   4.930   4.196
10483SOL     OW32347   6.511   4.875   0.521
10483SOL    HW132348   6.466   4.791   0.552
10483SOL    HW232349   6.549   4.923   0.600
10484SOL     OW32350   5.908   1.839   1.449
10484SOL    HW132351   5.962   1.905   1.397
10484SOL    HW232352   5.905   1.866   1.545
10485SOL     OW32353   3.198   3.964   0.666
10485SOL    HW132354   3.291   3.929   0.663
10485SOL    HW232355   3.169   3.971   0.761
10486SOL     OW32356   0.132   0.823   0.609
10486SOL    HW132357   0.089   0.913   0.607
10486SOL    HW232358   0.064   0.753   0.630
10487SOL     OW32359   4.634   0.680   1.238
10487SOL    HW132360   4.659   0.616   1.165
10487SOL    HW232361   4.716   0.717   1.279
10488SOL     OW32362   2.992   1.051   6.072
10488SOL    HW132363   2.917   0.985   6.071
10488SOL    HW232364   3.060   1.023   6.139
10489SOL     OW32365   0.752   6.712   5.609
10489SOL    HW132366   0.752   6.788   5.544
10489SOL    HW232367   0.749   6.625   5.559
10490SOL     OW32368   5.744   1.214   0.938
10490SOL    HW132369   5.657   1.259   0.921
10490SOL    HW232370   5.762   1.212   1.036
10491SOL     OW32371   2.143   2.587   0.145
10491SOL    HW132372   2.205   2.510   0.131
10491SOL    HW232373   2.063   2.556   0.197
10492SOL     OW32374   5.937   4.885   6.455
10492SOL    HW132375   5.941   4.788   6.431
10492SOL    HW232376   5.855   4.903   6.509
10493SOL     OW32377   3.601   0.899   2.165
10493SOL    HW132378   3.521   0.957   2.149
10493SOL    HW232379   3.585   0.808   2.127
10494SOL     OW32380   5.286   4.382   5.994
10494SOL    HW132381   5.297   4.360   6.091
10494SOL    HW232382   5.266   4.480   5.984
10495SOL     OW32383   1.374   7.002   0.157
10495SOL    HW132384   1.450   6.998   0.222
10495SOL    HW232385   1.391   0.048   0.090
10496SOL     OW32386   0.017   3.659   6.139
10496SOL    HW132387   0.019   3.649   6.040
10496SOL    HW232388   6.995   3.581   6.180
10497SOL     OW32389   2.252   6.547   2.317
10497SOL    HW132390   2.213   6.457   2.299
10497SOL    HW232391   2.179   6.614   2.329
10498SOL     OW32392   4.266   5.968   0.548
10498SOL    HW132393   4.344   5.994   0.606
10498SOL    HW232394   4.253   5.869   0.553
10499SOL     OW32395   3.781   6.920   1.849
10499SOL    HW132396   3.743   7.012   1.844
10499SOL    HW232397   3.845   6.906   1.773
10500SOL     OW32398   5.990   1.458   6.345
10500SOL    HW132399   6.025   1.448   6.438
10500SOL    HW232400   5.968   1.368   6.308
10501SOL     OW32401   2.093   5.378   2.280
10501SOL    HW132402   2.191   5.358   2.285
10501SOL    HW232403   2.077   5.471   2.313
10502SOL     OW32404   2.475   0.469   1.729
10502SOL    HW132405   2.562   0.463   1.777
10502SOL    HW232406   2.476   0.549   1.668
10503SOL     OW32407   4.167   2.830   0.762
10503SOL    HW132408   4.106   2.887   0.818
10503SOL    HW232409   4.116   2.796   0.683
10504SOL     OW32410   0.328   2.033   5.492
10504SOL    HW132411   0.271   1.958   5.459
10504SOL    HW232412   0.423   2.015   5.468
10505SOL     OW32413   5.534   5.421   0.743
10505SOL    HW132414   5.463   5.439   0.675
10505SOL    HW232415   5.617   5.390   0.697
10506SOL     OW32416   0.014   4.596   0.519
10506SOL    HW132417   0.008   4.501   0.550
10506SOL    HW232418   0.074   4.648   0.581
10507SOL     OW32419   2.340   6.920   0.254
10507SOL    HW132420   2.250   6.951   0.223
10507SOL    HW232421   2.402   6.912   0.176
10508SOL     OW32422   6.423   6.435   4.408
10508SOL    HW132423   6.403   6.509   4.473
10508SOL    HW232424   6.358   6.440   4.332
10509SOL     OW32425   1.187   5.350   4.230
10509SOL    HW132426   1.184   5.418   4.304
10509SOL    HW232427   1.113   5.284   4.243
10510SOL     OW32428   4.355   5.825   6.149
10510SOL    HW132429   4.357   5.731   6.114
10510SOL    HW232430   4.439   5.872   6.123
10511SOL     OW32431   3.871   0.877   2.160
10511SOL    HW132432   3.902   0.805   2.098
10511SOL    HW232433   3.771   0.884   2.154
10512SOL     OW32434   4.161   0.479   6.266
10512SOL    HW132435   4.177   0.573   6.237
10512SOL    HW232436   4.165   0.474   6.366
10513SOL     OW32437   5.839   2.609   4.677
10513SOL    HW132438   5.741   2.595   4.693
10513SOL    HW232439   5.853   2.698   4.634
10514SOL     OW32440   0.478   3.727   1.157
10514SOL    HW132441   0.536   3.750   1.234
10514SOL    HW232442   0.383   3.749   1.179
10515SOL     OW32443   0.809   3.323   3.563
10515SOL    HW132444   0.748   3.245   3.581
10515SOL    HW232445   0.780   3.369   3.480
10516SOL     OW32446   3.912   1.159   0.088
10516SOL    HW132447   3.912   1.060   0.104
10516SOL    HW232448   3.932   1.207   0.174
10517SOL     OW32449   1.256   2.616   2.739
10517SOL    HW132450   1.254   2.647   2.834
10517SOL    HW232451   1.234   2.693   2.678
10518SOL     OW32452   0.843   5.930   6.412
10518SOL    HW132453   0.744   5.916   6.415
10518SOL    HW232454   0.887   5.847   6.378
10519SOL     OW32455   2.533   3.826   6.936
10519SOL    HW132456   2.548   3.731   6.906
10519SOL    HW232457   2.537   3.887   6.857
10520SOL     OW32458   0.560   2.727   6.058
10520SOL    HW132459   0.518   2.816   6.039
10520SOL    HW232460   0.596   2.726   6.151
10521SOL     OW32461   6.431   6.496   2.287
10521SOL    HW132462   6.373   6.527   2.212
10521SOL    HW232463   6.520   6.540   2.281
10522SOL     OW32464   0.792   0.610   5.270
10522SOL    HW132465   0.708   0.595   5.217
10522SOL    HW232466   0.859   0.541   5.246
10523SOL     OW32467   0.129   4.988   3.593
10523SOL    HW132468   0.143   5.036   3.679
10523SOL    HW232469   0.215   4.945   3.564
10524SOL     OW32470   1.945   0.542   4.662
10524SOL    HW132471   1.978   0.636   4.662
10524SOL    HW232472   1.975   0.496   4.746
10525SOL     OW32473   3.623   6.539   6.581
10525SOL    HW132474   3.644   6.517   6.676
10525SOL    HW232475   3.580   6.460   6.537
10526SOL     OW32476   1.648   0.159   4.013
10526SOL    HW132477   1.551   0.182   4.013
10526SOL    HW232478   1.660   0.063   4.037
10527SOL     OW32479   0.238   1.479   5.117
10527SOL    HW132480   0.294   1.494   5.199
10527SOL    HW232481   0.141   1.488   5.141
10528SOL     OW32482   1.452   3.412   6.278
10528SOL    HW132483   1.494   3.326   6.308
10528SOL    HW232484   1.422   3.403   6.183
10529SOL     OW32485   3.401   5.625   3.792
10529SOL    HW132486   3.452   5.542   3.817
10529SOL    HW232487   3.304   5.605   3.787
10530SOL     OW32488   1.614   6.860   6.982
10530SOL    HW132489   1.639   6.915   6.902
10530SOL    HW232490   1.534   6.804   6.960
10531SOL     OW32491   1.436   2.724   4.169
10531SOL    HW132492   1.432   2.735   4.070
10531SOL    HW232493   1.456   2.812   4.212
10532SOL     OW32494   1.476   5.980   5.631
10532SOL    HW132495   1.497   5.882   5.621
10532SOL    HW232496   1.393   6.002   5.581
10533SOL     OW32497   2.892   0.740   4.610
10533SOL    HW132498   2.859   0.681   4.537
10533SOL    HW232499   2.816   0.770   4.666
10534SOL     OW32500   0.045   6.271   1.238
10534SOL    HW132501   0.096   6.351   1.271
10534SOL    HW232502   0.036   6.205   1.312
10535SOL     OW32503   1.346   2.033   1.713
10535SOL    HW132504   1.355   1.934   1.700
10535SOL    HW232505   1.325   2.053   1.808
10536SOL     OW32506   4.256   0.268   3.300
10536SOL    HW132507   4.220   0.268   3.394
10536SOL    HW232508   4.229   0.353   3.254
10537SOL     OW32509   3.666   6.158   3.919
10537SOL    HW132510   3.589   6.166   3.856
10537SOL    HW232511   3.748   6.131   3.868
10538SOL     OW32512   5.188   1.905   1.023
10538SOL    HW132513   5.166   2.001   1.003
10538SOL    HW232514   5.272   1.880   0.976
10539SOL     OW32515   0.551   4.639   0.302
10539SOL    HW132516   0.502   4.602   0.380
10539SOL    HW232517   0.511   4.604   0.217
10540SOL     OW32518   1.602   2.156   5.284
10540SOL    HW132519   1.573   2.116   5.197
10540SOL    HW232520   1.590   2.255   5.281
10541SOL     OW32521   3.551   4.157   2.595
10541SOL    HW132522   3.469   4.153   2.538
10541SOL    HW232523   3.532   4.115   2.684
10542SOL     OW32524   6.748   0.000   5.474
10542SOL    HW132525   6.765   0.020   5.571
10542SOL    HW232526   6.829   0.022   5.420
10543SOL     OW32527   0.396   1.108   4.633
10543SOL    HW132528   0.297   1.121   4.641
10543SOL    HW232529   0.437   1.187   4.587
10544SOL     OW32530   2.580   6.286   1.434
10544SOL    HW132531   2.563   6.257   1.528
10544SOL    HW232532   2.521   6.363   1.412
10545SOL     OW32533   6.739   1.744   2.426
10545SOL    HW132534   6.756   1.734   2.524
10545SOL    HW232535   6.827   1.746   2.377
10546SOL     OW32536   1.958   0.697   6.847
10546SOL    HW132537   1.900   0.679   6.926
10546SOL    HW232538   1.932   0.784   6.805
10547SOL     OW32539   5.542   2.602   2.518
10547SOL    HW132540   5.576   2.657   2.443
10547SOL    HW232541   5.471   2.539   2.485
10548SOL     OW32542   5.473   4.711   4.154
10548SOL    HW132543   5.542   4.768   4.198
10548SOL    HW232544   5.478   4.723   4.055
10549SOL     OW32545   0.823   7.003   2.134
10549SOL    HW132546   0.889   7.007   2.059
10549SOL    HW232547   0.732   0.001   2.099
10550SOL     OW32548   4.363   6.197   3.733
10550SOL    HW132549   4.373   6.198   3.832
10550SOL    HW232550   4.268   6.216   3.708
10551SOL     OW32551   1.162   2.298   6.275
10551SOL    HW132552   1.087   2.268   6.335
10551SOL    HW232553   1.218   2.365   6.322
10552SOL     OW32554   2.774   1.272   6.064
10552SOL    HW132555   2.773   1.275   5.964
10552SOL    HW232556   2.833   1.197   6.095
10553SOL     OW32557   0.719   4.452   2.421
10553SOL    HW132558   0.764   4.392   2.354
10553SOL    HW232559   0.667   4.396   2.485
10554SOL     OW32560   5.161   5.104   0.158
10554SOL    HW132561   5.086   5.160   0.124
10554SOL    HW232562   5.125   5.020   0.197
10555SOL     OW32563   1.953   2.816   0.620
10555SOL    HW132564   1.924   2.787   0.711
10555SOL    HW232565   2.050   2.793   0.607
10556SOL     OW32566   1.713   2.050   5.786
10556SOL    HW132567   1.803   2.042   5.830
10556SOL    HW232568   1.715   2.005   5.697
10557SOL     OW32569   2.338   2.814   3.303
10557SOL    HW132570   2.262   2.846   3.359
10557SOL    HW232571   2.302   2.774   3.219
10558SOL     OW32572   3.756   0.896   3.153
10558SOL    HW132573   3.788   0.961   3.084
10558SOL    HW232574   3.832   0.839   3.184
10559SOL     OW32575   4.963   0.556   1.331
10559SOL    HW132576   4.906   0.491   1.381
10559SOL    HW232577   4.948   0.648   1.367
10560SOL     OW32578   3.750   6.422   2.949
10560SOL    HW132579   3.735   6.519   2.967
10560SOL    HW232580   3.713   6.399   2.858
10561SOL     OW32581   3.045   3.894   1.081
10561SOL    HW132582   2.994   3.915   1.164
10561SOL    HW232583   3.096   3.809   1.094
10562SOL     OW32584   4.794   4.948   0.451
10562SOL    HW132585   4.825   5.039   0.477
10562SOL    HW232586   4.719   4.920   0.511
10563SOL     OW32587   0.226   1.728   3.382
10563SOL    HW132588   0.300   1.761   3.441
10563SOL    HW232589   0.185   1.646   3.423
10564SOL     OW32590   6.067   5.955   2.382
10564SOL    HW132591   6.102   6.038   2.341
10564SOL    HW232592   6.141   5.888   2.390
10565SOL     OW32593   0.872   0.498   5.858
10565SOL    HW132594   0.919   0.586   5.865
10565SOL    HW232595   0.796   0.496   5.924
10566SOL     OW32596   3.551   1.680   6.655
10566SOL    HW132597   3.504   1.595   6.630
10566SOL    HW232598   3.534   1.749   6.584
10567SOL     OW32599   3.244   1.901   4.635
10567SOL    HW132600   3.334   1.876   4.673
10567SOL    HW232601   3.180   1.919   4.710
10568SOL     OW32602   6.489   2.802   1.736
10568SOL    HW132603   6.395   2.826   1.761
10568SOL    HW232604   6.509   2.708   1.765
10569SOL     OW32605   5.362   1.970   1.789
10569SOL    HW132606   5.319   2.060   1.780
10569SOL    HW232607   5.340   1.914   1.709
10570SOL     OW32608   1.597   5.280   3.642
10570SOL    HW132609   1.541   5.198   3.656
10570SOL    HW232610   1.682   5.255   3.597
10571SOL     OW32611   6.780   4.284   5.383
10571SOL    HW132612   6.854   4.234   5.339
10571SOL    HW232613   6.729   4.336   5.315
10572SOL     OW32614   0.244   4.336   3.162
10572SOL    HW132615   0.222   4.402   3.233
10572SOL    HW232616   0.186   4.353   3.082
10573SOL     OW32617   4.634   0.217   5.254
10573SOL    HW132618   4.538   0.213   5.224
10573SOL    HW232619   4.683   0.138   5.217
10574SOL     OW32620   1.684   1.341   4.202
10574SOL    HW132621   1.690   1.345   4.102
10574SOL    HW232622   1.588   1.351   4.230
10575SOL     OW32623   0.402   1.033   3.137
10575SOL    HW132624   0.420   1.022   3.039
10575SOL    HW232625   0.313   0.991   3.159
10576SOL     OW32626   0.060   6.187   4.573
10576SOL    HW132627   0.150   6.163   4.537
10576SOL    HW232628   0.055   6.163   4.670
10577SOL     OW32629   1.681   4.100   0.189
10577SOL    HW132630   1.613   4.127   0.121
10577SOL    HW232631   1.769   4.141   0.166
10578SOL     OW32632   4.936   1.542   2.782
10578SOL    HW132633   5.023   1.541   2.832
10578SOL    HW232634   4.946   1.599   2.700
10579SOL     OW32635   4.231   2.723   1.724
10579SOL    HW132636   4.225   2.642   1.665
10579SOL    HW232637   4.326   2.735   1.754
10580SOL     OW32638   6.349   0.429   0.032
10580SOL    HW132639   6.433   0.406   7.010
10580SOL    HW232640   6.301   0.345   0.057
10581SOL     OW32641   6.573   6.821   3.143
10581SOL    HW132642   6.605   6.869   3.225
10581SOL    HW232643   6.537   6.887   3.077
10582SOL     OW32644   5.803   5.247   6.204
10582SOL    HW132645   5.799   5.345   6.224
10582SOL    HW232646   5.848   5.232   6.116
10583SOL     OW32647   3.658   1.249   4.560
10583SOL    HW132648   3.721   1.178   4.526
10583SOL    HW232649   3.637   1.313   4.486
10584SOL     OW32650   6.482   6.671   1.454
10584SOL    HW132651   6.410   6.647   1.520
10584SOL    HW232652   6.571   6.647   1.492
10585SOL     OW32653   2.074   2.490   5.504
10585SOL    HW132654   1.991   2.541   5.528
10585SOL    HW232655   2.066   2.455   5.410
10586SOL     OW32656   6.215   5.369   4.926
10586SOL    HW132657   6.152   5.298   4.957
10586SOL    HW232658   6.309   5.335   4.929
10587SOL     OW32659   6.163   4.583   0.255
10587SOL    HW132660   6.211   4.622   0.176
10587SOL    HW232661   6.146   4.486   0.239
10588SOL     OW32662   0.972   3.073   4.082
10588SOL    HW132663   0.987   3.091   3.985
10588SOL    HW232664   1.053   3.100   4.134
10589SOL     OW32665   5.844   2.021   4.098
10589SOL    HW132666   5.890   2.090   4.043
10589SOL    HW232667   5.879   2.024   4.192
10590SOL     OW32668   0.526   0.222   1.796
10590SOL    HW132669   0.446   0.282   1.804
10590SOL    HW232670   0.594   0.265   1.736
10591SOL     OW32671   1.409   2.205   0.058
10591SOL    HW132672   1.427   2.302   0.043
10591SOL    HW232673   1.371   2.165   7.001
10592SOL     OW32674   5.527   3.855   1.996
10592SOL    HW132675   5.525   3.809   1.908
10592SOL    HW232676   5.606   3.823   2.049
10593SOL     OW32677   2.433   5.774   0.416
10593SOL    HW132678   2.366   5.762   0.343
10593SOL    HW232679   2.390   5.754   0.504
10594SOL     OW32680   5.043   0.307   2.427
10594SOL    HW132681   4.973   0.376   2.411
10594SOL    HW232682   5.118   0.347   2.481
10595SOL     OW32683   4.177   6.461   6.492
10595SOL    HW132684   4.223   6.441   6.579
10595SOL    HW232685   4.080   6.474   6.508
10596SOL     OW32686   4.337   0.072   0.137
10596SOL    HW132687   4.352   0.049   0.233
10596SOL    HW232688   4.240   0.059   0.115
10597SOL     OW32689   3.637   0.760   5.410
10597SOL    HW132690   3.557   0.711   5.445
10597SOL    HW232691   3.618   0.858   5.409
10598SOL     OW32692   2.984   3.171   0.626
10598SOL    HW132693   3.064   3.114   0.608
10598SOL    HW232694   2.928   3.175   0.543
10599SOL     OW32695   4.869   3.113   5.641
10599SOL    HW132696   4.896   3.017   5.649
10599SOL    HW232697   4.894   3.147   5.550
10600SOL     OW32698   2.531   2.798   0.327
10600SOL    HW132699   2.448   2.849   0.350
10600SOL    HW232700   2.506   2.712   0.282
10601SOL     OW32701   1.740   4.690   5.081
10601SOL    HW132702   1.779   4.684   4.989
10601SOL    HW232703   1.694   4.604   5.103
10602SOL     OW32704   3.474   1.278   2.008
10602SOL    HW132705   3.490   1.263   1.910
10602SOL    HW232706   3.500   1.371   2.033
10603SOL     OW32707   3.181   6.032   2.958
10603SOL    HW132708   3.258   5.969   2.968
10603SOL    HW232709   3.119   5.997   2.888
10604SOL     OW32710   6.234   5.497   5.455
10604SOL    HW132711   6.228   5.401   5.483
10604SOL    HW232712   6.217   5.504   5.357
10605SOL     OW32713   1.605   5.929   0.315
10605SOL    HW132714   1.559   5.895   0.233
10605SOL    HW232715   1.541   5.982   0.369
10606SOL     OW32716   6.728   0.966   2.707
10606SOL    HW132717   6.718   1.063   2.730
10606SOL    HW232718   6.637   0.926   2.694
10607SOL     OW32719   4.083   4.787   5.109
10607SOL    HW132720   3.990   4.816   5.130
10607SOL    HW232721   4.102   4.806   5.012
10608SOL     OW32722   5.046   2.575   5.917
10608SOL    HW132723   5.057   2.499   5.853
10608SOL    HW232724   5.131   2.587   5.968
10609SOL     OW32725   2.640   6.807   0.517
10609SOL    HW132726   2.690   6.804   0.430
10609SOL    HW232727   2.593   6.895   0.525
10610SOL     OW32728   0.867   2.202   5.414
10610SOL    HW132729   0.784   2.243   5.452
10610SOL    HW232730   0.918   2.156   5.487
10611SOL     OW32731   3.783   3.969   6.085
10611SOL    HW132732   3.855   3.899   6.075
10611SOL    HW232733   3.703   3.929   6.129
10612SOL     OW32734   3.284   0.944   4.377
10612SOL    HW132735   3.373   0.935   4.331
10612SOL    HW232736   3.226   0.867   4.351
10613SOL     OW32737   6.375   6.665   4.913
10613SOL    HW132738   6.316   6.693   4.838
10613SOL    HW232739   6.433   6.741   4.941
10614SOL     OW32740   6.232   2.155   4.225
10614SOL    HW132741   6.295   2.130   4.152
10614SOL    HW232742   6.147   2.103   4.215
10615SOL     OW32743   3.609   6.540   5.390
10615SOL    HW132744   3.535   6.543   5.323
10615SOL    HW232745   3.642   6.632   5.407
10616SOL     OW32746   3.195   5.914   0.632
10616SOL    HW132747   3.254   5.834   0.643
10616SOL    HW232748   3.166   5.947   0.722
10617SOL     OW32749   2.273   2.574   1.257
10617SOL    HW132750   2.328   2.537   1.332
10617SOL    HW232751   2.270   2.674   1.265
10618SOL     OW32752   0.208   3.604   6.630
10618SOL    HW132753   0.182   3.649   6.715
10618SOL    HW232754   0.299   3.562   6.641
10619SOL     OW32755   0.180   4.318   2.625
10619SOL    HW132756   0.088   4.281   2.612
10619SOL    HW232757   0.213   4.358   2.539
10620SOL     OW32758   1.669   5.670   4.819
10620SOL    HW132759   1.611   5.751   4.812
10620SOL    HW232760   1.612   5.588   4.804
10621SOL     OW32761   1.148   5.922   2.156
10621SOL    HW132762   1.072   5.858   2.166
10621SOL    HW232763   1.193   5.934   2.245
10622SOL     OW32764   4.965   1.807   1.180
10622SOL    HW132765   5.039   1.852   1.130
10622SOL    HW232766   4.890   1.872   1.195
10623SOL     OW32767   6.861   4.708   4.982
10623SOL    HW132768   6.779   4.696   5.037
10623SOL    HW232769   6.848   4.666   4.892
10624SOL     OW32770   0.248   2.929   4.727
10624SOL    HW132771   0.204   2.987   4.659
10624SOL    HW232772   0.344   2.956   4.737
10625SOL     OW32773   0.687   4.304   0.425
10625SOL    HW132774   0.605   4.270   0.378
10625SOL    HW232775   0.752   4.229   0.437
10626SOL     OW32776   2.784   3.003   0.763
10626SOL    HW132777   2.684   3.005   0.759
10626SOL    HW232778   2.820   3.080   0.710
10627SOL     OW32779   5.306   6.869   0.514
10627SOL    HW132780   5.380   6.847   0.578
10627SOL    HW232781   5.344   6.875   0.421
10628SOL     OW32782   5.007   6.392   0.210
10628SOL    HW132783   5.095   6.423   0.175
10628SOL    HW232784   4.959   6.341   0.138
10629SOL     OW32785   2.504   4.905   5.271
10629SOL    HW132786   2.598   4.872   5.267
10629SOL    HW232787   2.464   4.901   5.179
10630SOL     OW32788   6.782   1.146   3.787
10630SOL    HW132789   6.810   1.186   3.699
10630SOL    HW232790   6.688   1.174   3.808
10631SOL     OW32791   2.299   4.695   4.454
10631SOL    HW132792   2.273   4.604   4.486
10631SOL    HW232793   2.218   4.744   4.423
10632SOL     OW32794   6.275   2.096   3.925
10632SOL    HW132795   6.341   2.022   3.941
10632SOL    HW232796   6.288   2.133   3.833
10633SOL     OW32797   2.969   2.785   1.307
10633SOL    HW132798   2.930   2.742   1.388
10633SOL    HW232799   3.018   2.868   1.334
10634SOL     OW32800   3.325   5.680   0.700
10634SOL    HW132801   3.395   5.678   0.771
10634SOL    HW232802   3.336   5.602   0.639
10635SOL     OW32803   2.991   2.187   0.954
10635SOL    HW132804   3.082   2.182   0.994
10635SOL    HW232805   2.976   2.279   0.917
10636SOL     OW32806   1.416   1.527   1.512
10636SOL    HW132807   1.501   1.491   1.474
10636SOL    HW232808   1.362   1.452   1.550
10637SOL     OW32809   2.478   4.915   6.039
10637SOL    HW132810   2.444   4.913   5.945
10637SOL    HW232811   2.576   4.894   6.039
10638SOL     OW32812   6.983   5.689   2.697
10638SOL    HW132813   0.035   5.628   2.710
10638SOL    HW232814   6.909   5.663   2.759
10639SOL     OW32815   0.739   3.073   3.605
10639SOL    HW132816   0.730   3.040   3.699
10639SOL    HW232817   0.818   3.029   3.561
10640SOL     OW32818   3.764   6.982   5.683
10640SOL    HW132819   3.805   6.955   5.596
10640SOL    HW232820   3.791   6.917   5.755
10641SOL     OW32821   2.704   1.682   1.517
10641SOL    HW132822   2.651   1.611   1.564
10641SOL    HW232823   2.792   1.693   1.563
10642SOL     OW32824   0.310   3.388   1.917
10642SOL    HW132825   0.377   3.456   1.886
10642SOL    HW232826   0.219   3.429   1.917
10643SOL     OW32827   1.769   5.064   5.364
10643SOL    HW132828   1.857   5.018   5.355
10643SOL    HW232829   1.697   5.003   5.328
10644SOL     OW32830   5.463   2.976   3.083
10644SOL    HW132831   5.556   2.946   3.062
10644SOL    HW232832   5.423   2.914   3.151
10645SOL     OW32833   1.347   2.068   5.134
10645SOL    HW132834   1.408   2.121   5.076
10645SOL    HW232835   1.284   2.015   5.078
10646SOL     OW32836   6.595   0.420   6.486
10646SOL    HW132837   6.566   0.476   6.564
10646SOL    HW232838   6.515   0.399   6.430
10647SOL     OW32839   2.855   5.232   5.397
10647SOL    HW132840   2.846   5.266   5.491
10647SOL    HW232841   2.886   5.137   5.400
10648SOL     OW32842   5.546   4.500   6.289
10648SOL    HW132843   5.480   4.426   6.293
10648SOL    HW232844   5.579   4.512   6.195
10649SOL     OW32845   7.025   4.021   3.056
10649SOL    HW132846   0.020   4.028   2.959
10649SOL    HW232847   0.055   3.947   3.096
10650SOL     OW32848   0.940   6.346   3.649
10650SOL    HW132849   0.843   6.371   3.654
10650SOL    HW232850   0.976   6.371   3.559
10651SOL     OW32851   4.555   6.351   6.468
10651SOL    HW132852   4.487   6.406   6.420
10651SOL    HW232853   4.509   6.281   6.522
10652SOL     OW32854   3.422   0.304   6.299
10652SOL    HW132855   3.517   0.305   6.331
10652SOL    HW232856   3.398   0.212   6.268
10653SOL     OW32857   4.565   4.502   4.245
10653SOL    HW132858   4.480   4.450   4.231
10653SOL    HW232859   4.641   4.439   4.259
10654SOL     OW32860   4.689   0.952   0.693
10654SOL    HW132861   4.786   0.977   0.701
10654SOL    HW232862   4.677   0.857   0.720
10655SOL     OW32863   2.589   5.513   0.434
10655SOL    HW132864   2.667   5.454   0.413
10655SOL    HW232865   2.622   5.600   0.470
10656SOL     OW32866   6.408   1.958   2.126
10656SOL    HW132867   6.441   1.983   2.217
10656SOL    HW232868   6.312   1.985   2.116
10657SOL     OW32869   6.864   0.281   6.168
10657SOL    HW132870   6.930   0.335   6.115
10657SOL    HW232871   6.774   0.288   6.125
10658SOL     OW32872   6.001   4.468   5.138
10658SOL    HW132873   6.035   4.561   5.127
10658SOL    HW232874   6.057   4.406   5.083
10659SOL     OW32875   6.742   6.098   1.267
10659SOL    HW132876   6.650   6.093   1.306
10659SOL    HW232877   6.744   6.050   1.180
10660SOL     OW32878   5.314   3.528   0.148
10660SOL    HW132879   5.383   3.473   0.102
10660SOL    HW232880   5.357   3.608   0.190
10661SOL     OW32881   0.635   6.903   2.416
10661SOL    HW132882   0.700   6.978   2.423
10661SOL    HW232883   0.555   6.923   2.472
10662SOL     OW32884   5.561   0.953   3.284
10662SOL    HW132885   5.630   1.026   3.283
10662SOL    HW232886   5.558   0.912   3.376
10663SOL     OW32887   1.142   0.940   1.932
10663SOL    HW132888   1.127   0.926   1.834
10663SOL    HW232889   1.058   0.919   1.982
10664SOL     OW32890   0.878   4.917   5.162
10664SOL    HW132891   0.802   4.939   5.099
10664SOL    HW232892   0.926   4.836   5.127
10665SOL     OW32893   0.901   1.185   0.404
10665SOL    HW132894   0.811   1.216   0.435
10665SOL    HW232895   0.957   1.264   0.377
10666SOL     OW32896   3.050   4.244   0.839
10666SOL    HW132897   3.149   4.240   0.850
10666SOL    HW232898   3.006   4.206   0.921
10667SOL     OW32899   3.834   3.116   5.387
10667SOL    HW132900   3.746   3.120   5.341
10667SOL    HW232901   3.849   3.024   5.424
10668SOL     OW32902   1.675   1.129   5.124
10668SOL    HW132903   1.581   1.100   5.140
10668SOL    HW232904   1.689   1.146   5.026
10669SOL     OW32905   5.950   6.068   0.859
10669SOL    HW132906   5.921   6.161   0.839
10669SOL    HW232907   6.048   6.067   0.878
10670SOL     OW32908   5.202   4.008   5.146
10670SOL    HW132909   5.194   3.924   5.200
10670SOL    HW232910   5.297   4.039   5.146
10671SOL     OW32911   2.624   2.445   3.258
10671SOL    HW132912   2.711   2.395   3.254
10671SOL    HW232913   2.598   2.474   3.167
10672SOL     OW32914   6.197   2.749   0.448
10672SOL    HW132915   6.113   2.709   0.412
10672SOL    HW232916   6.221   2.831   0.395
10673SOL     OW32917   0.908   1.405   6.871
10673SOL    HW132918   0.860   1.429   6.786
10673SOL    HW232919   0.957   1.485   6.905
10674SOL     OW32920   3.508   3.811   0.962
10674SOL    HW132921   3.462   3.895   0.932
10674SOL    HW232922   3.469   3.733   0.914
10675SOL     OW32923   2.195   6.982   6.648
10675SOL    HW132924   2.209   6.905   6.586
10675SOL    HW232925   2.246   0.036   6.615
10676SOL     OW32926   6.246   6.856   5.563
10676SOL    HW132927   6.297   6.942   5.556
10676SOL    HW232928   6.156   6.868   5.519
10677SOL     OW32929   0.463   0.716   2.596
10677SOL    HW132930   0.369   0.722   2.563
10677SOL    HW232931   0.525   0.749   2.525
10678SOL     OW32932   3.976   5.266   2.735
10678SOL    HW132933   4.034   5.313   2.802
10678SOL    HW232934   3.886   5.250   2.775
10679SOL     OW32935   5.377   5.135   6.410
10679SOL    HW132936   5.339   5.228   6.407
10679SOL    HW232937   5.475   5.139   6.389
10680SOL     OW32938   3.074   1.806   3.481
10680SOL    HW132939   3.074   1.714   3.519
10680SOL    HW232940   2.990   1.821   3.428
10681SOL     OW32941   0.709   4.037   7.008
10681SOL    HW132942   0.712   4.021   0.081
10681SOL    HW232943   0.801   4.026   6.970
10682SOL     OW32944   1.573   1.680   3.991
10682SOL    HW132945   1.624   1.657   4.073
10682SOL    HW232946   1.578   1.778   3.974
10683SOL     OW32947   3.224   1.937   4.080
10683SOL    HW132948   3.294   1.986   4.131
10683SOL    HW232949   3.240   1.948   3.982
10684SOL     OW32950   5.348   4.435   1.266
10684SOL    HW132951   5.305   4.434   1.176
10684SOL    HW232952   5.426   4.372   1.266
10685SOL     OW32953   0.571   5.395   2.759
10685SOL    HW132954   0.495   5.458   2.746
10685SOL    HW232955   0.647   5.423   2.700
10686SOL     OW32956   1.333   4.783   6.370
10686SOL    HW132957   1.322   4.739   6.459
10686SOL    HW232958   1.322   4.715   6.297
10687SOL     OW32959   0.003   5.560   1.935
10687SOL    HW132960   0.033   5.644   1.981
10687SOL    HW232961   0.081   5.512   1.897
10688SOL     OW32962   6.597   4.042   3.134
10688SOL    HW132963   6.685   4.036   3.181
10688SOL    HW232964   6.524   4.013   3.197
10689SOL     OW32965   0.784   6.670   3.948
10689SOL    HW132966   0.790   6.598   4.017
10689SOL    HW232967   0.820   6.636   3.861
10690SOL     OW32968   0.091   6.085   3.020
10690SOL    HW132969   0.103   6.008   3.083
10690SOL    HW232970   0.055   6.051   2.933
10691SOL     OW32971   1.099   1.000   2.332
10691SOL    HW132972   1.166   1.069   2.359
10691SOL    HW232973   1.147   0.921   2.294
10692SOL     OW32974   3.451   5.058   2.617
10692SOL    HW132975   3.374   5.119   2.596
10692SOL    HW232976   3.467   4.997   2.540
10693SOL     OW32977   2.275   7.023   1.443
10693SOL    HW132978   2.261   0.010   1.345
10693SOL    HW232979   2.198   0.037   1.493
10694SOL     OW32980   4.833   6.321   1.236
10694SOL    HW132981   4.879   6.409   1.229
10694SOL    HW232982   4.824   6.295   1.332
10695SOL     OW32983   5.334   2.353   2.888
10695SOL    HW132984   5.403   2.339   2.817
10695SOL    HW232985   5.283   2.267   2.901
10696SOL     OW32986   6.865   3.870   3.282
10696SOL    HW132987   6.878   3.840   3.377
10696SOL    HW232988   6.854   3.969   3.280
10697SOL     OW32989   0.220   5.873   4.669
10697SOL    HW132990   0.255   5.780   4.669
10697SOL    HW232991   0.259   5.924   4.745
10698SOL     OW32992   4.243   6.398   4.334
10698SOL    HW132993   4.328   6.357   4.300
10698SOL    HW232994   4.195   6.333   4.392
10699SOL     OW32995   4.134   2.294   1.797
10699SOL    HW132996   4.037   2.283   1.775
10699SOL    HW232997   4.167   2.379   1.757
10700SOL     OW32998   0.845   7.022   0.826
10700SOL    HW132999   0.940   7.019   0.858
10700SOL    HW233000   0.787   6.970   0.888
10701SOL     OW33001   3.569   5.568   0.268
10701SOL    HW133002   3.595   5.633   0.339
10701SOL    HW233003   3.648   5.548   0.210
10702SOL     OW33004   6.141   2.113   2.527
10702SOL    HW133005   6.116   2.157   2.613
10702SOL    HW233006   6.134   2.014   2.537
10703SOL     OW33007   3.077   3.059   4.053
10703SOL    HW133008   3.105   2.978   4.106
10703SOL    HW233009   3.005   3.107   4.102
10704SOL     OW33010   6.070   5.383   1.930
10704SOL    HW133011   6.110   5.417   2.015
10704SOL    HW233012   6.135   5.322   1.885
10705SOL     OW33013   6.921   4.252   2.562
10705SOL    HW133014   6.915   4.188   2.486
10705SOL    HW233015   6.861   4.223   2.636
10706SOL     OW33016   4.681   6.093   2.018
10706SOL    HW133017   4.732   6.174   1.989
10706SOL    HW233018   4.605   6.076   1.955
10707SOL     OW33019   0.555   6.612   4.232
10707SOL    HW133020   0.567   6.523   4.276
10707SOL    HW233021   0.497   6.602   4.151
10708SOL     OW33022   4.297   0.584   2.335
10708SOL    HW133023   4.321   0.528   2.414
10708SOL    HW233024   4.315   0.681   2.356
10709SOL     OW33025   6.117   0.368   4.959
10709SOL    HW133026   6.196   0.351   4.901
10709SOL    HW233027   6.079   0.459   4.939
10710SOL     OW33028   0.704   6.285   3.874
10710SOL    HW133029   0.690   6.187   3.858
10710SOL    HW233030   0.672   6.337   3.795
10711SOL     OW33031   1.673   6.868   4.008
10711SOL    HW133032   1.720   6.838   4.091
10711SOL    HW233033   1.741   6.891   3.938
10712SOL     OW33034   3.391   1.002   1.603
10712SOL    HW133035   3.378   1.014   1.505
10712SOL    HW233036   3.483   1.032   1.629
10713SOL     OW33037   1.141   3.962   2.032
10713SOL    HW133038   1.222   4.021   2.034
10713SOL    HW233039   1.142   3.907   1.948
10714SOL     OW33040   5.779   3.054   5.622
10714SOL    HW133041   5.867   3.022   5.655
10714SOL    HW233042   5.777   3.154   5.623
10715SOL     OW33043   4.854   6.778   2.849
10715SOL    HW133044   4.768   6.764   2.897
10715SOL    HW233045   4.845   6.745   2.755
10716SOL     OW33046   6.697   2.491   3.871
10716SOL    HW133047   6.660   2.400   3.887
10716SOL    HW233048   6.623   2.553   3.843
10717SOL     OW33049   0.548   2.402   0.562
10717SOL    HW133050   0.480   2.348   0.513
10717SOL    HW233051   0.501   2.474   0.613
10718SOL     OW33052   6.796   4.251   6.911
10718SOL    HW133053   6.801   4.169   6.853
10718SOL    HW233054   6.840   4.232   6.999
10719SOL     OW33055   4.666   5.924   0.851
10719SOL    HW133056   4.611   5.841   0.845
10719SOL    HW233057   4.672   5.954   0.946
10720SOL     OW33058   0.001   3.001   5.677
10720SOL    HW133059   0.055   2.927   5.718
10720SOL    HW233060   6.930   2.975   5.675
10721SOL     OW33061   5.722   3.095   5.247
10721SOL    HW133062   5.670   3.177   5.272
10721SOL    HW233063   5.695   3.065   5.156
10722SOL     OW33064   0.091   2.854   0.614
10722SOL    HW133065   0.161   2.846   0.543
10722SOL    HW233066   0.135   2.858   0.704
10723SOL     OW33067   6.681   4.227   6.533
10723SOL    HW133068   6.741   4.150   6.511
10723SOL    HW233069   6.722   4.312   6.501
10724SOL     OW33070   3.696   0.326   6.334
10724SOL    HW133071   3.760   0.367   6.399
10724SOL    HW233072   3.680   0.390   6.259
10725SOL     OW33073   7.011   5.032   3.987
10725SOL    HW133074   0.013   5.022   4.082
10725SOL    HW233075   0.058   5.078   3.935
10726SOL     OW33076   6.062   6.425   5.198
10726SOL    HW133077   5.980   6.424   5.140
10726SOL    HW233078   6.096   6.519   5.206
10727SOL     OW33079   1.802   4.781   4.319
10727SOL    HW133080   1.747   4.864   4.330
10727SOL    HW233081   1.771   4.712   4.385
10728SOL     OW33082   6.045   6.484   2.102
10728SOL    HW133083   6.026   6.540   2.022
10728SOL    HW233084   5.967   6.490   2.165
10729SOL     OW33085   6.562   1.053   3.296
10729SOL    HW133086   6.573   1.048   3.197
10729SOL    HW233087   6.517   1.138   3.321
10730SOL     OW33088   2.783   0.073   0.983
10730SOL    HW133089   2.740   0.048   0.897
10730SOL    HW233090   2.721   0.055   1.059
10731SOL     OW33091   2.144   5.829   6.811
10731SOL    HW133092   2.140   5.733   6.839
10731SOL    HW233093   2.198   5.836   6.727
10732SOL     OW33094   5.563   6.930   2.314
10732SOL    HW133095   5.467   6.934   2.341
10732SOL    HW233096   5.575   6.860   2.243
10733SOL     OW33097   5.573   2.858   6.833
10733SOL    HW133098   5.581   2.785   6.765
10733SOL    HW233099   5.573   2.818   6.925
10734SOL     OW33100   1.331   0.662   6.252
10734SOL    HW133101   1.302   0.727   6.183
10734SOL    HW233102   1.379   0.710   6.326
10735SOL     OW33103   1.217   4.419   2.422
10735SOL    HW133104   1.302   4.471   2.429
10735SOL    HW233105   1.226   4.349   2.352
10736SOL     OW33106   0.869   1.178   3.562
10736SOL    HW133107   0.863   1.254   3.498
10736SOL    HW233108   0.790   1.179   3.623
10737SOL     OW33109   0.797   2.041   7.024
10737SOL    HW133110   0.768   1.987   0.077
10737SOL    HW233111   0.873   2.101   0.024
10738SOL     OW33112   3.180   0.210   1.719
10738SOL    HW133113   3.227   0.264   1.649
10738SOL    HW233114   3.180   0.113   1.693
10739SOL     OW33115   0.712   0.937   3.007
10739SOL    HW133116   0.742   0.885   3.088
10739SOL    HW233117   0.657   0.878   2.948
10740SOL     OW33118   1.548   4.931   5.954
10740SOL    HW133119   1.605   4.859   5.915
10740SOL    HW233120   1.548   4.923   6.053
10741SOL     OW33121   1.606   1.453   3.454
10741SOL    HW133122   1.608   1.520   3.380
10741SOL    HW233123   1.637   1.364   3.420
10742SOL     OW33124   6.120   0.293   2.243
10742SOL    HW133125   6.219   0.306   2.243
10742SOL    HW233126   6.075   0.379   2.268
10743SOL     OW33127   2.579   2.465   3.690
10743SOL    HW133128   2.651   2.399   3.666
10743SOL    HW233129   2.562   2.526   3.613
10744SOL     OW33130   3.339   1.688   2.594
10744SOL    HW133131   3.357   1.722   2.502
10744SOL    HW233132   3.264   1.741   2.635
10745SOL     OW33133   1.571   4.849   0.660
10745SOL    HW133134   1.569   4.949   0.664
10745SOL    HW233135   1.665   4.817   0.671
10746SOL     OW33136   2.021   4.591   0.952
10746SOL    HW133137   1.935   4.579   1.002
10746SOL    HW233138   2.082   4.651   1.005
10747SOL     OW33139   5.201   1.618   3.263
10747SOL    HW133140   5.295   1.641   3.288
10747SOL    HW233141   5.139   1.641   3.338
10748SOL     OW33142   5.966   0.028   1.145
10748SOL    HW133143   5.868   0.011   1.133
10748SOL    HW233144   5.979   0.091   1.221
10749SOL     OW33145   0.282   5.093   2.825
10749SOL    HW133146   0.194   5.062   2.861
10749SOL    HW233147   0.308   5.037   2.747
10750SOL     OW33148   5.041   5.115   4.527
10750SOL    HW133149   5.043   5.123   4.427
10750SOL    HW233150   5.015   5.022   4.552
10751SOL     OW33151   0.769   3.755   5.334
10751SOL    HW133152   0.817   3.684   5.283
10751SOL    HW233153   0.679   3.771   5.293
10752SOL     OW33154   5.851   3.786   6.434
10752SOL    HW133155   5.925   3.853   6.421
10752SOL    HW233156   5.841   3.732   6.351
10753SOL     OW33157   6.102   0.305   3.687
10753SOL    HW133158   6.070   0.221   3.644
10753SOL    HW233159   6.140   0.366   3.618
10754SOL     OW33160   1.964   1.766   3.263
10754SOL    HW133161   1.951   1.738   3.358
10754SOL    HW233162   1.932   1.860   3.251
10755SOL     OW33163   0.006   1.500   0.802
10755SOL    HW133164   0.094   1.451   0.805
10755SOL    HW233165   6.986   1.482   0.715
10756SOL     OW33166   6.282   3.774   0.841
10756SOL    HW133167   6.342   3.845   0.802
10756SOL    HW233168   6.224   3.815   0.912
10757SOL     OW33169   6.840   3.736   0.427
10757SOL    HW133170   6.754   3.754   0.473
10757SOL    HW233171   6.907   3.700   0.493
10758SOL     OW33172   1.577   6.247   5.148
10758SOL    HW133173   1.589   6.272   5.244
10758SOL    HW233174   1.619   6.158   5.131
10759SOL     OW33175   1.762   3.259   6.862
10759SOL    HW133176   1.751   3.162   6.840
10759SOL    HW233177   1.851   3.273   6.906
10760SOL     OW33178   6.830   0.137   1.072
10760SOL    HW133179   6.858   0.046   1.043
10760SOL    HW233180   6.780   0.130   1.159
10761SOL     OW33181   0.562   1.621   6.114
10761SOL    HW133182   0.625   1.547   6.089
10761SOL    HW233183   0.554   1.684   6.036
10762SOL     OW33184   4.448   0.880   5.132
10762SOL    HW133185   4.365   0.933   5.113
10762SOL    HW233186   4.508   0.882   5.052
10763SOL     OW33187   4.996   6.147   1.037
10763SOL    HW133188   5.055   6.222   1.006
10763SOL    HW233189   4.934   6.181   1.107
10764SOL     OW33190   5.633   1.719   6.407
10764SOL    HW133191   5.570   1.688   6.335
10764SOL    HW233192   5.703   1.779   6.366
10765SOL     OW33193   5.474   2.272   1.092
10765SOL    HW133194   5.375   2.288   1.088
10765SOL    HW233195   5.522   2.359   1.092
10766SOL     OW33196   2.552   3.525   0.310
10766SOL    HW133197   2.562   3.566   0.400
10766SOL    HW233198   2.626   3.556   0.251
10767SOL     OW33199   1.487   0.780   0.455
10767SOL    HW133200   1.489   0.877   0.478
10767SOL    HW233201   1.537   0.728   0.524
10768SOL     OW33202   5.426   5.342   0.247
10768SOL    HW133203   5.501   5.327   0.182
10768SOL    HW233204   5.343   5.364   0.196
10769SOL     OW33205   2.453   5.330   4.999
10769SOL    HW133206   2.422   5.346   5.092
10769SOL    HW233207   2.411   5.246   4.964
10770SOL     OW33208   5.702   0.175   4.412
10770SOL    HW133209   5.611   0.174   4.454
10770SOL    HW233210   5.769   0.137   4.476
10771SOL     OW33211   4.831   0.177   5.646
10771SOL    HW133212   4.780   0.228   5.577
10771SOL    HW233213   4.815   0.217   5.736
10772SOL     OW33214   6.011   0.007   4.195
10772SOL    HW133215   5.939   0.038   4.134
10772SOL    HW233216   5.979   6.954   4.248
10773SOL     OW33217   6.919   4.957   7.015
10773SOL    HW133218   6.992   5.025   7.015
10773SOL    HW233219   6.837   4.996   6.973
10774SOL     OW33220   1.543   1.967   0.177
10774SOL    HW133221   1.513   2.052   0.136
10774SOL    HW233222   1.587   1.985   0.265
10775SOL     OW33223   1.279   3.646   0.457
10775SOL    HW133224   1.370   3.667   0.493
10775SOL    HW233225   1.276   3.669   0.360
10776SOL     OW33226   1.390   6.329   0.900
10776SOL    HW133227   1.368   6.335   0.803
10776SOL    HW233228   1.455   6.255   0.914
10777SOL     OW33229   4.235   0.200   3.991
10777SOL    HW133230   4.159   0.265   3.989
10777SOL    HW233231   4.301   0.227   4.060
10778SOL     OW33232   5.466   0.077   4.550
10778SOL    HW133233   5.500   0.146   4.615
10778SOL    HW233234   5.474   7.012   4.591
10779SOL     OW33235   6.928   4.588   3.114
10779SOL    HW133236   6.907   4.499   3.074
10779SOL    HW233237   6.848   4.647   3.108
10780SOL     OW33238   1.351   6.648   2.672
10780SOL    HW133239   1.404   6.733   2.668
10780SOL    HW233240   1.405   6.574   2.632
10781SOL     OW33241   3.824   1.513   3.956
10781SOL    HW133242   3.735   1.482   3.990
10781SOL    HW233243   3.837   1.609   3.979
10782SOL     OW33244   6.144   2.608   3.388
10782SOL    HW133245   6.091   2.524   3.394
10782SOL    HW233246   6.095   2.674   3.331
10783SOL     OW33247   1.314   3.224   3.063
10783SOL    HW133248   1.261   3.306   3.084
10783SOL    HW233249   1.270   3.144   3.101
10784SOL     OW33250   2.259   6.702   1.964
10784SOL    HW133251   2.292   6.705   2.058
10784SOL    HW233252   2.266   6.608   1.929
10785SOL     OW33253   1.524   4.428   1.550
10785SOL    HW133254   1.573   4.500   1.599
10785SOL    HW233255   1.426   4.436   1.570
10786SOL     OW33256   5.240   3.345   1.572
10786SOL    HW133257   5.332   3.345   1.612
10786SOL    HW233258   5.231   3.266   1.511
10787SOL     OW33259   3.431   1.731   5.132
10787SOL    HW133260   3.530   1.717   5.129
10787SOL    HW233261   3.405   1.772   5.219
10788SOL     OW33262   2.499   4.629   7.019
10788SOL    HW133263   2.588   4.659   0.026
10788SOL    HW233264   2.458   4.568   0.060
10789SOL     OW33265   5.447   1.858   0.945
10789SOL    HW133266   5.454   1.791   0.871
10789SOL    HW233267   5.466   1.950   0.908
10790SOL     OW33268   0.494   0.668   4.716
10790SOL    HW133269   0.580   0.649   4.669
10790SOL    HW233270   0.432   0.591   4.706
10791SOL     OW33271   0.823   1.170   1.742
10791SOL    HW133272   0.777   1.121   1.816
10791SOL    HW233273   0.911   1.205   1.775
10792SOL     OW33274   3.154   3.049   1.703
10792SOL    HW133275   3.172   3.017   1.796
10792SOL    HW233276   3.239   3.082   1.662
10793SOL     OW33277   5.429   2.424   4.008
10793SOL    HW133278   5.433   2.331   3.972
10793SOL    HW233279   5.476   2.427   4.097
10794SOL     OW33280   3.330   3.791   2.515
10794SOL    HW133281   3.287   3.705   2.487
10794SOL    HW233282   3.263   3.865   2.510
10795SOL     OW33283   6.135   4.270   3.845
10795SOL    HW133284   6.219   4.235   3.886
10795SOL    HW233285   6.158   4.340   3.777
10796SOL     OW33286   3.605   6.254   6.503
10796SOL    HW133287   3.639   6.168   6.466
10796SOL    HW233288   3.562   6.307   6.430
10797SOL     OW33289   4.294   2.617   0.901
10797SOL    HW133290   4.249   2.690   0.850
10797SOL    HW233291   4.388   2.606   0.867
10798SOL     OW33292   1.945   0.079   0.706
10798SOL    HW133293   1.848   0.070   0.728
10798SOL    HW233294   1.993   7.020   0.729
10799SOL     OW33295   3.687   1.786   1.583
10799SOL    HW133296   3.711   1.830   1.670
10799SOL    HW233297   3.764   1.795   1.520
10800SOL     OW33298   1.021   6.820   0.037
10800SOL    HW133299   1.029   6.899   0.099
10800SOL    HW233300   1.094   6.823   6.995
10801SOL     OW33301   1.115   0.020   5.068
10801SOL    HW133302   1.115   6.946   5.072
10801SOL    HW233303   1.123   0.050   4.973
10802SOL     OW33304   2.091   3.320   4.823
10802SOL    HW133305   2.001   3.279   4.839
10802SOL    HW233306   2.162   3.252   4.844
10803SOL     OW33307   4.973   4.524   4.989
10803SOL    HW133308   5.061   4.540   4.945
10803SOL    HW233309   4.899   4.533   4.922
10804SOL     OW33310   6.904   4.382   1.629
10804SOL    HW133311   6.945   4.403   1.718
10804SOL    HW233312   6.805   4.375   1.639
10805SOL     OW33313   3.401   6.489   6.986
10805SOL    HW133314   3.441   6.402   7.016
10805SOL    HW233315   3.455   6.565   7.023
10806SOL     OW33316   5.451   4.460   7.016
10806SOL    HW133317   5.409   4.421   6.934
10806SOL    HW233318   5.410   4.419   0.072
10807SOL     OW33319   3.125   6.762   3.660
10807SOL    HW133320   3.119   6.809   3.571
10807SOL    HW233321   3.221   6.762   3.690
10808SOL     OW33322   0.258   3.866   0.307
10808SOL    HW133323   0.286   3.774   0.336
10808SOL    HW233324   0.295   3.885   0.216
10809SOL     OW33325   2.855   6.966   3.974
10809SOL    HW133326   2.880   6.962   3.877
10809SOL    HW233327   2.938   6.971   4.029
10810SOL     OW33328   1.207   1.034   5.357
10810SOL    HW133329   1.127   0.974   5.356
10810SOL    HW233330   1.233   1.053   5.452
10811SOL     OW33331   4.651   5.195   4.991
10811SOL    HW133332   4.680   5.269   4.931
10811SOL    HW233333   4.732   5.150   5.029
10812SOL     OW33334   0.543   3.282   2.537
10812SOL    HW133335   0.615   3.318   2.596
10812SOL    HW233336   0.472   3.351   2.524
10813SOL     OW33337   1.925   6.200   6.988
10813SOL    HW133338   1.960   6.145   6.912
10813SOL    HW233339   1.829   6.175   7.005
10814SOL     OW33340   1.879   6.895   6.462
10814SOL    HW133341   1.913   6.989   6.456
10814SOL    HW233342   1.780   6.895   6.453
10815SOL     OW33343   5.156   5.312   3.242
10815SOL    HW133344   5.080   5.318   3.178
10815SOL    HW233345   5.129   5.350   3.330
10816SOL     OW33346   1.250   1.199   2.418
10816SOL    HW133347   1.332   1.171   2.467
10816SOL    HW233348   1.220   1.289   2.450
10817SOL     OW33349   5.228   6.860   2.758
10817SOL    HW133350   5.180   6.799   2.820
10817SOL    HW233351   5.303   6.906   2.806
10818SOL     OW33352   4.909   4.021   5.596
10818SOL    HW133353   4.839   4.089   5.574
10818SOL    HW233354   4.877   3.930   5.568
10819SOL     OW33355   0.010   4.700   6.942
10819SOL    HW133356   0.000   4.627   7.009
10819SOL    HW233357   7.023   4.789   6.986
10820SOL     OW33358   6.242   6.415   3.997
10820SOL    HW133359   6.228   6.483   3.925
10820SOL    HW233360   6.333   6.374   3.987
10821SOL     OW33361   4.958   6.040   2.098
10821SOL    HW133362   5.055   6.057   2.080
10821SOL    HW233363   4.908   6.127   2.097
10822SOL     OW33364   1.468   2.446   3.262
10822SOL    HW133365   1.459   2.355   3.304
10822SOL    HW233366   1.467   2.515   3.334
10823SOL     OW33367   1.285   5.172   1.560
10823SOL    HW133368   1.325   5.107   1.496
10823SOL    HW233369   1.347   5.250   1.570
10824SOL     OW33370   5.041   7.018   4.181
10824SOL    HW133371   5.102   7.002   4.104
10824SOL    HW233372   5.041   0.090   4.204
10825SOL     OW33373   2.674   0.550   0.675
10825SOL    HW133374   2.637   0.606   0.601
10825SOL    HW233375   2.652   0.592   0.763
10826SOL     OW33376   0.274   3.727   3.853
10826SOL    HW133377   0.368   3.704   3.879
10826SOL    HW233378   0.239   3.658   3.790
10827SOL     OW33379   5.709   4.106   4.832
10827SOL    HW133380   5.794   4.067   4.795
10827SOL    HW233381   5.729   4.155   4.916
10828SOL     OW33382   1.008   5.764   2.515
10828SOL    HW133383   1.040   5.713   2.595
10828SOL    HW233384   1.007   5.704   2.435
10829SOL     OW33385   3.607   2.450   0.276
10829SOL    HW133386   3.521   2.414   0.240
10829SOL    HW233387   3.631   2.534   0.229
10830SOL     OW33388   4.643   1.667   3.244
10830SOL    HW133389   4.709   1.651   3.171
10830SOL    HW233390   4.550   1.658   3.208
10831SOL     OW33391   4.563   5.695   1.957
10831SOL    HW133392   4.607   5.746   2.032
10831SOL    HW233393   4.596   5.731   1.870
10832SOL     OW33394   0.142   1.956   0.733
10832SOL    HW133395   0.108   1.869   0.771
10832SOL    HW233396   0.083   1.984   0.657
10833SOL     OW33397   1.630   0.886   4.010
10833SOL    HW133398   1.632   0.832   3.926
10833SOL    HW233399   1.723   0.900   4.044
10834SOL     OW33400   0.868   2.019   6.082
10834SOL    HW133401   0.900   1.966   6.160
10834SOL    HW233402   0.932   2.095   6.066
10835SOL     OW33403   5.482   1.894   1.219
10835SOL    HW133404   5.494   1.884   1.120
10835SOL    HW233405   5.386   1.916   1.238
10836SOL     OW33406   6.078   1.164   5.135
10836SOL    HW133407   6.114   1.077   5.168
10836SOL    HW233408   6.149   1.212   5.083
10837SOL     OW33409   0.571   4.884   0.230
10837SOL    HW133410   0.493   4.933   0.271
10837SOL    HW233411   0.569   4.789   0.259
10838SOL     OW33412   5.604   6.757   4.459
10838SOL    HW133413   5.533   6.763   4.529
10838SOL    HW233414   5.567   6.709   4.379
10839SOL     OW33415   3.358   3.149   0.629
10839SOL    HW133416   3.281   3.103   0.587
10839SOL    HW233417   3.443   3.100   0.608
10840SOL     OW33418   4.261   6.076   1.644
10840SOL    HW133419   4.194   6.025   1.697
10840SOL    HW233420   4.294   6.154   1.698
10841SOL     OW33421   3.866   6.821   6.775
10841SOL    HW133422   3.879   6.725   6.799
10841SOL    HW233423   3.874   6.832   6.676
10842SOL     OW33424   6.128   3.385   0.968
10842SOL    HW133425   6.106   3.431   0.882
10842SOL    HW233426   6.166   3.295   0.949
10843SOL     OW33427   0.920   1.666   2.086
10843SOL    HW133428   1.000   1.726   2.090
10843SOL    HW233429   0.926   1.606   2.006
10844SOL     OW33430   0.461   6.654   3.932
10844SOL    HW133431   0.557   6.646   3.956
10844SOL    HW233432   0.437   6.751   3.923
10845SOL     OW33433   2.365   0.874   0.984
10845SOL    HW133434   2.394   0.964   0.951
10845SOL    HW233435   2.268   0.862   0.965
10846SOL     OW33436   4.689   3.026   0.614
10846SOL    HW133437   4.621   2.970   0.661
10846SOL    HW233438   4.713   3.105   0.671
10847SOL     OW33439   3.198   1.942   6.293
10847SOL    HW133440   3.132   2.011   6.324
10847SOL    HW233441   3.289   1.983   6.288
10848SOL     OW33442   3.560   2.146   6.567
10848SOL    HW133443   3.617   2.141   6.649
10848SOL    HW233444   3.541   2.242   6.546
10849SOL     OW33445   3.261   4.942   3.415
10849SOL    HW133446   3.238   4.958   3.319
10849SOL    HW233447   3.356   4.968   3.431
10850SOL     OW33448   4.790   6.100   6.710
10850SOL    HW133449   4.745   6.187   6.691
10850SOL    HW233450   4.848   6.074   6.633
10851SOL     OW33451   2.738   2.884   6.434
10851SOL    HW133452   2.638   2.880   6.435
10851SOL    HW233453   2.773   2.858   6.524
10852SOL     OW33454   0.177   6.722   5.917
10852SOL    HW133455   0.264   6.711   5.869
10852SOL    HW233456   0.194   6.730   6.015
10853SOL     OW33457   3.965   1.994   5.656
10853SOL    HW133458   3.973   1.916   5.594
10853SOL    HW233459   4.033   1.985   5.729
10854SOL     OW33460   6.230   0.130   5.567
10854SOL    HW133461   6.289   0.175   5.500
10854SOL    HW233462   6.143   0.180   5.574
10855SOL     OW33463   2.984   6.261   2.529
10855SOL    HW133464   2.918   6.252   2.603
10855SOL    HW233465   3.052   6.188   2.536
10856SOL     OW33466   5.672   1.383   2.098
10856SOL    HW133467   5.701   1.323   2.024
10856SOL    HW233468   5.576   1.367   2.119
10857SOL     OW33469   5.427   2.752   3.654
10857SOL    HW133470   5.416   2.834   3.710
10857SOL    HW233471   5.389   2.673   3.704
10858SOL     OW33472   1.387   2.582   6.464
10858SOL    HW133473   1.456   2.638   6.419
10858SOL    HW233474   1.333   2.640   6.526
10859SOL     OW33475   2.471   4.503   4.051
10859SOL    HW133476   2.487   4.435   3.980
10859SOL    HW233477   2.437   4.457   4.133
10860SOL     OW33478   6.478   1.228   5.786
10860SOL    HW133479   6.395   1.187   5.749
10860SOL    HW233480   6.511   1.172   5.862
10861SOL     OW33481   3.868   3.055   2.042
10861SOL    HW133482   3.778   3.088   2.069
10861SOL    HW233483   3.932   3.069   2.118
10862SOL     OW33484   2.403   1.253   6.751
10862SOL    HW133485   2.360   1.262   6.841
10862SOL    HW233486   2.346   1.297   6.682
10863SOL     OW33487   3.809   0.601   2.325
10863SOL    HW133488   3.792   0.547   2.242
10863SOL    HW233489   3.735   0.667   2.338
10864SOL     OW33490   2.670   4.504   1.066
10864SOL    HW133491   2.725   4.583   1.037
10864SOL    HW233492   2.577   4.514   1.032
10865SOL     OW33493   5.508   2.263   3.791
10865SOL    HW133494   5.605   2.268   3.813
10865SOL    HW233495   5.490   2.316   3.708
10866SOL     OW33496   5.989   3.876   0.859
10866SOL    HW133497   5.977   3.811   0.784
10866SOL    HW233498   6.009   3.826   0.944
10867SOL     OW33499   2.729   3.775   0.451
10867SOL    HW133500   2.683   3.759   0.538
10867SOL    HW233501   2.687   3.852   0.404
10868SOL     OW33502   1.969   1.478   3.173
10868SOL    HW133503   1.901   1.549   3.190
10868SOL    HW233504   2.018   1.498   3.088
10869NA      NA33505   0.401   2.523   6.027
10870NA      NA33506   4.253   4.672   5.241
10871NA      NA33507   2.273   4.361   2.270
10872NA      NA33508   5.156   4.562   3.552
10873NA      NA33509   4.324   2.342   5.198
10874NA      NA33510   3.456   4.433   1.463
10875NA      NA33511   0.776   4.542   0.397
10876NA      NA33512   3.978   4.120   1.622
10877NA      NA33513   5.089   4.787   0.970
10878NA      NA33514   3.559   0.075   5.665
10879NA      NA33515   6.101   5.393   0.972
10880NA      NA33516   1.706   0.831   5.830
10881NA      NA33517   4.581   5.048   2.186
10882NA      NA33518   3.799   2.910   1.034
   7.02580   7.02580   7.02580
