Generated by trjconv : CNT in water t= 270.00000
33518
    1C        C    1   2.845   2.766   4.748
    1C        C    2   2.898   2.719   4.870
    1C        C    3   2.842   2.771   4.987
    1C        C    4   2.852   2.775   4.262
    1C        C    5   2.907   2.730   4.384
    1C        C    6   2.847   2.774   4.504
    1C        C    7   3.009   2.635   4.628
    1C        C    8   2.894   2.717   4.625
    1C        C    9   3.077   2.604   4.747
    1C        C   10   3.011   2.634   4.868
    1C        C   11   3.188   2.500   4.979
    1C        C   12   3.061   2.560   4.976
    1C        C   13   2.848   2.767   3.773
    1C        C   14   2.898   2.717   3.896
    1C        C   15   2.848   2.769   4.018
    1C        C   16   3.015   2.639   4.141
    1C        C   17   2.901   2.723   4.140
    1C        C   18   3.078   2.606   4.263
    1C        C   19   3.016   2.640   4.385
    1C        C   20   3.208   2.552   4.505
    1C        C   21   3.075   2.602   4.507
    1C        C   22   3.279   2.535   4.626
    1C        C   23   3.209   2.549   4.748
    1C        C   24   3.415   2.482   4.866
    1C        C   25   3.273   2.500   4.864
    1C        C   26   3.493   2.484   4.983
    1C        C   27   2.849   2.764   3.284
    1C        C   28   2.906   2.721   3.406
    1C        C   29   2.851   2.765   3.528
    1C        C   30   3.020   2.641   3.651
    1C        C   31   2.901   2.719   3.651
    1C        C   32   3.079   2.607   3.775
    1C        C   33   3.014   2.637   3.896
    1C        C   34   3.207   2.550   4.018
    1C        C   35   3.075   2.602   4.018
    1C        C   36   3.278   2.538   4.139
    1C        C   37   3.212   2.562   4.262
    1C        C   38   3.418   2.514   4.383
    1C        C   39   3.278   2.536   4.384
    1C        C   40   3.488   2.505   4.505
    1C        C   41   3.416   2.502   4.626
    1C        C   42   3.633   2.485   4.747
    1C        C   43   3.491   2.486   4.746
    1C        C   44   3.708   2.491   4.866
    1C        C   45   3.632   2.476   4.983
    1C        C   46   2.841   2.759   2.798
    1C        C   47   2.894   2.711   2.919
    1C        C   48   2.843   2.765   3.039
    1C        C   49   3.016   2.637   3.161
    1C        C   50   2.900   2.718   3.160
    1C        C   51   3.081   2.608   3.283
    1C        C   52   3.021   2.638   3.408
    1C        C   53   3.207   2.539   3.530
    1C        C   54   3.080   2.599   3.530
    1C        C   55   3.275   2.527   3.653
    1C        C   56   3.212   2.557   3.776
    1C        C   57   3.417   2.507   3.894
    1C        C   58   3.278   2.530   3.898
    1C        C   59   3.487   2.505   4.016
    1C        C   60   3.417   2.513   4.139
    1C        C   61   3.628   2.504   4.260
    1C        C   62   3.487   2.498   4.261
    1C        C   63   3.700   2.511   4.382
    1C        C   64   3.629   2.504   4.504
    1C        C   65   3.836   2.545   4.623
    1C        C   66   3.702   2.501   4.625
    1C        C   67   3.906   2.565   4.744
    1C        C   68   3.844   2.530   4.866
    1C        C   69   4.051   2.593   4.982
    1C        C   70   3.924   2.533   4.981
    1C        C   71   2.827   2.738   2.310
    1C        C   72   2.883   2.696   2.433
    1C        C   73   2.833   2.749   2.554
    1C        C   74   3.006   2.625   2.675
    1C        C   75   2.890   2.707   2.676
    1C        C   76   3.073   2.597   2.796
    1C        C   77   3.011   2.631   2.918
    1C        C   78   3.209   2.550   3.038
    1C        C   79   3.076   2.600   3.039
    1C        C   80   3.274   2.525   3.161
    1C        C   81   3.209   2.547   3.285
    1C        C   82   3.414   2.499   3.404
    1C        C   83   3.274   2.521   3.407
    1C        C   84   3.484   2.494   3.527
    1C        C   85   3.414   2.500   3.650
    1C        C   86   3.626   2.506   3.774
    1C        C   87   3.486   2.493   3.771
    1C        C   88   3.698   2.514   3.895
    1C        C   89   3.629   2.507   4.017
    1C        C   90   3.836   2.549   4.138
    1C        C   91   3.700   2.511   4.139
    1C        C   92   3.906   2.571   4.259
    1C        C   93   3.836   2.548   4.380
    1C        C   94   4.030   2.634   4.499
    1C        C   95   3.903   2.572   4.502
    1C        C   96   4.095   2.667   4.621
    1C        C   97   4.034   2.627   4.742
    1C        C   98   4.194   2.765   4.861
    1C        C   99   4.100   2.657   4.863
    1C        C  100   4.212   2.847   4.973
    1C        C  101   2.819   2.728   2.074
    1C        C  102   2.993   2.593   2.192
    1C        C  103   2.883   2.684   2.191
    1C        C  104   3.063   2.568   2.313
    1C        C  105   3.000   2.616   2.429
    1C        C  106   3.197   2.539   2.550
    1C        C  107   3.065   2.589   2.551
    1C        C  108   3.270   2.522   2.670
    1C        C  109   3.203   2.542   2.793
    1C        C  110   3.412   2.498   2.916
    1C        C  111   3.274   2.529   2.915
    1C        C  112   3.482   2.489   3.038
    1C        C  113   3.413   2.499   3.161
    1C        C  114   3.627   2.500   3.281
    1C        C  115   3.486   2.495   3.282
    1C        C  116   3.693   2.513   3.405
    1C        C  117   3.625   2.500   3.528
    1C        C  118   3.833   2.544   3.646
    1C        C  119   3.695   2.513   3.650
    1C        C  120   3.900   2.568   3.768
    1C        C  121   3.837   2.544   3.892
    1C        C  122   4.027   2.638   4.013
    1C        C  123   3.900   2.575   4.014
    1C        C  124   4.088   2.677   4.135
    1C        C  125   4.029   2.639   4.257
    1C        C  126   4.200   2.767   4.378
    1C        C  127   4.090   2.678   4.379
    1C        C  128   4.251   2.817   4.500
    1C        C  129   4.200   2.762   4.620
    1C        C  130   4.328   2.936   4.741
    1C        C  131   4.244   2.820   4.740
    1C        C  132   4.360   3.003   4.860
    1C        C  133   4.283   2.967   4.972
    1C        C  134   3.175   2.465   2.084
    1C        C  135   3.042   2.507   2.088
    1C        C  136   3.262   2.477   2.193
    1C        C  137   3.198   2.521   2.311
    1C        C  138   3.407   2.483   2.429
    1C        C  139   3.267   2.503   2.432
    1C        C  140   3.481   2.487   2.550
    1C        C  141   3.408   2.494   2.671
    1C        C  142   3.621   2.497   2.792
    1C        C  143   3.480   2.491   2.792
    1C        C  144   3.692   2.508   2.913
    1C        C  145   3.623   2.498   3.036
    1C        C  146   3.831   2.543   3.157
    1C        C  147   3.695   2.506   3.158
    1C        C  148   3.897   2.571   3.279
    1C        C  149   3.830   2.548   3.402
    1C        C  150   4.026   2.630   3.521
    1C        C  151   3.899   2.567   3.524
    1C        C  152   4.084   2.669   3.644
    1C        C  153   4.022   2.638   3.768
    1C        C  154   4.192   2.767   3.889
    1C        C  155   4.082   2.679   3.890
    1C        C  156   4.247   2.815   4.010
    1C        C  157   4.196   2.768   4.133
    1C        C  158   4.334   2.929   4.254
    1C        C  159   4.247   2.818   4.255
    1C        C  160   4.376   2.987   4.376
    1C        C  161   4.335   2.930   4.499
    1C        C  162   4.438   3.118   4.617
    1C        C  163   4.371   2.994   4.620
    1C        C  164   4.464   3.189   4.737
    1C        C  165   4.428   3.126   4.858
    1C        C  166   4.512   3.324   4.972
    1C        C  167   4.474   3.191   4.974
    1C        C  168   3.478   2.430   2.075
    1C        C  169   3.402   2.456   2.189
    1C        C  170   3.619   2.464   2.308
    1C        C  171   3.477   2.462   2.309
    1C        C  172   3.695   2.486   2.425
    1C        C  173   3.622   2.488   2.546
    1C        C  174   3.827   2.539   2.666
    1C        C  175   3.691   2.503   2.669
    1C        C  176   3.893   2.566   2.788
    1C        C  177   3.829   2.545   2.912
    1C        C  178   4.025   2.626   3.031
    1C        C  179   3.898   2.564   3.034
    1C        C  180   4.088   2.660   3.153
    1C        C  181   4.027   2.628   3.276
    1C        C  182   4.196   2.755   3.399
    1C        C  183   4.084   2.668   3.399
    1C        C  184   4.246   2.805   3.521
    1C        C  185   4.193   2.758   3.643
    1C        C  186   4.339   2.915   3.768
    1C        C  187   4.244   2.810   3.764
    1C        C  188   4.382   2.975   3.888
    1C        C  189   4.341   2.921   4.012
    1C        C  190   4.448   3.107   4.130
    1C        C  191   4.381   2.982   4.132
    1C        C  192   4.473   3.175   4.251
    1C        C  193   4.441   3.113   4.373
    1C        C  194   4.507   3.317   4.491
    1C        C  195   4.464   3.182   4.494
    1C        C  196   4.523   3.390   4.611
    1C        C  197   4.513   3.322   4.734
    1C        C  198   4.555   3.538   4.850
    1C        C  199   4.535   3.396   4.853
    1C        C  200   4.583   3.625   4.960
    1C        C  201   3.618   2.417   2.072
    1C        C  202   3.828   2.505   2.181
    1C        C  203   3.695   2.454   2.187
    1C        C  204   3.900   2.539   2.299
    1C        C  205   3.832   2.520   2.421
    1C        C  206   4.021   2.616   2.543
    1C        C  207   3.897   2.548   2.543
    1C        C  208   4.076   2.665   2.664
    1C        C  209   4.016   2.636   2.788
    1C        C  210   4.196   2.752   2.909
    1C        C  211   4.080   2.671   2.909
    1C        C  212   4.250   2.796   3.032
    1C        C  213   4.200   2.745   3.154
    1C        C  214   4.335   2.911   3.277
    1C        C  215   4.248   2.799   3.275
    1C        C  216   4.369   2.974   3.399
    1C        C  217   4.332   2.917   3.523
    1C        C  218   4.439   3.101   3.640
    1C        C  219   4.373   2.976   3.645
    1C        C  220   4.466   3.166   3.762
    1C        C  221   4.443   3.103   3.886
    1C        C  222   4.510   3.307   4.005
    1C        C  223   4.470   3.171   4.007
    1C        C  224   4.521   3.382   4.124
    1C        C  225   4.504   3.313   4.246
    1C        C  226   4.519   3.526   4.366
    1C        C  227   4.515   3.385   4.368
    1C        C  228   4.523   3.601   4.486
    1C        C  229   4.529   3.532   4.610
    1C        C  230   4.508   3.748   4.728
    1C        C  231   4.537   3.608   4.728
    1C        C  232   4.494   3.822   4.847
    1C        C  233   4.551   3.761   4.960
    1C        C  234   4.019   2.616   2.064
    1C        C  235   3.899   2.546   2.067
    1C        C  236   4.086   2.648   2.183
    1C        C  237   4.027   2.604   2.304
    1C        C  238   4.199   2.739   2.421
    1C        C  239   4.087   2.650   2.423
    1C        C  240   4.252   2.787   2.543
    1C        C  241   4.193   2.743   2.664
    1C        C  242   4.341   2.900   2.785
    1C        C  243   4.246   2.795   2.784
    1C        C  244   4.376   2.962   2.907
    1C        C  245   4.336   2.908   3.031
    1C        C  246   4.437   3.093   3.150
    1C        C  247   4.377   2.965   3.153
    1C        C  248   4.454   3.164   3.271
    1C        C  249   4.428   3.102   3.395
    1C        C  250   4.496   3.304   3.517
    1C        C  251   4.460   3.167   3.517
    1C        C  252   4.511   3.374   3.639
    1C        C  253   4.498   3.304   3.761
    1C        C  254   4.518   3.516   3.880
    1C        C  255   4.518   3.375   3.881
    1C        C  256   4.513   3.590   4.000
    1C        C  257   4.522   3.523   4.124
    1C        C  258   4.492   3.736   4.238
    1C        C  259   4.518   3.597   4.244
    1C        C  260   4.471   3.802   4.361
    1C        C  261   4.492   3.738   4.485
    1C        C  262   4.427   3.943   4.605
    1C        C  263   4.479   3.811   4.605
    1C        C  264   4.401   4.014   4.724
    1C        C  265   4.432   3.949   4.845
    1C        C  266   4.319   4.135   4.958
    1C        C  267   4.393   4.018   4.961
    1C        C  268   4.255   2.783   2.061
    1C        C  269   4.197   2.734   2.179
    1C        C  270   4.348   2.889   2.300
    1C        C  271   4.255   2.782   2.299
    1C        C  272   4.378   2.956   2.421
    1C        C  273   4.342   2.896   2.544
    1C        C  274   4.445   3.086   2.663
    1C        C  275   4.382   2.959   2.664
    1C        C  276   4.471   3.154   2.783
    1C        C  277   4.444   3.087   2.905
    1C        C  278   4.504   3.291   3.025
    1C        C  279   4.465   3.155   3.026
    1C        C  280   4.513   3.363   3.146
    1C        C  281   4.496   3.299   3.270
    1C        C  282   4.516   3.510   3.391
    1C        C  283   4.510   3.369   3.392
    1C        C  284   4.516   3.582   3.512
    1C        C  285   4.518   3.515   3.636
    1C        C  286   4.487   3.726   3.753
    1C        C  287   4.510   3.587   3.757
    1C        C  288   4.471   3.797   3.874
    1C        C  289   4.496   3.731   3.996
    1C        C  290   4.421   3.934   4.116
    1C        C  291   4.478   3.804   4.116
    1C        C  292   4.395   4.001   4.237
    1C        C  293   4.426   3.936   4.359
    1C        C  294   4.333   4.127   4.477
    1C        C  295   4.402   4.004   4.481
    1C        C  296   4.289   4.191   4.595
    1C        C  297   4.331   4.138   4.719
    1C        C  298   4.203   4.318   4.838
    1C        C  299   4.288   4.202   4.839
    1C        C  300   4.172   4.406   4.946
    1C        C  301   4.356   2.878   2.066
    1C        C  302   4.473   3.069   2.178
    1C        C  303   4.402   2.944   2.181
    1C        C  304   4.482   3.143   2.299
    1C        C  305   4.445   3.080   2.420
    1C        C  306   4.512   3.284   2.538
    1C        C  307   4.479   3.147   2.540
    1C        C  308   4.519   3.356   2.659
    1C        C  309   4.501   3.292   2.783
    1C        C  310   4.524   3.505   2.898
    1C        C  311   4.517   3.364   2.904
    1C        C  312   4.522   3.574   3.021
    1C        C  313   4.521   3.505   3.144
    1C        C  314   4.485   3.714   3.265
    1C        C  315   4.517   3.576   3.266
    1C        C  316   4.469   3.787   3.385
    1C        C  317   4.492   3.722   3.508
    1C        C  318   4.429   3.926   3.626
    1C        C  319   4.474   3.792   3.629
    1C        C  320   4.394   3.991   3.747
    1C        C  321   4.423   3.930   3.871
    1C        C  322   4.322   4.119   3.990
    1C        C  323   4.391   3.995   3.992
    1C        C  324   4.281   4.177   4.112
    1C        C  325   4.325   4.123   4.235
    1C        C  326   4.189   4.286   4.351
    1C        C  327   4.285   4.183   4.356
    1C        C  328   4.139   4.340   4.472
    1C        C  329   4.195   4.296   4.594
    1C        C  330   4.032   4.440   4.714
    1C        C  331   4.142   4.350   4.713
    1C        C  332   3.975   4.494   4.832
    1C        C  333   4.052   4.478   4.948
    1C        C  334   4.553   3.267   2.065
    1C        C  335   4.535   3.129   2.064
    1C        C  336   4.541   3.351   2.177
    1C        C  337   4.521   3.280   2.297
    1C        C  338   4.524   3.496   2.412
    1C        C  339   4.525   3.355   2.416
    1C        C  340   4.513   3.567   2.534
    1C        C  341   4.523   3.498   2.656
    1C        C  342   4.490   3.711   2.775
    1C        C  343   4.522   3.574   2.775
    1C        C  344   4.475   3.779   2.898
    1C        C  345   4.493   3.713   3.021
    1C        C  346   4.419   3.913   3.140
    1C        C  347   4.469   3.781   3.142
    1C        C  348   4.391   3.982   3.260
    1C        C  349   4.422   3.920   3.383
    1C        C  350   4.326   4.112   3.505
    1C        C  351   4.399   3.991   3.504
    1C        C  352   4.281   4.172   3.624
    1C        C  353   4.321   4.111   3.746
    1C        C  354   4.176   4.270   3.863
    1C        C  355   4.272   4.167   3.866
    1C        C  356   4.128   4.321   3.985
    1C        C  357   4.178   4.274   4.108
    1C        C  358   4.015   4.410   4.231
    1C        C  359   4.132   4.329   4.230
    1C        C  360   3.954   4.448   4.352
    1C        C  361   4.021   4.418   4.473
    1C        C  362   3.829   4.512   4.596
    1C        C  363   3.960   4.459   4.594
    1C        C  364   3.763   4.548   4.715
    1C        C  365   3.842   4.541   4.832
    1C        C  366   3.631   4.591   4.948
    1C        C  367   3.769   4.573   4.947
    1C        C  368   4.511   3.565   2.052
    1C        C  369   4.528   3.492   2.170
    1C        C  370   4.506   3.707   2.286
    1C        C  371   4.522   3.567   2.289
    1C        C  372   4.491   3.778   2.407
    1C        C  373   4.498   3.708   2.530
    1C        C  374   4.425   3.909   2.649
    1C        C  375   4.475   3.777   2.650
    1C        C  376   4.392   3.973   2.770
    1C        C  377   4.427   3.912   2.893
    1C        C  378   4.317   4.093   3.010
    1C        C  379   4.394   3.975   3.015
    1C        C  380   4.274   4.149   3.132
    1C        C  381   4.318   4.103   3.258
    1C        C  382   4.181   4.263   3.377
    1C        C  383   4.280   4.162   3.381
    1C        C  384   4.124   4.313   3.497
    1C        C  385   4.180   4.271   3.620
    1C        C  386   4.006   4.395   3.740
    1C        C  387   4.125   4.319   3.741
    1C        C  388   3.947   4.432   3.864
    1C        C  389   4.011   4.400   3.986
    1C        C  390   3.820   4.491   4.111
    1C        C  391   3.951   4.437   4.108
    1C        C  392   3.751   4.512   4.232
    1C        C  393   3.825   4.505   4.352
    1C        C  394   3.619   4.546   4.476
    1C        C  395   3.759   4.527   4.474
    1C        C  396   3.548   4.553   4.598
    1C        C  397   3.622   4.558   4.718
    1C        C  398   3.408   4.547   4.838
    1C        C  399   3.548   4.568   4.838
    1C        C  400   3.343   4.503   4.954
    1C        C  401   4.505   3.704   2.050
    1C        C  402   4.453   3.916   2.163
    1C        C  403   4.493   3.781   2.167
    1C        C  404   4.418   3.977   2.285
    1C        C  405   4.445   3.912   2.407
    1C        C  406   4.331   4.096   2.524
    1C        C  407   4.406   3.977   2.526
    1C        C  408   4.284   4.153   2.645
    1C        C  409   4.321   4.095   2.768
    1C        C  410   4.175   4.252   2.888
    1C        C  411   4.276   4.153   2.889
    1C        C  412   4.123   4.297   3.011
    1C        C  413   4.175   4.250   3.134
    1C        C  414   4.008   4.385   3.253
    1C        C  415   4.122   4.300   3.255
    1C        C  416   3.944   4.420   3.373
    1C        C  417   4.007   4.391   3.497
    1C        C  418   3.810   4.475   3.620
    1C        C  419   3.942   4.425   3.618
    1C        C  420   3.746   4.504   3.743
    1C        C  421   3.816   4.484   3.864
    1C        C  422   3.612   4.530   3.989
    1C        C  423   3.751   4.503   3.988
    1C        C  424   3.540   4.538   4.110
    1C        C  425   3.612   4.536   4.232
    1C        C  426   3.403   4.549   4.357
    1C        C  427   3.544   4.547   4.356
    1C        C  428   3.332   4.541   4.479
    1C        C  429   3.406   4.549   4.599
    1C        C  430   3.194   4.518   4.726
    1C        C  431   3.333   4.547   4.719
    1C        C  432   3.122   4.496   4.847
    1C        C  433   3.205   4.486   4.960
    1C        C  434   4.389   4.125   2.053
    1C        C  435   4.450   3.999   2.050
    1C        C  436   4.305   4.159   2.163
    1C        C  437   4.336   4.094   2.285
    1C        C  438   4.182   4.249   2.403
    1C        C  439   4.287   4.154   2.403
    1C        C  440   4.128   4.300   2.523
    1C        C  441   4.181   4.250   2.644
    1C        C  442   4.009   4.380   2.767
    1C        C  443   4.124   4.297   2.764
    1C        C  444   3.945   4.416   2.887
    1C        C  445   4.006   4.377   3.008
    1C        C  446   3.814   4.468   3.130
    1C        C  447   3.944   4.412   3.130
    1C        C  448   3.746   4.495   3.251
    1C        C  449   3.814   4.475   3.373
    1C        C  450   3.608   4.520   3.497
    1C        C  451   3.747   4.496   3.496
    1C        C  452   3.541   4.540   3.620
    1C        C  453   3.608   4.533   3.744
    1C        C  454   3.399   4.540   3.866
    1C        C  455   3.540   4.541   3.868
    1C        C  456   3.329   4.530   3.988
    1C        C  457   3.399   4.531   4.111
    1C        C  458   3.194   4.503   4.238
    1C        C  459   3.332   4.533   4.236
    1C        C  460   3.128   4.488   4.362
    1C        C  461   3.194   4.510   4.484
    1C        C  462   2.998   4.428   4.605
    1C        C  463   3.125   4.490   4.606
    1C        C  464   2.930   4.400   4.725
    1C        C  465   2.989   4.443   4.847
    1C        C  466   2.802   4.336   4.960
    1C        C  467   2.908   4.427   4.964
    1C        C  468   4.126   4.288   2.044
    1C        C  469   4.191   4.247   2.161
    1C        C  470   4.009   4.369   2.282
    1C        C  471   4.131   4.296   2.280
    1C        C  472   3.940   4.398   2.402
    1C        C  473   4.009   4.375   2.523
    1C        C  474   3.815   4.464   2.643
    1C        C  475   3.945   4.410   2.645
    1C        C  476   3.747   4.489   2.764
    1C        C  477   3.814   4.469   2.887
    1C        C  478   3.608   4.523   3.006
    1C        C  479   3.745   4.491   3.008
    1C        C  480   3.539   4.533   3.129
    1C        C  481   3.608   4.524   3.252
    1C        C  482   3.397   4.531   3.378
    1C        C  483   3.538   4.531   3.375
    1C        C  484   3.327   4.531   3.501
    1C        C  485   3.400   4.540   3.622
    1C        C  486   3.190   4.505   3.745
    1C        C  487   3.328   4.536   3.744
    1C        C  488   3.128   4.478   3.869
    1C        C  489   3.192   4.495   3.994
    1C        C  490   3.001   4.415   4.117
    1C        C  491   3.124   4.483   4.117
    1C        C  492   2.942   4.382   4.242
    1C        C  493   2.999   4.430   4.362
    1C        C  494   2.827   4.303   4.481
    1C        C  495   2.935   4.394   4.483
    1C        C  496   2.774   4.256   4.603
    1C        C  497   2.818   4.312   4.725
    1C        C  498   2.664   4.165   4.842
    1C        C  499   2.752   4.275   4.844
    1C        C  500   2.597   4.117   4.956
    1C        C  501   4.004   4.354   2.044
    1C        C  502   3.816   4.463   2.158
    1C        C  503   3.941   4.396   2.161
    1C        C  504   3.742   4.474   2.278
    1C        C  505   3.808   4.449   2.400
    1C        C  506   3.604   4.505   2.522
    1C        C  507   3.742   4.476   2.522
    1C        C  508   3.535   4.521   2.644
    1C        C  509   3.608   4.516   2.765
    1C        C  510   3.394   4.528   2.888
    1C        C  511   3.535   4.529   2.885
    1C        C  512   3.326   4.524   3.012
    1C        C  513   3.398   4.530   3.133
    1C        C  514   3.189   4.496   3.257
    1C        C  515   3.327   4.527   3.255
    1C        C  516   3.120   4.476   3.378
    1C        C  517   3.190   4.499   3.499
    1C        C  518   2.999   4.412   3.626
    1C        C  519   3.125   4.477   3.623
    1C        C  520   2.940   4.377   3.750
    1C        C  521   3.002   4.413   3.871
    1C        C  522   2.839   4.281   3.994
    1C        C  523   2.944   4.376   3.994
    1C        C  524   2.787   4.236   4.118
    1C        C  525   2.832   4.294   4.239
    1C        C  526   2.699   4.130   4.362
    1C        C  527   2.778   4.247   4.361
    1C        C  528   2.655   4.075   4.484
    1C        C  529   2.689   4.143   4.604
    1C        C  530   2.581   3.961   4.730
    1C        C  531   2.637   4.091   4.725
    1C        C  532   2.537   3.903   4.852
    1C        C  533   2.528   3.995   4.961
    1C        C  534   3.623   4.558   2.044
    1C        C  535   3.755   4.511   2.042
    1C        C  536   3.536   4.537   2.156
    1C        C  537   3.604   4.508   2.277
    1C        C  538   3.393   4.522   2.402
    1C        C  539   3.534   4.514   2.400
    1C        C  540   3.323   4.509   2.524
    1C        C  541   3.394   4.522   2.645
    1C        C  542   3.183   4.496   2.766
    1C        C  543   3.322   4.524   2.767
    1C        C  544   3.120   4.475   2.891
    1C        C  545   3.187   4.499   3.014
    1C        C  546   2.997   4.405   3.135
    1C        C  547   3.120   4.473   3.135
    1C        C  548   2.939   4.370   3.259
    1C        C  549   2.995   4.410   3.382
    1C        C  550   2.827   4.285   3.505
    1C        C  551   2.938   4.372   3.505
    1C        C  552   2.775   4.237   3.628
    1C        C  553   2.832   4.286   3.748
    1C        C  554   2.702   4.121   3.871
    1C        C  555   2.786   4.235   3.872
    1C        C  556   2.663   4.067   3.995
    1C        C  557   2.696   4.128   4.118
    1C        C  558   2.602   3.940   4.247
    1C        C  559   2.660   4.069   4.241
    1C        C  560   2.577   3.876   4.371
    1C        C  561   2.598   3.946   4.491
    1C        C  562   2.531   3.746   4.616
    1C        C  563   2.561   3.884   4.613
    1C        C  564   2.519   3.678   4.739
    1C        C  565   2.524   3.760   4.854
    1C        C  566   2.524   3.545   4.981
    1C        C  567   2.531   3.684   4.972
    1C        C  568   3.327   4.479   2.041
    1C        C  569   3.395   4.520   2.156
    1C        C  570   3.185   4.484   2.282
    1C        C  571   3.323   4.516   2.279
    1C        C  572   3.114   4.464   2.402
    1C        C  573   3.184   4.483   2.524
    1C        C  574   2.990   4.402   2.649
    1C        C  575   3.115   4.468   2.646
    1C        C  576   2.930   4.367   2.772
    1C        C  577   2.997   4.406   2.890
    1C        C  578   2.829   4.277   3.015
    1C        C  579   2.937   4.368   3.012
    1C        C  580   2.783   4.225   3.138
    1C        C  581   2.832   4.278   3.259
    1C        C  582   2.698   4.117   3.387
    1C        C  583   2.783   4.230   3.383
    1C        C  584   2.655   4.060   3.508
    1C        C  585   2.689   4.125   3.629
    1C        C  586   2.593   3.936   3.756
    1C        C  587   2.659   4.061   3.751
    1C        C  588   2.571   3.874   3.881
    1C        C  589   2.603   3.939   4.002
    1C        C  590   2.545   3.737   4.127
    1C        C  591   2.574   3.875   4.125
    1C        C  592   2.533   3.669   4.251
    1C        C  593   2.536   3.741   4.373
    1C        C  594   2.511   3.532   4.499
    1C        C  595   2.521   3.673   4.495
    1C        C  596   2.514   3.460   4.621
    1C        C  597   2.516   3.536   4.740
    1C        C  598   2.536   3.328   4.867
    1C        C  599   2.526   3.468   4.864
    1C        C  600   2.534   3.246   4.981
    1C        C  601   3.196   4.436   2.046
    1C        C  602   2.984   4.397   2.162
    1C        C  603   3.119   4.447   2.162
    1C        C  604   2.924   4.364   2.287
    1C        C  605   2.988   4.400   2.407
    1C        C  606   2.821   4.271   2.529
    1C        C  607   2.927   4.364   2.529
    1C        C  608   2.774   4.221   2.653
    1C        C  609   2.822   4.275   2.774
    1C        C  610   2.691   4.110   2.895
    1C        C  611   2.772   4.226   2.896
    1C        C  612   2.660   4.052   3.021
    1C        C  613   2.697   4.114   3.143
    1C        C  614   2.595   3.929   3.265
    1C        C  615   2.659   4.055   3.266
    1C        C  616   2.570   3.867   3.390
    1C        C  617   2.593   3.933   3.513
    1C        C  618   2.531   3.731   3.640
    1C        C  619   2.565   3.868   3.635
    1C        C  620   2.520   3.664   3.764
    1C        C  621   2.532   3.738   3.884
    1C        C  622   2.510   3.527   4.010
    1C        C  623   2.522   3.668   4.006
    1C        C  624   2.518   3.455   4.131
    1C        C  625   2.527   3.528   4.252
    1C        C  626   2.534   3.321   4.380
    1C        C  627   2.519   3.461   4.376
    1C        C  628   2.551   3.251   4.501
    1C        C  629   2.540   3.321   4.623
    1C        C  630   2.600   3.121   4.745
    1C        C  631   2.550   3.254   4.747
    1C        C  632   2.616   3.046   4.865
    1C        C  633   2.563   3.109   4.982
    1C        C  634   2.781   4.308   2.058
    1C        C  635   2.890   4.395   2.054
    1C        C  636   2.756   4.225   2.169
    1C        C  637   2.817   4.271   2.288
    1C        C  638   2.686   4.104   2.410
    1C        C  639   2.765   4.221   2.409
    1C        C  640   2.648   4.046   2.533
    1C        C  641   2.684   4.111   2.653
    1C        C  642   2.588   3.922   2.777
    1C        C  643   2.651   4.048   2.775
    1C        C  644   2.567   3.856   2.900
    1C        C  645   2.594   3.927   3.020
    1C        C  646   2.535   3.726   3.149
    1C        C  647   2.572   3.862   3.143
    1C        C  648   2.521   3.659   3.272
    1C        C  649   2.533   3.731   3.393
    1C        C  650   2.516   3.521   3.520
    1C        C  651   2.521   3.663   3.516
    1C        C  652   2.520   3.453   3.644
    1C        C  653   2.515   3.523   3.766
    1C        C  654   2.542   3.315   3.891
    1C        C  655   2.513   3.454   3.890
    1C        C  656   2.561   3.249   4.014
    1C        C  657   2.537   3.315   4.137
    1C        C  658   2.606   3.117   4.258
    1C        C  659   2.556   3.249   4.260
    1C        C  660   2.634   3.054   4.382
    1C        C  661   2.600   3.118   4.503
    1C        C  662   2.707   2.935   4.626
    1C        C  663   2.637   3.057   4.625
    1C        C  664   2.750   2.872   4.745
    1C        C  665   2.700   2.929   4.866
    1C        C  666   2.754   2.879   4.984
    1C        C  667   2.687   4.021   2.052
    1C        C  668   2.687   4.102   2.167
    1C        C  669   2.598   3.909   2.292
    1C        C  670   2.648   4.042   2.289
    1C        C  671   2.568   3.846   2.414
    1C        C  672   2.592   3.916   2.534
    1C        C  673   2.518   3.719   2.662
    1C        C  674   2.561   3.853   2.657
    1C        C  675   2.509   3.648   2.785
    1C        C  676   2.538   3.718   2.904
    1C        C  677   2.516   3.512   3.032
    1C        C  678   2.523   3.653   3.028
    1C        C  679   2.516   3.445   3.156
    1C        C  680   2.511   3.518   3.277
    1C        C  681   2.536   3.309   3.401
    1C        C  682   2.512   3.448   3.400
    1C        C  683   2.556   3.243   3.524
    1C        C  684   2.544   3.313   3.646
    1C        C  685   2.608   3.113   3.769
    1C        C  686   2.557   3.245   3.769
    1C        C  687   2.641   3.053   3.893
    1C        C  688   2.609   3.116   4.015
    1C        C  689   2.711   2.932   4.138
    1C        C  690   2.633   3.050   4.137
    1C        C  691   2.754   2.877   4.261
    1C        C  692   2.709   2.934   4.382
    1C        C  693   2.750   2.877   4.505
    1C        C  694   2.625   3.895   2.053
    1C        C  695   2.530   3.705   2.176
    1C        C  696   2.585   3.835   2.172
    1C        C  697   2.506   3.639   2.299
    1C        C  698   2.527   3.711   2.419
    1C        C  699   2.490   3.505   2.545
    1C        C  700   2.504   3.646   2.542
    1C        C  701   2.495   3.435   2.667
    1C        C  702   2.495   3.508   2.788
    1C        C  703   2.517   3.298   2.913
    1C        C  704   2.503   3.439   2.911
    1C        C  705   2.539   3.232   3.035
    1C        C  706   2.540   3.305   3.156
    1C        C  707   2.603   3.105   3.281
    1C        C  708   2.556   3.239   3.280
    1C        C  709   2.634   3.043   3.403
    1C        C  710   2.604   3.110   3.524
    1C        C  711   2.712   2.930   3.650
    1C        C  712   2.636   3.048   3.647
    1C        C  713   2.759   2.876   3.772
    1C        C  714   2.714   2.932   3.894
    1C        C  715   2.754   2.875   4.017
    1C        C  716   2.447   3.499   2.067
    1C        C  717   2.493   3.632   2.063
    1C        C  718   2.467   3.423   2.187
    1C        C  719   2.480   3.499   2.306
    1C        C  720   2.520   3.290   2.426
    1C        C  721   2.488   3.427   2.428
    1C        C  722   2.539   3.224   2.550
    1C        C  723   2.521   3.296   2.670
    1C        C  724   2.585   3.095   2.793
    1C        C  725   2.530   3.225   2.792
    1C        C  726   2.614   3.032   2.916
    1C        C  727   2.580   3.097   3.037
    1C        C  728   2.706   2.923   3.164
    1C        C  729   2.624   3.038   3.158
    1C        C  730   2.754   2.868   3.285
    1C        C  731   2.712   2.925   3.407
    1C        C  732   2.758   2.872   3.529
    1C        C  733   2.491   3.197   2.075
    1C        C  734   2.486   3.281   2.187
    1C        C  735   2.581   3.084   2.306
    1C        C  736   2.528   3.216   2.306
    1C        C  737   2.609   3.020   2.429
    1C        C  738   2.581   3.089   2.549
    1C        C  739   2.700   2.914   2.672
    1C        C  740   2.618   3.029   2.672
    1C        C  741   2.746   2.864   2.796
    1C        C  742   2.702   2.921   2.917
    1C        C  743   2.748   2.869   3.040
    1C        C  744   2.545   3.069   2.071
    1C        C  745   2.683   2.897   2.189
    1C        C  746   2.602   3.013   2.186
    1C        C  747   2.731   2.843   2.310
    1C        C  748   2.682   2.899   2.430
    1C        C  749   2.735   2.850   2.551
    1C        C  750   2.738   2.841   2.073
    1C        C  751   3.665   2.324   1.967
    1C        O  752   3.739   2.224   1.986
    1C        O  753   3.659   2.374   1.837
    1C        C  754   4.625   3.064   1.966
    1C        O  755   4.570   3.023   1.860
    1C        O  756   4.737   2.993   2.011
    1C        C  757   4.450   4.222   1.960
    1C        O  758   4.507   4.326   2.005
    1C        O  759   4.413   4.234   1.825
    1C        C  760   3.580   4.666   1.952
    1C        O  761   3.555   4.785   1.987
    1C        O  762   3.525   4.634   1.827
    1C        C  763   2.872   4.503   1.955
    1C        O  764   2.868   4.474   1.833
    1C        O  765   2.810   4.622   1.996
    1C        C  766   2.348   3.467   1.962
    1C        O  767   2.379   3.467   1.840
    1C        O  768   2.212   3.496   1.979
    1C        C  769   4.672   3.587   5.072
    1C        O  770   4.628   3.592   5.190
    1C        O  771   4.804   3.633   5.063
    1C        C  772   4.262   4.440   5.058
    1C        O  773   4.237   4.388   5.170
    1C        O  774   4.336   4.558   5.074
    1C        C  775   4.149   2.542   5.080
    1C        O  776   4.234   2.458   5.041
    1C        O  777   4.167   2.580   5.214
    1C        C  778   2.886   4.540   5.057
    1C        O  779   2.805   4.628   5.018
    1C        O  780   2.963   4.559   5.173
    1C        C  781   2.475   3.020   5.061
    1C        O  782   2.359   2.997   5.019
    1C        O  783   2.487   3.020   5.200
    1C        C  784   2.426   3.998   5.069
    1C        O  785   2.324   4.071   5.066
    1C        O  786   2.463   3.957   5.198
    1C        C  787   2.947   2.418   2.016
    1C        O  788   2.924   2.431   1.893
    1C        O  789   2.920   2.296   2.076
    1C        C  790   3.198   2.405   5.092
    1C        O  791   3.182   2.282   5.073
    1C        O  792   3.218   2.433   5.228
    1C        H  793   4.244   3.041   5.037
    1C        H  794   4.170   2.821   5.068
    1C        H  795   4.538   3.128   5.033
    1C        H  796   4.552   3.365   5.062
    1C        H  797   4.584   3.817   5.045
    1C        H  798   4.398   3.967   5.055
    1C        H  799   4.255   4.155   5.042
    1C        H  800   4.055   4.566   5.008
    1C        H  801   3.822   4.591   5.038
    1C        H  802   3.580   4.600   5.042
    1C        H  803   3.402   4.473   5.038
    1C        H  804   3.164   4.469   5.058
    1C        H  805   3.911   2.458   5.056
    1C        H  806   3.676   2.419   5.063
    1C        H  807   2.986   2.511   5.035
    1C        H  808   3.447   2.517   5.074
    1C        H  809   2.861   2.718   5.078
    1C        H  810   2.739   2.929   5.078
    1C        H  811   2.499   3.286   5.073
    1C        H  812   2.511   3.496   5.075
    1C        H  813   2.528   3.738   5.064
    1C        H  814   2.577   4.188   5.034
    1C        H  815   2.760   4.304   5.053
    1C        H  816   2.690   2.856   1.978
    1C        H  817   2.784   2.646   2.015
    1C        H  818   3.185   2.371   2.034
    1C        H  819   3.430   2.437   1.980
    1C        H  820   3.856   2.516   1.974
    1C        H  821   4.075   2.604   1.974
    1C        H  822   4.208   2.767   1.966
    1C        H  823   4.440   2.874   2.000
    1C        H  824   4.608   3.310   1.983
    1C        H  825   4.477   3.514   1.964
    1C        H  826   4.500   3.750   1.954
    1C        H  827   3.812   4.531   1.953
    1C        H  828   3.988   4.407   1.952
    1C        H  829   4.183   4.289   1.953
    1C        H  830   4.469   3.960   1.952
    1C        H  831   2.561   3.882   1.968
    1C        H  832   2.770   4.032   1.986
    1C        H  833   2.706   4.315   1.982
    1C        H  834   3.378   4.468   1.947
    1C        H  835   3.144   4.431   1.953
    1C        H  836   2.530   3.014   1.981
    1C        H  837   2.420   3.221   1.999
    1C        H  838   2.513   3.672   1.966
    2V3OU   H29  839   2.813   3.546   2.525
    2V3OU   C27  840   2.790   3.503   2.627
    2V3OU   H27  841   2.737   3.573   2.696
    2V3OU   H28  842   2.738   3.404   2.620
    2V3OU   O11  843   2.918   3.475   2.684
    2V3OU   C15  844   2.927   3.399   2.798
    2V3OU   C13  845   3.055   3.378   2.854
    2V3OU   C14  846   3.079   3.272   2.943
    2V3OU   C16  847   2.977   3.189   2.987
    2V3OU    H6  848   2.995   3.107   3.058
    2V3OU   C12  849   3.216   3.235   2.985
    2V3OU    O2  850   3.241   3.131   3.049
    2V3OU   C10  851   3.329   3.306   2.922
    2V3OU    C8  852   3.460   3.268   2.949
    2V3OU   O10  853   3.487   3.148   3.005
    2V3OU   H26  854   3.403   3.114   3.039
    2V3OU    C6  855   3.569   3.354   2.915
    2V3OU    C5  856   3.541   3.474   2.850
    2V3OU    C4  857   3.704   3.292   2.909
    2V3OU    H4  858   3.726   3.230   3.002
    2V3OU    H5  859   3.712   3.227   2.817
    2V3OU    C2  860   3.816   3.395   2.912
    2V3OU    O6  861   3.809   3.474   3.031
    2V3OU   H21  862   3.768   3.558   3.004
    2V3OU    C3  863   3.785   3.495   2.800
    2V3OU    H2  864   3.861   3.577   2.804
    2V3OU    H3  865   3.785   3.441   2.702
    2V3OU   C25  866   3.953   3.328   2.899
    2V3OU    O7  867   3.999   3.291   2.791
    2V3OU   C26  868   4.031   3.298   3.026
    2V3OU   H22  869   4.068   3.391   3.074
    2V3OU   H23  870   4.120   3.234   3.001
    2V3OU    O8  871   3.965   3.211   3.115
    2V3OU   H24  872   3.926   3.263   3.187
    2V3OU    C1  873   3.652   3.568   2.815
    2V3OU    H1  874   3.628   3.618   2.717
    2V3OU    O3  875   3.665   3.660   2.924
    2V3OU   C19  876   3.626   3.797   2.915
    2V3OU    H9  877   3.529   3.806   2.858
    2V3OU    O4  878   3.719   3.857   2.827
    2V3OU   C20  879   3.846   3.883   2.888
    2V3OU   H10  880   3.902   3.786   2.901
    2V3OU   C24  881   3.611   3.858   3.054
    2V3OU   H16  882   3.548   3.789   3.115
    2V3OU   H17  883   3.559   3.957   3.044
    2V3OU   C23  884   3.750   3.872   3.116
    2V3OU   H15  885   3.795   3.768   3.120
    2V3OU    N1  886   3.738   3.956   3.234
    2V3OU   H19  887   3.812   3.923   3.292
    2V3OU   H20  888   3.652   3.942   3.284
    2V3OU   C21  889   3.846   3.953   3.024
    2V3OU   H11  890   3.954   3.930   3.051
    2V3OU    O5  891   3.828   4.093   3.033
    2V3OU   H18  892   3.784   4.109   3.119
    2V3OU   C22  893   3.918   3.951   2.773
    2V3OU   H12  894   3.861   4.045   2.751
    2V3OU   H13  895   3.909   3.888   2.681
    2V3OU   H14  896   4.029   3.958   2.787
    2V3OU   C11  897   3.164   3.472   2.826
    2V3OU    O1  898   3.132   3.593   2.831
    2V3OU    C9  899   3.302   3.423   2.847
    2V3OU    C7  900   3.407   3.507   2.812
    2V3OU    O9  901   3.381   3.628   2.751
    2V3OU   H25  902   3.288   3.625   2.726
    2V3OU   C17  903   2.823   3.318   2.848
    2V3OU    H7  904   2.725   3.351   2.813
    2V3OU   C18  905   2.848   3.221   2.944
    2V3OU    H8  906   2.783   3.165   3.013
    3SOL     OW  907   2.225   5.461   6.598
    3SOL    HW1  908   2.307   5.503   6.558
    3SOL    HW2  909   2.145   5.485   6.544
    4SOL     OW  910   0.012   0.832   2.117
    4SOL    HW1  911   0.105   0.846   2.083
    4SOL    HW2  912   6.984   0.915   2.099
    5SOL     OW  913   4.294   1.837   2.342
    5SOL    HW1  914   4.303   1.750   2.391
    5SOL    HW2  915   4.271   1.819   2.246
    6SOL     OW  916   4.284   0.940   1.672
    6SOL    HW1  917   4.247   0.852   1.703
    6SOL    HW2  918   4.214   0.991   1.623
    7SOL     OW  919   0.833   4.111   3.533
    7SOL    HW1  920   0.739   4.143   3.527
    7SOL    HW2  921   0.862   4.108   3.629
    8SOL     OW  922   3.121   0.992   5.577
    8SOL    HW1  923   3.088   1.045   5.655
    8SOL    HW2  924   3.216   0.965   5.593
    9SOL     OW  925   4.769   1.304   5.799
    9SOL    HW1  926   4.730   1.255   5.877
    9SOL    HW2  927   4.712   1.383   5.777
   10SOL     OW  928   2.102   4.928   5.310
   10SOL    HW1  929   2.129   4.990   5.236
   10SOL    HW2  930   2.072   4.841   5.271
   11SOL     OW  931   3.195   0.861   5.333
   11SOL    HW1  932   3.250   0.942   5.310
   11SOL    HW2  933   3.142   0.879   5.416
   12SOL     OW  934   2.878   5.654   3.545
   12SOL    HW1  935   2.959   5.658   3.604
   12SOL    HW2  936   2.879   5.569   3.492
   13SOL     OW  937   3.783   6.597   4.287
   13SOL    HW1  938   3.855   6.542   4.244
   13SOL    HW2  939   3.808   6.694   4.283
   14SOL     OW  940   3.759   5.111   6.218
   14SOL    HW1  941   3.843   5.098   6.167
   14SOL    HW2  942   3.780   5.144   6.310
   15SOL     OW  943   0.930   6.609   1.310
   15SOL    HW1  944   0.976   6.561   1.235
   15SOL    HW2  945   0.842   6.565   1.328
   16SOL     OW  946   5.495   2.777   6.358
   16SOL    HW1  947   5.471   2.682   6.380
   16SOL    HW2  948   5.445   2.839   6.419
   17SOL     OW  949   5.832   5.975   6.172
   17SOL    HW1  950   5.922   6.007   6.145
   17SOL    HW2  951   5.770   5.977   6.094
   18SOL     OW  952   3.776   1.207   5.615
   18SOL    HW1  953   3.821   1.213   5.526
   18SOL    HW2  954   3.704   1.138   5.611
   19SOL     OW  955   0.293   1.413   2.995
   19SOL    HW1  956   0.288   1.402   2.896
   19SOL    HW2  957   0.382   1.382   3.028
   20SOL     OW  958   4.820   2.078   4.318
   20SOL    HW1  959   4.823   2.047   4.223
   20SOL    HW2  960   4.758   2.020   4.370
   21SOL     OW  961   3.297   0.781   2.101
   21SOL    HW1  962   3.216   0.751   2.151
   21SOL    HW2  963   3.283   0.875   2.070
   22SOL     OW  964   1.509   6.452   6.869
   22SOL    HW1  965   1.562   6.426   6.950
   22SOL    HW2  966   1.559   6.426   6.786
   23SOL     OW  967   5.545   5.343   2.423
   23SOL    HW1  968   5.584   5.375   2.337
   23SOL    HW2  969   5.478   5.271   2.405
   24SOL     OW  970   3.654   0.375   2.953
   24SOL    HW1  971   3.726   0.358   2.885
   24SOL    HW2  972   3.690   0.434   3.025
   25SOL     OW  973   3.923   0.273   3.973
   25SOL    HW1  974   3.972   0.344   3.922
   25SOL    HW2  975   3.827   0.273   3.945
   26SOL     OW  976   6.682   1.349   0.533
   26SOL    HW1  977   6.616   1.392   0.594
   26SOL    HW2  978   6.644   1.346   0.440
   27SOL     OW  979   1.858   0.759   2.467
   27SOL    HW1  980   1.909   0.831   2.515
   27SOL    HW2  981   1.923   0.695   2.426
   28SOL     OW  982   2.413   0.712   5.501
   28SOL    HW1  983   2.395   0.811   5.502
   28SOL    HW2  984   2.511   0.696   5.497
   29SOL     OW  985   6.197   1.576   1.693
   29SOL    HW1  986   6.266   1.503   1.689
   29SOL    HW2  987   6.242   1.664   1.702
   30SOL     OW  988   3.800   0.947   3.455
   30SOL    HW1  989   3.825   1.037   3.493
   30SOL    HW2  990   3.844   0.875   3.508
   31SOL     OW  991   0.479   2.347   6.229
   31SOL    HW1  992   0.507   2.260   6.188
   31SOL    HW2  993   0.419   2.329   6.308
   32SOL     OW  994   0.062   1.736   3.301
   32SOL    HW1  995   0.140   1.682   3.269
   32SOL    HW2  996   0.086   1.783   3.386
   33SOL     OW  997   0.592   4.560   4.902
   33SOL    HW1  998   0.658   4.491   4.931
   33SOL    HW2  999   0.504   4.543   4.946
   34SOL     OW 1000   2.707   6.800   5.062
   34SOL    HW1 1001   2.763   6.871   5.019
   34SOL    HW2 1002   2.726   6.798   5.160
   35SOL     OW 1003   5.072   3.062   5.807
   35SOL    HW1 1004   4.973   3.066   5.823
   35SOL    HW2 1005   5.120   3.101   5.885
   36SOL     OW 1006   4.702   1.210   4.836
   36SOL    HW1 1007   4.728   1.114   4.845
   36SOL    HW2 1008   4.713   1.238   4.741
   37SOL     OW 1009   1.194   1.638   5.707
   37SOL    HW1 1010   1.183   1.649   5.805
   37SOL    HW2 1011   1.278   1.683   5.677
   38SOL     OW 1012   1.201   4.960   2.773
   38SOL    HW1 1013   1.133   4.911   2.718
   38SOL    HW2 1014   1.249   5.026   2.715
   39SOL     OW 1015   6.413   4.689   6.219
   39SOL    HW1 1016   6.481   4.648   6.280
   39SOL    HW2 1017   6.458   4.723   6.136
   40SOL     OW 1018   4.750   1.769   0.531
   40SOL    HW1 1019   4.692   1.793   0.453
   40SOL    HW2 1020   4.693   1.738   0.607
   41SOL     OW 1021   0.163   4.813   3.238
   41SOL    HW1 1022   0.083   4.873   3.242
   41SOL    HW2 1023   0.140   4.730   3.188
   42SOL     OW 1024   3.385   4.940   4.113
   42SOL    HW1 1025   3.443   4.917   4.035
   42SOL    HW2 1026   3.441   4.973   4.189
   43SOL     OW 1027   5.196   0.070   5.719
   43SOL    HW1 1028   5.217   0.164   5.746
   43SOL    HW2 1029   5.160   0.069   5.626
   44SOL     OW 1030   4.724   2.229   5.812
   44SOL    HW1 1031   4.751   2.292   5.885
   44SOL    HW2 1032   4.730   2.276   5.724
   45SOL     OW 1033   5.043   5.464   1.379
   45SOL    HW1 1034   4.943   5.469   1.375
   45SOL    HW2 1035   5.082   5.546   1.338
   46SOL     OW 1036   0.678   2.788   3.565
   46SOL    HW1 1037   0.732   2.787   3.649
   46SOL    HW2 1038   0.580   2.793   3.588
   47SOL     OW 1039   4.601   4.453   1.028
   47SOL    HW1 1040   4.679   4.425   0.973
   47SOL    HW2 1041   4.516   4.433   0.979
   48SOL     OW 1042   6.573   2.838   6.327
   48SOL    HW1 1043   6.505   2.838   6.253
   48SOL    HW2 1044   6.564   2.754   6.380
   49SOL     OW 1045   5.816   3.309   2.384
   49SOL    HW1 1046   5.890   3.280   2.445
   49SOL    HW2 1047   5.728   3.291   2.428
   50SOL     OW 1048   5.548   1.190   4.846
   50SOL    HW1 1049   5.480   1.255   4.880
   50SOL    HW2 1050   5.596   1.230   4.768
   51SOL     OW 1051   2.665   6.234   3.070
   51SOL    HW1 1052   2.743   6.208   3.014
   51SOL    HW2 1053   2.685   6.320   3.117
   52SOL     OW 1054   6.222   3.317   2.462
   52SOL    HW1 1055   6.297   3.266   2.504
   52SOL    HW2 1056   6.135   3.284   2.499
   53SOL     OW 1057   4.324   0.692   3.505
   53SOL    HW1 1058   4.419   0.696   3.473
   53SOL    HW2 1059   4.267   0.649   3.435
   54SOL     OW 1060   5.065   5.273   0.879
   54SOL    HW1 1061   5.009   5.300   0.957
   54SOL    HW2 1062   5.128   5.200   0.906
   55SOL     OW 1063   2.129   3.071   5.978
   55SOL    HW1 1064   2.205   3.102   6.034
   55SOL    HW2 1065   2.163   3.033   5.892
   56SOL     OW 1066   0.408   0.838   1.427
   56SOL    HW1 1067   0.481   0.904   1.407
   56SOL    HW2 1068   0.371   0.856   1.518
   57SOL     OW 1069   4.256   1.056   1.238
   57SOL    HW1 1070   4.276   1.152   1.217
   57SOL    HW2 1071   4.333   0.999   1.211
   58SOL     OW 1072   1.147   0.083   5.285
   58SOL    HW1 1073   1.082   0.068   5.211
   58SOL    HW2 1074   1.139   0.009   5.352
   59SOL     OW 1075   0.336   2.705   5.984
   59SOL    HW1 1076   0.284   2.727   5.901
   59SOL    HW2 1077   0.384   2.785   6.016
   60SOL     OW 1078   5.252   2.650   4.220
   60SOL    HW1 1079   5.317   2.715   4.182
   60SOL    HW2 1080   5.169   2.650   4.164
   61SOL     OW 1081   6.559   2.342   4.340
   61SOL    HW1 1082   6.651   2.305   4.329
   61SOL    HW2 1083   6.519   2.359   4.250
   62SOL     OW 1084   1.834   0.742   2.062
   62SOL    HW1 1085   1.736   0.721   2.061
   62SOL    HW2 1086   1.882   0.673   2.115
   63SOL     OW 1087   5.309   1.050   4.051
   63SOL    HW1 1088   5.367   0.984   4.098
   63SOL    HW2 1089   5.257   1.004   3.979
   64SOL     OW 1090   7.022   2.817   5.967
   64SOL    HW1 1091   6.978   2.734   5.933
   64SOL    HW2 1092   0.006   2.812   6.066
   65SOL     OW 1093   0.419   4.270   6.265
   65SOL    HW1 1094   0.399   4.270   6.363
   65SOL    HW2 1095   0.360   4.205   6.218
   66SOL     OW 1096   4.073   0.636   4.247
   66SOL    HW1 1097   4.107   0.542   4.248
   66SOL    HW2 1098   3.975   0.636   4.227
   67SOL     OW 1099   6.698   2.886   5.879
   67SOL    HW1 1100   6.744   2.952   5.938
   67SOL    HW2 1101   6.725   2.903   5.784
   68SOL     OW 1102   6.875   1.169   6.984
   68SOL    HW1 1103   6.912   1.112   6.911
   68SOL    HW2 1104   6.885   1.265   6.959
   69SOL     OW 1105   0.675   2.945   6.563
   69SOL    HW1 1106   0.580   2.962   6.538
   69SOL    HW2 1107   0.698   2.999   6.644
   70SOL     OW 1108   5.146   4.638   4.497
   70SOL    HW1 1109   5.240   4.637   4.532
   70SOL    HW2 1110   5.123   4.547   4.462
   71SOL     OW 1111   4.162   1.966   3.107
   71SOL    HW1 1112   4.101   1.907   3.055
   71SOL    HW2 1113   4.112   2.045   3.141
   72SOL     OW 1114   1.500   1.016   3.377
   72SOL    HW1 1115   1.441   1.088   3.340
   72SOL    HW2 1116   1.545   1.050   3.459
   73SOL     OW 1117   3.763   0.320   1.438
   73SOL    HW1 1118   3.717   0.232   1.427
   73SOL    HW2 1119   3.854   0.305   1.476
   74SOL     OW 1120   3.557   0.617   0.090
   74SOL    HW1 1121   3.557   0.717   0.088
   74SOL    HW2 1122   3.649   0.584   0.111
   75SOL     OW 1123   4.069   0.521   1.113
   75SOL    HW1 1124   4.073   0.484   1.021
   75SOL    HW2 1125   4.118   0.608   1.116
   76SOL     OW 1126   2.847   2.839   0.874
   76SOL    HW1 1127   2.761   2.855   0.922
   76SOL    HW2 1128   2.855   2.904   0.798
   77SOL     OW 1129   0.710   0.363   3.851
   77SOL    HW1 1130   0.751   0.287   3.900
   77SOL    HW2 1131   0.624   0.333   3.809
   78SOL     OW 1132   5.238   1.573   0.202
   78SOL    HW1 1133   5.154   1.528   0.231
   78SOL    HW2 1134   5.265   1.641   0.270
   79SOL     OW 1135   2.906   5.875   1.040
   79SOL    HW1 1136   2.908   5.975   1.041
   79SOL    HW2 1137   2.933   5.840   1.129
   80SOL     OW 1138   4.766   0.939   3.652
   80SOL    HW1 1139   4.759   1.020   3.711
   80SOL    HW2 1140   4.733   0.962   3.561
   81SOL     OW 1141   2.339   0.428   2.342
   81SOL    HW1 1142   2.373   0.391   2.255
   81SOL    HW2 1143   2.417   0.453   2.400
   82SOL     OW 1144   5.855   4.776   0.361
   82SOL    HW1 1145   5.940   4.818   0.393
   82SOL    HW2 1146   5.786   4.848   0.347
   83SOL     OW 1147   0.285   0.033   0.644
   83SOL    HW1 1148   0.280   0.008   0.547
   83SOL    HW2 1149   0.362   0.095   0.658
   84SOL     OW 1150   5.985   3.247   2.586
   84SOL    HW1 1151   5.996   3.147   2.583
   84SOL    HW2 1152   5.921   3.271   2.658
   85SOL     OW 1153   1.653   1.081   3.587
   85SOL    HW1 1154   1.718   1.154   3.566
   85SOL    HW2 1155   1.701   1.007   3.635
   86SOL     OW 1156   0.848   1.547   6.154
   86SOL    HW1 1157   0.814   1.540   6.060
   86SOL    HW2 1158   0.873   1.457   6.188
   87SOL     OW 1159   5.034   4.409   0.988
   87SOL    HW1 1160   4.942   4.390   0.955
   87SOL    HW2 1161   5.100   4.398   0.913
   88SOL     OW 1162   3.158   1.726   6.407
   88SOL    HW1 1163   3.208   1.714   6.321
   88SOL    HW2 1164   3.170   1.820   6.440
   89SOL     OW 1165   2.442   2.886   6.756
   89SOL    HW1 1166   2.535   2.850   6.762
   89SOL    HW2 1167   2.381   2.815   6.719
   90SOL     OW 1168   4.140   5.503   1.874
   90SOL    HW1 1169   4.053   5.480   1.917
   90SOL    HW2 1170   4.131   5.588   1.823
   91SOL     OW 1171   6.056   4.026   6.167
   91SOL    HW1 1172   6.105   4.030   6.080
   91SOL    HW2 1173   6.098   4.089   6.232
   92SOL     OW 1174   4.492   4.592   1.226
   92SOL    HW1 1175   4.394   4.606   1.213
   92SOL    HW2 1176   4.527   4.533   1.153
   93SOL     OW 1177   3.011   3.560   0.445
   93SOL    HW1 1178   3.067   3.636   0.478
   93SOL    HW2 1179   2.924   3.595   0.411
   94SOL     OW 1180   3.136   5.204   6.237
   94SOL    HW1 1181   3.231   5.192   6.211
   94SOL    HW2 1182   3.111   5.300   6.227
   95SOL     OW 1183   1.694   0.400   2.417
   95SOL    HW1 1184   1.678   0.469   2.488
   95SOL    HW2 1185   1.607   0.365   2.384
   96SOL     OW 1186   3.782   6.843   5.586
   96SOL    HW1 1187   3.839   6.778   5.635
   96SOL    HW2 1188   3.834   6.882   5.510
   97SOL     OW 1189   2.265   3.007   5.702
   97SOL    HW1 1190   2.247   3.088   5.646
   97SOL    HW2 1191   2.310   2.937   5.647
   98SOL     OW 1192   1.108   2.721   0.895
   98SOL    HW1 1193   1.141   2.635   0.856
   98SOL    HW2 1194   1.141   2.798   0.841
   99SOL     OW 1195   4.484   3.207   1.534
   99SOL    HW1 1196   4.446   3.136   1.594
   99SOL    HW2 1197   4.520   3.282   1.590
  100SOL     OW 1198   1.227   6.549   3.668
  100SOL    HW1 1199   1.180   6.493   3.600
  100SOL    HW2 1200   1.178   6.544   3.755
  101SOL     OW 1201   1.593   4.268   1.950
  101SOL    HW1 1202   1.583   4.292   2.047
  101SOL    HW2 1203   1.577   4.349   1.894
  102SOL     OW 1204   2.905   5.282   1.868
  102SOL    HW1 1205   2.936   5.242   1.782
  102SOL    HW2 1206   2.977   5.338   1.907
  103SOL     OW 1207   2.442   1.724   2.132
  103SOL    HW1 1208   2.524   1.683   2.171
  103SOL    HW2 1209   2.412   1.670   2.053
  104SOL     OW 1210   1.350   5.465   2.432
  104SOL    HW1 1211   1.412   5.457   2.354
  104SOL    HW2 1212   1.264   5.505   2.402
  105SOL     OW 1213   5.778   0.954   6.354
  105SOL    HW1 1214   5.848   1.008   6.309
  105SOL    HW2 1215   5.747   1.002   6.436
  106SOL     OW 1216   3.444   5.945   3.912
  106SOL    HW1 1217   3.411   5.912   4.000
  106SOL    HW2 1218   3.464   6.042   3.917
  107SOL     OW 1219   1.125   1.151   0.021
  107SOL    HW1 1220   1.041   1.204   0.016
  107SOL    HW2 1221   1.171   1.168   0.108
  108SOL     OW 1222   3.777   0.118   6.047
  108SOL    HW1 1223   3.760   0.201   5.995
  108SOL    HW2 1224   3.802   0.141   6.141
  109SOL     OW 1225   2.024   0.999   2.785
  109SOL    HW1 1226   2.118   0.983   2.814
  109SOL    HW2 1227   2.014   0.975   2.688
  110SOL     OW 1228   3.116   5.410   3.850
  110SOL    HW1 1229   3.032   5.409   3.903
  110SOL    HW2 1230   3.108   5.347   3.773
  111SOL     OW 1231   2.159   1.278   4.160
  111SOL    HW1 1232   2.113   1.270   4.071
  111SOL    HW2 1233   2.109   1.344   4.217
  112SOL     OW 1234   3.239   5.709   0.172
  112SOL    HW1 1235   3.157   5.663   0.206
  112SOL    HW2 1236   3.320   5.671   0.216
  113SOL     OW 1237   1.278   6.253   2.479
  113SOL    HW1 1238   1.361   6.305   2.500
  113SOL    HW2 1239   1.199   6.299   2.520
  114SOL     OW 1240   0.708   6.434   1.383
  114SOL    HW1 1241   0.618   6.468   1.409
  114SOL    HW2 1242   0.752   6.392   1.463
  115SOL     OW 1243   4.594   1.213   2.947
  115SOL    HW1 1244   4.643   1.247   3.027
  115SOL    HW2 1245   4.640   1.242   2.864
  116SOL     OW 1246   6.909   6.219   0.658
  116SOL    HW1 1247   6.935   6.165   0.578
  116SOL    HW2 1248   6.991   6.248   0.707
  117SOL     OW 1249   0.494   1.807   1.223
  117SOL    HW1 1250   0.411   1.830   1.274
  117SOL    HW2 1251   0.572   1.801   1.285
  118SOL     OW 1252   1.703   0.984   2.371
  118SOL    HW1 1253   1.737   0.896   2.404
  118SOL    HW2 1254   1.781   1.043   2.349
  119SOL     OW 1255   0.365   0.428   6.851
  119SOL    HW1 1256   0.280   0.375   6.847
  119SOL    HW2 1257   0.367   0.493   6.775
  120SOL     OW 1258   5.230   1.475   5.453
  120SOL    HW1 1259   5.143   1.524   5.457
  120SOL    HW2 1260   5.222   1.398   5.390
  121SOL     OW 1261   2.044   3.242   0.556
  121SOL    HW1 1262   2.031   3.340   0.565
  121SOL    HW2 1263   2.112   3.224   0.485
  122SOL     OW 1264   1.735   3.427   0.575
  122SOL    HW1 1265   1.719   3.384   0.486
  122SOL    HW2 1266   1.683   3.512   0.581
  123SOL     OW 1267   1.240   1.602   3.143
  123SOL    HW1 1268   1.220   1.681   3.085
  123SOL    HW2 1269   1.248   1.631   3.238
  124SOL     OW 1270   3.687   2.556   0.769
  124SOL    HW1 1271   3.624   2.563   0.847
  124SOL    HW2 1272   3.635   2.534   0.687
  125SOL     OW 1273   4.287   2.578   0.539
  125SOL    HW1 1274   4.244   2.616   0.457
  125SOL    HW2 1275   4.267   2.637   0.618
  126SOL     OW 1276   3.692   3.837   1.756
  126SOL    HW1 1277   3.772   3.792   1.716
  126SOL    HW2 1278   3.722   3.893   1.833
  127SOL     OW 1279   0.948   5.170   6.446
  127SOL    HW1 1280   1.020   5.195   6.381
  127SOL    HW2 1281   0.864   5.218   6.422
  128SOL     OW 1282   4.569   3.194   1.291
  128SOL    HW1 1283   4.541   3.218   1.384
  128SOL    HW2 1284   4.546   3.269   1.229
  129SOL     OW 1285   3.149   3.636   6.375
  129SOL    HW1 1286   3.152   3.734   6.394
  129SOL    HW2 1287   3.239   3.596   6.391
  130SOL     OW 1288   1.447   1.124   4.119
  130SOL    HW1 1289   1.473   1.133   4.023
  130SOL    HW2 1290   1.442   1.028   4.143
  131SOL     OW 1291   4.922   0.364   3.081
  131SOL    HW1 1292   4.841   0.315   3.113
  131SOL    HW2 1293   4.895   0.440   3.022
  132SOL     OW 1294   3.027   2.540   1.668
  132SOL    HW1 1295   3.119   2.556   1.703
  132SOL    HW2 1296   2.967   2.517   1.745
  133SOL     OW 1297   5.284   0.687   4.315
  133SOL    HW1 1298   5.305   0.647   4.226
  133SOL    HW2 1299   5.249   0.617   4.376
  134SOL     OW 1300   0.104   1.286   2.549
  134SOL    HW1 1301   0.102   1.368   2.606
  134SOL    HW2 1302   0.187   1.233   2.570
  135SOL     OW 1303   4.732   4.111   4.196
  135SOL    HW1 1304   4.754   4.033   4.255
  135SOL    HW2 1305   4.764   4.093   4.103
  136SOL     OW 1306   1.516   5.474   5.197
  136SOL    HW1 1307   1.491   5.410   5.270
  136SOL    HW2 1308   1.503   5.568   5.230
  137SOL     OW 1309   4.450   1.588   3.150
  137SOL    HW1 1310   4.366   1.551   3.109
  137SOL    HW2 1311   4.518   1.603   3.078
  138SOL     OW 1312   1.151   3.539   3.012
  138SOL    HW1 1313   1.068   3.594   3.004
  138SOL    HW2 1314   1.230   3.600   3.026
  139SOL     OW 1315   2.083   6.674   5.750
  139SOL    HW1 1316   2.098   6.584   5.791
  139SOL    HW2 1317   1.984   6.691   5.744
  140SOL     OW 1318   2.038   6.863   3.952
  140SOL    HW1 1319   2.024   6.848   3.854
  140SOL    HW2 1320   2.128   6.827   3.979
  141SOL     OW 1321   0.202   2.727   4.506
  141SOL    HW1 1322   0.237   2.643   4.465
  141SOL    HW2 1323   0.108   2.712   4.537
  142SOL     OW 1324   2.034   3.683   1.996
  142SOL    HW1 1325   1.938   3.662   1.974
  142SOL    HW2 1326   2.091   3.603   1.977
  143SOL     OW 1327   5.735   5.084   0.554
  143SOL    HW1 1328   5.819   5.127   0.520
  143SOL    HW2 1329   5.683   5.045   0.477
  144SOL     OW 1330   1.635   4.681   5.983
  144SOL    HW1 1331   1.682   4.686   5.895
  144SOL    HW2 1332   1.587   4.593   5.990
  145SOL     OW 1333   1.486   4.496   1.859
  145SOL    HW1 1334   1.402   4.468   1.813
  145SOL    HW2 1335   1.535   4.561   1.801
  146SOL     OW 1336   5.324   0.275   6.206
  146SOL    HW1 1337   5.352   0.179   6.207
  146SOL    HW2 1338   5.404   0.333   6.222
  147SOL     OW 1339   5.479   2.183   6.191
  147SOL    HW1 1340   5.532   2.245   6.133
  147SOL    HW2 1341   5.462   2.228   6.280
  148SOL     OW 1342   0.148   5.300   0.712
  148SOL    HW1 1343   0.189   5.230   0.655
  148SOL    HW2 1344   0.172   5.391   0.677
  149SOL     OW 1345   3.565   2.098   4.797
  149SOL    HW1 1346   3.508   2.154   4.858
  149SOL    HW2 1347   3.536   2.114   4.702
  150SOL     OW 1348   5.572   6.345   6.750
  150SOL    HW1 1349   5.521   6.275   6.801
  150SOL    HW2 1350   5.652   6.374   6.803
  151SOL     OW 1351   3.210   0.704   1.324
  151SOL    HW1 1352   3.303   0.687   1.293
  151SOL    HW2 1353   3.145   0.667   1.257
  152SOL     OW 1354   0.152   1.310   0.952
  152SOL    HW1 1355   0.073   1.371   0.948
  152SOL    HW2 1356   0.166   1.280   1.046
  153SOL     OW 1357   2.949   6.895   3.742
  153SOL    HW1 1358   2.986   6.822   3.686
  153SOL    HW2 1359   2.859   6.922   3.707
  154SOL     OW 1360   1.098   3.261   0.830
  154SOL    HW1 1361   1.062   3.219   0.914
  154SOL    HW2 1362   1.195   3.281   0.843
  155SOL     OW 1363   0.860   1.375   4.536
  155SOL    HW1 1364   0.788   1.337   4.594
  155SOL    HW2 1365   0.862   1.324   4.450
  156SOL     OW 1366   6.777   0.793   0.944
  156SOL    HW1 1367   6.752   0.838   0.858
  156SOL    HW2 1368   6.824   0.858   1.004
  157SOL     OW 1369   5.961   3.634   0.811
  157SOL    HW1 1370   5.997   3.541   0.813
  157SOL    HW2 1371   5.977   3.674   0.721
  158SOL     OW 1372   1.274   3.140   2.167
  158SOL    HW1 1373   1.263   3.058   2.222
  158SOL    HW2 1374   1.228   3.217   2.211
  159SOL     OW 1375   4.530   5.109   1.743
  159SOL    HW1 1376   4.464   5.177   1.711
  159SOL    HW2 1377   4.598   5.155   1.801
  160SOL     OW 1378   5.669   6.680   0.895
  160SOL    HW1 1379   5.570   6.671   0.893
  160SOL    HW2 1380   5.710   6.589   0.889
  161SOL     OW 1381   1.333   0.028   3.641
  161SOL    HW1 1382   1.320   0.080   3.557
  161SOL    HW2 1383   1.298   6.960   3.627
  162SOL     OW 1384   4.007   5.846   0.005
  162SOL    HW1 1385   4.065   5.784   0.058
  162SOL    HW2 1386   3.911   5.828   0.027
  163SOL     OW 1387   6.734   6.139   2.320
  163SOL    HW1 1388   6.752   6.058   2.376
  163SOL    HW2 1389   6.636   6.161   2.323
  164SOL     OW 1390   0.972   4.316   3.347
  164SOL    HW1 1391   0.918   4.259   3.408
  164SOL    HW2 1392   0.947   4.297   3.252
  165SOL     OW 1393   4.770   4.084   0.735
  165SOL    HW1 1394   4.733   4.069   0.643
  165SOL    HW2 1395   4.868   4.070   0.734
  166SOL     OW 1396   0.902   2.881   2.067
  166SOL    HW1 1397   0.936   2.790   2.043
  166SOL    HW2 1398   0.941   2.908   2.155
  167SOL     OW 1399   5.289   2.270   6.943
  167SOL    HW1 1400   5.326   2.273   0.010
  167SOL    HW2 1401   5.359   2.236   6.880
  168SOL     OW 1402   3.785   1.869   0.366
  168SOL    HW1 1403   3.772   1.922   0.451
  168SOL    HW2 1404   3.821   1.929   0.295
  169SOL     OW 1405   6.177   2.161   1.317
  169SOL    HW1 1406   6.251   2.097   1.302
  169SOL    HW2 1407   6.152   2.161   1.414
  170SOL     OW 1408   0.055   6.802   2.362
  170SOL    HW1 1409   0.063   6.846   2.451
  170SOL    HW2 1410   0.037   6.871   2.292
  171SOL     OW 1411   2.991   4.495   0.063
  171SOL    HW1 1412   3.055   4.477   0.137
  171SOL    HW2 1413   3.038   4.541   7.013
  172SOL     OW 1414   6.047   1.494   3.264
  172SOL    HW1 1415   6.130   1.499   3.319
  172SOL    HW2 1416   5.973   1.455   3.320
  173SOL     OW 1417   6.012   1.060   3.823
  173SOL    HW1 1418   5.950   1.062   3.744
  173SOL    HW2 1419   5.997   1.141   3.880
  174SOL     OW 1420   4.017   5.613   3.862
  174SOL    HW1 1421   3.966   5.655   3.937
  174SOL    HW2 1422   4.015   5.672   3.782
  175SOL     OW 1423   3.092   0.379   1.380
  175SOL    HW1 1424   3.028   0.441   1.335
  175SOL    HW2 1425   3.135   0.425   1.458
  176SOL     OW 1426   6.711   4.607   2.028
  176SOL    HW1 1427   6.632   4.586   2.084
  176SOL    HW2 1428   6.752   4.521   1.995
  177SOL     OW 1429   5.207   3.780   4.244
  177SOL    HW1 1430   5.234   3.875   4.230
  177SOL    HW2 1431   5.184   3.766   4.341
  178SOL     OW 1432   2.823   3.870   5.519
  178SOL    HW1 1433   2.873   3.926   5.453
  178SOL    HW2 1434   2.750   3.821   5.472
  179SOL     OW 1435   4.190   1.336   6.127
  179SOL    HW1 1436   4.138   1.344   6.211
  179SOL    HW2 1437   4.218   1.241   6.114
  180SOL     OW 1438   1.607   6.896   0.981
  180SOL    HW1 1439   1.621   6.817   0.921
  180SOL    HW2 1440   1.676   6.895   1.054
  181SOL     OW 1441   3.325   3.390   6.111
  181SOL    HW1 1442   3.232   3.361   6.089
  181SOL    HW2 1443   3.335   3.488   6.093
  182SOL     OW 1444   4.287   1.923   6.199
  182SOL    HW1 1445   4.282   1.925   6.299
  182SOL    HW2 1446   4.379   1.893   6.171
  183SOL     OW 1447   3.386   1.848   3.578
  183SOL    HW1 1448   3.341   1.842   3.667
  183SOL    HW2 1449   3.421   1.759   3.552
  184SOL     OW 1450   0.581   6.002   3.782
  184SOL    HW1 1451   0.482   6.019   3.789
  184SOL    HW2 1452   0.603   5.969   3.690
  185SOL     OW 1453   1.327   1.179   4.809
  185SOL    HW1 1454   1.356   1.272   4.832
  185SOL    HW2 1455   1.375   1.114   4.866
  186SOL     OW 1456   6.089   1.195   4.165
  186SOL    HW1 1457   6.114   1.099   4.171
  186SOL    HW2 1458   6.012   1.206   4.102
  187SOL     OW 1459   4.783   6.257   2.857
  187SOL    HW1 1460   4.786   6.179   2.794
  187SOL    HW2 1461   4.767   6.341   2.805
  188SOL     OW 1462   1.084   3.226   3.587
  188SOL    HW1 1463   1.170   3.255   3.545
  188SOL    HW2 1464   1.007   3.255   3.530
  189SOL     OW 1465   1.937   5.629   0.229
  189SOL    HW1 1466   2.025   5.676   0.236
  189SOL    HW2 1467   1.932   5.557   0.298
  190SOL     OW 1468   6.124   4.168   5.818
  190SOL    HW1 1469   6.140   4.219   5.733
  190SOL    HW2 1470   6.080   4.227   5.885
  191SOL     OW 1471   6.106   0.459   0.182
  191SOL    HW1 1472   6.092   0.491   0.276
  191SOL    HW2 1473   6.189   0.500   0.145
  192SOL     OW 1474   0.754   5.435   1.542
  192SOL    HW1 1475   0.689   5.381   1.596
  192SOL    HW2 1476   0.720   5.529   1.535
  193SOL     OW 1477   4.373   3.638   5.258
  193SOL    HW1 1478   4.366   3.735   5.283
  193SOL    HW2 1479   4.470   3.612   5.256
  194SOL     OW 1480   4.281   6.588   3.461
  194SOL    HW1 1481   4.198   6.627   3.420
  194SOL    HW2 1482   4.355   6.655   3.457
  195SOL     OW 1483   1.384   0.625   4.259
  195SOL    HW1 1484   1.294   0.616   4.302
  195SOL    HW2 1485   1.455   0.621   4.329
  196SOL     OW 1486   2.612   0.107   6.918
  196SOL    HW1 1487   2.665   0.186   6.887
  196SOL    HW2 1488   2.609   0.039   6.844
  197SOL     OW 1489   2.468   0.020   1.558
  197SOL    HW1 1490   2.429   0.092   1.614
  197SOL    HW2 1491   2.404   7.021   1.485
  198SOL     OW 1492   4.496   6.904   1.910
  198SOL    HW1 1493   4.583   6.896   1.860
  198SOL    HW2 1494   4.514   6.896   2.008
  199SOL     OW 1495   6.286   1.712   3.674
  199SOL    HW1 1496   6.201   1.760   3.652
  199SOL    HW2 1497   6.312   1.655   3.596
  200SOL     OW 1498   1.213   4.241   1.820
  200SOL    HW1 1499   1.289   4.179   1.798
  200SOL    HW2 1500   1.215   4.319   1.758
  201SOL     OW 1501   5.864   0.000   6.082
  201SOL    HW1 1502   5.788   6.984   6.031
  201SOL    HW2 1503   5.857   7.000   6.178
  202SOL     OW 1504   5.264   0.293   5.573
  202SOL    HW1 1505   5.284   0.315   5.478
  202SOL    HW2 1506   5.257   0.378   5.626
  203SOL     OW 1507   4.501   2.586   4.185
  203SOL    HW1 1508   4.585   2.615   4.231
  203SOL    HW2 1509   4.436   2.552   4.253
  204SOL     OW 1510   6.786   0.595   6.074
  204SOL    HW1 1511   6.883   0.604   6.093
  204SOL    HW2 1512   6.734   0.600   6.160
  205SOL     OW 1513   0.676   0.681   3.348
  205SOL    HW1 1514   0.644   0.733   3.428
  205SOL    HW2 1515   0.672   0.583   3.369
  206SOL     OW 1516   0.517   5.387   1.975
  206SOL    HW1 1517   0.478   5.445   2.047
  206SOL    HW2 1518   0.523   5.440   1.890
  207SOL     OW 1519   4.844   0.694   4.067
  207SOL    HW1 1520   4.794   0.718   4.150
  207SOL    HW2 1521   4.785   0.707   3.987
  208SOL     OW 1522   5.466   3.466   5.539
  208SOL    HW1 1523   5.436   3.437   5.447
  208SOL    HW2 1524   5.385   3.484   5.595
  209SOL     OW 1525   0.739   4.871   4.358
  209SOL    HW1 1526   0.820   4.922   4.387
  209SOL    HW2 1527   0.740   4.862   4.258
  210SOL     OW 1528   4.118   1.998   1.306
  210SOL    HW1 1529   4.122   2.096   1.283
  210SOL    HW2 1530   4.121   1.944   1.222
  211SOL     OW 1531   2.042   6.083   3.590
  211SOL    HW1 1532   1.978   6.154   3.616
  211SOL    HW2 1533   2.121   6.084   3.651
  212SOL     OW 1534   1.599   4.367   1.022
  212SOL    HW1 1535   1.663   4.292   1.005
  212SOL    HW2 1536   1.599   4.390   1.119
  213SOL     OW 1537   3.502   0.990   5.868
  213SOL    HW1 1538   3.512   1.089   5.878
  213SOL    HW2 1539   3.592   0.948   5.861
  214SOL     OW 1540   4.531   5.485   1.825
  214SOL    HW1 1541   4.584   5.520   1.902
  214SOL    HW2 1542   4.553   5.539   1.743
  215SOL     OW 1543   2.280   3.573   1.177
  215SOL    HW1 1544   2.316   3.484   1.151
  215SOL    HW2 1545   2.282   3.634   1.097
  216SOL     OW 1546   2.239   5.778   4.491
  216SOL    HW1 1547   2.295   5.829   4.425
  216SOL    HW2 1548   2.281   5.783   4.581
  217SOL     OW 1549   2.248   2.954   3.593
  217SOL    HW1 1550   2.279   3.027   3.532
  217SOL    HW2 1551   2.268   2.865   3.551
  218SOL     OW 1552   1.104   2.541   4.711
  218SOL    HW1 1553   1.005   2.544   4.730
  218SOL    HW2 1554   1.139   2.634   4.703
  219SOL     OW 1555   4.010   6.689   6.174
  219SOL    HW1 1556   3.992   6.591   6.185
  219SOL    HW2 1557   3.945   6.728   6.109
  220SOL     OW 1558   3.705   6.703   0.493
  220SOL    HW1 1559   3.761   6.752   0.559
  220SOL    HW2 1560   3.613   6.742   0.491
  221SOL     OW 1561   6.638   3.795   2.590
  221SOL    HW1 1562   6.623   3.818   2.687
  221SOL    HW2 1563   6.593   3.709   2.569
  222SOL     OW 1564   2.878   4.881   5.706
  222SOL    HW1 1565   2.800   4.914   5.653
  222SOL    HW2 1566   2.888   4.935   5.789
  223SOL     OW 1567   5.912   3.600   1.088
  223SOL    HW1 1568   5.893   3.687   1.135
  223SOL    HW2 1569   5.947   3.620   0.996
  224SOL     OW 1570   2.784   2.207   4.258
  224SOL    HW1 1571   2.784   2.154   4.173
  224SOL    HW2 1572   2.769   2.146   4.336
  225SOL     OW 1573   5.918   2.145   6.197
  225SOL    HW1 1574   5.831   2.096   6.203
  225SOL    HW2 1575   5.918   2.204   6.116
  226SOL     OW 1576   1.835   0.346   6.407
  226SOL    HW1 1577   1.790   0.378   6.324
  226SOL    HW2 1578   1.887   0.421   6.449
  227SOL     OW 1579   1.771   3.492   2.889
  227SOL    HW1 1580   1.780   3.525   2.795
  227SOL    HW2 1581   1.778   3.569   2.952
  228SOL     OW 1582   3.339   6.323   3.296
  228SOL    HW1 1583   3.433   6.324   3.330
  228SOL    HW2 1584   3.301   6.231   3.304
  229SOL     OW 1585   5.022   6.215   0.348
  229SOL    HW1 1586   5.056   6.216   0.254
  229SOL    HW2 1587   4.976   6.302   0.368
  230SOL     OW 1588   2.836   4.896   2.604
  230SOL    HW1 1589   2.747   4.906   2.558
  230SOL    HW2 1590   2.860   4.982   2.649
  231SOL     OW 1591   6.389   1.533   6.314
  231SOL    HW1 1592   6.359   1.548   6.408
  231SOL    HW2 1593   6.481   1.492   6.314
  232SOL     OW 1594   1.173   4.065   6.082
  232SOL    HW1 1595   1.098   4.131   6.083
  232SOL    HW2 1596   1.222   4.072   5.995
  233SOL     OW 1597   2.047   2.140   4.339
  233SOL    HW1 1598   2.080   2.215   4.283
  233SOL    HW2 1599   2.012   2.067   4.280
  234SOL     OW 1600   4.556   6.366   5.131
  234SOL    HW1 1601   4.576   6.417   5.214
  234SOL    HW2 1602   4.477   6.307   5.145
  235SOL     OW 1603   3.441   3.075   1.807
  235SOL    HW1 1604   3.539   3.092   1.806
  235SOL    HW2 1605   3.410   3.068   1.902
  236SOL     OW 1606   5.624   2.781   6.752
  236SOL    HW1 1607   5.703   2.721   6.736
  236SOL    HW2 1608   5.540   2.728   6.752
  237SOL     OW 1609   6.498   5.665   1.979
  237SOL    HW1 1610   6.439   5.736   1.941
  237SOL    HW2 1611   6.565   5.707   2.041
  238SOL     OW 1612   5.824   2.269   0.142
  238SOL    HW1 1613   5.873   2.311   0.065
  238SOL    HW2 1614   5.765   2.197   0.108
  239SOL     OW 1615   0.278   5.448   6.276
  239SOL    HW1 1616   0.238   5.471   6.187
  239SOL    HW2 1617   0.329   5.362   6.268
  240SOL     OW 1618   0.772   2.562   5.523
  240SOL    HW1 1619   0.704   2.506   5.476
  240SOL    HW2 1620   0.729   2.609   5.600
  241SOL     OW 1621   1.712   6.927   4.622
  241SOL    HW1 1622   1.740   6.833   4.601
  241SOL    HW2 1623   1.717   6.982   4.539
  242SOL     OW 1624   2.677   3.638   5.810
  242SOL    HW1 1625   2.613   3.628   5.887
  242SOL    HW2 1626   2.626   3.658   5.727
  243SOL     OW 1627   5.248   0.975   5.869
  243SOL    HW1 1628   5.185   1.004   5.942
  243SOL    HW2 1629   5.212   0.894   5.824
  244SOL     OW 1630   5.081   2.714   4.492
  244SOL    HW1 1631   5.134   2.679   4.415
  244SOL    HW2 1632   5.083   2.648   4.566
  245SOL     OW 1633   6.891   3.766   5.478
  245SOL    HW1 1634   6.859   3.840   5.419
  245SOL    HW2 1635   6.894   3.681   5.426
  246SOL     OW 1636   4.896   2.554   3.225
  246SOL    HW1 1637   4.885   2.539   3.126
  246SOL    HW2 1638   4.874   2.649   3.247
  247SOL     OW 1639   2.826   0.868   1.572
  247SOL    HW1 1640   2.772   0.897   1.493
  247SOL    HW2 1641   2.863   0.948   1.619
  248SOL     OW 1642   3.807   2.114   3.134
  248SOL    HW1 1643   3.890   2.170   3.144
  248SOL    HW2 1644   3.750   2.124   3.215
  249SOL     OW 1645   4.446   0.099   5.916
  249SOL    HW1 1646   4.537   0.139   5.904
  249SOL    HW2 1647   4.455   0.001   5.931
  250SOL     OW 1648   5.871   2.864   0.965
  250SOL    HW1 1649   5.926   2.947   0.978
  250SOL    HW2 1650   5.896   2.796   1.034
  251SOL     OW 1651   4.491   4.173   6.224
  251SOL    HW1 1652   4.458   4.185   6.130
  251SOL    HW2 1653   4.427   4.215   6.288
  252SOL     OW 1654   5.990   0.521   6.561
  252SOL    HW1 1655   5.905   0.563   6.527
  252SOL    HW2 1656   5.987   0.423   6.545
  253SOL     OW 1657   1.799   4.409   6.952
  253SOL    HW1 1658   1.877   4.357   6.987
  253SOL    HW2 1659   1.721   4.349   6.940
  254SOL     OW 1660   5.459   3.578   2.973
  254SOL    HW1 1661   5.460   3.557   2.875
  254SOL    HW2 1662   5.411   3.665   2.987
  255SOL     OW 1663   1.874   3.099   4.197
  255SOL    HW1 1664   1.822   3.163   4.254
  255SOL    HW2 1665   1.818   3.068   4.121
  256SOL     OW 1666   6.065   4.775   6.490
  256SOL    HW1 1667   5.965   4.774   6.488
  256SOL    HW2 1668   6.100   4.690   6.450
  257SOL     OW 1669   4.684   0.050   4.083
  257SOL    HW1 1670   4.612   0.119   4.093
  257SOL    HW2 1671   4.766   0.092   4.044
  258SOL     OW 1672   6.904   5.093   4.848
  258SOL    HW1 1673   6.920   4.995   4.855
  258SOL    HW2 1674   6.855   5.113   4.763
  259SOL     OW 1675   1.467   2.347   2.196
  259SOL    HW1 1676   1.424   2.400   2.122
  259SOL    HW2 1677   1.560   2.380   2.211
  260SOL     OW 1678   4.341   0.740   0.961
  260SOL    HW1 1679   4.340   0.651   0.914
  260SOL    HW2 1680   4.248   0.777   0.963
  261SOL     OW 1681   0.028   3.834   1.314
  261SOL    HW1 1682   0.017   3.932   1.297
  261SOL    HW2 1683   0.026   3.785   1.228
  262SOL     OW 1684   0.307   4.107   1.175
  262SOL    HW1 1685   0.277   4.016   1.147
  262SOL    HW2 1686   0.288   4.173   1.102
  263SOL     OW 1687   0.750   1.612   4.141
  263SOL    HW1 1688   0.816   1.593   4.214
  263SOL    HW2 1689   0.692   1.532   4.127
  264SOL     OW 1690   4.869   3.673   5.895
  264SOL    HW1 1691   4.934   3.740   5.930
  264SOL    HW2 1692   4.860   3.597   5.960
  265SOL     OW 1693   4.512   4.554   3.334
  265SOL    HW1 1694   4.486   4.647   3.311
  265SOL    HW2 1695   4.486   4.493   3.259
  266SOL     OW 1696   3.925   4.006   5.773
  266SOL    HW1 1697   3.992   3.940   5.741
  266SOL    HW2 1698   3.972   4.090   5.802
  267SOL     OW 1699   6.099   2.232   5.978
  267SOL    HW1 1700   6.146   2.143   5.984
  267SOL    HW2 1701   6.156   2.302   6.021
  268SOL     OW 1702   4.435   0.087   5.088
  268SOL    HW1 1703   4.465   0.183   5.093
  268SOL    HW2 1704   4.515   0.028   5.085
  269SOL     OW 1705   1.710   2.948   0.939
  269SOL    HW1 1706   1.710   3.018   0.869
  269SOL    HW2 1707   1.617   2.911   0.949
  270SOL     OW 1708   6.671   0.031   1.520
  270SOL    HW1 1709   6.601   0.035   1.591
  270SOL    HW2 1710   6.633   0.066   1.434
  271SOL     OW 1711   2.799   1.717   0.439
  271SOL    HW1 1712   2.894   1.697   0.414
  271SOL    HW2 1713   2.777   1.671   0.525
  272SOL     OW 1714   3.421   5.351   4.092
  272SOL    HW1 1715   3.391   5.269   4.043
  272SOL    HW2 1716   3.425   5.332   4.190
  273SOL     OW 1717   2.222   5.114   5.159
  273SOL    HW1 1718   2.243   5.089   5.064
  273SOL    HW2 1719   2.294   5.079   5.219
  274SOL     OW 1720   4.669   2.823   3.817
  274SOL    HW1 1721   4.616   2.748   3.856
  274SOL    HW2 1722   4.607   2.897   3.791
  275SOL     OW 1723   6.203   5.796   5.863
  275SOL    HW1 1724   6.273   5.730   5.836
  275SOL    HW2 1725   6.201   5.870   5.795
  276SOL     OW 1726   0.842   5.525   3.145
  276SOL    HW1 1727   0.859   5.472   3.228
  276SOL    HW2 1728   0.780   5.475   3.085
  277SOL     OW 1729   2.352   3.050   0.860
  277SOL    HW1 1730   2.312   3.139   0.840
  277SOL    HW2 1731   2.309   3.012   0.942
  278SOL     OW 1732   0.108   5.380   1.857
  278SOL    HW1 1733   0.168   5.302   1.875
  278SOL    HW2 1734   0.162   5.454   1.816
  279SOL     OW 1735   0.194   3.050   4.184
  279SOL    HW1 1736   0.204   3.035   4.282
  279SOL    HW2 1737   0.281   3.083   4.146
  280SOL     OW 1738   2.147   6.785   2.877
  280SOL    HW1 1739   2.196   6.714   2.826
  280SOL    HW2 1740   2.135   6.755   2.972
  281SOL     OW 1741   3.370   4.891   2.188
  281SOL    HW1 1742   3.352   4.989   2.174
  281SOL    HW2 1743   3.438   4.860   2.122
  282SOL     OW 1744   4.144   2.193   5.511
  282SOL    HW1 1745   4.064   2.153   5.556
  282SOL    HW2 1746   4.136   2.293   5.513
  283SOL     OW 1747   6.769   1.293   6.174
  283SOL    HW1 1748   6.748   1.280   6.271
  283SOL    HW2 1749   6.692   1.338   6.129
  284SOL     OW 1750   0.119   4.489   4.884
  284SOL    HW1 1751   0.133   4.472   4.786
  284SOL    HW2 1752   0.083   4.406   4.927
  285SOL     OW 1753   5.206   5.347   6.538
  285SOL    HW1 1754   5.233   5.442   6.552
  285SOL    HW2 1755   5.220   5.296   6.623
  286SOL     OW 1756   3.326   5.145   5.189
  286SOL    HW1 1757   3.323   5.063   5.131
  286SOL    HW2 1758   3.232   5.172   5.212
  287SOL     OW 1759   0.490   4.685   6.444
  287SOL    HW1 1760   0.464   4.695   6.540
  287SOL    HW2 1761   0.411   4.653   6.391
  288SOL     OW 1762   4.248   2.265   0.128
  288SOL    HW1 1763   4.269   2.343   0.069
  288SOL    HW2 1764   4.179   2.291   0.195
  289SOL     OW 1765   0.456   5.227   5.095
  289SOL    HW1 1766   0.476   5.184   5.183
  289SOL    HW2 1767   0.365   5.201   5.064
  290SOL     OW 1768   4.857   1.367   3.693
  290SOL    HW1 1769   4.955   1.361   3.673
  290SOL    HW2 1770   4.828   1.286   3.743
  291SOL     OW 1771   3.162   0.771   4.857
  291SOL    HW1 1772   3.159   0.711   4.777
  291SOL    HW2 1773   3.075   0.765   4.906
  292SOL     OW 1774   3.209   1.785   2.557
  292SOL    HW1 1775   3.190   1.882   2.541
  292SOL    HW2 1776   3.307   1.772   2.572
  293SOL     OW 1777   4.591   5.208   2.157
  293SOL    HW1 1778   4.518   5.145   2.131
  293SOL    HW2 1779   4.645   5.231   2.077
  294SOL     OW 1780   7.004   5.388   6.214
  294SOL    HW1 1781   6.932   5.342   6.163
  294SOL    HW2 1782   7.022   5.338   6.299
  295SOL     OW 1783   3.370   1.293   5.075
  295SOL    HW1 1784   3.273   1.266   5.078
  295SOL    HW2 1785   3.390   1.335   4.987
  296SOL     OW 1786   6.030   1.704   2.273
  296SOL    HW1 1787   5.990   1.673   2.187
  296SOL    HW2 1788   6.060   1.798   2.263
  297SOL     OW 1789   2.759   4.664   2.448
  297SOL    HW1 1790   2.780   4.697   2.356
  297SOL    HW2 1791   2.805   4.723   2.515
  298SOL     OW 1792   3.456   6.302   0.565
  298SOL    HW1 1793   3.535   6.259   0.607
  298SOL    HW2 1794   3.438   6.390   0.609
  299SOL     OW 1795   4.557   2.919   0.026
  299SOL    HW1 1796   4.629   2.856   7.022
  299SOL    HW2 1797   4.530   2.976   6.974
  300SOL     OW 1798   5.057   0.845   1.555
  300SOL    HW1 1799   5.019   0.753   1.568
  300SOL    HW2 1800   5.003   0.893   1.486
  301SOL     OW 1801   5.395   2.948   0.714
  301SOL    HW1 1802   5.414   3.027   0.771
  301SOL    HW2 1803   5.403   2.974   0.618
  302SOL     OW 1804   0.032   0.786   3.655
  302SOL    HW1 1805   6.982   0.736   3.697
  302SOL    HW2 1806   0.045   0.873   3.702
  303SOL     OW 1807   6.962   6.554   2.335
  303SOL    HW1 1808   0.018   6.503   2.309
  303SOL    HW2 1809   6.976   6.651   2.316
  304SOL     OW 1810   2.137   6.428   5.899
  304SOL    HW1 1811   2.178   6.441   5.989
  304SOL    HW2 1812   2.206   6.440   5.828
  305SOL     OW 1813   1.448   2.670   0.444
  305SOL    HW1 1814   1.488   2.699   0.531
  305SOL    HW2 1815   1.403   2.749   0.401
  306SOL     OW 1816   1.918   0.724   3.352
  306SOL    HW1 1817   1.912   0.772   3.265
  306SOL    HW2 1818   1.921   0.791   3.427
  307SOL     OW 1819   5.067   5.155   0.632
  307SOL    HW1 1820   5.059   5.188   0.726
  307SOL    HW2 1821   5.069   5.233   0.570
  308SOL     OW 1822   5.271   3.180   4.198
  308SOL    HW1 1823   5.249   3.278   4.205
  308SOL    HW2 1824   5.257   3.137   4.287
  309SOL     OW 1825   2.157   5.333   0.078
  309SOL    HW1 1826   2.174   5.237   0.054
  309SOL    HW2 1827   2.165   5.343   0.177
  310SOL     OW 1828   5.283   6.741   6.018
  310SOL    HW1 1829   5.334   6.783   5.943
  310SOL    HW2 1830   5.203   6.694   5.982
  311SOL     OW 1831   4.097   4.967   2.509
  311SOL    HW1 1832   4.141   4.937   2.425
  311SOL    HW2 1833   4.140   5.051   2.541
  312SOL     OW 1834   4.328   0.983   4.235
  312SOL    HW1 1835   4.256   1.027   4.181
  312SOL    HW2 1836   4.289   0.905   4.284
  313SOL     OW 1837   3.007   3.568   2.056
  313SOL    HW1 1838   3.019   3.659   2.094
  313SOL    HW2 1839   3.091   3.516   2.066
  314SOL     OW 1840   2.630   4.365   6.686
  314SOL    HW1 1841   2.703   4.300   6.707
  314SOL    HW2 1842   2.574   4.329   6.611
  315SOL     OW 1843   1.260   3.214   3.985
  315SOL    HW1 1844   1.354   3.181   3.994
  315SOL    HW2 1845   1.232   3.257   4.071
  316SOL     OW 1846   2.904   1.343   4.395
  316SOL    HW1 1847   2.915   1.284   4.315
  316SOL    HW2 1848   2.977   1.412   4.397
  317SOL     OW 1849   6.933   1.278   1.231
  317SOL    HW1 1850   0.007   1.286   1.231
  317SOL    HW2 1851   6.901   1.264   1.137
  318SOL     OW 1852   0.595   5.863   6.361
  318SOL    HW1 1853   0.512   5.827   6.403
  318SOL    HW2 1854   0.575   5.891   6.267
  319SOL     OW 1855   6.289   1.552   3.409
  319SOL    HW1 1856   6.337   1.629   3.369
  319SOL    HW2 1857   6.348   1.506   3.476
  320SOL     OW 1858   6.253   2.423   1.270
  320SOL    HW1 1859   6.180   2.480   1.308
  320SOL    HW2 1860   6.233   2.326   1.289
  321SOL     OW 1861   3.287   1.296   0.329
  321SOL    HW1 1862   3.209   1.354   0.305
  321SOL    HW2 1863   3.346   1.345   0.393
  322SOL     OW 1864   3.321   3.060   3.714
  322SOL    HW1 1865   3.397   3.111   3.755
  322SOL    HW2 1866   3.239   3.072   3.770
  323SOL     OW 1867   1.372   3.099   6.293
  323SOL    HW1 1868   1.333   3.191   6.283
  323SOL    HW2 1869   1.299   3.031   6.288
  324SOL     OW 1870   2.907   0.449   4.026
  324SOL    HW1 1871   2.940   0.515   4.094
  324SOL    HW2 1872   2.810   0.464   4.009
  325SOL     OW 1873   0.388   2.693   1.678
  325SOL    HW1 1874   0.477   2.675   1.719
  325SOL    HW2 1875   0.347   2.606   1.649
  326SOL     OW 1876   0.924   5.073   6.820
  326SOL    HW1 1877   0.879   5.006   6.760
  326SOL    HW2 1878   0.996   5.119   6.769
  327SOL     OW 1879   1.379   4.317   3.103
  327SOL    HW1 1880   1.317   4.317   3.182
  327SOL    HW2 1881   1.452   4.383   3.119
  328SOL     OW 1882   1.531   5.538   1.706
  328SOL    HW1 1883   1.630   5.523   1.701
  328SOL    HW2 1884   1.513   5.635   1.717
  329SOL     OW 1885   3.516   2.853   4.143
  329SOL    HW1 1886   3.529   2.851   4.243
  329SOL    HW2 1887   3.605   2.869   4.099
  330SOL     OW 1888   3.493   6.125   1.374
  330SOL    HW1 1889   3.568   6.102   1.436
  330SOL    HW2 1890   3.445   6.206   1.409
  331SOL     OW 1891   3.889   5.618   0.283
  331SOL    HW1 1892   3.855   5.606   0.377
  331SOL    HW2 1893   3.817   5.594   0.219
  332SOL     OW 1894   4.763   2.477   4.957
  332SOL    HW1 1895   4.798   2.430   4.876
  332SOL    HW2 1896   4.718   2.562   4.928
  333SOL     OW 1897   3.414   0.465   6.428
  333SOL    HW1 1898   3.323   0.462   6.469
  333SOL    HW2 1899   3.433   0.378   6.382
  334SOL     OW 1900   3.147   1.089   1.170
  334SOL    HW1 1901   3.109   1.025   1.237
  334SOL    HW2 1902   3.075   1.119   1.108
  335SOL     OW 1903   4.202   0.091   5.223
  335SOL    HW1 1904   4.196   0.053   5.315
  335SOL    HW2 1905   4.283   0.055   5.177
  336SOL     OW 1906   2.583   1.097   3.604
  336SOL    HW1 1907   2.545   1.054   3.521
  336SOL    HW2 1908   2.560   1.041   3.684
  337SOL     OW 1909   0.654   2.685   6.651
  337SOL    HW1 1910   0.637   2.705   6.748
  337SOL    HW2 1911   0.663   2.771   6.601
  338SOL     OW 1912   3.240   2.848   1.574
  338SOL    HW1 1913   3.217   2.792   1.494
  338SOL    HW2 1914   3.281   2.790   1.645
  339SOL     OW 1915   3.982   6.046   4.093
  339SOL    HW1 1916   3.954   6.098   4.174
  339SOL    HW2 1917   3.963   6.100   4.011
  340SOL     OW 1918   4.733   4.405   5.040
  340SOL    HW1 1919   4.699   4.471   5.108
  340SOL    HW2 1920   4.700   4.314   5.064
  341SOL     OW 1921   6.511   0.217   4.508
  341SOL    HW1 1922   6.464   0.218   4.596
  341SOL    HW2 1923   6.526   0.122   4.480
  342SOL     OW 1924   5.962   3.653   6.982
  342SOL    HW1 1925   6.003   3.692   0.039
  342SOL    HW2 1926   6.034   3.620   6.921
  343SOL     OW 1927   1.735   5.710   0.952
  343SOL    HW1 1928   1.663   5.688   0.886
  343SOL    HW2 1929   1.729   5.647   1.030
  344SOL     OW 1930   1.297   3.561   2.168
  344SOL    HW1 1931   1.374   3.592   2.224
  344SOL    HW2 1932   1.327   3.550   2.073
  345SOL     OW 1933   4.120   1.943   2.694
  345SOL    HW1 1934   4.152   2.019   2.638
  345SOL    HW2 1935   4.196   1.882   2.714
  346SOL     OW 1936   2.240   0.746   3.084
  346SOL    HW1 1937   2.306   0.685   3.129
  346SOL    HW2 1938   2.160   0.692   3.056
  347SOL     OW 1939   2.918   5.908   6.911
  347SOL    HW1 1940   2.977   5.880   6.987
  347SOL    HW2 1941   2.945   5.859   6.828
  348SOL     OW 1942   5.433   4.641   2.062
  348SOL    HW1 1943   5.452   4.552   2.020
  348SOL    HW2 1944   5.517   4.676   2.104
  349SOL     OW 1945   6.838   5.419   1.164
  349SOL    HW1 1946   6.896   5.373   1.232
  349SOL    HW2 1947   6.878   5.408   1.073
  350SOL     OW 1948   3.235   3.129   0.616
  350SOL    HW1 1949   3.185   3.216   0.613
  350SOL    HW2 1950   3.205   3.071   0.540
  351SOL     OW 1951   1.890   3.194   1.588
  351SOL    HW1 1952   1.850   3.103   1.573
  351SOL    HW2 1953   1.952   3.216   1.514
  352SOL     OW 1954   2.836   0.321   4.717
  352SOL    HW1 1955   2.793   0.371   4.641
  352SOL    HW2 1956   2.906   0.379   4.759
  353SOL     OW 1957   1.876   0.267   0.922
  353SOL    HW1 1958   1.819   0.266   1.005
  353SOL    HW2 1959   1.824   0.227   0.846
  354SOL     OW 1960   3.919   2.482   1.142
  354SOL    HW1 1961   3.910   2.568   1.192
  354SOL    HW2 1962   3.857   2.415   1.181
  355SOL     OW 1963   1.190   3.794   2.388
  355SOL    HW1 1964   1.221   3.702   2.365
  355SOL    HW2 1965   1.147   3.793   2.479
  356SOL     OW 1966   2.915   0.190   6.003
  356SOL    HW1 1967   2.876   0.246   6.076
  356SOL    HW2 1968   2.897   0.093   6.021
  357SOL     OW 1969   6.711   5.886   6.261
  357SOL    HW1 1970   6.623   5.901   6.217
  357SOL    HW2 1971   6.747   5.797   6.234
  358SOL     OW 1972   4.183   6.761   0.392
  358SOL    HW1 1973   4.164   6.733   0.487
  358SOL    HW2 1974   4.180   6.861   0.386
  359SOL     OW 1975   2.258   2.390   1.822
  359SOL    HW1 1976   2.316   2.309   1.812
  359SOL    HW2 1977   2.163   2.366   1.801
  360SOL     OW 1978   1.017   5.079   6.117
  360SOL    HW1 1979   0.950   5.029   6.172
  360SOL    HW2 1980   1.037   5.167   6.160
  361SOL     OW 1981   5.940   6.477   2.886
  361SOL    HW1 1982   6.008   6.472   2.960
  361SOL    HW2 1983   5.898   6.388   2.873
  362SOL     OW 1984   3.631   3.295   1.161
  362SOL    HW1 1985   3.569   3.299   1.239
  362SOL    HW2 1986   3.710   3.353   1.178
  363SOL     OW 1987   5.117   4.192   3.227
  363SOL    HW1 1988   5.156   4.146   3.147
  363SOL    HW2 1989   5.091   4.286   3.202
  364SOL     OW 1990   6.585   5.367   6.654
  364SOL    HW1 1991   6.512   5.333   6.713
  364SOL    HW2 1992   6.635   5.440   6.700
  365SOL     OW 1993   6.220   6.037   2.147
  365SOL    HW1 1994   6.148   6.055   2.080
  365SOL    HW2 1995   6.302   6.089   2.122
  366SOL     OW 1996   5.771   0.892   6.045
  366SOL    HW1 1997   5.825   0.891   6.129
  366SOL    HW2 1998   5.681   0.932   6.063
  367SOL     OW 1999   5.604   3.470   1.112
  367SOL    HW1 2000   5.688   3.415   1.110
  367SOL    HW2 2001   5.586   3.500   1.205
  368SOL     OW 2002   6.945   3.276   4.786
  368SOL    HW1 2003   6.938   3.203   4.855
  368SOL    HW2 2004   6.954   3.235   4.695
  369SOL     OW 2005   6.189   5.114   2.435
  369SOL    HW1 2006   6.216   5.129   2.340
  369SOL    HW2 2007   6.249   5.168   2.495
  370SOL     OW 2008   2.510   1.233   5.580
  370SOL    HW1 2009   2.497   1.303   5.510
  370SOL    HW2 2010   2.592   1.180   5.561
  371SOL     OW 2011   2.107   3.840   6.033
  371SOL    HW1 2012   2.178   3.891   5.985
  371SOL    HW2 2013   2.132   3.831   6.129
  372SOL     OW 2014   0.956   6.915   6.110
  372SOL    HW1 2015   0.948   6.997   6.054
  372SOL    HW2 2016   0.893   6.920   6.187
  373SOL     OW 2017   6.398   6.271   4.963
  373SOL    HW1 2018   6.445   6.356   4.938
  373SOL    HW2 2019   6.382   6.216   4.881
  374SOL     OW 2020   2.801   1.956   4.015
  374SOL    HW1 2021   2.882   1.908   3.981
  374SOL    HW2 2022   2.772   1.915   4.101
  375SOL     OW 2023   0.753   4.036   4.032
  375SOL    HW1 2024   0.846   4.026   4.067
  375SOL    HW2 2025   0.719   4.128   4.053
  376SOL     OW 2026   2.557   1.153   5.185
  376SOL    HW1 2027   2.652   1.137   5.212
  376SOL    HW2 2028   2.507   1.067   5.186
  377SOL     OW 2029   1.309   1.814   1.242
  377SOL    HW1 2030   1.320   1.721   1.207
  377SOL    HW2 2031   1.398   1.853   1.263
  378SOL     OW 2032   4.402   2.735   6.593
  378SOL    HW1 2033   4.340   2.770   6.663
  378SOL    HW2 2034   4.428   2.809   6.531
  379SOL     OW 2035   6.393   3.596   1.193
  379SOL    HW1 2036   6.295   3.611   1.186
  379SOL    HW2 2037   6.437   3.624   1.108
  380SOL     OW 2038   2.467   1.385   0.796
  380SOL    HW1 2039   2.397   1.313   0.797
  380SOL    HW2 2040   2.458   1.439   0.713
  381SOL     OW 2041   1.444   3.602   2.761
  381SOL    HW1 2042   1.482   3.585   2.852
  381SOL    HW2 2043   1.362   3.657   2.768
  382SOL     OW 2044   5.957   0.252   6.560
  382SOL    HW1 2045   5.863   0.228   6.585
  382SOL    HW2 2046   5.988   0.193   6.485
  383SOL     OW 2047   4.218   3.928   6.114
  383SOL    HW1 2048   4.253   4.007   6.064
  383SOL    HW2 2049   4.123   3.944   6.139
  384SOL     OW 2050   6.763   5.521   4.087
  384SOL    HW1 2051   6.805   5.580   4.018
  384SOL    HW2 2052   6.664   5.528   4.080
  385SOL     OW 2053   3.993   5.364   5.321
  385SOL    HW1 2054   3.893   5.371   5.321
  385SOL    HW2 2055   4.022   5.282   5.271
  386SOL     OW 2056   2.054   6.594   5.466
  386SOL    HW1 2057   2.107   6.678   5.456
  386SOL    HW2 2058   2.041   6.575   5.563
  387SOL     OW 2059   1.212   6.824   3.558
  387SOL    HW1 2060   1.282   6.831   3.486
  387SOL    HW2 2061   1.219   6.734   3.602
  388SOL     OW 2062   1.541   1.778   4.561
  388SOL    HW1 2063   1.489   1.824   4.633
  388SOL    HW2 2064   1.560   1.684   4.588
  389SOL     OW 2065   3.764   4.438   1.229
  389SOL    HW1 2066   3.817   4.372   1.177
  389SOL    HW2 2067   3.704   4.391   1.293
  390SOL     OW 2068   3.368   1.245   0.067
  390SOL    HW1 2069   3.461   1.255   0.031
  390SOL    HW2 2070   3.368   1.266   0.165
  391SOL     OW 2071   2.313   3.468   6.056
  391SOL    HW1 2072   2.219   3.436   6.068
  391SOL    HW2 2073   2.357   3.415   5.983
  392SOL     OW 2074   1.514   4.287   0.560
  392SOL    HW1 2075   1.563   4.373   0.549
  392SOL    HW2 2076   1.536   4.227   0.482
  393SOL     OW 2077   1.396   4.685   6.265
  393SOL    HW1 2078   1.365   4.664   6.173
  393SOL    HW2 2079   1.366   4.612   6.327
  394SOL     OW 2080   7.010   2.424   0.800
  394SOL    HW1 2081   0.070   2.476   0.800
  394SOL    HW2 2082   6.963   2.438   0.713
  395SOL     OW 2083   5.069   4.454   3.176
  395SOL    HW1 2084   4.998   4.498   3.231
  395SOL    HW2 2085   5.121   4.524   3.126
  396SOL     OW 2086   2.804   3.441   1.916
  396SOL    HW1 2087   2.728   3.429   1.980
  396SOL    HW2 2088   2.878   3.490   1.962
  397SOL     OW 2089   5.629   1.692   6.246
  397SOL    HW1 2090   5.700   1.667   6.180
  397SOL    HW2 2091   5.650   1.780   6.288
  398SOL     OW 2092   1.403   0.169   3.367
  398SOL    HW1 2093   1.320   0.221   3.345
  398SOL    HW2 2094   1.478   0.198   3.307
  399SOL     OW 2095   5.151   6.436   3.163
  399SOL    HW1 2096   5.118   6.421   3.256
  399SOL    HW2 2097   5.078   6.416   3.098
  400SOL     OW 2098   6.124   6.739   5.248
  400SOL    HW1 2099   6.192   6.744   5.176
  400SOL    HW2 2100   6.152   6.669   5.315
  401SOL     OW 2101   5.442   0.055   6.590
  401SOL    HW1 2102   5.360   0.045   6.535
  401SOL    HW2 2103   5.475   0.150   6.584
  402SOL     OW 2104   6.630   0.052   3.830
  402SOL    HW1 2105   6.572   0.107   3.770
  402SOL    HW2 2106   6.627   6.982   3.800
  403SOL     OW 2107   4.077   1.456   5.010
  403SOL    HW1 2108   4.049   1.444   4.915
  403SOL    HW2 2109   3.999   1.436   5.070
  404SOL     OW 2110   1.713   5.020   3.943
  404SOL    HW1 2111   1.788   4.979   3.890
  404SOL    HW2 2112   1.668   4.948   3.997
  405SOL     OW 2113   2.169   3.154   2.754
  405SOL    HW1 2114   2.085   3.207   2.749
  405SOL    HW2 2115   2.189   3.115   2.664
  406SOL     OW 2116   0.609   4.497   4.641
  406SOL    HW1 2117   0.607   4.522   4.738
  406SOL    HW2 2118   0.571   4.405   4.630
  407SOL     OW 2119   0.329   1.333   4.871
  407SOL    HW1 2120   0.357   1.395   4.945
  407SOL    HW2 2121   0.391   1.254   4.869
  408SOL     OW 2122   2.367   2.200   3.051
  408SOL    HW1 2123   2.300   2.260   3.095
  408SOL    HW2 2124   2.323   2.114   3.025
  409SOL     OW 2125   6.304   3.602   2.253
  409SOL    HW1 2126   6.391   3.569   2.215
  409SOL    HW2 2127   6.238   3.613   2.179
  410SOL     OW 2128   1.171   1.620   0.915
  410SOL    HW1 2129   1.108   1.618   0.993
  410SOL    HW2 2130   1.232   1.541   0.920
  411SOL     OW 2131   6.813   1.063   1.374
  411SOL    HW1 2132   6.872   1.022   1.443
  411SOL    HW2 2133   6.861   1.139   1.330
  412SOL     OW 2134   3.257   6.063   3.316
  412SOL    HW1 2135   3.165   6.076   3.351
  412SOL    HW2 2136   3.302   5.989   3.367
  413SOL     OW 2137   5.510   4.194   1.924
  413SOL    HW1 2138   5.505   4.095   1.923
  413SOL    HW2 2139   5.606   4.223   1.920
  414SOL     OW 2140   3.699   5.340   3.259
  414SOL    HW1 2141   3.630   5.297   3.200
  414SOL    HW2 2142   3.689   5.439   3.256
  415SOL     OW 2143   0.487   6.819   6.147
  415SOL    HW1 2144   0.448   6.820   6.239
  415SOL    HW2 2145   0.417   6.849   6.081
  416SOL     OW 2146   4.674   6.396   4.876
  416SOL    HW1 2147   4.678   6.495   4.879
  416SOL    HW2 2148   4.634   6.362   4.961
  417SOL     OW 2149   2.308   6.445   5.679
  417SOL    HW1 2150   2.266   6.410   5.595
  417SOL    HW2 2151   2.405   6.465   5.662
  418SOL     OW 2152   3.735   6.729   6.484
  418SOL    HW1 2153   3.668   6.768   6.548
  418SOL    HW2 2154   3.826   6.762   6.508
  419SOL     OW 2155   1.401   6.026   2.568
  419SOL    HW1 2156   1.470   6.048   2.637
  419SOL    HW2 2157   1.359   6.110   2.534
  420SOL     OW 2158   6.056   1.680   0.188
  420SOL    HW1 2159   6.148   1.645   0.204
  420SOL    HW2 2160   5.991   1.630   0.245
  421SOL     OW 2161   6.418   4.100   5.074
  421SOL    HW1 2162   6.461   4.010   5.082
  421SOL    HW2 2163   6.327   4.097   5.114
  422SOL     OW 2164   5.214   3.946   1.515
  422SOL    HW1 2165   5.206   3.914   1.420
  422SOL    HW2 2166   5.139   3.907   1.569
  423SOL     OW 2167   1.105   2.430   6.491
  423SOL    HW1 2168   1.138   2.523   6.474
  423SOL    HW2 2169   1.024   2.412   6.435
  424SOL     OW 2170   1.655   4.784   1.301
  424SOL    HW1 2171   1.615   4.780   1.393
  424SOL    HW2 2172   1.660   4.880   1.272
  425SOL     OW 2173   4.870   2.063   3.254
  425SOL    HW1 2174   4.900   2.127   3.183
  425SOL    HW2 2175   4.907   1.972   3.235
  426SOL     OW 2176   2.725   1.995   4.737
  426SOL    HW1 2177   2.727   1.896   4.746
  426SOL    HW2 2178   2.639   2.030   4.775
  427SOL     OW 2179   5.706   6.807   3.740
  427SOL    HW1 2180   5.724   6.900   3.711
  427SOL    HW2 2181   5.791   6.764   3.771
  428SOL     OW 2182   4.087   6.912   3.165
  428SOL    HW1 2183   4.145   6.993   3.158
  428SOL    HW2 2184   4.052   6.887   3.075
  429SOL     OW 2185   0.984   5.102   3.094
  429SOL    HW1 2186   0.975   5.060   3.004
  429SOL    HW2 2187   0.919   5.177   3.102
  430SOL     OW 2188   1.501   6.057   4.027
  430SOL    HW1 2189   1.447   6.133   4.064
  430SOL    HW2 2190   1.587   6.049   4.078
  431SOL     OW 2191   3.184   0.236   1.153
  431SOL    HW1 2192   3.200   0.137   1.153
  431SOL    HW2 2193   3.157   0.265   1.245
  432SOL     OW 2194   6.416   2.171   1.512
  432SOL    HW1 2195   6.443   2.267   1.511
  432SOL    HW2 2196   6.428   2.133   1.420
  433SOL     OW 2197   2.320   6.815   5.381
  433SOL    HW1 2198   2.407   6.781   5.344
  433SOL    HW2 2199   2.257   6.834   5.306
  434SOL     OW 2200   3.834   5.540   3.084
  434SOL    HW1 2201   3.875   5.595   3.011
  434SOL    HW2 2202   3.735   5.542   3.075
  435SOL     OW 2203   4.424   2.183   6.542
  435SOL    HW1 2204   4.518   2.217   6.537
  435SOL    HW2 2205   4.385   2.206   6.631
  436SOL     OW 2206   2.950   5.053   1.718
  436SOL    HW1 2207   2.954   4.954   1.728
  436SOL    HW2 2208   3.039   5.093   1.738
  437SOL     OW 2209   0.685   0.898   6.234
  437SOL    HW1 2210   0.659   0.872   6.142
  437SOL    HW2 2211   0.638   0.983   6.259
  438SOL     OW 2212   2.188   4.039   4.323
  438SOL    HW1 2213   2.168   4.059   4.227
  438SOL    HW2 2214   2.152   3.949   4.346
  439SOL     OW 2215   6.085   6.142   2.685
  439SOL    HW1 2216   5.993   6.118   2.715
  439SOL    HW2 2217   6.131   6.195   2.756
  440SOL     OW 2218   2.678   2.078   5.451
  440SOL    HW1 2219   2.732   2.059   5.533
  440SOL    HW2 2220   2.602   2.139   5.474
  441SOL     OW 2221   0.502   3.156   3.439
  441SOL    HW1 2222   0.594   3.195   3.440
  441SOL    HW2 2223   0.501   3.074   3.384
  442SOL     OW 2224   4.176   6.021   5.217
  442SOL    HW1 2225   4.159   5.925   5.242
  442SOL    HW2 2226   4.089   6.068   5.204
  443SOL     OW 2227   5.748   4.382   4.490
  443SOL    HW1 2228   5.810   4.320   4.442
  443SOL    HW2 2229   5.752   4.364   4.588
  444SOL     OW 2230   5.240   0.781   6.448
  444SOL    HW1 2231   5.166   0.847   6.463
  444SOL    HW2 2232   5.202   0.690   6.437
  445SOL     OW 2233   1.729   5.585   2.898
  445SOL    HW1 2234   1.718   5.518   2.972
  445SOL    HW2 2235   1.824   5.583   2.866
  446SOL     OW 2236   4.202   4.839   2.835
  446SOL    HW1 2237   4.111   4.845   2.795
  446SOL    HW2 2238   4.229   4.929   2.869
  447SOL     OW 2239   0.142   3.200   5.852
  447SOL    HW1 2240   0.054   3.212   5.898
  447SOL    HW2 2241   0.149   3.108   5.815
  448SOL     OW 2242   2.424   0.562   2.740
  448SOL    HW1 2243   2.466   0.542   2.829
  448SOL    HW2 2244   2.324   0.559   2.749
  449SOL     OW 2245   2.789   1.273   3.934
  449SOL    HW1 2246   2.782   1.364   3.892
  449SOL    HW2 2247   2.857   1.219   3.884
  450SOL     OW 2248   1.551   4.839   3.523
  450SOL    HW1 2249   1.490   4.882   3.590
  450SOL    HW2 2250   1.644   4.835   3.560
  451SOL     OW 2251   1.711   2.039   4.818
  451SOL    HW1 2252   1.635   2.077   4.765
  451SOL    HW2 2253   1.686   2.034   4.914
  452SOL     OW 2254   4.933   6.619   0.630
  452SOL    HW1 2255   4.892   6.700   0.671
  452SOL    HW2 2256   4.862   6.549   0.616
  453SOL     OW 2257   3.368   0.536   6.947
  453SOL    HW1 2258   3.413   0.557   6.860
  453SOL    HW2 2259   3.429   0.560   7.023
  454SOL     OW 2260   6.786   3.812   6.571
  454SOL    HW1 2261   6.774   3.827   6.473
  454SOL    HW2 2262   6.884   3.811   6.593
  455SOL     OW 2263   5.065   2.545   4.736
  455SOL    HW1 2264   4.982   2.489   4.740
  455SOL    HW2 2265   5.137   2.500   4.788
  456SOL     OW 2266   0.660   6.868   4.199
  456SOL    HW1 2267   0.759   6.863   4.207
  456SOL    HW2 2268   0.618   6.788   4.240
  457SOL     OW 2269   1.996   4.353   4.529
  457SOL    HW1 2270   1.914   4.313   4.489
  457SOL    HW2 2271   2.077   4.320   4.480
  458SOL     OW 2272   2.735   6.228   2.767
  458SOL    HW1 2273   2.826   6.212   2.805
  458SOL    HW2 2274   2.692   6.141   2.745
  459SOL     OW 2275   2.445   6.905   6.443
  459SOL    HW1 2276   2.349   6.909   6.417
  459SOL    HW2 2277   2.479   6.812   6.433
  460SOL     OW 2278   1.939   0.095   4.473
  460SOL    HW1 2279   1.955   0.083   4.375
  460SOL    HW2 2280   1.857   0.149   4.486
  461SOL     OW 2281   7.012   5.392   5.398
  461SOL    HW1 2282   6.916   5.376   5.376
  461SOL    HW2 2283   7.018   5.432   5.490
  462SOL     OW 2284   4.296   3.237   6.275
  462SOL    HW1 2285   4.210   3.223   6.323
  462SOL    HW2 2286   4.371   3.245   6.341
  463SOL     OW 2287   6.542   6.649   4.122
  463SOL    HW1 2288   6.459   6.678   4.171
  463SOL    HW2 2289   6.614   6.628   4.188
  464SOL     OW 2290   2.888   0.890   5.681
  464SOL    HW1 2291   2.961   0.913   5.617
  464SOL    HW2 2292   2.925   0.836   5.757
  465SOL     OW 2293   0.421   2.256   0.216
  465SOL    HW1 2294   0.476   2.339   0.224
  465SOL    HW2 2295   0.330   2.272   0.254
  466SOL     OW 2296   2.285   6.732   3.926
  466SOL    HW1 2297   2.241   6.658   3.976
  466SOL    HW2 2298   2.256   6.730   3.830
  467SOL     OW 2299   1.467   1.399   2.342
  467SOL    HW1 2300   1.378   1.435   2.371
  467SOL    HW2 2301   1.464   1.299   2.344
  468SOL     OW 2302   3.480   5.884   5.272
  468SOL    HW1 2303   3.396   5.903   5.324
  468SOL    HW2 2304   3.483   5.786   5.249
  469SOL     OW 2305   2.717   3.717   6.157
  469SOL    HW1 2306   2.814   3.710   6.179
  469SOL    HW2 2307   2.695   3.812   6.132
  470SOL     OW 2308   3.910   5.945   1.056
  470SOL    HW1 2309   3.894   5.911   0.964
  470SOL    HW2 2310   3.995   5.907   1.092
  471SOL     OW 2311   2.352   2.693   3.903
  471SOL    HW1 2312   2.351   2.638   3.986
  471SOL    HW2 2313   2.445   2.697   3.866
  472SOL     OW 2314   5.292   4.548   6.749
  472SOL    HW1 2315   5.194   4.527   6.757
  472SOL    HW2 2316   5.333   4.546   6.840
  473SOL     OW 2317   1.321   1.810   2.930
  473SOL    HW1 2318   1.292   1.906   2.929
  473SOL    HW2 2319   1.396   1.798   2.865
  474SOL     OW 2320   5.517   6.035   4.574
  474SOL    HW1 2321   5.483   6.058   4.665
  474SOL    HW2 2322   5.546   6.118   4.527
  475SOL     OW 2323   6.653   2.824   0.467
  475SOL    HW1 2324   6.739   2.816   0.519
  475SOL    HW2 2325   6.589   2.754   0.499
  476SOL     OW 2326   6.781   3.884   2.368
  476SOL    HW1 2327   6.752   3.806   2.312
  476SOL    HW2 2328   6.746   3.873   2.461
  477SOL     OW 2329   2.540   5.993   3.212
  477SOL    HW1 2330   2.440   5.993   3.209
  477SOL    HW2 2331   2.576   6.061   3.148
  478SOL     OW 2332   4.159   6.088   2.745
  478SOL    HW1 2333   4.113   6.167   2.786
  478SOL    HW2 2334   4.256   6.108   2.734
  479SOL     OW 2335   4.021   3.483   5.255
  479SOL    HW1 2336   4.038   3.519   5.347
  479SOL    HW2 2337   4.038   3.385   5.254
  480SOL     OW 2338   2.323   0.201   0.920
  480SOL    HW1 2339   2.240   0.186   0.867
  480SOL    HW2 2340   2.403   0.183   0.862
  481SOL     OW 2341   1.078   6.388   1.783
  481SOL    HW1 2342   1.065   6.353   1.690
  481SOL    HW2 2343   1.002   6.357   1.841
  482SOL     OW 2344   4.563   4.912   2.338
  482SOL    HW1 2345   4.589   4.819   2.364
  482SOL    HW2 2346   4.471   4.912   2.299
  483SOL     OW 2347   6.646   2.360   2.796
  483SOL    HW1 2348   6.657   2.330   2.891
  483SOL    HW2 2349   6.558   2.405   2.785
  484SOL     OW 2350   1.751   3.878   4.497
  484SOL    HW1 2351   1.710   3.945   4.558
  484SOL    HW2 2352   1.835   3.842   4.538
  485SOL     OW 2353   4.747   4.691   2.599
  485SOL    HW1 2354   4.649   4.681   2.581
  485SOL    HW2 2355   4.765   4.781   2.638
  486SOL     OW 2356   6.478   1.623   0.709
  486SOL    HW1 2357   6.452   1.585   0.620
  486SOL    HW2 2358   6.562   1.676   0.699
  487SOL     OW 2359   0.667   0.434   3.420
  487SOL    HW1 2360   0.705   0.463   3.508
  487SOL    HW2 2361   0.634   0.340   3.427
  488SOL     OW 2362   0.840   0.397   2.529
  488SOL    HW1 2363   0.776   0.424   2.457
  488SOL    HW2 2364   0.794   0.338   2.595
  489SOL     OW 2365   5.126   6.305   5.780
  489SOL    HW1 2366   5.050   6.283   5.719
  489SOL    HW2 2367   5.213   6.288   5.733
  490SOL     OW 2368   1.982   5.826   3.601
  490SOL    HW1 2369   1.961   5.835   3.698
  490SOL    HW2 2370   2.018   5.912   3.566
  491SOL     OW 2371   1.155   3.076   1.582
  491SOL    HW1 2372   1.099   3.009   1.534
  491SOL    HW2 2373   1.102   3.160   1.596
  492SOL     OW 2374   1.519   1.086   5.917
  492SOL    HW1 2375   1.536   1.185   5.910
  492SOL    HW2 2376   1.463   1.057   5.840
  493SOL     OW 2377   3.089   6.712   5.719
  493SOL    HW1 2378   2.997   6.681   5.695
  493SOL    HW2 2379   3.130   6.760   5.642
  494SOL     OW 2380   0.993   6.587   6.768
  494SOL    HW1 2381   0.996   6.496   6.726
  494SOL    HW2 2382   0.972   6.655   6.697
  495SOL     OW 2383   3.928   5.611   3.391
  495SOL    HW1 2384   3.847   5.648   3.344
  495SOL    HW2 2385   3.908   5.602   3.489
  496SOL     OW 2386   5.679   2.779   1.921
  496SOL    HW1 2387   5.643   2.856   1.974
  496SOL    HW2 2388   5.607   2.743   1.861
  497SOL     OW 2389   3.354   1.043   4.589
  497SOL    HW1 2390   3.306   0.955   4.585
  497SOL    HW2 2391   3.444   1.030   4.632
  498SOL     OW 2392   0.819   4.998   2.408
  498SOL    HW1 2393   0.805   4.966   2.315
  498SOL    HW2 2394   0.773   5.087   2.420
  499SOL     OW 2395   1.982   5.590   4.810
  499SOL    HW1 2396   2.073   5.560   4.781
  499SOL    HW2 2397   1.914   5.551   4.748
  500SOL     OW 2398   6.672   2.687   6.864
  500SOL    HW1 2399   6.716   2.619   6.922
  500SOL    HW2 2400   6.640   2.644   6.780
  501SOL     OW 2401   4.060   6.673   0.628
  501SOL    HW1 2402   3.991   6.738   0.596
  501SOL    HW2 2403   4.018   6.609   0.692
  502SOL     OW 2404   0.732   4.545   6.076
  502SOL    HW1 2405   0.794   4.620   6.054
  502SOL    HW2 2406   0.759   4.503   6.163
  503SOL     OW 2407   0.744   4.717   6.457
  503SOL    HW1 2408   0.784   4.632   6.490
  503SOL    HW2 2409   0.646   4.704   6.441
  504SOL     OW 2410   1.128   5.554   2.292
  504SOL    HW1 2411   1.139   5.541   2.193
  504SOL    HW2 2412   1.048   5.503   2.324
  505SOL     OW 2413   3.880   6.050   4.833
  505SOL    HW1 2414   3.828   6.051   4.919
  505SOL    HW2 2415   3.818   6.067   4.756
  506SOL     OW 2416   3.696   5.591   2.315
  506SOL    HW1 2417   3.621   5.541   2.359
  506SOL    HW2 2418   3.677   5.689   2.321
  507SOL     OW 2419   3.006   6.644   2.973
  507SOL    HW1 2420   2.964   6.619   3.060
  507SOL    HW2 2421   3.048   6.563   2.932
  508SOL     OW 2422   0.233   3.220   2.499
  508SOL    HW1 2423   0.292   3.169   2.561
  508SOL    HW2 2424   0.187   3.293   2.549
  509SOL     OW 2425   2.951   1.660   1.012
  509SOL    HW1 2426   2.978   1.753   1.036
  509SOL    HW2 2427   2.866   1.663   0.958
  510SOL     OW 2428   6.338   4.226   6.765
  510SOL    HW1 2429   6.339   4.158   6.691
  510SOL    HW2 2430   6.427   4.229   6.809
  511SOL     OW 2431   0.506   3.119   6.241
  511SOL    HW1 2432   0.411   3.091   6.257
  511SOL    HW2 2433   0.511   3.219   6.237
  512SOL     OW 2434   6.954   2.191   6.579
  512SOL    HW1 2435   6.933   2.109   6.525
  512SOL    HW2 2436   6.990   2.164   6.668
  513SOL     OW 2437   5.251   6.683   3.130
  513SOL    HW1 2438   5.320   6.718   3.195
  513SOL    HW2 2439   5.222   6.592   3.158
  514SOL     OW 2440   6.124   0.526   4.530
  514SOL    HW1 2441   6.139   0.428   4.521
  514SOL    HW2 2442   6.194   0.575   4.479
  515SOL     OW 2443   1.232   1.216   0.653
  515SOL    HW1 2444   1.151   1.252   0.701
  515SOL    HW2 2445   1.270   1.288   0.595
  516SOL     OW 2446   2.680   4.714   1.762
  516SOL    HW1 2447   2.745   4.668   1.823
  516SOL    HW2 2448   2.586   4.695   1.793
  517SOL     OW 2449   3.263   4.792   1.825
  517SOL    HW1 2450   3.282   4.822   1.732
  517SOL    HW2 2451   3.349   4.767   1.870
  518SOL     OW 2452   2.202   2.557   3.696
  518SOL    HW1 2453   2.147   2.522   3.771
  518SOL    HW2 2454   2.278   2.611   3.733
  519SOL     OW 2455   1.104   6.591   2.935
  519SOL    HW1 2456   1.128   6.654   3.009
  519SOL    HW2 2457   1.045   6.638   2.870
  520SOL     OW 2458   6.269   3.697   6.597
  520SOL    HW1 2459   6.309   3.788   6.593
  520SOL    HW2 2460   6.213   3.682   6.515
  521SOL     OW 2461   6.599   6.391   5.538
  521SOL    HW1 2462   6.535   6.352   5.472
  521SOL    HW2 2463   6.681   6.334   5.543
  522SOL     OW 2464   4.095   3.443   3.750
  522SOL    HW1 2465   3.999   3.466   3.736
  522SOL    HW2 2466   4.137   3.510   3.811
  523SOL     OW 2467   0.270   5.830   0.806
  523SOL    HW1 2468   0.348   5.833   0.869
  523SOL    HW2 2469   0.207   5.904   0.827
  524SOL     OW 2470   1.483   2.486   3.107
  524SOL    HW1 2471   1.395   2.444   3.131
  524SOL    HW2 2472   1.543   2.485   3.187
  525SOL     OW 2473   1.705   4.285   5.848
  525SOL    HW1 2474   1.695   4.209   5.784
  525SOL    HW2 2475   1.777   4.347   5.816
  526SOL     OW 2476   3.645   6.869   4.038
  526SOL    HW1 2477   3.636   6.888   4.136
  526SOL    HW2 2478   3.554   6.862   3.997
  527SOL     OW 2479   6.877   2.833   0.615
  527SOL    HW1 2480   6.871   2.806   0.711
  527SOL    HW2 2481   6.969   2.815   0.581
  528SOL     OW 2482   1.677   2.387   3.525
  528SOL    HW1 2483   1.714   2.448   3.455
  528SOL    HW2 2484   1.746   2.319   3.550
  529SOL     OW 2485   1.912   6.180   5.192
  529SOL    HW1 2486   1.832   6.122   5.179
  529SOL    HW2 2487   1.895   6.245   5.266
  530SOL     OW 2488   4.088   3.702   3.294
  530SOL    HW1 2489   4.045   3.753   3.368
  530SOL    HW2 2490   4.101   3.607   3.322
  531SOL     OW 2491   0.904   1.562   3.064
  531SOL    HW1 2492   0.892   1.635   3.132
  531SOL    HW2 2493   0.960   1.597   2.989
  532SOL     OW 2494   1.151   2.342   0.450
  532SOL    HW1 2495   1.090   2.311   0.524
  532SOL    HW2 2496   1.222   2.401   0.488
  533SOL     OW 2497   4.292   6.799   2.879
  533SOL    HW1 2498   4.298   6.898   2.892
  533SOL    HW2 2499   4.197   6.769   2.891
  534SOL     OW 2500   5.454   6.011   2.552
  534SOL    HW1 2501   5.473   5.980   2.645
  534SOL    HW2 2502   5.539   6.039   2.508
  535SOL     OW 2503   6.215   3.796   3.626
  535SOL    HW1 2504   6.205   3.856   3.705
  535SOL    HW2 2505   6.227   3.702   3.656
  536SOL     OW 2506   6.195   4.645   2.753
  536SOL    HW1 2507   6.185   4.546   2.767
  536SOL    HW2 2508   6.252   4.683   2.826
  537SOL     OW 2509   3.121   6.963   4.677
  537SOL    HW1 2510   3.139   6.880   4.730
  537SOL    HW2 2511   3.053   7.019   4.724
  538SOL     OW 2512   0.735   4.687   3.983
  538SOL    HW1 2513   0.666   4.633   4.033
  538SOL    HW2 2514   0.826   4.661   4.015
  539SOL     OW 2515   1.744   4.434   1.677
  539SOL    HW1 2516   1.800   4.478   1.746
  539SOL    HW2 2517   1.803   4.392   1.608
  540SOL     OW 2518   1.684   1.466   2.809
  540SOL    HW1 2519   1.758   1.443   2.746
  540SOL    HW2 2520   1.604   1.408   2.790
  541SOL     OW 2521   5.702   5.342   4.391
  541SOL    HW1 2522   5.613   5.316   4.430
  541SOL    HW2 2523   5.706   5.441   4.380
  542SOL     OW 2524   5.090   6.742   6.788
  542SOL    HW1 2525   5.122   6.733   6.694
  542SOL    HW2 2526   4.992   6.722   6.792
  543SOL     OW 2527   6.379   3.898   4.430
  543SOL    HW1 2528   6.374   3.843   4.513
  543SOL    HW2 2529   6.434   3.850   4.361
  544SOL     OW 2530   1.190   4.764   6.715
  544SOL    HW1 2531   1.136   4.707   6.777
  544SOL    HW2 2532   1.128   4.809   6.650
  545SOL     OW 2533   3.265   1.383   1.101
  545SOL    HW1 2534   3.259   1.301   1.158
  545SOL    HW2 2535   3.269   1.464   1.159
  546SOL     OW 2536   1.380   3.359   0.798
  546SOL    HW1 2537   1.471   3.320   0.814
  546SOL    HW2 2538   1.389   3.454   0.769
  547SOL     OW 2539   3.597   1.729   6.930
  547SOL    HW1 2540   3.570   1.795   6.860
  547SOL    HW2 2541   3.563   1.760   7.019
  548SOL     OW 2542   3.287   3.341   1.862
  548SOL    HW1 2543   3.327   3.261   1.816
  548SOL    HW2 2544   3.200   3.315   1.903
  549SOL     OW 2545   5.497   2.127   1.611
  549SOL    HW1 2546   5.444   2.077   1.542
  549SOL    HW2 2547   5.510   2.221   1.580
  550SOL     OW 2548   1.422   5.399   3.960
  550SOL    HW1 2549   1.454   5.310   3.927
  550SOL    HW2 2550   1.467   5.472   3.908
  551SOL     OW 2551   0.711   0.105   1.831
  551SOL    HW1 2552   0.658   0.022   1.820
  551SOL    HW2 2553   0.807   0.088   1.806
  552SOL     OW 2554   5.966   4.975   6.976
  552SOL    HW1 2555   5.885   4.980   0.009
  552SOL    HW2 2556   5.941   5.003   6.883
  553SOL     OW 2557   2.497   6.851   4.015
  553SOL    HW1 2558   2.485   6.870   4.113
  553SOL    HW2 2559   2.416   6.803   3.981
  554SOL     OW 2560   5.891   6.894   6.666
  554SOL    HW1 2561   5.896   6.801   6.702
  554SOL    HW2 2562   5.806   6.937   6.696
  555SOL     OW 2563   3.011   4.881   4.628
  555SOL    HW1 2564   3.101   4.877   4.670
  555SOL    HW2 2565   2.940   4.865   4.697
  556SOL     OW 2566   5.170   1.695   3.492
  556SOL    HW1 2567   5.158   1.599   3.518
  556SOL    HW2 2568   5.081   1.741   3.494
  557SOL     OW 2569   6.821   5.258   0.592
  557SOL    HW1 2570   6.838   5.323   0.518
  557SOL    HW2 2571   6.736   5.209   0.575
  558SOL     OW 2572   3.048   3.461   3.165
  558SOL    HW1 2573   2.977   3.505   3.109
  558SOL    HW2 2574   3.004   3.406   3.236
  559SOL     OW 2575   0.373   5.735   6.429
  559SOL    HW1 2576   0.355   5.675   6.352
  559SOL    HW2 2577   0.321   5.820   6.419
  560SOL     OW 2578   5.916   4.011   3.908
  560SOL    HW1 2579   5.988   4.071   3.874
  560SOL    HW2 2580   5.871   3.966   3.831
  561SOL     OW 2581   0.357   2.304   1.260
  561SOL    HW1 2582   0.301   2.273   1.184
  561SOL    HW2 2583   0.444   2.255   1.259
  562SOL     OW 2584   4.370   7.016   6.286
  562SOL    HW1 2585   4.285   6.982   6.244
  562SOL    HW2 2586   4.396   0.077   6.245
  563SOL     OW 2587   2.958   0.125   3.815
  563SOL    HW1 2588   2.864   0.155   3.803
  563SOL    HW2 2589   2.967   0.029   3.786
  564SOL     OW 2590   1.090   2.598   6.916
  564SOL    HW1 2591   1.073   2.520   6.855
  564SOL    HW2 2592   1.017   2.604   6.983
  565SOL     OW 2593   3.795   3.491   4.863
  565SOL    HW1 2594   3.743   3.427   4.806
  565SOL    HW2 2595   3.816   3.573   4.810
  566SOL     OW 2596   0.535   4.481   3.609
  566SOL    HW1 2597   0.440   4.505   3.625
  566SOL    HW2 2598   0.584   4.560   3.573
  567SOL     OW 2599   2.784   2.654   1.539
  567SOL    HW1 2600   2.746   2.740   1.573
  567SOL    HW2 2601   2.869   2.634   1.587
  568SOL     OW 2602   4.781   0.265   7.010
  568SOL    HW1 2603   4.852   0.212   0.031
  568SOL    HW2 2604   4.701   0.274   0.044
  569SOL     OW 2605   1.806   2.718   0.260
  569SOL    HW1 2606   1.714   2.734   0.223
  569SOL    HW2 2607   1.828   2.788   0.326
  570SOL     OW 2608   3.966   6.427   6.151
  570SOL    HW1 2609   3.880   6.425   6.202
  570SOL    HW2 2610   3.964   6.355   6.081
  571SOL     OW 2611   3.480   5.423   2.446
  571SOL    HW1 2612   3.440   5.362   2.378
  571SOL    HW2 2613   3.426   5.421   2.530
  572SOL     OW 2614   2.474   4.729   5.592
  572SOL    HW1 2615   2.390   4.681   5.566
  572SOL    HW2 2616   2.452   4.802   5.657
  573SOL     OW 2617   5.446   1.415   5.965
  573SOL    HW1 2618   5.401   1.487   6.019
  573SOL    HW2 2619   5.538   1.400   6.001
  574SOL     OW 2620   3.693   1.446   4.939
  574SOL    HW1 2621   3.745   1.500   4.873
  574SOL    HW2 2622   3.599   1.436   4.908
  575SOL     OW 2623   5.385   3.990   0.808
  575SOL    HW1 2624   5.447   4.034   0.872
  575SOL    HW2 2625   5.297   3.974   0.851
  576SOL     OW 2626   1.620   2.149   3.088
  576SOL    HW1 2627   1.575   2.193   3.010
  576SOL    HW2 2628   1.567   2.167   3.171
  577SOL     OW 2629   1.623   1.255   3.074
  577SOL    HW1 2630   1.552   1.243   3.144
  577SOL    HW2 2631   1.658   1.348   3.077
  578SOL     OW 2632   6.596   5.229   4.327
  578SOL    HW1 2633   6.624   5.146   4.279
  578SOL    HW2 2634   6.503   5.253   4.299
  579SOL     OW 2635   1.783   3.464   3.933
  579SOL    HW1 2636   1.779   3.392   3.863
  579SOL    HW2 2637   1.878   3.476   3.962
  580SOL     OW 2638   5.056   5.637   5.868
  580SOL    HW1 2639   4.999   5.671   5.792
  580SOL    HW2 2640   5.027   5.680   5.953
  581SOL     OW 2641   1.917   3.073   1.946
  581SOL    HW1 2642   1.855   3.032   1.879
  581SOL    HW2 2643   2.003   3.097   1.902
  582SOL     OW 2644   4.676   5.994   2.196
  582SOL    HW1 2645   4.590   5.993   2.248
  582SOL    HW2 2646   4.675   6.071   2.132
  583SOL     OW 2647   2.761   6.858   5.363
  583SOL    HW1 2648   2.715   6.945   5.349
  583SOL    HW2 2649   2.693   6.785   5.365
  584SOL     OW 2650   3.171   5.145   6.518
  584SOL    HW1 2651   3.187   5.143   6.419
  584SOL    HW2 2652   3.072   5.150   6.535
  585SOL     OW 2653   4.998   2.023   6.382
  585SOL    HW1 2654   5.031   2.116   6.398
  585SOL    HW2 2655   4.943   2.021   6.298
  586SOL     OW 2656   3.594   0.620   6.307
  586SOL    HW1 2657   3.576   0.712   6.340
  586SOL    HW2 2658   3.539   0.554   6.359
  587SOL     OW 2659   4.326   1.895   4.246
  587SOL    HW1 2660   4.393   1.957   4.204
  587SOL    HW2 2661   4.358   1.801   4.238
  588SOL     OW 2662   2.313   4.635   1.424
  588SOL    HW1 2663   2.329   4.606   1.330
  588SOL    HW2 2664   2.215   4.634   1.443
  589SOL     OW 2665   3.305   4.555   1.640
  589SOL    HW1 2666   3.215   4.597   1.654
  589SOL    HW2 2667   3.374   4.607   1.690
  590SOL     OW 2668   5.306   2.748   2.097
  590SOL    HW1 2669   5.302   2.808   2.017
  590SOL    HW2 2670   5.381   2.683   2.087
  591SOL     OW 2671   3.095   5.778   3.338
  591SOL    HW1 2672   3.185   5.793   3.380
  591SOL    HW2 2673   3.025   5.776   3.409
  592SOL     OW 2674   3.628   1.501   1.248
  592SOL    HW1 2675   3.563   1.440   1.294
  592SOL    HW2 2676   3.587   1.591   1.235
  593SOL     OW 2677   4.026   2.138   4.601
  593SOL    HW1 2678   3.973   2.137   4.686
  593SOL    HW2 2679   4.076   2.224   4.593
  594SOL     OW 2680   6.896   1.067   0.218
  594SOL    HW1 2681   6.992   1.052   0.241
  594SOL    HW2 2682   6.889   1.109   0.127
  595SOL     OW 2683   5.563   0.519   3.798
  595SOL    HW1 2684   5.535   0.606   3.838
  595SOL    HW2 2685   5.512   0.444   3.841
  596SOL     OW 2686   1.148   5.363   3.325
  596SOL    HW1 2687   1.191   5.447   3.358
  596SOL    HW2 2688   1.213   5.288   3.333
  597SOL     OW 2689   2.258   0.044   0.299
  597SOL    HW1 2690   2.272   6.975   0.271
  597SOL    HW2 2691   2.338   0.099   0.275
  598SOL     OW 2692   4.058   4.001   5.349
  598SOL    HW1 2693   4.069   3.980   5.252
  598SOL    HW2 2694   4.131   3.955   5.401
  599SOL     OW 2695   2.630   6.228   1.863
  599SOL    HW1 2696   2.590   6.305   1.912
  599SOL    HW2 2697   2.563   6.191   1.798
  600SOL     OW 2698   6.630   1.313   0.045
  600SOL    HW1 2699   6.601   1.369   6.992
  600SOL    HW2 2700   6.727   1.293   0.037
  601SOL     OW 2701   1.267   0.314   4.711
  601SOL    HW1 2702   1.294   0.223   4.743
  601SOL    HW2 2703   1.327   0.382   4.752
  602SOL     OW 2704   1.364   1.687   6.247
  602SOL    HW1 2705   1.280   1.739   6.234
  602SOL    HW2 2706   1.344   1.589   6.247
  603SOL     OW 2707   2.720   2.484   5.204
  603SOL    HW1 2708   2.796   2.488   5.269
  603SOL    HW2 2709   2.687   2.390   5.196
  604SOL     OW 2710   0.937   2.334   2.046
  604SOL    HW1 2711   0.930   2.257   2.109
  604SOL    HW2 2712   0.848   2.352   2.004
  605SOL     OW 2713   6.610   5.871   0.587
  605SOL    HW1 2714   6.659   5.930   0.651
  605SOL    HW2 2715   6.625   5.775   0.611
  606SOL     OW 2716   5.069   6.311   6.907
  606SOL    HW1 2717   5.014   6.395   6.901
  606SOL    HW2 2718   5.125   6.301   6.825
  607SOL     OW 2719   6.341   5.773   5.487
  607SOL    HW1 2720   6.286   5.801   5.566
  607SOL    HW2 2721   6.312   5.683   5.456
  608SOL     OW 2722   4.142   6.398   6.825
  608SOL    HW1 2723   4.140   6.346   6.740
  608SOL    HW2 2724   4.110   6.341   6.900
  609SOL     OW 2725   3.585   2.873   2.355
  609SOL    HW1 2726   3.642   2.836   2.427
  609SOL    HW2 2727   3.610   2.968   2.338
  610SOL     OW 2728   5.789   4.589   1.874
  610SOL    HW1 2729   5.824   4.626   1.959
  610SOL    HW2 2730   5.796   4.489   1.876
  611SOL     OW 2731   4.244   6.401   1.342
  611SOL    HW1 2732   4.265   6.408   1.440
  611SOL    HW2 2733   4.145   6.395   1.330
  612SOL     OW 2734   4.193   6.224   4.764
  612SOL    HW1 2735   4.159   6.230   4.858
  612SOL    HW2 2736   4.282   6.178   4.764
  613SOL     OW 2737   4.173   6.614   5.540
  613SOL    HW1 2738   4.124   6.612   5.628
  613SOL    HW2 2739   4.110   6.646   5.469
  614SOL     OW 2740   5.369   5.401   0.505
  614SOL    HW1 2741   5.396   5.496   0.520
  614SOL    HW2 2742   5.283   5.383   0.553
  615SOL     OW 2743   6.498   2.535   1.944
  615SOL    HW1 2744   6.507   2.465   1.873
  615SOL    HW2 2745   6.587   2.550   1.987
  616SOL     OW 2746   0.415   2.837   3.629
  616SOL    HW1 2747   0.325   2.848   3.672
  616SOL    HW2 2748   0.406   2.846   3.530
  617SOL     OW 2749   6.703   4.580   5.659
  617SOL    HW1 2750   6.642   4.521   5.711
  617SOL    HW2 2751   6.782   4.528   5.629
  618SOL     OW 2752   6.819   2.502   0.015
  618SOL    HW1 2753   6.865   2.448   6.969
  618SOL    HW2 2754   6.873   2.583   0.036
  619SOL     OW 2755   4.002   1.026   0.182
  619SOL    HW1 2756   3.969   0.932   0.175
  619SOL    HW2 2757   3.983   1.062   0.273
  620SOL     OW 2758   4.287   2.889   1.440
  620SOL    HW1 2759   4.318   2.976   1.478
  620SOL    HW2 2760   4.318   2.814   1.498
  621SOL     OW 2761   2.725   6.713   0.176
  621SOL    HW1 2762   2.664   6.652   0.127
  621SOL    HW2 2763   2.779   6.767   0.111
  622SOL     OW 2764   1.328   0.146   6.089
  622SOL    HW1 2765   1.386   0.138   6.170
  622SOL    HW2 2766   1.250   0.205   6.110
  623SOL     OW 2767   0.731   5.785   4.897
  623SOL    HW1 2768   0.790   5.712   4.862
  623SOL    HW2 2769   0.754   5.803   4.993
  624SOL     OW 2770   6.577   2.708   1.099
  624SOL    HW1 2771   6.590   2.771   1.022
  624SOL    HW2 2772   6.642   2.729   1.171
  625SOL     OW 2773   1.973   1.759   1.723
  625SOL    HW1 2774   2.012   1.851   1.735
  625SOL    HW2 2775   2.032   1.692   1.766
  626SOL     OW 2776   2.304   5.518   3.550
  626SOL    HW1 2777   2.322   5.541   3.646
  626SOL    HW2 2778   2.230   5.452   3.545
  627SOL     OW 2779   5.697   6.099   0.313
  627SOL    HW1 2780   5.607   6.142   0.312
  627SOL    HW2 2781   5.696   6.019   0.372
  628SOL     OW 2782   6.053   5.671   6.044
  628SOL    HW1 2783   6.048   5.586   5.992
  628SOL    HW2 2784   6.093   5.743   5.987
  629SOL     OW 2785   6.592   6.831   6.990
  629SOL    HW1 2786   6.597   6.731   6.988
  629SOL    HW2 2787   6.615   6.864   0.056
  630SOL     OW 2788   6.694   1.946   2.103
  630SOL    HW1 2789   6.671   1.859   2.147
  630SOL    HW2 2790   6.631   1.963   2.027
  631SOL     OW 2791   3.383   6.803   5.268
  631SOL    HW1 2792   3.458   6.867   5.286
  631SOL    HW2 2793   3.342   6.824   5.180
  632SOL     OW 2794   2.332   0.925   0.664
  632SOL    HW1 2795   2.431   0.913   0.676
  632SOL    HW2 2796   2.291   0.836   0.645
  633SOL     OW 2797   4.104   3.682   0.367
  633SOL    HW1 2798   4.084   3.757   0.431
  633SOL    HW2 2799   4.083   3.712   0.273
  634SOL     OW 2800   3.902   4.246   1.092
  634SOL    HW1 2801   3.867   4.173   1.150
  634SOL    HW2 2802   4.001   4.252   1.101
  635SOL     OW 2803   4.713   5.173   1.154
  635SOL    HW1 2804   4.638   5.108   1.140
  635SOL    HW2 2805   4.679   5.266   1.144
  636SOL     OW 2806   4.079   5.578   6.729
  636SOL    HW1 2807   4.134   5.495   6.740
  636SOL    HW2 2808   4.125   5.640   6.664
  637SOL     OW 2809   6.458   3.337   3.261
  637SOL    HW1 2810   6.360   3.330   3.281
  637SOL    HW2 2811   6.491   3.250   3.226
  638SOL     OW 2812   5.199   2.343   3.531
  638SOL    HW1 2813   5.166   2.264   3.582
  638SOL    HW2 2814   5.277   2.384   3.578
  639SOL     OW 2815   4.874   3.801   2.575
  639SOL    HW1 2816   4.790   3.752   2.551
  639SOL    HW2 2817   4.853   3.897   2.592
  640SOL     OW 2818   6.871   5.273   3.833
  640SOL    HW1 2819   6.934   5.301   3.906
  640SOL    HW2 2820   6.835   5.182   3.853
  641SOL     OW 2821   6.479   5.890   5.004
  641SOL    HW1 2822   6.522   5.927   4.922
  641SOL    HW2 2823   6.383   5.868   4.984
  642SOL     OW 2824   6.886   3.091   4.994
  642SOL    HW1 2825   6.800   3.056   4.954
  642SOL    HW2 2826   6.907   3.039   5.077
  643SOL     OW 2827   5.655   6.176   4.968
  643SOL    HW1 2828   5.658   6.205   5.064
  643SOL    HW2 2829   5.638   6.078   4.963
  644SOL     OW 2830   1.694   5.856   4.714
  644SOL    HW1 2831   1.793   5.863   4.731
  644SOL    HW2 2832   1.679   5.830   4.618
  645SOL     OW 2833   4.162   1.159   3.844
  645SOL    HW1 2834   4.133   1.166   3.749
  645SOL    HW2 2835   4.210   1.072   3.858
  646SOL     OW 2836   2.537   1.215   4.741
  646SOL    HW1 2837   2.473   1.261   4.803
  646SOL    HW2 2838   2.489   1.187   4.658
  647SOL     OW 2839   5.085   2.105   4.609
  647SOL    HW1 2840   5.051   2.040   4.541
  647SOL    HW2 2841   5.102   2.057   4.695
  648SOL     OW 2842   0.097   3.544   3.979
  648SOL    HW1 2843   0.037   3.497   3.914
  648SOL    HW2 2844   0.146   3.618   3.933
  649SOL     OW 2845   2.914   3.453   0.810
  649SOL    HW1 2846   2.905   3.364   0.854
  649SOL    HW2 2847   2.850   3.459   0.733
  650SOL     OW 2848   5.989   4.613   0.795
  650SOL    HW1 2849   5.945   4.548   0.856
  650SOL    HW2 2850   6.080   4.580   0.771
  651SOL     OW 2851   6.262   6.150   6.152
  651SOL    HW1 2852   6.262   6.080   6.224
  651SOL    HW2 2853   6.174   6.149   6.105
  652SOL     OW 2854   4.736   6.256   3.713
  652SOL    HW1 2855   4.776   6.256   3.621
  652SOL    HW2 2856   4.661   6.321   3.717
  653SOL     OW 2857   2.511   5.985   5.391
  653SOL    HW1 2858   2.446   5.970   5.466
  653SOL    HW2 2859   2.468   6.044   5.322
  654SOL     OW 2860   0.155   4.027   5.768
  654SOL    HW1 2861   0.178   3.995   5.676
  654SOL    HW2 2862   0.211   3.978   5.835
  655SOL     OW 2863   0.676   6.083   2.168
  655SOL    HW1 2864   0.641   6.038   2.250
  655SOL    HW2 2865   0.670   6.182   2.180
  656SOL     OW 2866   1.823   5.215   1.439
  656SOL    HW1 2867   1.889   5.213   1.364
  656SOL    HW2 2868   1.844   5.290   1.501
  657SOL     OW 2869   1.666   2.525   1.700
  657SOL    HW1 2870   1.691   2.428   1.697
  657SOL    HW2 2871   1.575   2.537   1.661
  658SOL     OW 2872   2.818   4.108   6.463
  658SOL    HW1 2873   2.866   4.168   6.527
  658SOL    HW2 2874   2.869   4.103   6.377
  659SOL     OW 2875   2.462   5.966   6.467
  659SOL    HW1 2876   2.393   6.025   6.424
  659SOL    HW2 2877   2.527   6.023   6.517
  660SOL     OW 2878   5.546   4.888   2.408
  660SOL    HW1 2879   5.581   4.919   2.496
  660SOL    HW2 2880   5.494   4.962   2.365
  661SOL     OW 2881   4.223   5.068   3.336
  661SOL    HW1 2882   4.270   4.985   3.305
  661SOL    HW2 2883   4.221   5.134   3.262
  662SOL     OW 2884   4.063   0.181   5.624
  662SOL    HW1 2885   4.008   0.262   5.602
  662SOL    HW2 2886   4.153   0.210   5.656
  663SOL     OW 2887   2.161   3.939   6.298
  663SOL    HW1 2888   2.105   4.016   6.268
  663SOL    HW2 2889   2.160   3.934   6.398
  664SOL     OW 2890   0.261   5.079   6.290
  664SOL    HW1 2891   0.206   5.067   6.208
  664SOL    HW2 2892   0.209   5.131   6.358
  665SOL     OW 2893   5.170   4.924   1.380
  665SOL    HW1 2894   5.133   5.017   1.370
  665SOL    HW2 2895   5.109   4.871   1.439
  666SOL     OW 2896   4.851   2.152   2.480
  666SOL    HW1 2897   4.756   2.154   2.511
  666SOL    HW2 2898   4.911   2.172   2.558
  667SOL     OW 2899   0.723   4.732   3.520
  667SOL    HW1 2900   0.695   4.758   3.428
  667SOL    HW2 2901   0.809   4.680   3.515
  668SOL     OW 2902   5.558   6.261   6.454
  668SOL    HW1 2903   5.635   6.320   6.428
  668SOL    HW2 2904   5.532   6.279   6.548
  669SOL     OW 2905   4.171   0.264   2.811
  669SOL    HW1 2906   4.190   0.288   2.716
  669SOL    HW2 2907   4.152   0.347   2.863
  670SOL     OW 2908   3.414   2.746   0.778
  670SOL    HW1 2909   3.342   2.809   0.807
  670SOL    HW2 2910   3.404   2.659   0.825
  671SOL     OW 2911   1.964   6.482   0.050
  671SOL    HW1 2912   1.975   6.418   6.999
  671SOL    HW2 2913   1.867   6.506   0.059
  672SOL     OW 2914   1.075   5.068   2.456
  672SOL    HW1 2915   1.122   5.010   2.390
  672SOL    HW2 2916   0.990   5.024   2.485
  673SOL     OW 2917   0.040   6.878   1.756
  673SOL    HW1 2918   7.017   6.878   1.844
  673SOL    HW2 2919   6.998   6.881   1.682
  674SOL     OW 2920   0.726   1.383   5.172
  674SOL    HW1 2921   0.729   1.454   5.242
  674SOL    HW2 2922   0.715   1.426   5.082
  675SOL     OW 2923   0.893   1.018   3.111
  675SOL    HW1 2924   0.823   0.953   3.139
  675SOL    HW2 2925   0.851   1.108   3.098
  676SOL     OW 2926   3.217   6.250   2.630
  676SOL    HW1 2927   3.259   6.160   2.638
  676SOL    HW2 2928   3.227   6.284   2.536
  677SOL     OW 2929   5.826   2.098   0.481
  677SOL    HW1 2930   5.831   2.038   0.561
  677SOL    HW2 2931   5.914   2.095   0.433
  678SOL     OW 2932   1.876   1.280   5.524
  678SOL    HW1 2933   1.930   1.244   5.448
  678SOL    HW2 2934   1.907   1.237   5.609
  679SOL     OW 2935   4.331   1.750   3.830
  679SOL    HW1 2936   4.311   1.727   3.735
  679SOL    HW2 2937   4.283   1.834   3.855
  680SOL     OW 2938   5.549   6.159   5.427
  680SOL    HW1 2939   5.506   6.158   5.337
  680SOL    HW2 2940   5.635   6.210   5.421
  681SOL     OW 2941   5.584   5.317   1.597
  681SOL    HW1 2942   5.604   5.273   1.509
  681SOL    HW2 2943   5.605   5.254   1.671
  682SOL     OW 2944   0.547   1.175   0.867
  682SOL    HW1 2945   0.494   1.094   0.889
  682SOL    HW2 2946   0.612   1.154   0.794
  683SOL     OW 2947   4.343   3.367   0.422
  683SOL    HW1 2948   4.417   3.435   0.420
  683SOL    HW2 2949   4.382   3.275   0.419
  684SOL     OW 2950   0.553   0.820   6.962
  684SOL    HW1 2951   0.589   0.744   7.015
  684SOL    HW2 2952   0.575   0.906   7.008
  685SOL     OW 2953   4.121   1.044   3.241
  685SOL    HW1 2954   4.113   1.144   3.239
  685SOL    HW2 2955   4.131   1.014   3.336
  686SOL     OW 2956   5.018   3.193   3.377
  686SOL    HW1 2957   5.030   3.205   3.278
  686SOL    HW2 2958   5.023   3.282   3.422
  687SOL     OW 2959   0.471   2.141   4.955
  687SOL    HW1 2960   0.516   2.221   4.994
  687SOL    HW2 2961   0.419   2.094   5.026
  688SOL     OW 2962   1.029   1.799   0.498
  688SOL    HW1 2963   1.124   1.832   0.499
  688SOL    HW2 2964   0.979   1.842   0.573
  689SOL     OW 2965   6.663   4.556   6.545
  689SOL    HW1 2966   6.573   4.512   6.547
  689SOL    HW2 2967   6.681   4.592   6.454
  690SOL     OW 2968   0.394   4.105   2.590
  690SOL    HW1 2969   0.324   4.166   2.551
  690SOL    HW2 2970   0.416   4.134   2.683
  691SOL     OW 2971   2.286   6.678   0.586
  691SOL    HW1 2972   2.254   6.773   0.582
  691SOL    HW2 2973   2.228   6.621   0.528
  692SOL     OW 2974   3.577   0.013   3.735
  692SOL    HW1 2975   3.520   7.007   3.659
  692SOL    HW2 2976   3.543   6.998   3.820
  693SOL     OW 2977   5.847   1.078   3.571
  693SOL    HW1 2978   5.814   1.050   3.481
  693SOL    HW2 2979   5.938   1.117   3.563
  694SOL     OW 2980   4.341   6.190   3.429
  694SOL    HW1 2981   4.262   6.241   3.461
  694SOL    HW2 2982   4.417   6.253   3.413
  695SOL     OW 2983   4.296   6.971   3.960
  695SOL    HW1 2984   4.369   6.985   4.028
  695SOL    HW2 2985   4.309   6.883   3.915
  696SOL     OW 2986   4.250   4.875   2.275
  696SOL    HW1 2987   4.159   4.864   2.235
  696SOL    HW2 2988   4.291   4.785   2.289
  697SOL     OW 2989   2.168   3.708   3.857
  697SOL    HW1 2990   2.158   3.787   3.798
  697SOL    HW2 2991   2.211   3.633   3.807
  698SOL     OW 2992   4.949   6.822   0.404
  698SOL    HW1 2993   5.030   6.877   0.427
  698SOL    HW2 2994   4.949   6.738   0.457
  699SOL     OW 2995   2.139   3.292   6.315
  699SOL    HW1 2996   2.179   3.211   6.357
  699SOL    HW2 2997   2.089   3.345   6.384
  700SOL     OW 2998   2.787   0.342   2.301
  700SOL    HW1 2999   2.739   0.267   2.346
  700SOL    HW2 3000   2.881   0.314   2.282
  701SOL     OW 3001   6.636   3.765   5.911
  701SOL    HW1 3002   6.642   3.670   5.881
  701SOL    HW2 3003   6.542   3.798   5.899
  702SOL     OW 3004   1.651   6.384   4.648
  702SOL    HW1 3005   1.594   6.466   4.657
  702SOL    HW2 3006   1.692   6.362   4.736
  703SOL     OW 3007   3.471   3.676   6.247
  703SOL    HW1 3008   3.448   3.612   6.320
  703SOL    HW2 3009   3.557   3.648   6.203
  704SOL     OW 3010   1.786   2.449   0.223
  704SOL    HW1 3011   1.783   2.548   0.237
  704SOL    HW2 3012   1.798   2.403   0.311
  705SOL     OW 3013   5.720   5.534   3.271
  705SOL    HW1 3014   5.739   5.582   3.186
  705SOL    HW2 3015   5.790   5.464   3.286
  706SOL     OW 3016   4.250   2.344   4.600
  706SOL    HW1 3017   4.236   2.313   4.694
  706SOL    HW2 3018   4.345   2.370   4.587
  707SOL     OW 3019   4.421   5.364   2.349
  707SOL    HW1 3020   4.436   5.458   2.380
  707SOL    HW2 3021   4.488   5.341   2.279
  708SOL     OW 3022   4.258   6.753   1.943
  708SOL    HW1 3023   4.343   6.788   1.905
  708SOL    HW2 3024   4.223   6.816   2.012
  709SOL     OW 3025   0.478   6.099   1.097
  709SOL    HW1 3026   0.410   6.112   1.170
  709SOL    HW2 3027   0.465   6.169   1.027
  710SOL     OW 3028   3.839   3.061   1.335
  710SOL    HW1 3029   3.759   3.099   1.382
  710SOL    HW2 3030   3.888   2.999   1.398
  711SOL     OW 3031   6.867   3.489   5.401
  711SOL    HW1 3032   6.814   3.405   5.387
  711SOL    HW2 3033   6.963   3.466   5.416
  712SOL     OW 3034   4.759   2.652   0.986
  712SOL    HW1 3035   4.758   2.744   1.023
  712SOL    HW2 3036   4.840   2.639   0.929
  713SOL     OW 3037   4.426   2.511   5.825
  713SOL    HW1 3038   4.466   2.464   5.747
  713SOL    HW2 3039   4.425   2.610   5.808
  714SOL     OW 3040   0.165   4.469   3.516
  714SOL    HW1 3041   0.219   4.464   3.601
  714SOL    HW2 3042   0.144   4.565   3.496
  715SOL     OW 3043   5.295   5.925   0.110
  715SOL    HW1 3044   5.243   5.971   0.037
  715SOL    HW2 3045   5.332   5.994   0.172
  716SOL     OW 3046   0.601   0.843   1.778
  716SOL    HW1 3047   0.632   0.809   1.689
  716SOL    HW2 3048   0.622   0.776   1.849
  717SOL     OW 3049   6.510   4.258   4.654
  717SOL    HW1 3050   6.412   4.274   4.670
  717SOL    HW2 3051   6.549   4.211   4.733
  718SOL     OW 3052   4.829   2.560   6.017
  718SOL    HW1 3053   4.818   2.644   6.069
  718SOL    HW2 3054   4.876   2.491   6.073
  719SOL     OW 3055   6.654   0.822   2.704
  719SOL    HW1 3056   6.555   0.837   2.700
  719SOL    HW2 3057   6.687   0.791   2.615
  720SOL     OW 3058   2.680   0.488   6.165
  720SOL    HW1 3059   2.624   0.569   6.149
  720SOL    HW2 3060   2.643   0.436   6.243
  721SOL     OW 3061   2.630   1.852   3.008
  721SOL    HW1 3062   2.551   1.875   2.951
  721SOL    HW2 3063   2.621   1.758   3.040
  722SOL     OW 3064   3.308   0.197   5.617
  722SOL    HW1 3065   3.229   0.194   5.678
  722SOL    HW2 3066   3.282   0.167   5.526
  723SOL     OW 3067   1.572   4.555   3.453
  723SOL    HW1 3068   1.642   4.582   3.386
  723SOL    HW2 3069   1.531   4.638   3.493
  724SOL     OW 3070   0.906   3.008   4.542
  724SOL    HW1 3071   0.875   2.929   4.595
  724SOL    HW2 3072   0.857   3.090   4.572
  725SOL     OW 3073   2.226   5.488   1.107
  725SOL    HW1 3074   2.191   5.421   1.172
  725SOL    HW2 3075   2.319   5.464   1.081
  726SOL     OW 3076   3.519   4.852   1.196
  726SOL    HW1 3077   3.512   4.947   1.225
  726SOL    HW2 3078   3.449   4.832   1.128
  727SOL     OW 3079   5.820   5.207   5.590
  727SOL    HW1 3080   5.771   5.172   5.510
  727SOL    HW2 3081   5.911   5.235   5.563
  728SOL     OW 3082   6.415   3.057   4.748
  728SOL    HW1 3083   6.485   3.027   4.812
  728SOL    HW2 3084   6.399   3.155   4.759
  729SOL     OW 3085   0.727   2.023   1.633
  729SOL    HW1 3086   0.698   1.977   1.717
  729SOL    HW2 3087   0.728   2.122   1.649
  730SOL     OW 3088   5.609   0.245   4.827
  730SOL    HW1 3089   5.616   0.335   4.783
  730SOL    HW2 3090   5.523   0.201   4.800
  731SOL     OW 3091   4.858   4.378   6.421
  731SOL    HW1 3092   4.856   4.319   6.502
  731SOL    HW2 3093   4.877   4.472   6.448
  732SOL     OW 3094   6.648   3.160   1.632
  732SOL    HW1 3095   6.694   3.212   1.704
  732SOL    HW2 3096   6.556   3.135   1.662
  733SOL     OW 3097   5.223   6.871   5.146
  733SOL    HW1 3098   5.312   6.915   5.141
  733SOL    HW2 3099   5.210   6.833   5.237
  734SOL     OW 3100   6.569   4.712   2.732
  734SOL    HW1 3101   6.567   4.624   2.685
  734SOL    HW2 3102   6.519   4.780   2.678
  735SOL     OW 3103   4.716   1.309   0.106
  735SOL    HW1 3104   4.697   1.216   0.138
  735SOL    HW2 3105   4.662   1.374   0.159
  736SOL     OW 3106   6.518   1.528   3.892
  736SOL    HW1 3107   6.434   1.569   3.930
  736SOL    HW2 3108   6.588   1.599   3.882
  737SOL     OW 3109   5.176   1.590   4.889
  737SOL    HW1 3110   5.174   1.628   4.796
  737SOL    HW2 3111   5.088   1.548   4.910
  738SOL     OW 3112   2.101   3.798   1.296
  738SOL    HW1 3113   2.162   3.727   1.260
  738SOL    HW2 3114   2.122   3.816   1.392
  739SOL     OW 3115   5.166   0.993   3.642
  739SOL    HW1 3116   5.209   0.964   3.557
  739SOL    HW2 3117   5.137   0.912   3.694
  740SOL     OW 3118   6.332   0.950   1.716
  740SOL    HW1 3119   6.360   0.874   1.774
  740SOL    HW2 3120   6.404   0.970   1.650
  741SOL     OW 3121   1.819   0.264   3.488
  741SOL    HW1 3122   1.833   0.355   3.449
  741SOL    HW2 3123   1.768   0.208   3.423
  742SOL     OW 3124   2.878   6.524   1.912
  742SOL    HW1 3125   2.976   6.503   1.916
  742SOL    HW2 3126   2.849   6.563   1.999
  743SOL     OW 3127   0.360   4.723   3.388
  743SOL    HW1 3128   0.279   4.753   3.337
  743SOL    HW2 3129   0.440   4.727   3.329
  744SOL     OW 3130   5.348   0.756   0.634
  744SOL    HW1 3131   5.274   0.692   0.650
  744SOL    HW2 3132   5.392   0.735   0.547
  745SOL     OW 3133   1.772   5.459   4.689
  745SOL    HW1 3134   1.766   5.388   4.758
  745SOL    HW2 3135   1.703   5.443   4.618
  746SOL     OW 3136   6.675   3.815   0.079
  746SOL    HW1 3137   6.649   3.766   7.021
  746SOL    HW2 3138   6.734   3.892   0.056
  747SOL     OW 3139   3.555   6.641   4.492
  747SOL    HW1 3140   3.598   6.619   4.404
  747SOL    HW2 3141   3.457   6.623   4.486
  748SOL     OW 3142   4.020   4.858   2.102
  748SOL    HW1 3143   4.024   4.950   2.063
  748SOL    HW2 3144   3.998   4.793   2.030
  749SOL     OW 3145   6.064   3.660   4.990
  749SOL    HW1 3146   5.983   3.712   4.962
  749SOL    HW2 3147   6.130   3.721   5.033
  750SOL     OW 3148   2.406   2.196   1.743
  750SOL    HW1 3149   2.425   2.113   1.691
  750SOL    HW2 3150   2.473   2.206   1.816
  751SOL     OW 3151   4.002   1.928   7.024
  751SOL    HW1 3152   4.033   1.972   6.940
  751SOL    HW2 3153   4.056   1.961   0.075
  752SOL     OW 3154   3.438   1.291   1.992
  752SOL    HW1 3155   3.472   1.210   1.944
  752SOL    HW2 3156   3.416   1.362   1.927
  753SOL     OW 3157   1.581   3.675   5.471
  753SOL    HW1 3158   1.523   3.615   5.417
  753SOL    HW2 3159   1.676   3.664   5.443
  754SOL     OW 3160   4.906   2.447   5.187
  754SOL    HW1 3161   4.852   2.462   5.104
  754SOL    HW2 3162   4.910   2.531   5.240
  755SOL     OW 3163   1.318   4.631   5.336
  755SOL    HW1 3164   1.272   4.637   5.424
  755SOL    HW2 3165   1.304   4.540   5.297
  756SOL     OW 3166   2.972   6.679   6.679
  756SOL    HW1 3167   2.904   6.737   6.633
  756SOL    HW2 3168   3.034   6.737   6.732
  757SOL     OW 3169   0.208   0.372   4.274
  757SOL    HW1 3170   0.243   0.356   4.182
  757SOL    HW2 3171   0.117   0.332   4.282
  758SOL     OW 3172   3.226   0.094   2.890
  758SOL    HW1 3173   3.241   0.118   2.794
  758SOL    HW2 3174   3.151   0.149   2.926
  759SOL     OW 3175   0.418   1.765   2.557
  759SOL    HW1 3176   0.485   1.731   2.490
  759SOL    HW2 3177   0.326   1.753   2.521
  760SOL     OW 3178   6.183   7.011   4.424
  760SOL    HW1 3179   6.277   6.988   4.397
  760SOL    HW2 3180   6.119   6.965   4.364
  761SOL     OW 3181   5.322   3.700   5.984
  761SOL    HW1 3182   5.225   3.723   5.996
  761SOL    HW2 3183   5.359   3.750   5.906
  762SOL     OW 3184   1.914   6.576   4.726
  762SOL    HW1 3185   2.003   6.620   4.738
  762SOL    HW2 3186   1.926   6.482   4.695
  763SOL     OW 3187   4.270   5.094   6.035
  763SOL    HW1 3188   4.232   5.017   6.086
  763SOL    HW2 3189   4.248   5.179   6.083
  764SOL     OW 3190   5.600   0.751   5.341
  764SOL    HW1 3191   5.569   0.844   5.362
  764SOL    HW2 3192   5.535   0.685   5.378
  765SOL     OW 3193   1.640   5.130   1.623
  765SOL    HW1 3194   1.708   5.141   1.550
  765SOL    HW2 3195   1.669   5.182   1.703
  766SOL     OW 3196   2.487   2.399   5.975
  766SOL    HW1 3197   2.441   2.382   5.888
  766SOL    HW2 3198   2.586   2.394   5.963
  767SOL     OW 3199   6.463   6.268   2.315
  767SOL    HW1 3200   6.421   6.265   2.406
  767SOL    HW2 3201   6.497   6.360   2.296
  768SOL     OW 3202   2.544   6.064   2.409
  768SOL    HW1 3203   2.520   6.159   2.425
  768SOL    HW2 3204   2.564   6.050   2.312
  769SOL     OW 3205   2.266   0.609   5.305
  769SOL    HW1 3206   2.243   0.700   5.268
  769SOL    HW2 3207   2.323   0.620   5.386
  770SOL     OW 3208   1.737   4.411   2.948
  770SOL    HW1 3209   1.680   4.443   3.023
  770SOL    HW2 3210   1.687   4.343   2.894
  771SOL     OW 3211   1.376   4.938   3.001
  771SOL    HW1 3212   1.314   4.937   2.922
  771SOL    HW2 3213   1.324   4.957   3.084
  772SOL     OW 3214   5.321   5.157   6.730
  772SOL    HW1 3215   5.407   5.196   6.761
  772SOL    HW2 3216   5.337   5.064   6.697
  773SOL     OW 3217   0.407   4.340   3.991
  773SOL    HW1 3218   0.365   4.273   4.052
  773SOL    HW2 3219   0.501   4.313   3.972
  774SOL     OW 3220   2.043   1.538   1.900
  774SOL    HW1 3221   1.953   1.498   1.884
  774SOL    HW2 3222   2.061   1.540   1.998
  775SOL     OW 3223   1.481   2.859   3.855
  775SOL    HW1 3224   1.539   2.908   3.920
  775SOL    HW2 3225   1.537   2.824   3.779
  776SOL     OW 3226   1.590   0.228   5.852
  776SOL    HW1 3227   1.601   0.173   5.769
  776SOL    HW2 3228   1.523   0.301   5.836
  777SOL     OW 3229   2.042   4.244   1.909
  777SOL    HW1 3230   1.950   4.206   1.901
  777SOL    HW2 3231   2.106   4.189   1.855
  778SOL     OW 3232   2.500   1.263   1.921
  778SOL    HW1 3233   2.495   1.170   1.886
  778SOL    HW2 3234   2.526   1.261   2.018
  779SOL     OW 3235   6.143   2.594   2.273
  779SOL    HW1 3236   6.217   2.535   2.306
  779SOL    HW2 3237   6.081   2.542   2.215
  780SOL     OW 3238   0.515   3.722   3.946
  780SOL    HW1 3239   0.594   3.715   4.008
  780SOL    HW2 3240   0.481   3.630   3.926
  781SOL     OW 3241   6.330   0.037   0.241
  781SOL    HW1 3242   6.290   0.090   0.315
  781SOL    HW2 3243   6.312   6.965   0.255
  782SOL     OW 3244   1.254   3.984   6.705
  782SOL    HW1 3245   1.325   4.000   6.773
  782SOL    HW2 3246   1.289   3.923   6.634
  783SOL     OW 3247   4.809   4.949   2.189
  783SOL    HW1 3248   4.733   4.903   2.143
  783SOL    HW2 3249   4.863   4.881   2.239
  784SOL     OW 3250   4.627   4.706   0.824
  784SOL    HW1 3251   4.622   4.675   0.919
  784SOL    HW2 3252   4.662   4.632   0.767
  785SOL     OW 3253   0.164   2.351   3.662
  785SOL    HW1 3254   0.109   2.347   3.578
  785SOL    HW2 3255   0.257   2.321   3.642
  786SOL     OW 3256   0.906   0.650   2.991
  786SOL    HW1 3257   0.931   0.667   3.086
  786SOL    HW2 3258   0.868   0.733   2.950
  787SOL     OW 3259   1.523   0.053   6.951
  787SOL    HW1 3260   1.467   7.003   6.916
  787SOL    HW2 3261   1.498   0.137   6.903
  788SOL     OW 3262   3.862   1.404   0.247
  788SOL    HW1 3263   3.809   1.431   0.166
  788SOL    HW2 3264   3.829   1.316   0.280
  789SOL     OW 3265   4.504   4.190   1.192
  789SOL    HW1 3266   4.574   4.215   1.259
  789SOL    HW2 3267   4.544   4.193   1.100
  790SOL     OW 3268   2.197   1.139   3.118
  790SOL    HW1 3269   2.098   1.128   3.107
  790SOL    HW2 3270   2.236   1.055   3.155
  791SOL     OW 3271   1.422   5.773   4.329
  791SOL    HW1 3272   1.421   5.673   4.330
  791SOL    HW2 3273   1.510   5.805   4.364
  792SOL     OW 3274   0.708   0.874   1.173
  792SOL    HW1 3275   0.727   0.957   1.119
  792SOL    HW2 3276   0.679   0.900   1.265
  793SOL     OW 3277   4.938   5.040   3.600
  793SOL    HW1 3278   4.982   4.960   3.558
  793SOL    HW2 3279   5.003   5.087   3.659
  794SOL     OW 3280   3.075   3.936   6.013
  794SOL    HW1 3281   3.056   3.956   5.917
  794SOL    HW2 3282   3.058   3.839   6.031
  795SOL     OW 3283   3.421   6.687   4.831
  795SOL    HW1 3284   3.510   6.678   4.787
  795SOL    HW2 3285   3.426   6.649   4.924
  796SOL     OW 3286   6.936   2.272   6.276
  796SOL    HW1 3287   6.906   2.272   6.372
  796SOL    HW2 3288   6.926   2.365   6.239
  797SOL     OW 3289   5.885   2.676   1.166
  797SOL    HW1 3290   5.915   2.642   1.255
  797SOL    HW2 3291   5.886   2.602   1.099
  798SOL     OW 3292   3.506   6.069   2.040
  798SOL    HW1 3293   3.528   6.089   2.136
  798SOL    HW2 3294   3.428   6.125   2.012
  799SOL     OW 3295   0.198   0.071   6.246
  799SOL    HW1 3296   0.272   0.058   6.180
  799SOL    HW2 3297   0.117   0.022   6.216
  800SOL     OW 3298   5.338   1.548   2.868
  800SOL    HW1 3299   5.376   1.477   2.927
  800SOL    HW2 3300   5.339   1.635   2.916
  801SOL     OW 3301   2.123   4.571   4.704
  801SOL    HW1 3302   2.116   4.651   4.645
  801SOL    HW2 3303   2.065   4.497   4.669
  802SOL     OW 3304   2.857   2.098   1.191
  802SOL    HW1 3305   2.825   2.176   1.244
  802SOL    HW2 3306   2.896   2.130   1.105
  803SOL     OW 3307   0.868   0.194   5.681
  803SOL    HW1 3308   0.793   0.174   5.618
  803SOL    HW2 3309   0.835   0.253   5.755
  804SOL     OW 3310   5.776   6.381   6.898
  804SOL    HW1 3311   5.871   6.361   6.875
  804SOL    HW2 3312   5.762   6.364   6.996
  805SOL     OW 3313   3.039   0.809   3.442
  805SOL    HW1 3314   2.943   0.834   3.451
  805SOL    HW2 3315   3.053   0.716   3.475
  806SOL     OW 3316   4.827   1.674   4.123
  806SOL    HW1 3317   4.807   1.640   4.031
  806SOL    HW2 3318   4.881   1.606   4.172
  807SOL     OW 3319   1.581   0.922   5.248
  807SOL    HW1 3320   1.640   0.936   5.169
  807SOL    HW2 3321   1.588   0.999   5.311
  808SOL     OW 3322   3.922   3.893   6.244
  808SOL    HW1 3323   3.864   3.899   6.162
  808SOL    HW2 3324   3.975   3.809   6.242
  809SOL     OW 3325   0.852   4.657   1.388
  809SOL    HW1 3326   0.848   4.706   1.301
  809SOL    HW2 3327   0.761   4.652   1.428
  810SOL     OW 3328   3.414   3.789   1.181
  810SOL    HW1 3329   3.386   3.696   1.160
  810SOL    HW2 3330   3.414   3.843   1.097
  811SOL     OW 3331   5.202   5.763   5.504
  811SOL    HW1 3332   5.232   5.750   5.599
  811SOL    HW2 3333   5.192   5.860   5.485
  812SOL     OW 3334   0.270   0.902   2.607
  812SOL    HW1 3335   0.271   0.809   2.570
  812SOL    HW2 3336   0.180   0.943   2.591
  813SOL     OW 3337   4.442   0.172   4.108
  813SOL    HW1 3338   4.398   0.137   4.191
  813SOL    HW2 3339   4.373   0.206   4.045
  814SOL     OW 3340   5.660   6.288   2.699
  814SOL    HW1 3341   5.681   6.381   2.667
  814SOL    HW2 3342   5.561   6.280   2.713
  815SOL     OW 3343   0.217   3.444   3.669
  815SOL    HW1 3344   0.227   3.346   3.651
  815SOL    HW2 3345   0.124   3.464   3.699
  816SOL     OW 3346   6.206   6.203   0.630
  816SOL    HW1 3347   6.306   6.202   0.628
  816SOL    HW2 3348   6.172   6.259   0.554
  817SOL     OW 3349   1.629   5.069   1.290
  817SOL    HW1 3350   1.688   5.112   1.358
  817SOL    HW2 3351   1.636   5.120   1.204
  818SOL     OW 3352   6.067   2.559   3.164
  818SOL    HW1 3353   6.026   2.628   3.224
  818SOL    HW2 3354   6.070   2.471   3.212
  819SOL     OW 3355   5.994   2.817   2.379
  819SOL    HW1 3356   5.905   2.774   2.392
  819SOL    HW2 3357   6.056   2.753   2.334
  820SOL     OW 3358   3.940   2.150   4.993
  820SOL    HW1 3359   3.891   2.181   5.075
  820SOL    HW2 3360   3.877   2.099   4.934
  821SOL     OW 3361   0.038   3.704   1.081
  821SOL    HW1 3362   0.041   3.709   0.981
  821SOL    HW2 3363   7.019   3.619   1.109
  822SOL     OW 3364   0.692   3.687   3.645
  822SOL    HW1 3365   0.693   3.613   3.712
  822SOL    HW2 3366   0.690   3.775   3.692
  823SOL     OW 3367   5.301   4.062   6.333
  823SOL    HW1 3368   5.290   4.043   6.236
  823SOL    HW2 3369   5.217   4.037   6.382
  824SOL     OW 3370   4.582   1.743   6.375
  824SOL    HW1 3371   4.544   1.782   6.291
  824SOL    HW2 3372   4.544   1.652   6.389
  825SOL     OW 3373   6.696   5.114   1.667
  825SOL    HW1 3374   6.606   5.157   1.683
  825SOL    HW2 3375   6.764   5.185   1.648
  826SOL     OW 3376   3.978   2.468   5.990
  826SOL    HW1 3377   4.044   2.472   6.065
  826SOL    HW2 3378   4.019   2.420   5.913
  827SOL     OW 3379   2.750   4.297   5.505
  827SOL    HW1 3380   2.780   4.224   5.444
  827SOL    HW2 3381   2.830   4.343   5.544
  828SOL     OW 3382   5.419   6.152   0.265
  828SOL    HW1 3383   5.382   6.194   0.348
  828SOL    HW2 3384   5.391   6.206   0.186
  829SOL     OW 3385   3.799   3.583   2.478
  829SOL    HW1 3386   3.889   3.626   2.473
  829SOL    HW2 3387   3.731   3.650   2.508
  830SOL     OW 3388   5.415   4.845   6.786
  830SOL    HW1 3389   5.364   4.867   6.703
  830SOL    HW2 3390   5.478   4.769   6.768
  831SOL     OW 3391   6.476   0.503   0.391
  831SOL    HW1 3392   6.574   0.517   0.377
  831SOL    HW2 3393   6.440   0.443   0.319
  832SOL     OW 3394   4.492   1.093   2.646
  832SOL    HW1 3395   4.437   1.062   2.569
  832SOL    HW2 3396   4.431   1.130   2.717
  833SOL     OW 3397   0.915   4.000   6.554
  833SOL    HW1 3398   0.935   4.007   6.456
  833SOL    HW2 3399   0.889   3.906   6.576
  834SOL     OW 3400   3.802   4.039   1.235
  834SOL    HW1 3401   3.820   4.043   1.333
  834SOL    HW2 3402   3.786   3.944   1.208
  835SOL     OW 3403   3.501   0.104   5.890
  835SOL    HW1 3404   3.558   0.167   5.942
  835SOL    HW2 3405   3.526   0.010   5.913
  836SOL     OW 3406   4.164   6.354   5.434
  836SOL    HW1 3407   4.170   6.441   5.484
  836SOL    HW2 3408   4.114   6.288   5.490
  837SOL     OW 3409   5.458   0.170   1.196
  837SOL    HW1 3410   5.379   0.224   1.226
  837SOL    HW2 3411   5.440   0.134   1.104
  838SOL     OW 3412   2.234   1.009   4.404
  838SOL    HW1 3413   2.260   1.019   4.307
  838SOL    HW2 3414   2.150   1.061   4.421
  839SOL     OW 3415   1.283   1.807   2.483
  839SOL    HW1 3416   1.235   1.873   2.540
  839SOL    HW2 3417   1.220   1.769   2.416
  840SOL     OW 3418   6.862   5.592   0.179
  840SOL    HW1 3419   6.790   5.648   0.138
  840SOL    HW2 3420   6.944   5.596   0.121
  841SOL     OW 3421   3.394   4.815   6.396
  841SOL    HW1 3422   3.477   4.858   6.433
  841SOL    HW2 3423   3.362   4.867   6.317
  842SOL     OW 3424   3.792   0.245   4.766
  842SOL    HW1 3425   3.737   0.312   4.715
  842SOL    HW2 3426   3.731   0.186   4.820
  843SOL     OW 3427   1.037   0.940   1.384
  843SOL    HW1 3428   0.961   0.978   1.435
  843SOL    HW2 3429   1.087   0.875   1.441
  844SOL     OW 3430   5.727   0.497   0.560
  844SOL    HW1 3431   5.709   0.594   0.575
  844SOL    HW2 3432   5.692   0.444   0.637
  845SOL     OW 3433   4.663   4.353   4.430
  845SOL    HW1 3434   4.646   4.364   4.528
  845SOL    HW2 3435   4.757   4.320   4.415
  846SOL     OW 3436   2.110   1.370   5.957
  846SOL    HW1 3437   2.075   1.419   5.876
  846SOL    HW2 3438   2.196   1.326   5.934
  847SOL     OW 3439   1.230   2.854   1.182
  847SOL    HW1 3440   1.292   2.790   1.227
  847SOL    HW2 3441   1.184   2.909   1.252
  848SOL     OW 3442   6.727   0.383   5.766
  848SOL    HW1 3443   6.789   0.307   5.785
  848SOL    HW2 3444   6.695   0.376   5.671
  849SOL     OW 3445   6.505   3.959   5.656
  849SOL    HW1 3446   6.480   4.007   5.740
  849SOL    HW2 3447   6.490   4.019   5.578
  850SOL     OW 3448   4.970   1.063   3.446
  850SOL    HW1 3449   5.053   1.027   3.490
  850SOL    HW2 3450   4.993   1.100   3.356
  851SOL     OW 3451   6.753   2.522   2.535
  851SOL    HW1 3452   6.842   2.564   2.554
  851SOL    HW2 3453   6.738   2.445   2.597
  852SOL     OW 3454   1.191   3.447   0.200
  852SOL    HW1 3455   1.121   3.493   0.254
  852SOL    HW2 3456   1.164   3.352   0.185
  853SOL     OW 3457   1.068   4.449   0.966
  853SOL    HW1 3458   1.033   4.428   1.058
  853SOL    HW2 3459   1.167   4.465   0.971
  854SOL     OW 3460   5.544   4.973   0.793
  854SOL    HW1 3461   5.541   5.039   0.717
  854SOL    HW2 3462   5.464   4.985   0.851
  855SOL     OW 3463   6.466   6.997   1.709
  855SOL    HW1 3464   6.377   0.015   1.724
  855SOL    HW2 3465   6.465   6.906   1.750
  856SOL     OW 3466   1.334   2.367   5.916
  856SOL    HW1 3467   1.391   2.448   5.931
  856SOL    HW2 3468   1.289   2.341   6.002
  857SOL     OW 3469   6.410   4.540   2.102
  857SOL    HW1 3470   6.362   4.469   2.153
  857SOL    HW2 3471   6.383   4.630   2.137
  858SOL     OW 3472   2.689   3.267   1.191
  858SOL    HW1 3473   2.721   3.359   1.210
  858SOL    HW2 3474   2.641   3.265   1.103
  859SOL     OW 3475   5.694   6.602   5.175
  859SOL    HW1 3476   5.660   6.588   5.082
  859SOL    HW2 3477   5.734   6.694   5.182
  860SOL     OW 3478   5.704   2.890   0.503
  860SOL    HW1 3479   5.750   2.971   0.541
  860SOL    HW2 3480   5.690   2.823   0.576
  861SOL     OW 3481   2.619   6.090   3.673
  861SOL    HW1 3482   2.571   6.018   3.723
  861SOL    HW2 3483   2.694   6.050   3.620
  862SOL     OW 3484   1.574   3.690   4.557
  862SOL    HW1 3485   1.634   3.770   4.549
  862SOL    HW2 3486   1.503   3.694   4.486
  863SOL     OW 3487   6.058   1.808   0.827
  863SOL    HW1 3488   6.095   1.899   0.811
  863SOL    HW2 3489   6.011   1.776   0.745
  864SOL     OW 3490   4.227   5.692   4.141
  864SOL    HW1 3491   4.274   5.623   4.085
  864SOL    HW2 3492   4.131   5.666   4.151
  865SOL     OW 3493   1.693   6.257   5.924
  865SOL    HW1 3494   1.702   6.266   6.023
  865SOL    HW2 3495   1.601   6.285   5.896
  866SOL     OW 3496   2.238   1.771   2.303
  866SOL    HW1 3497   2.204   1.863   2.283
  866SOL    HW2 3498   2.321   1.754   2.251
  867SOL     OW 3499   4.852   3.552   0.344
  867SOL    HW1 3500   4.938   3.599   0.364
  867SOL    HW2 3501   4.847   3.469   0.400
  868SOL     OW 3502   5.798   1.225   0.423
  868SOL    HW1 3503   5.768   1.270   0.506
  868SOL    HW2 3504   5.756   1.269   0.344
  869SOL     OW 3505   0.442   4.221   2.860
  869SOL    HW1 3506   0.407   4.167   2.936
  869SOL    HW2 3507   0.400   4.312   2.861
  870SOL     OW 3508   3.946   2.966   0.256
  870SOL    HW1 3509   3.865   3.021   0.275
  870SOL    HW2 3510   4.028   3.020   0.274
  871SOL     OW 3511   4.504   2.022   2.692
  871SOL    HW1 3512   4.414   2.060   2.670
  871SOL    HW2 3513   4.543   1.981   2.610
  872SOL     OW 3514   5.206   3.619   3.821
  872SOL    HW1 3515   5.125   3.561   3.828
  872SOL    HW2 3516   5.287   3.566   3.844
  873SOL     OW 3517   5.854   6.809   4.522
  873SOL    HW1 3518   5.769   6.852   4.493
  873SOL    HW2 3519   5.900   6.867   4.589
  874SOL     OW 3520   0.864   4.028   6.027
  874SOL    HW1 3521   0.870   4.060   5.932
  874SOL    HW2 3522   0.769   4.013   6.052
  875SOL     OW 3523   4.745   3.749   0.826
  875SOL    HW1 3524   4.662   3.803   0.815
  875SOL    HW2 3525   4.728   3.675   0.892
  876SOL     OW 3526   0.892   4.189   2.172
  876SOL    HW1 3527   0.919   4.213   2.079
  876SOL    HW2 3528   0.885   4.090   2.181
  877SOL     OW 3529   3.577   4.330   5.810
  877SOL    HW1 3530   3.661   4.349   5.861
  877SOL    HW2 3531   3.558   4.405   5.748
  878SOL     OW 3532   3.381   6.132   5.200
  878SOL    HW1 3533   3.430   6.045   5.207
  878SOL    HW2 3534   3.283   6.115   5.207
  879SOL     OW 3535   3.381   1.895   0.520
  879SOL    HW1 3536   3.447   1.831   0.481
  879SOL    HW2 3537   3.427   1.979   0.548
  880SOL     OW 3538   2.950   3.688   4.342
  880SOL    HW1 3539   2.932   3.590   4.350
  880SOL    HW2 3540   3.041   3.702   4.302
  881SOL     OW 3541   5.256   3.821   5.321
  881SOL    HW1 3542   5.338   3.838   5.375
  881SOL    HW2 3543   5.178   3.804   5.382
  882SOL     OW 3544   0.683   2.563   4.724
  882SOL    HW1 3545   0.613   2.511   4.773
  882SOL    HW2 3546   0.715   2.510   4.646
  883SOL     OW 3547   3.876   0.246   0.225
  883SOL    HW1 3548   3.964   0.291   0.212
  883SOL    HW2 3549   3.884   0.149   0.200
  884SOL     OW 3550   0.066   4.145   0.119
  884SOL    HW1 3551   0.040   4.048   0.126
  884SOL    HW2 3552   0.057   4.188   0.209
  885SOL     OW 3553   4.858   6.598   5.695
  885SOL    HW1 3554   4.804   6.650   5.628
  885SOL    HW2 3555   4.931   6.657   5.731
  886SOL     OW 3556   3.965   0.992   1.259
  886SOL    HW1 3557   4.018   1.062   1.211
  886SOL    HW2 3558   3.896   0.954   1.198
  887SOL     OW 3559   4.030   5.796   3.649
  887SOL    HW1 3560   4.111   5.784   3.706
  887SOL    HW2 3561   4.056   5.837   3.562
  888SOL     OW 3562   6.835   6.742   2.583
  888SOL    HW1 3563   6.868   6.658   2.541
  888SOL    HW2 3564   6.781   6.720   2.665
  889SOL     OW 3565   0.594   0.770   6.010
  889SOL    HW1 3566   0.652   0.765   5.928
  889SOL    HW2 3567   0.628   0.706   6.078
  890SOL     OW 3568   2.030   4.809   2.001
  890SOL    HW1 3569   1.944   4.780   2.044
  890SOL    HW2 3570   2.107   4.782   2.058
  891SOL     OW 3571   6.782   3.738   0.689
  891SOL    HW1 3572   6.715   3.805   0.720
  891SOL    HW2 3573   6.749   3.645   0.708
  892SOL     OW 3574   3.785   3.957   5.329
  892SOL    HW1 3575   3.884   3.949   5.339
  892SOL    HW2 3576   3.750   4.019   5.399
  893SOL     OW 3577   1.640   0.258   2.824
  893SOL    HW1 3578   1.723   0.257   2.880
  893SOL    HW2 3579   1.596   0.347   2.830
  894SOL     OW 3580   1.151   2.589   3.400
  894SOL    HW1 3581   1.209   2.597   3.481
  894SOL    HW2 3582   1.065   2.638   3.416
  895SOL     OW 3583   1.584   5.336   3.600
  895SOL    HW1 3584   1.615   5.417   3.648
  895SOL    HW2 3585   1.558   5.360   3.506
  896SOL     OW 3586   6.316   5.865   1.887
  896SOL    HW1 3587   6.382   5.841   1.815
  896SOL    HW2 3588   6.335   5.958   1.920
  897SOL     OW 3589   4.418   0.314   6.750
  897SOL    HW1 3590   4.347   0.250   6.780
  897SOL    HW2 3591   4.419   0.394   6.810
  898SOL     OW 3592   3.408   5.823   2.246
  898SOL    HW1 3593   3.382   5.786   2.335
  898SOL    HW2 3594   3.421   5.922   2.254
  899SOL     OW 3595   0.668   5.467   0.305
  899SOL    HW1 3596   0.574   5.451   0.272
  899SOL    HW2 3597   0.714   5.531   0.244
  900SOL     OW 3598   4.936   6.501   6.577
  900SOL    HW1 3599   4.841   6.524   6.555
  900SOL    HW2 3600   4.963   6.549   6.661
  901SOL     OW 3601   1.390   0.721   4.571
  901SOL    HW1 3602   1.445   0.648   4.610
  901SOL    HW2 3603   1.311   0.683   4.525
  902SOL     OW 3604   1.049   2.421   1.289
  902SOL    HW1 3605   1.100   2.405   1.374
  902SOL    HW2 3606   1.114   2.438   1.214
  903SOL     OW 3607   0.264   2.739   6.558
  903SOL    HW1 3608   0.324   2.661   6.540
  903SOL    HW2 3609   0.193   2.713   6.624
  904SOL     OW 3610   2.138   2.709   2.364
  904SOL    HW1 3611   2.211   2.723   2.297
  904SOL    HW2 3612   2.177   2.682   2.452
  905SOL     OW 3613   5.200   4.671   6.374
  905SOL    HW1 3614   5.193   4.716   6.286
  905SOL    HW2 3615   5.108   4.645   6.405
  906SOL     OW 3616   0.955   2.900   6.468
  906SOL    HW1 3617   0.974   2.954   6.549
  906SOL    HW2 3618   0.860   2.912   6.441
  907SOL     OW 3619   5.092   2.388   1.976
  907SOL    HW1 3620   5.096   2.453   2.052
  907SOL    HW2 3621   5.090   2.437   1.889
  908SOL     OW 3622   2.585   5.136   2.705
  908SOL    HW1 3623   2.659   5.198   2.731
  908SOL    HW2 3624   2.527   5.180   2.636
  909SOL     OW 3625   3.396   5.693   2.009
  909SOL    HW1 3626   3.411   5.600   2.044
  909SOL    HW2 3627   3.439   5.759   2.071
  910SOL     OW 3628   3.027   0.691   0.806
  910SOL    HW1 3629   3.057   0.624   0.739
  910SOL    HW2 3630   3.093   0.697   0.881
  911SOL     OW 3631   0.614   5.596   6.673
  911SOL    HW1 3632   0.666   5.670   6.630
  911SOL    HW2 3633   0.526   5.632   6.704
  912SOL     OW 3634   5.213   0.441   3.593
  912SOL    HW1 3635   5.263   0.359   3.621
  912SOL    HW2 3636   5.184   0.432   3.498
  913SOL     OW 3637   2.351   1.084   4.168
  913SOL    HW1 3638   2.277   1.150   4.160
  913SOL    HW2 3639   2.438   1.132   4.177
  914SOL     OW 3640   2.979   5.884   5.520
  914SOL    HW1 3641   2.916   5.812   5.548
  914SOL    HW2 3642   2.930   5.952   5.465
  915SOL     OW 3643   0.877   3.161   1.041
  915SOL    HW1 3644   0.860   3.124   1.132
  915SOL    HW2 3645   0.835   3.101   0.972
  916SOL     OW 3646   2.226   3.033   2.512
  916SOL    HW1 3647   2.192   3.103   2.449
  916SOL    HW2 3648   2.310   2.994   2.476
  917SOL     OW 3649   6.307   1.351   2.703
  917SOL    HW1 3650   6.319   1.357   2.802
  917SOL    HW2 3651   6.376   1.290   2.665
  918SOL     OW 3652   3.510   7.019   0.929
  918SOL    HW1 3653   3.442   0.055   0.889
  918SOL    HW2 3654   3.557   0.040   1.004
  919SOL     OW 3655   6.644   6.327   3.491
  919SOL    HW1 3656   6.592   6.248   3.524
  919SOL    HW2 3657   6.594   6.370   3.416
  920SOL     OW 3658   2.334   4.784   2.640
  920SOL    HW1 3659   2.414   4.730   2.613
  920SOL    HW2 3660   2.339   4.874   2.598
  921SOL     OW 3661   4.354   4.812   3.211
  921SOL    HW1 3662   4.271   4.791   3.264
  921SOL    HW2 3663   4.347   4.769   3.121
  922SOL     OW 3664   3.272   3.734   5.648
  922SOL    HW1 3665   3.329   3.748   5.729
  922SOL    HW2 3666   3.228   3.820   5.623
  923SOL     OW 3667   2.603   4.388   5.852
  923SOL    HW1 3668   2.687   4.440   5.837
  923SOL    HW2 3669   2.585   4.329   5.773
  924SOL     OW 3670   5.740   2.719   3.000
  924SOL    HW1 3671   5.736   2.619   2.994
  924SOL    HW2 3672   5.647   2.755   3.001
  925SOL     OW 3673   0.239   1.498   6.548
  925SOL    HW1 3674   0.304   1.548   6.605
  925SOL    HW2 3675   0.175   1.449   6.606
  926SOL     OW 3676   6.123   1.396   0.979
  926SOL    HW1 3677   6.079   1.486   0.983
  926SOL    HW2 3678   6.176   1.381   1.062
  927SOL     OW 3679   5.693   3.885   3.279
  927SOL    HW1 3680   5.735   3.852   3.194
  927SOL    HW2 3681   5.598   3.910   3.262
  928SOL     OW 3682   1.038   6.323   0.327
  928SOL    HW1 3683   1.066   6.414   0.355
  928SOL    HW2 3684   0.938   6.320   0.316
  929SOL     OW 3685   0.383   0.716   0.910
  929SOL    HW1 3686   0.468   0.689   0.957
  929SOL    HW2 3687   0.370   0.659   0.829
  930SOL     OW 3688   5.428   6.169   4.099
  930SOL    HW1 3689   5.424   6.119   4.185
  930SOL    HW2 3690   5.364   6.129   4.034
  931SOL     OW 3691   5.876   1.959   3.775
  931SOL    HW1 3692   5.886   2.058   3.784
  931SOL    HW2 3693   5.791   1.929   3.819
  932SOL     OW 3694   2.562   6.537   3.763
  932SOL    HW1 3695   2.522   6.588   3.687
  932SOL    HW2 3696   2.613   6.599   3.822
  933SOL     OW 3697   2.015   5.555   3.737
  933SOL    HW1 3698   1.958   5.546   3.819
  933SOL    HW2 3699   2.014   5.650   3.706
  934SOL     OW 3700   1.438   6.851   6.417
  934SOL    HW1 3701   1.379   6.784   6.461
  934SOL    HW2 3702   1.490   6.807   6.344
  935SOL     OW 3703   4.527   4.664   4.404
  935SOL    HW1 3704   4.498   4.588   4.345
  935SOL    HW2 3705   4.473   4.663   4.488
  936SOL     OW 3706   1.099   0.245   6.338
  936SOL    HW1 3707   1.149   0.262   6.423
  936SOL    HW2 3708   1.132   0.308   6.268
  937SOL     OW 3709   5.454   1.422   5.178
  937SOL    HW1 3710   5.528   1.476   5.220
  937SOL    HW2 3711   5.400   1.378   5.250
  938SOL     OW 3712   6.812   5.284   6.025
  938SOL    HW1 3713   6.787   5.189   6.041
  938SOL    HW2 3714   6.833   5.298   5.928
  939SOL     OW 3715   6.834   6.735   5.269
  939SOL    HW1 3716   6.825   6.643   5.231
  939SOL    HW2 3717   6.777   6.743   5.350
  940SOL     OW 3718   0.531   3.321   1.840
  940SOL    HW1 3719   0.569   3.355   1.754
  940SOL    HW2 3720   0.431   3.317   1.833
  941SOL     OW 3721   5.227   1.242   6.176
  941SOL    HW1 3722   5.266   1.269   6.088
  941SOL    HW2 3723   5.290   1.178   6.221
  942SOL     OW 3724   4.983   0.176   2.866
  942SOL    HW1 3725   4.960   0.266   2.905
  942SOL    HW2 3726   4.911   0.111   2.887
  943SOL     OW 3727   2.179   3.584   4.149
  943SOL    HW1 3728   2.162   3.648   4.223
  943SOL    HW2 3729   2.173   3.632   4.061
  944SOL     OW 3730   0.307   4.672   6.051
  944SOL    HW1 3731   0.376   4.605   6.025
  944SOL    HW2 3732   0.349   4.745   6.105
  945SOL     OW 3733   6.502   4.696   5.467
  945SOL    HW1 3734   6.562   4.666   5.541
  945SOL    HW2 3735   6.407   4.698   5.500
  946SOL     OW 3736   4.708   2.935   6.084
  946SOL    HW1 3737   4.612   2.907   6.096
  946SOL    HW2 3738   4.758   2.918   6.169
  947SOL     OW 3739   3.842   2.918   3.330
  947SOL    HW1 3740   3.759   2.904   3.384
  947SOL    HW2 3741   3.915   2.951   3.389
  948SOL     OW 3742   3.867   0.334   2.466
  948SOL    HW1 3743   3.939   0.378   2.412
  948SOL    HW2 3744   3.878   0.234   2.460
  949SOL     OW 3745   0.795   5.948   5.941
  949SOL    HW1 3746   0.886   5.908   5.942
  949SOL    HW2 3747   0.763   5.957   5.847
  950SOL     OW 3748   4.696   5.578   2.012
  950SOL    HW1 3749   4.776   5.602   2.067
  950SOL    HW2 3750   4.644   5.661   1.991
  951SOL     OW 3751   2.295   0.748   3.841
  951SOL    HW1 3752   2.219   0.710   3.789
  951SOL    HW2 3753   2.369   0.681   3.847
  952SOL     OW 3754   4.310   1.764   3.297
  952SOL    HW1 3755   4.394   1.712   3.279
  952SOL    HW2 3756   4.246   1.752   3.222
  953SOL     OW 3757   5.479   4.630   3.902
  953SOL    HW1 3758   5.576   4.645   3.881
  953SOL    HW2 3759   5.465   4.534   3.927
  954SOL     OW 3760   3.690   5.194   1.449
  954SOL    HW1 3761   3.687   5.282   1.496
  954SOL    HW2 3762   3.686   5.208   1.350
  955SOL     OW 3763   0.325   3.724   2.675
  955SOL    HW1 3764   0.343   3.804   2.619
  955SOL    HW2 3765   0.250   3.743   2.738
  956SOL     OW 3766   6.766   1.502   3.248
  956SOL    HW1 3767   6.831   1.561   3.201
  956SOL    HW2 3768   6.675   1.513   3.207
  957SOL     OW 3769   6.240   3.952   5.309
  957SOL    HW1 3770   6.209   4.032   5.361
  957SOL    HW2 3771   6.262   3.878   5.371
  958SOL     OW 3772   4.251   1.790   1.749
  958SOL    HW1 3773   4.173   1.810   1.689
  958SOL    HW2 3774   4.227   1.814   1.843
  959SOL     OW 3775   4.517   5.882   2.697
  959SOL    HW1 3776   4.441   5.846   2.644
  959SOL    HW2 3777   4.542   5.817   2.769
  960SOL     OW 3778   1.292   6.203   1.805
  960SOL    HW1 3779   1.216   6.268   1.811
  960SOL    HW2 3780   1.275   6.138   1.732
  961SOL     OW 3781   4.540   0.109   3.783
  961SOL    HW1 3782   4.609   0.077   3.847
  961SOL    HW2 3783   4.483   0.032   3.753
  962SOL     OW 3784   0.363   1.311   5.270
  962SOL    HW1 3785   0.310   1.309   5.355
  962SOL    HW2 3786   0.446   1.256   5.282
  963SOL     OW 3787   6.305   1.453   6.563
  963SOL    HW1 3788   6.371   1.399   6.615
  963SOL    HW2 3789   6.230   1.480   6.624
  964SOL     OW 3790   5.443   4.249   0.395
  964SOL    HW1 3791   5.518   4.203   0.349
  964SOL    HW2 3792   5.450   4.234   0.494
  965SOL     OW 3793   5.247   2.121   1.445
  965SOL    HW1 3794   5.267   2.197   1.506
  965SOL    HW2 3795   5.148   2.117   1.427
  966SOL     OW 3796   5.454   2.499   2.121
  966SOL    HW1 3797   5.403   2.424   2.162
  966SOL    HW2 3798   5.510   2.543   2.192
  967SOL     OW 3799   2.506   4.261   0.655
  967SOL    HW1 3800   2.406   4.262   0.647
  967SOL    HW2 3801   2.543   4.188   0.598
  968SOL     OW 3802   3.539   0.675   1.599
  968SOL    HW1 3803   3.527   0.577   1.586
  968SOL    HW2 3804   3.494   0.704   1.684
  969SOL     OW 3805   2.824   6.152   6.271
  969SOL    HW1 3806   2.902   6.138   6.331
  969SOL    HW2 3807   2.771   6.067   6.265
  970SOL     OW 3808   5.373   1.048   6.319
  970SOL    HW1 3809   5.445   1.020   6.255
  970SOL    HW2 3810   5.355   0.974   6.384
  971SOL     OW 3811   6.640   2.172   3.289
  971SOL    HW1 3812   6.649   2.159   3.387
  971SOL    HW2 3813   6.724   2.141   3.243
  972SOL     OW 3814   5.304   3.261   2.599
  972SOL    HW1 3815   5.245   3.244   2.520
  972SOL    HW2 3816   5.260   3.227   2.682
  973SOL     OW 3817   0.234   4.736   6.803
  973SOL    HW1 3818   0.139   4.735   6.770
  973SOL    HW2 3819   0.273   4.827   6.789
  974SOL     OW 3820   5.295   6.210   2.130
  974SOL    HW1 3821   5.350   6.126   2.128
  974SOL    HW2 3822   5.309   6.256   2.217
  975SOL     OW 3823   1.531   0.100   6.272
  975SOL    HW1 3824   1.546   0.156   6.354
  975SOL    HW2 3825   1.477   0.019   6.297
  976SOL     OW 3826   6.545   3.571   2.796
  976SOL    HW1 3827   6.512   3.548   2.704
  976SOL    HW2 3828   6.621   3.511   2.819
  977SOL     OW 3829   1.015   0.432   2.288
  977SOL    HW1 3830   1.018   0.528   2.261
  977SOL    HW2 3831   0.959   0.422   2.371
  978SOL     OW 3832   4.717   3.360   5.659
  978SOL    HW1 3833   4.663   3.333   5.579
  978SOL    HW2 3834   4.792   3.295   5.673
  979SOL     OW 3835   0.113   2.460   1.080
  979SOL    HW1 3836   0.126   2.523   1.004
  979SOL    HW2 3837   0.126   2.366   1.048
  980SOL     OW 3838   4.400   2.390   3.825
  980SOL    HW1 3839   4.307   2.373   3.790
  980SOL    HW2 3840   4.464   2.327   3.782
  981SOL     OW 3841   0.066   1.505   4.537
  981SOL    HW1 3842   7.008   1.520   4.591
  981SOL    HW2 3843   0.117   1.429   4.575
  982SOL     OW 3844   2.107   1.901   5.028
  982SOL    HW1 3845   2.031   1.856   4.981
  982SOL    HW2 3846   2.184   1.837   5.036
  983SOL     OW 3847   6.210   3.087   4.318
  983SOL    HW1 3848   6.206   3.043   4.408
  983SOL    HW2 3849   6.302   3.079   4.281
  984SOL     OW 3850   2.609   2.006   5.038
  984SOL    HW1 3851   2.565   1.932   4.987
  984SOL    HW2 3852   2.708   2.001   5.024
  985SOL     OW 3853   5.397   4.017   4.995
  985SOL    HW1 3854   5.358   4.008   4.904
  985SOL    HW2 3855   5.491   3.982   4.994
  986SOL     OW 3856   6.183   4.793   1.125
  986SOL    HW1 3857   6.224   4.734   1.054
  986SOL    HW2 3858   6.084   4.799   1.109
  987SOL     OW 3859   4.431   6.902   2.226
  987SOL    HW1 3860   4.478   6.988   2.247
  987SOL    HW2 3861   4.332   6.916   2.232
  988SOL     OW 3862   3.632   3.120   2.078
  988SOL    HW1 3863   3.651   3.140   2.174
  988SOL    HW2 3864   3.534   3.104   2.066
  989SOL     OW 3865   6.171   1.286   6.210
  989SOL    HW1 3866   6.132   1.367   6.253
  989SOL    HW2 3867   6.270   1.286   6.223
  990SOL     OW 3868   4.637   1.499   2.022
  990SOL    HW1 3869   4.622   1.589   2.063
  990SOL    HW2 3870   4.578   1.432   2.066
  991SOL     OW 3871   0.718   3.463   5.186
  991SOL    HW1 3872   0.809   3.484   5.150
  991SOL    HW2 3873   0.673   3.398   5.125
  992SOL     OW 3874   6.948   2.878   2.055
  992SOL    HW1 3875   6.923   2.881   1.958
  992SOL    HW2 3876   0.022   2.867   2.063
  993SOL     OW 3877   0.459   4.728   1.142
  993SOL    HW1 3878   0.405   4.652   1.105
  993SOL    HW2 3879   0.521   4.762   1.071
  994SOL     OW 3880   4.103   4.712   0.951
  994SOL    HW1 3881   4.016   4.741   0.991
  994SOL    HW2 3882   4.128   4.774   0.877
  995SOL     OW 3883   3.707   2.880   5.196
  995SOL    HW1 3884   3.678   2.966   5.154
  995SOL    HW2 3885   3.750   2.822   5.127
  996SOL     OW 3886   3.288   4.936   4.777
  996SOL    HW1 3887   3.375   4.984   4.763
  996SOL    HW2 3888   3.212   4.993   4.747
  997SOL     OW 3889   1.094   6.931   3.792
  997SOL    HW1 3890   1.132   6.857   3.846
  997SOL    HW2 3891   1.135   6.930   3.701
  998SOL     OW 3892   5.300   0.740   5.077
  998SOL    HW1 3893   5.398   0.727   5.060
  998SOL    HW2 3894   5.266   0.814   5.020
  999SOL     OW 3895   5.062   4.535   2.755
  999SOL    HW1 3896   4.977   4.495   2.722
  999SOL    HW2 3897   5.108   4.583   2.681
 1000SOL     OW 3898   2.506   1.240   1.477
 1000SOL    HW1 3899   2.524   1.322   1.532
 1000SOL    HW2 3900   2.457   1.266   1.394
 1001SOL     OW 3901   4.939   5.634   0.707
 1001SOL    HW1 3902   4.899   5.584   0.784
 1001SOL    HW2 3903   4.926   5.733   0.722
 1002SOL     OW 3904   6.093   1.584   1.362
 1002SOL    HW1 3905   5.998   1.597   1.390
 1002SOL    HW2 3906   6.113   1.486   1.353
 1003SOL     OW 3907   2.148   6.450   2.500
 1003SOL    HW1 3908   2.069   6.467   2.559
 1003SOL    HW2 3909   2.123   6.382   2.430
 1004SOL     OW 3910   0.161   0.159   2.119
 1004SOL    HW1 3911   0.187   0.065   2.097
 1004SOL    HW2 3912   0.155   0.170   2.218
 1005SOL     OW 3913   2.250   3.028   4.154
 1005SOL    HW1 3914   2.281   3.120   4.131
 1005SOL    HW2 3915   2.252   2.971   4.071
 1006SOL     OW 3916   0.843   4.393   1.163
 1006SOL    HW1 3917   0.805   4.400   1.256
 1006SOL    HW2 3918   0.865   4.298   1.144
 1007SOL     OW 3919   4.828   0.530   5.430
 1007SOL    HW1 3920   4.739   0.491   5.407
 1007SOL    HW2 3921   4.884   0.537   5.347
 1008SOL     OW 3922   0.823   3.157   5.948
 1008SOL    HW1 3923   0.830   3.097   5.868
 1008SOL    HW2 3924   0.760   3.232   5.927
 1009SOL     OW 3925   0.540   5.376   4.710
 1009SOL    HW1 3926   0.506   5.327   4.791
 1009SOL    HW2 3927   0.555   5.472   4.734
 1010SOL     OW 3928   3.598   1.873   6.383
 1010SOL    HW1 3929   3.548   1.939   6.439
 1010SOL    HW2 3930   3.552   1.784   6.388
 1011SOL     OW 3931   2.173   4.692   2.430
 1011SOL    HW1 3932   2.221   4.723   2.512
 1011SOL    HW2 3933   2.097   4.633   2.456
 1012SOL     OW 3934   6.560   6.774   2.458
 1012SOL    HW1 3935   6.628   6.846   2.445
 1012SOL    HW2 3936   6.602   6.695   2.502
 1013SOL     OW 3937   1.193   1.190   6.024
 1013SOL    HW1 3938   1.240   1.231   5.946
 1013SOL    HW2 3939   1.094   1.203   6.014
 1014SOL     OW 3940   6.214   5.186   5.840
 1014SOL    HW1 3941   6.194   5.148   5.930
 1014SOL    HW2 3942   6.283   5.257   5.848
 1015SOL     OW 3943   2.417   6.772   5.962
 1015SOL    HW1 3944   2.328   6.728   5.952
 1015SOL    HW2 3945   2.454   6.794   5.871
 1016SOL     OW 3946   4.073   3.266   0.055
 1016SOL    HW1 3947   4.084   3.329   0.132
 1016SOL    HW2 3948   3.979   3.233   0.051
 1017SOL     OW 3949   4.023   3.236   1.208
 1017SOL    HW1 3950   4.098   3.236   1.275
 1017SOL    HW2 3951   3.956   3.167   1.234
 1018SOL     OW 3952   0.323   4.447   4.482
 1018SOL    HW1 3953   0.382   4.373   4.513
 1018SOL    HW2 3954   0.266   4.416   4.406
 1019SOL     OW 3955   6.921   6.625   0.919
 1019SOL    HW1 3956   6.903   6.527   0.915
 1019SOL    HW2 3957   6.943   6.659   0.827
 1020SOL     OW 3958   6.889   1.224   0.943
 1020SOL    HW1 3959   6.872   1.322   0.951
 1020SOL    HW2 3960   6.820   1.183   0.884
 1021SOL     OW 3961   5.766   6.925   1.482
 1021SOL    HW1 3962   5.699   6.996   1.466
 1021SOL    HW2 3963   5.727   6.853   1.539
 1022SOL     OW 3964   3.252   4.205   5.475
 1022SOL    HW1 3965   3.182   4.256   5.425
 1022SOL    HW2 3966   3.313   4.159   5.410
 1023SOL     OW 3967   0.821   0.342   3.197
 1023SOL    HW1 3968   0.783   0.372   3.285
 1023SOL    HW2 3969   0.762   0.375   3.123
 1024SOL     OW 3970   0.591   2.825   4.321
 1024SOL    HW1 3971   0.544   2.750   4.368
 1024SOL    HW2 3972   0.638   2.790   4.240
 1025SOL     OW 3973   3.537   3.710   1.555
 1025SOL    HW1 3974   3.561   3.760   1.638
 1025SOL    HW2 3975   3.456   3.751   1.513
 1026SOL     OW 3976   2.337   2.471   1.041
 1026SOL    HW1 3977   2.320   2.452   1.138
 1026SOL    HW2 3978   2.415   2.416   1.010
 1027SOL     OW 3979   3.412   6.230   1.758
 1027SOL    HW1 3980   3.510   6.219   1.737
 1027SOL    HW2 3981   3.395   6.326   1.781
 1028SOL     OW 3982   2.514   6.198   1.020
 1028SOL    HW1 3983   2.488   6.137   1.096
 1028SOL    HW2 3984   2.451   6.184   0.944
 1029SOL     OW 3985   1.791   0.057   6.700
 1029SOL    HW1 3986   1.821   0.148   6.730
 1029SOL    HW2 3987   1.710   0.066   6.642
 1030SOL     OW 3988   3.224   2.775   1.893
 1030SOL    HW1 3989   3.310   2.793   1.941
 1030SOL    HW2 3990   3.194   2.682   1.911
 1031SOL     OW 3991   5.021   4.186   1.169
 1031SOL    HW1 3992   5.021   4.198   1.268
 1031SOL    HW2 3993   5.029   4.275   1.125
 1032SOL     OW 3994   2.412   2.186   5.496
 1032SOL    HW1 3995   2.338   2.216   5.436
 1032SOL    HW2 3996   2.380   2.184   5.591
 1033SOL     OW 3997   1.440   6.565   1.966
 1033SOL    HW1 3998   1.367   6.503   1.993
 1033SOL    HW2 3999   1.497   6.522   1.897
 1034SOL     OW 4000   0.482   4.975   4.452
 1034SOL    HW1 4001   0.414   4.902   4.462
 1034SOL    HW2 4002   0.551   4.947   4.386
 1035SOL     OW 4003   0.153   1.184   5.044
 1035SOL    HW1 4004   0.203   1.153   5.124
 1035SOL    HW2 4005   0.207   1.252   4.995
 1036SOL     OW 4006   3.491   0.601   1.303
 1036SOL    HW1 4007   3.562   0.551   1.254
 1036SOL    HW2 4008   3.532   0.648   1.382
 1037SOL     OW 4009   1.679   1.171   2.128
 1037SOL    HW1 4010   1.676   1.152   2.226
 1037SOL    HW2 4011   1.594   1.215   2.101
 1038SOL     OW 4012   1.608   1.076   5.510
 1038SOL    HW1 4013   1.644   0.983   5.516
 1038SOL    HW2 4014   1.666   1.137   5.565
 1039SOL     OW 4015   3.653   3.840   4.494
 1039SOL    HW1 4016   3.657   3.939   4.484
 1039SOL    HW2 4017   3.559   3.813   4.517
 1040SOL     OW 4018   4.739   0.989   2.466
 1040SOL    HW1 4019   4.661   1.037   2.505
 1040SOL    HW2 4020   4.716   0.959   2.373
 1041SOL     OW 4021   6.924   6.263   4.137
 1041SOL    HW1 4022   6.886   6.273   4.045
 1041SOL    HW2 4023   7.023   6.276   4.134
 1042SOL     OW 4024   4.220   5.246   2.035
 1042SOL    HW1 4025   4.298   5.194   2.072
 1042SOL    HW2 4026   4.178   5.298   2.109
 1043SOL     OW 4027   3.245   1.915   4.721
 1043SOL    HW1 4028   3.196   1.972   4.787
 1043SOL    HW2 4029   3.343   1.917   4.741
 1044SOL     OW 4030   5.734   5.330   2.824
 1044SOL    HW1 4031   5.804   5.395   2.851
 1044SOL    HW2 4032   5.742   5.311   2.726
 1045SOL     OW 4033   4.151   0.255   2.317
 1045SOL    HW1 4034   4.062   0.222   2.287
 1045SOL    HW2 4035   4.146   0.353   2.337
 1046SOL     OW 4036   1.733   0.338   0.440
 1046SOL    HW1 4037   1.822   0.306   0.471
 1046SOL    HW2 4038   1.710   0.423   0.486
 1047SOL     OW 4039   1.915   0.881   3.720
 1047SOL    HW1 4040   1.984   0.822   3.678
 1047SOL    HW2 4041   1.826   0.836   3.715
 1048SOL     OW 4042   3.755   6.459   3.505
 1048SOL    HW1 4043   3.834   6.397   3.507
 1048SOL    HW2 4044   3.736   6.493   3.597
 1049SOL     OW 4045   6.632   6.285   3.778
 1049SOL    HW1 4046   6.698   6.329   3.839
 1049SOL    HW2 4047   6.627   6.336   3.693
 1050SOL     OW 4048   4.231   4.680   1.202
 1050SOL    HW1 4049   4.155   4.640   1.253
 1050SOL    HW2 4050   4.203   4.696   1.107
 1051SOL     OW 4051   1.561   5.730   0.681
 1051SOL    HW1 4052   1.577   5.711   0.584
 1051SOL    HW2 4053   1.509   5.815   0.690
 1052SOL     OW 4054   4.003   0.727   4.913
 1052SOL    HW1 4055   4.032   0.690   5.001
 1052SOL    HW2 4056   3.965   0.819   4.926
 1053SOL     OW 4057   6.416   5.319   2.750
 1053SOL    HW1 4058   6.373   5.241   2.795
 1053SOL    HW2 4059   6.467   5.288   2.670
 1054SOL     OW 4060   3.360   3.809   6.592
 1054SOL    HW1 4061   3.312   3.811   6.679
 1054SOL    HW2 4062   3.297   3.833   6.518
 1055SOL     OW 4063   3.554   6.284   4.517
 1055SOL    HW1 4064   3.503   6.243   4.442
 1055SOL    HW2 4065   3.638   6.324   4.483
 1056SOL     OW 4066   2.463   4.378   6.440
 1056SOL    HW1 4067   2.373   4.382   6.397
 1056SOL    HW2 4068   2.532   4.413   6.377
 1057SOL     OW 4069   2.866   3.242   1.759
 1057SOL    HW1 4070   2.843   3.313   1.825
 1057SOL    HW2 4071   2.941   3.186   1.795
 1058SOL     OW 4072   5.068   1.845   3.156
 1058SOL    HW1 4073   5.015   1.760   3.161
 1058SOL    HW2 4074   5.060   1.883   3.064
 1059SOL     OW 4075   3.051   0.733   1.998
 1059SOL    HW1 4076   2.988   0.738   1.920
 1059SOL    HW2 4077   3.027   0.804   2.064
 1060SOL     OW 4078   6.892   4.425   4.439
 1060SOL    HW1 4079   6.810   4.473   4.408
 1060SOL    HW2 4080   6.928   4.369   4.365
 1061SOL     OW 4081   6.471   3.030   0.365
 1061SOL    HW1 4082   6.528   2.973   0.424
 1061SOL    HW2 4083   6.462   2.986   0.275
 1062SOL     OW 4084   5.288   5.048   6.081
 1062SOL    HW1 4085   5.229   5.128   6.071
 1062SOL    HW2 4086   5.344   5.057   6.164
 1063SOL     OW 4087   1.323   4.762   1.472
 1063SOL    HW1 4088   1.253   4.743   1.541
 1063SOL    HW2 4089   1.413   4.745   1.511
 1064SOL     OW 4090   1.404   3.956   2.535
 1064SOL    HW1 4091   1.493   3.916   2.512
 1064SOL    HW2 4092   1.343   3.949   2.456
 1065SOL     OW 4093   3.932   0.512   3.494
 1065SOL    HW1 4094   3.986   0.460   3.428
 1065SOL    HW2 4095   3.838   0.522   3.460
 1066SOL     OW 4096   4.783   6.634   3.452
 1066SOL    HW1 4097   4.755   6.707   3.390
 1066SOL    HW2 4098   4.757   6.545   3.413
 1067SOL     OW 4099   0.758   3.423   0.943
 1067SOL    HW1 4100   0.796   3.332   0.960
 1067SOL    HW2 4101   0.784   3.454   0.852
 1068SOL     OW 4102   6.333   5.050   2.844
 1068SOL    HW1 4103   6.377   4.999   2.769
 1068SOL    HW2 4104   6.241   5.014   2.858
 1069SOL     OW 4105   4.335   5.156   1.067
 1069SOL    HW1 4106   4.298   5.144   1.159
 1069SOL    HW2 4107   4.260   5.153   1.000
 1070SOL     OW 4108   0.099   0.615   2.280
 1070SOL    HW1 4109   0.045   0.692   2.245
 1070SOL    HW2 4110   0.114   0.549   2.206
 1071SOL     OW 4111   1.108   0.191   4.283
 1071SOL    HW1 4112   1.015   0.225   4.268
 1071SOL    HW2 4113   1.158   0.192   4.196
 1072SOL     OW 4114   1.721   0.886   0.778
 1072SOL    HW1 4115   1.711   0.974   0.824
 1072SOL    HW2 4116   1.794   0.892   0.709
 1073SOL     OW 4117   5.038   6.802   2.367
 1073SOL    HW1 4118   5.036   6.805   2.267
 1073SOL    HW2 4119   5.021   6.893   2.404
 1074SOL     OW 4120   2.242   5.202   1.254
 1074SOL    HW1 4121   2.309   5.140   1.215
 1074SOL    HW2 4122   2.160   5.203   1.197
 1075SOL     OW 4123   4.926   0.485   3.624
 1075SOL    HW1 4124   4.878   0.444   3.547
 1075SOL    HW2 4125   5.024   0.466   3.617
 1076SOL     OW 4126   6.864   2.121   5.392
 1076SOL    HW1 4127   6.905   2.042   5.437
 1076SOL    HW2 4128   6.767   2.127   5.416
 1077SOL     OW 4129   5.768   0.521   1.105
 1077SOL    HW1 4130   5.781   0.599   1.043
 1077SOL    HW2 4131   5.698   0.544   1.172
 1078SOL     OW 4132   1.289   0.809   2.588
 1078SOL    HW1 4133   1.271   0.904   2.613
 1078SOL    HW2 4134   1.350   0.768   2.655
 1079SOL     OW 4135   1.606   6.583   2.206
 1079SOL    HW1 4136   1.571   6.585   2.113
 1079SOL    HW2 4137   1.556   6.649   2.262
 1080SOL     OW 4138   2.015   4.383   2.989
 1080SOL    HW1 4139   1.920   4.397   2.961
 1080SOL    HW2 4140   2.076   4.433   2.927
 1081SOL     OW 4141   0.448   5.724   5.522
 1081SOL    HW1 4142   0.443   5.651   5.453
 1081SOL    HW2 4143   0.471   5.810   5.478
 1082SOL     OW 4144   4.430   1.889   4.807
 1082SOL    HW1 4145   4.396   1.983   4.812
 1082SOL    HW2 4146   4.358   1.829   4.770
 1083SOL     OW 4147   4.083   4.016   0.775
 1083SOL    HW1 4148   4.035   3.959   0.709
 1083SOL    HW2 4149   4.022   4.087   0.809
 1084SOL     OW 4150   6.027   6.324   7.012
 1084SOL    HW1 4151   6.075   6.412   7.016
 1084SOL    HW2 4152   5.938   6.332   0.030
 1085SOL     OW 4153   1.692   3.358   4.168
 1085SOL    HW1 4154   1.622   3.389   4.233
 1085SOL    HW2 4155   1.708   3.430   4.100
 1086SOL     OW 4156   0.335   5.561   0.403
 1086SOL    HW1 4157   0.237   5.581   0.401
 1086SOL    HW2 4158   0.372   5.562   0.310
 1087SOL     OW 4159   5.729   1.853   4.775
 1087SOL    HW1 4160   5.740   1.873   4.872
 1087SOL    HW2 4161   5.816   1.817   4.738
 1088SOL     OW 4162   0.691   3.934   3.099
 1088SOL    HW1 4163   0.757   3.886   3.042
 1088SOL    HW2 4164   0.724   3.937   3.194
 1089SOL     OW 4165   0.668   6.323   4.301
 1089SOL    HW1 4166   0.673   6.288   4.394
 1089SOL    HW2 4167   0.630   6.252   4.241
 1090SOL     OW 4168   2.605   2.369   3.561
 1090SOL    HW1 4169   2.691   2.320   3.575
 1090SOL    HW2 4170   2.569   2.347   3.470
 1091SOL     OW 4171   3.397   2.153   5.015
 1091SOL    HW1 4172   3.452   2.138   5.097
 1091SOL    HW2 4173   3.313   2.201   5.039
 1092SOL     OW 4174   1.521   3.732   1.404
 1092SOL    HW1 4175   1.545   3.748   1.308
 1092SOL    HW2 4176   1.560   3.805   1.460
 1093SOL     OW 4177   1.939   1.128   2.308
 1093SOL    HW1 4178   1.903   1.116   2.216
 1093SOL    HW2 4179   1.976   1.221   2.318
 1094SOL     OW 4180   6.977   6.894   3.060
 1094SOL    HW1 4181   0.026   6.913   3.123
 1094SOL    HW2 4182   6.957   6.796   3.061
 1095SOL     OW 4183   1.022   2.694   6.258
 1095SOL    HW1 4184   1.034   2.717   6.354
 1095SOL    HW2 4185   0.945   2.746   6.221
 1096SOL     OW 4186   3.551   4.397   1.695
 1096SOL    HW1 4187   3.561   4.483   1.745
 1096SOL    HW2 4188   3.502   4.331   1.751
 1097SOL     OW 4189   2.155   4.502   4.199
 1097SOL    HW1 4190   2.215   4.422   4.202
 1097SOL    HW2 4191   2.205   4.583   4.229
 1098SOL     OW 4192   4.335   3.349   0.106
 1098SOL    HW1 4193   4.324   3.447   0.086
 1098SOL    HW2 4194   4.248   3.303   0.094
 1099SOL     OW 4195   3.873   0.944   5.467
 1099SOL    HW1 4196   3.904   1.026   5.420
 1099SOL    HW2 4197   3.933   0.927   5.546
 1100SOL     OW 4198   3.567   1.806   4.853
 1100SOL    HW1 4199   3.490   1.787   4.913
 1100SOL    HW2 4200   3.573   1.905   4.836
 1101SOL     OW 4201   6.214   2.907   6.632
 1101SOL    HW1 4202   6.155   2.987   6.633
 1101SOL    HW2 4203   6.210   2.864   6.542
 1102SOL     OW 4204   0.476   6.639   4.809
 1102SOL    HW1 4205   0.418   6.695   4.868
 1102SOL    HW2 4206   0.479   6.680   4.718
 1103SOL     OW 4207   4.281   1.657   7.022
 1103SOL    HW1 4208   4.351   1.601   0.041
 1103SOL    HW2 4209   4.230   1.602   6.957
 1104SOL     OW 4210   1.872   3.157   5.960
 1104SOL    HW1 4211   1.831   3.145   6.050
 1104SOL    HW2 4212   1.947   3.091   5.949
 1105SOL     OW 4213   6.549   3.630   5.051
 1105SOL    HW1 4214   6.601   3.653   4.969
 1105SOL    HW2 4215   6.455   3.608   5.025
 1106SOL     OW 4216   0.173   2.566   1.963
 1106SOL    HW1 4217   0.095   2.618   1.928
 1106SOL    HW2 4218   0.234   2.543   1.887
 1107SOL     OW 4219   0.586   0.679   6.664
 1107SOL    HW1 4220   0.560   0.736   6.741
 1107SOL    HW2 4221   0.621   0.737   6.590
 1108SOL     OW 4222   3.691   6.708   5.149
 1108SOL    HW1 4223   3.762   6.650   5.109
 1108SOL    HW2 4224   3.669   6.783   5.087
 1109SOL     OW 4225   4.976   1.523   4.279
 1109SOL    HW1 4226   5.069   1.486   4.284
 1109SOL    HW2 4227   4.941   1.539   4.371
 1110SOL     OW 4228   3.380   1.777   3.195
 1110SOL    HW1 4229   3.362   1.871   3.164
 1110SOL    HW2 4230   3.294   1.736   3.225
 1111SOL     OW 4231   4.690   5.296   6.186
 1111SOL    HW1 4232   4.604   5.336   6.155
 1111SOL    HW2 4233   4.764   5.362   6.173
 1112SOL     OW 4234   4.900   1.805   2.111
 1112SOL    HW1 4235   4.975   1.871   2.109
 1112SOL    HW2 4236   4.892   1.761   2.022
 1113SOL     OW 4237   5.970   4.657   2.071
 1113SOL    HW1 4238   6.005   4.573   2.112
 1113SOL    HW2 4239   6.046   4.721   2.058
 1114SOL     OW 4240   3.291   1.411   6.032
 1114SOL    HW1 4241   3.265   1.481   6.099
 1114SOL    HW2 4242   3.312   1.456   5.945
 1115SOL     OW 4243   4.310   3.019   6.091
 1115SOL    HW1 4244   4.348   3.081   6.159
 1115SOL    HW2 4245   4.211   3.031   6.085
 1116SOL     OW 4246   5.064   0.082   6.048
 1116SOL    HW1 4247   5.159   0.059   6.070
 1116SOL    HW2 4248   5.040   0.170   6.090
 1117SOL     OW 4249   2.381   2.153   2.683
 1117SOL    HW1 4250   2.339   2.104   2.759
 1117SOL    HW2 4251   2.413   2.242   2.714
 1118SOL     OW 4252   2.602   4.112   0.413
 1118SOL    HW1 4253   2.615   4.017   0.385
 1118SOL    HW2 4254   2.690   4.151   0.441
 1119SOL     OW 4255   3.999   4.769   1.469
 1119SOL    HW1 4256   4.012   4.687   1.413
 1119SOL    HW2 4257   4.062   4.765   1.547
 1120SOL     OW 4258   6.091   6.598   0.001
 1120SOL    HW1 4259   6.171   6.603   6.966
 1120SOL    HW2 4260   6.087   6.680   0.058
 1121SOL     OW 4261   6.161   4.752   4.788
 1121SOL    HW1 4262   6.063   4.751   4.769
 1121SOL    HW2 4263   6.177   4.723   4.883
 1122SOL     OW 4264   5.852   2.685   0.361
 1122SOL    HW1 4265   5.824   2.613   0.426
 1122SOL    HW2 4266   5.796   2.766   0.376
 1123SOL     OW 4267   4.920   1.599   3.123
 1123SOL    HW1 4268   4.907   1.543   3.041
 1123SOL    HW2 4269   4.959   1.543   3.196
 1124SOL     OW 4270   0.366   3.307   5.083
 1124SOL    HW1 4271   0.303   3.229   5.090
 1124SOL    HW2 4272   0.432   3.303   5.158
 1125SOL     OW 4273   2.801   2.214   3.943
 1125SOL    HW1 4274   2.801   2.117   3.967
 1125SOL    HW2 4275   2.706   2.246   3.932
 1126SOL     OW 4276   5.698   4.962   0.049
 1126SOL    HW1 4277   5.660   5.048   0.014
 1126SOL    HW2 4278   5.630   4.890   0.037
 1127SOL     OW 4279   5.476   5.546   4.913
 1127SOL    HW1 4280   5.446   5.520   4.821
 1127SOL    HW2 4281   5.398   5.541   4.976
 1128SOL     OW 4282   5.799   1.931   5.080
 1128SOL    HW1 4283   5.749   2.015   5.064
 1128SOL    HW2 4284   5.752   1.877   5.151
 1129SOL     OW 4285   1.613   0.328   0.163
 1129SOL    HW1 4286   1.661   0.321   0.251
 1129SOL    HW2 4287   1.657   0.268   0.096
 1130SOL     OW 4288   3.099   5.061   0.715
 1130SOL    HW1 4289   3.016   5.005   0.708
 1130SOL    HW2 4290   3.179   5.005   0.695
 1131SOL     OW 4291   1.006   5.669   5.326
 1131SOL    HW1 4292   1.054   5.743   5.375
 1131SOL    HW2 4293   0.912   5.664   5.359
 1132SOL     OW 4294   4.948   6.715   2.653
 1132SOL    HW1 4295   5.046   6.707   2.667
 1132SOL    HW2 4296   4.927   6.717   2.555
 1133SOL     OW 4297   1.415   0.726   1.027
 1133SOL    HW1 4298   1.344   0.657   1.041
 1133SOL    HW2 4299   1.435   0.772   1.114
 1134SOL     OW 4300   5.466   0.546   1.765
 1134SOL    HW1 4301   5.476   0.548   1.864
 1134SOL    HW2 4302   5.405   0.620   1.736
 1135SOL     OW 4303   2.682   0.317   2.648
 1135SOL    HW1 4304   2.589   0.288   2.670
 1135SOL    HW2 4305   2.680   0.372   2.564
 1136SOL     OW 4306   4.372   4.674   2.954
 1136SOL    HW1 4307   4.311   4.737   2.907
 1136SOL    HW2 4308   4.381   4.590   2.900
 1137SOL     OW 4309   1.063   0.011   6.520
 1137SOL    HW1 4310   1.032   0.103   6.545
 1137SOL    HW2 4311   1.101   0.012   6.428
 1138SOL     OW 4312   0.306   0.648   5.785
 1138SOL    HW1 4313   0.321   0.739   5.823
 1138SOL    HW2 4314   0.295   0.655   5.686
 1139SOL     OW 4315   3.099   4.860   2.289
 1139SOL    HW1 4316   3.103   4.834   2.385
 1139SOL    HW2 4317   3.192   4.860   2.251
 1140SOL     OW 4318   3.272   1.138   1.444
 1140SOL    HW1 4319   3.309   1.095   1.526
 1140SOL    HW2 4320   3.273   1.073   1.368
 1141SOL     OW 4321   0.097   6.317   6.643
 1141SOL    HW1 4322   0.034   6.260   6.590
 1141SOL    HW2 4323   0.055   6.340   6.731
 1142SOL     OW 4324   3.201   6.682   4.694
 1142SOL    HW1 4325   3.269   6.676   4.766
 1142SOL    HW2 4326   3.245   6.668   4.605
 1143SOL     OW 4327   1.863   3.217   3.516
 1143SOL    HW1 4328   1.811   3.219   3.601
 1143SOL    HW2 4329   1.960   3.209   3.537
 1144SOL     OW 4330   6.434   4.736   4.198
 1144SOL    HW1 4331   6.425   4.731   4.297
 1144SOL    HW2 4332   6.375   4.667   4.156
 1145SOL     OW 4333   6.582   3.377   2.346
 1145SOL    HW1 4334   6.675   3.372   2.381
 1145SOL    HW2 4335   6.571   3.313   2.270
 1146SOL     OW 4336   0.210   0.638   2.532
 1146SOL    HW1 4337   0.135   0.640   2.466
 1146SOL    HW2 4338   0.189   0.573   2.605
 1147SOL     OW 4339   2.739   5.171   1.531
 1147SOL    HW1 4340   2.685   5.246   1.570
 1147SOL    HW2 4341   2.714   5.085   1.576
 1148SOL     OW 4342   4.840   5.996   0.541
 1148SOL    HW1 4343   4.907   5.978   0.614
 1148SOL    HW2 4344   4.885   6.044   0.466
 1149SOL     OW 4345   6.573   3.827   2.859
 1149SOL    HW1 4346   6.560   3.731   2.836
 1149SOL    HW2 4347   6.581   3.837   2.958
 1150SOL     OW 4348   2.054   3.761   0.354
 1150SOL    HW1 4349   2.031   3.674   0.308
 1150SOL    HW2 4350   1.972   3.819   0.357
 1151SOL     OW 4351   4.943   4.691   0.250
 1151SOL    HW1 4352   4.898   4.667   0.164
 1151SOL    HW2 4353   5.042   4.676   0.242
 1152SOL     OW 4354   5.605   4.827   6.306
 1152SOL    HW1 4355   5.580   4.750   6.247
 1152SOL    HW2 4356   5.532   4.895   6.304
 1153SOL     OW 4357   1.183   0.273   1.802
 1153SOL    HW1 4358   1.232   0.243   1.884
 1153SOL    HW2 4359   1.222   0.227   1.722
 1154SOL     OW 4360   6.884   4.882   1.158
 1154SOL    HW1 4361   6.787   4.869   1.177
 1154SOL    HW2 4362   6.928   4.927   1.235
 1155SOL     OW 4363   2.714   5.332   6.190
 1155SOL    HW1 4364   2.646   5.295   6.126
 1155SOL    HW2 4365   2.753   5.416   6.151
 1156SOL     OW 4366   4.361   1.539   4.556
 1156SOL    HW1 4367   4.427   1.527   4.631
 1156SOL    HW2 4368   4.408   1.574   4.475
 1157SOL     OW 4369   5.734   2.018   5.947
 1157SOL    HW1 4370   5.673   2.070   5.887
 1157SOL    HW2 4371   5.823   2.063   5.951
 1158SOL     OW 4372   0.485   5.182   5.391
 1158SOL    HW1 4373   0.446   5.090   5.393
 1158SOL    HW2 4374   0.582   5.177   5.411
 1159SOL     OW 4375   6.337   6.744   3.531
 1159SOL    HW1 4376   6.384   6.705   3.452
 1159SOL    HW2 4377   6.395   6.812   3.574
 1160SOL     OW 4378   5.173   4.754   0.940
 1160SOL    HW1 4379   5.246   4.736   1.006
 1160SOL    HW2 4380   5.212   4.782   0.853
 1161SOL     OW 4381   6.071   0.308   5.923
 1161SOL    HW1 4382   6.061   0.215   5.887
 1161SOL    HW2 4383   6.111   0.304   6.014
 1162SOL     OW 4384   3.375   2.292   6.854
 1162SOL    HW1 4385   3.416   2.238   6.927
 1162SOL    HW2 4386   3.317   2.363   6.893
 1163SOL     OW 4387   6.729   3.875   1.907
 1163SOL    HW1 4388   6.790   3.797   1.895
 1163SOL    HW2 4389   6.776   3.959   1.879
 1164SOL     OW 4390   6.289   3.552   4.876
 1164SOL    HW1 4391   6.223   3.606   4.928
 1164SOL    HW2 4392   6.243   3.506   4.801
 1165SOL     OW 4393   3.308   5.055   3.489
 1165SOL    HW1 4394   3.351   5.008   3.566
 1165SOL    HW2 4395   3.340   5.149   3.485
 1166SOL     OW 4396   4.076   6.987   6.928
 1166SOL    HW1 4397   4.039   7.001   7.020
 1166SOL    HW2 4398   4.028   6.911   6.884
 1167SOL     OW 4399   4.442   6.198   6.975
 1167SOL    HW1 4400   4.514   6.167   0.012
 1167SOL    HW2 4401   4.440   6.139   6.894
 1168SOL     OW 4402   4.898   2.472   2.977
 1168SOL    HW1 4403   4.981   2.498   2.929
 1168SOL    HW2 4404   4.818   2.494   2.920
 1169SOL     OW 4405   4.948   2.364   6.155
 1169SOL    HW1 4406   4.858   2.334   6.187
 1169SOL    HW2 4407   5.003   2.284   6.130
 1170SOL     OW 4408   5.172   0.439   3.307
 1170SOL    HW1 4409   5.267   0.423   3.283
 1170SOL    HW2 4410   5.113   0.412   3.230
 1171SOL     OW 4411   2.478   5.722   6.883
 1171SOL    HW1 4412   2.396   5.769   6.918
 1171SOL    HW2 4413   2.461   5.690   6.790
 1172SOL     OW 4414   3.177   4.231   1.658
 1172SOL    HW1 4415   3.084   4.245   1.692
 1172SOL    HW2 4416   3.177   4.238   1.558
 1173SOL     OW 4417   2.816   0.731   0.164
 1173SOL    HW1 4418   2.880   0.780   0.105
 1173SOL    HW2 4419   2.799   0.785   0.246
 1174SOL     OW 4420   2.813   4.836   1.260
 1174SOL    HW1 4421   2.825   4.778   1.341
 1174SOL    HW2 4422   2.716   4.854   1.246
 1175SOL     OW 4423   4.316   4.217   6.789
 1175SOL    HW1 4424   4.303   4.124   6.822
 1175SOL    HW2 4425   4.380   4.265   6.849
 1176SOL     OW 4426   5.874   4.195   6.602
 1176SOL    HW1 4427   5.820   4.191   6.686
 1176SOL    HW2 4428   5.839   4.128   6.537
 1177SOL     OW 4429   0.326   3.008   4.893
 1177SOL    HW1 4430   0.343   3.097   4.850
 1177SOL    HW2 4431   0.411   2.957   4.899
 1178SOL     OW 4432   3.171   4.288   1.069
 1178SOL    HW1 4433   3.198   4.210   1.126
 1178SOL    HW2 4434   3.244   4.308   1.004
 1179SOL     OW 4435   2.437   5.901   0.712
 1179SOL    HW1 4436   2.443   5.932   0.807
 1179SOL    HW2 4437   2.501   5.826   0.697
 1180SOL     OW 4438   2.604   6.134   4.611
 1180SOL    HW1 4439   2.685   6.182   4.576
 1180SOL    HW2 4440   2.631   6.044   4.645
 1181SOL     OW 4441   6.881   4.072   6.352
 1181SOL    HW1 4442   6.940   4.090   6.273
 1181SOL    HW2 4443   6.831   3.986   6.336
 1182SOL     OW 4444   3.676   4.880   3.152
 1182SOL    HW1 4445   3.682   4.843   3.059
 1182SOL    HW2 4446   3.768   4.884   3.192
 1183SOL     OW 4447   3.244   5.156   1.391
 1183SOL    HW1 4448   3.145   5.148   1.379
 1183SOL    HW2 4449   3.276   5.089   1.458
 1184SOL     OW 4450   6.872   0.838   5.438
 1184SOL    HW1 4451   6.927   0.869   5.516
 1184SOL    HW2 4452   6.778   0.820   5.468
 1185SOL     OW 4453   1.242   0.944   0.357
 1185SOL    HW1 4454   1.162   0.892   0.331
 1185SOL    HW2 4455   1.224   1.042   0.347
 1186SOL     OW 4456   5.276   6.436   5.263
 1186SOL    HW1 4457   5.266   6.337   5.265
 1186SOL    HW2 4458   5.229   6.476   5.342
 1187SOL     OW 4459   5.491   6.908   5.400
 1187SOL    HW1 4460   5.504   6.816   5.363
 1187SOL    HW2 4461   5.533   6.913   5.491
 1188SOL     OW 4462   2.803   5.511   6.412
 1188SOL    HW1 4463   2.794   5.456   6.494
 1188SOL    HW2 4464   2.765   5.462   6.334
 1189SOL     OW 4465   6.152   1.087   1.551
 1189SOL    HW1 4466   6.227   1.052   1.606
 1189SOL    HW2 4467   6.110   1.012   1.499
 1190SOL     OW 4468   2.784   5.627   2.818
 1190SOL    HW1 4469   2.694   5.609   2.778
 1190SOL    HW2 4470   2.779   5.617   2.918
 1191SOL     OW 4471   3.317   6.313   4.114
 1191SOL    HW1 4472   3.265   6.351   4.191
 1191SOL    HW2 4473   3.255   6.262   4.055
 1192SOL     OW 4474   5.620   5.783   3.727
 1192SOL    HW1 4475   5.682   5.829   3.663
 1192SOL    HW2 4476   5.656   5.793   3.820
 1193SOL     OW 4477   6.967   1.476   5.413
 1193SOL    HW1 4478   6.871   1.498   5.397
 1193SOL    HW2 4479   0.000   1.539   5.363
 1194SOL     OW 4480   6.624   1.265   1.875
 1194SOL    HW1 4481   6.570   1.331   1.927
 1194SOL    HW2 4482   6.589   1.173   1.891
 1195SOL     OW 4483   0.506   3.310   0.374
 1195SOL    HW1 4484   0.481   3.216   0.395
 1195SOL    HW2 4485   0.472   3.371   0.446
 1196SOL     OW 4486   6.957   4.188   3.317
 1196SOL    HW1 4487   6.986   4.154   3.406
 1196SOL    HW2 4488   0.008   4.180   3.252
 1197SOL     OW 4489   4.369   6.180   4.111
 1197SOL    HW1 4490   4.464   6.154   4.094
 1197SOL    HW2 4491   4.332   6.123   4.185
 1198SOL     OW 4492   1.532   3.837   2.042
 1198SOL    HW1 4493   1.441   3.875   2.054
 1198SOL    HW2 4494   1.558   3.842   1.946
 1199SOL     OW 4495   3.168   3.792   3.383
 1199SOL    HW1 4496   3.208   3.774   3.293
 1199SOL    HW2 4497   3.173   3.709   3.439
 1200SOL     OW 4498   3.395   4.106   4.283
 1200SOL    HW1 4499   3.433   4.143   4.368
 1200SOL    HW2 4500   3.435   4.017   4.264
 1201SOL     OW 4501   6.973   1.102   4.740
 1201SOL    HW1 4502   6.951   1.032   4.807
 1201SOL    HW2 4503   6.889   1.142   4.704
 1202SOL     OW 4504   0.844   6.095   5.162
 1202SOL    HW1 4505   0.879   6.157   5.232
 1202SOL    HW2 4506   0.864   6.132   5.071
 1203SOL     OW 4507   0.773   5.351   0.544
 1203SOL    HW1 4508   0.717   5.402   0.479
 1203SOL    HW2 4509   0.862   5.330   0.503
 1204SOL     OW 4510   4.346   1.485   1.427
 1204SOL    HW1 4511   4.401   1.465   1.508
 1204SOL    HW2 4512   4.369   1.420   1.355
 1205SOL     OW 4513   3.292   3.492   0.400
 1205SOL    HW1 4514   3.193   3.494   0.414
 1205SOL    HW2 4515   3.321   3.579   0.361
 1206SOL     OW 4516   1.558   3.099   5.114
 1206SOL    HW1 4517   1.510   3.186   5.104
 1206SOL    HW2 4518   1.566   3.055   5.024
 1207SOL     OW 4519   0.468   0.245   0.736
 1207SOL    HW1 4520   0.558   0.224   0.774
 1207SOL    HW2 4521   0.398   0.232   0.806
 1208SOL     OW 4522   3.076   3.597   1.598
 1208SOL    HW1 4523   3.131   3.618   1.679
 1208SOL    HW2 4524   3.026   3.678   1.569
 1209SOL     OW 4525   5.410   0.556   4.114
 1209SOL    HW1 4526   5.510   0.555   4.109
 1209SOL    HW2 4527   5.374   0.468   4.084
 1210SOL     OW 4528   4.063   6.680   3.295
 1210SOL    HW1 4529   3.976   6.667   3.342
 1210SOL    HW2 4530   4.065   6.769   3.250
 1211SOL     OW 4531   1.015   2.973   3.282
 1211SOL    HW1 4532   1.050   2.934   3.367
 1211SOL    HW2 4533   1.071   2.942   3.205
 1212SOL     OW 4534   6.346   0.143   5.822
 1212SOL    HW1 4535   6.328   0.234   5.785
 1212SOL    HW2 4536   6.259   0.100   5.849
 1213SOL     OW 4537   6.160   2.564   1.661
 1213SOL    HW1 4538   6.125   2.599   1.747
 1213SOL    HW2 4539   6.219   2.632   1.618
 1214SOL     OW 4540   0.837   2.313   0.129
 1214SOL    HW1 4541   0.768   2.272   0.070
 1214SOL    HW2 4542   0.912   2.249   0.143
 1215SOL     OW 4543   1.081   4.703   3.234
 1215SOL    HW1 4544   1.153   4.675   3.299
 1215SOL    HW2 4545   0.992   4.683   3.273
 1216SOL     OW 4546   5.499   1.628   0.413
 1216SOL    HW1 4547   5.415   1.679   0.434
 1216SOL    HW2 4548   5.572   1.693   0.392
 1217SOL     OW 4549   2.928   4.873   0.577
 1217SOL    HW1 4550   2.852   4.934   0.552
 1217SOL    HW2 4551   2.897   4.808   0.646
 1218SOL     OW 4552   1.778   3.179   5.269
 1218SOL    HW1 4553   1.838   3.105   5.300
 1218SOL    HW2 4554   1.694   3.141   5.230
 1219SOL     OW 4555   6.051   5.793   1.898
 1219SOL    HW1 4556   6.042   5.819   1.802
 1219SOL    HW2 4557   6.130   5.840   1.939
 1220SOL     OW 4558   0.645   4.398   2.489
 1220SOL    HW1 4559   0.736   4.378   2.524
 1220SOL    HW2 4560   0.632   4.352   2.401
 1221SOL     OW 4561   4.522   3.193   6.430
 1221SOL    HW1 4562   4.515   3.218   6.526
 1221SOL    HW2 4563   4.617   3.171   6.408
 1222SOL     OW 4564   6.836   0.836   6.419
 1222SOL    HW1 4565   6.770   0.779   6.469
 1222SOL    HW2 4566   6.926   0.792   6.422
 1223SOL     OW 4567   3.785   1.467   0.607
 1223SOL    HW1 4568   3.815   1.505   0.520
 1223SOL    HW2 4569   3.790   1.537   0.678
 1224SOL     OW 4570   3.079   6.497   6.990
 1224SOL    HW1 4571   3.133   6.465   6.912
 1224SOL    HW2 4572   3.069   6.597   6.985
 1225SOL     OW 4573   3.320   2.750   6.596
 1225SOL    HW1 4574   3.374   2.692   6.535
 1225SOL    HW2 4575   3.338   2.846   6.575
 1226SOL     OW 4576   3.229   6.553   1.256
 1226SOL    HW1 4577   3.199   6.469   1.210
 1226SOL    HW2 4578   3.151   6.614   1.267
 1227SOL     OW 4579   4.985   4.705   5.711
 1227SOL    HW1 4580   5.009   4.770   5.783
 1227SOL    HW2 4581   5.060   4.639   5.700
 1228SOL     OW 4582   2.785   2.039   6.276
 1228SOL    HW1 4583   2.868   2.029   6.331
 1228SOL    HW2 4584   2.771   2.136   6.254
 1229SOL     OW 4585   3.172   5.407   6.639
 1229SOL    HW1 4586   3.203   5.330   6.582
 1229SOL    HW2 4587   3.251   5.457   6.674
 1230SOL     OW 4588   5.014   6.248   2.035
 1230SOL    HW1 4589   5.113   6.242   2.049
 1230SOL    HW2 4590   4.968   6.238   2.123
 1231SOL     OW 4591   1.775   2.300   5.650
 1231SOL    HW1 4592   1.730   2.377   5.695
 1231SOL    HW2 4593   1.827   2.334   5.571
 1232SOL     OW 4594   6.815   1.813   5.204
 1232SOL    HW1 4595   6.756   1.733   5.215
 1232SOL    HW2 4596   6.801   1.876   5.280
 1233SOL     OW 4597   0.802   5.502   4.998
 1233SOL    HW1 4598   0.864   5.428   5.025
 1233SOL    HW2 4599   0.715   5.492   5.048
 1234SOL     OW 4600   5.654   2.789   5.568
 1234SOL    HW1 4601   5.719   2.800   5.644
 1234SOL    HW2 4602   5.658   2.871   5.510
 1235SOL     OW 4603   5.904   5.874   2.513
 1235SOL    HW1 4604   5.954   5.842   2.593
 1235SOL    HW2 4605   5.967   5.882   2.436
 1236SOL     OW 4606   4.617   0.445   0.731
 1236SOL    HW1 4607   4.668   0.359   0.736
 1236SOL    HW2 4608   4.647   0.498   0.652
 1237SOL     OW 4609   1.733   4.445   6.201
 1237SOL    HW1 4610   1.770   4.356   6.228
 1237SOL    HW2 4611   1.648   4.432   6.151
 1238SOL     OW 4612   0.972   0.975   6.467
 1238SOL    HW1 4613   1.021   1.055   6.433
 1238SOL    HW2 4614   1.029   0.894   6.454
 1239SOL     OW 4615   6.340   6.679   6.895
 1239SOL    HW1 4616   6.394   6.755   6.932
 1239SOL    HW2 4617   6.401   6.612   6.854
 1240SOL     OW 4618   5.547   6.324   0.747
 1240SOL    HW1 4619   5.471   6.262   0.729
 1240SOL    HW2 4620   5.553   6.343   0.845
 1241SOL     OW 4621   5.302   4.363   4.459
 1241SOL    HW1 4622   5.266   4.270   4.457
 1241SOL    HW2 4623   5.340   4.383   4.549
 1242SOL     OW 4624   0.925   3.841   1.326
 1242SOL    HW1 4625   0.953   3.777   1.255
 1242SOL    HW2 4626   0.909   3.931   1.285
 1243SOL     OW 4627   0.774   0.573   4.881
 1243SOL    HW1 4628   0.711   0.550   4.807
 1243SOL    HW2 4629   0.860   0.523   4.867
 1244SOL     OW 4630   5.840   6.721   4.073
 1244SOL    HW1 4631   5.872   6.725   3.978
 1244SOL    HW2 4632   5.783   6.801   4.092
 1245SOL     OW 4633   6.314   4.315   0.808
 1245SOL    HW1 4634   6.293   4.400   0.760
 1245SOL    HW2 4635   6.233   4.256   0.809
 1246SOL     OW 4636   2.456   0.406   1.090
 1246SOL    HW1 4637   2.485   0.490   1.044
 1246SOL    HW2 4638   2.443   0.333   1.023
 1247SOL     OW 4639   0.211   6.614   6.312
 1247SOL    HW1 4640   0.250   6.705   6.324
 1247SOL    HW2 4641   0.264   6.565   6.242
 1248SOL     OW 4642   2.465   0.394   4.962
 1248SOL    HW1 4643   2.432   0.361   4.874
 1248SOL    HW2 4644   2.537   0.334   4.996
 1249SOL     OW 4645   6.668   2.173   2.604
 1249SOL    HW1 4646   6.655   2.232   2.684
 1249SOL    HW2 4647   6.579   2.148   2.566
 1250SOL     OW 4648   5.974   5.642   3.556
 1250SOL    HW1 4649   6.045   5.604   3.496
 1250SOL    HW2 4650   5.894   5.582   3.555
 1251SOL     OW 4651   2.760   0.541   3.422
 1251SOL    HW1 4652   2.791   0.632   3.452
 1251SOL    HW2 4653   2.838   0.478   3.423
 1252SOL     OW 4654   4.879   3.451   6.045
 1252SOL    HW1 4655   4.831   3.363   6.050
 1252SOL    HW2 4656   4.976   3.437   6.064
 1253SOL     OW 4657   2.941   5.887   1.910
 1253SOL    HW1 4658   2.866   5.828   1.878
 1253SOL    HW2 4659   3.001   5.909   1.833
 1254SOL     OW 4660   1.393   2.894   2.838
 1254SOL    HW1 4661   1.370   2.989   2.816
 1254SOL    HW2 4662   1.402   2.841   2.754
 1255SOL     OW 4663   5.850   1.505   6.563
 1255SOL    HW1 4664   5.756   1.501   6.598
 1255SOL    HW2 4665   5.912   1.469   6.632
 1256SOL     OW 4666   6.783   6.243   2.959
 1256SOL    HW1 4667   6.850   6.301   2.912
 1256SOL    HW2 4668   6.803   6.241   3.057
 1257SOL     OW 4669   6.840   6.000   4.843
 1257SOL    HW1 4670   6.775   5.946   4.789
 1257SOL    HW2 4671   6.818   5.990   4.940
 1258SOL     OW 4672   1.486   4.771   3.269
 1258SOL    HW1 4673   1.513   4.828   3.346
 1258SOL    HW2 4674   1.443   4.827   3.198
 1259SOL     OW 4675   3.638   0.732   4.038
 1259SOL    HW1 4676   3.667   0.809   3.982
 1259SOL    HW2 4677   3.590   0.665   3.982
 1260SOL     OW 4678   2.483   2.470   0.099
 1260SOL    HW1 4679   2.556   2.405   0.075
 1260SOL    HW2 4680   2.498   2.504   0.192
 1261SOL     OW 4681   0.138   5.920   6.724
 1261SOL    HW1 4682   0.167   5.958   6.636
 1261SOL    HW2 4683   0.114   5.994   6.786
 1262SOL     OW 4684   5.767   4.205   1.203
 1262SOL    HW1 4685   5.747   4.296   1.238
 1262SOL    HW2 4686   5.850   4.208   1.147
 1263SOL     OW 4687   0.039   2.186   1.683
 1263SOL    HW1 4688   6.973   2.210   1.714
 1263SOL    HW2 4689   0.105   2.252   1.720
 1264SOL     OW 4690   0.071   4.099   1.798
 1264SOL    HW1 4691   0.061   4.032   1.871
 1264SOL    HW2 4692   0.038   4.060   1.712
 1265SOL     OW 4693   5.006   5.196   3.842
 1265SOL    HW1 4694   4.930   5.217   3.903
 1265SOL    HW2 4695   5.033   5.100   3.854
 1266SOL     OW 4696   0.002   1.393   4.276
 1266SOL    HW1 4697   0.079   1.424   4.220
 1266SOL    HW2 4698   0.004   1.441   4.364
 1267SOL     OW 4699   4.716   6.751   1.042
 1267SOL    HW1 4700   4.671   6.676   0.994
 1267SOL    HW2 4701   4.733   6.827   0.979
 1268SOL     OW 4702   2.755   2.642   0.281
 1268SOL    HW1 4703   2.748   2.716   0.215
 1268SOL    HW2 4704   2.666   2.598   0.293
 1269SOL     OW 4705   5.913   5.115   5.072
 1269SOL    HW1 4706   5.898   5.019   5.050
 1269SOL    HW2 4707   5.892   5.172   4.992
 1270SOL     OW 4708   1.391   2.808   3.512
 1270SOL    HW1 4709   1.369   2.714   3.539
 1270SOL    HW2 4710   1.321   2.870   3.546
 1271SOL     OW 4711   2.640   2.005   3.626
 1271SOL    HW1 4712   2.618   2.005   3.528
 1271SOL    HW2 4713   2.690   2.088   3.648
 1272SOL     OW 4714   5.458   4.841   0.023
 1272SOL    HW1 4715   5.441   4.854   6.951
 1272SOL    HW2 4716   5.468   4.743   0.043
 1273SOL     OW 4717   0.512   3.009   0.033
 1273SOL    HW1 4718   0.566   3.092   0.019
 1273SOL    HW2 4719   0.543   2.963   0.116
 1274SOL     OW 4720   6.655   4.863   1.567
 1274SOL    HW1 4721   6.672   4.958   1.594
 1274SOL    HW2 4722   6.603   4.817   1.639
 1275SOL     OW 4723   3.791   1.841   4.444
 1275SOL    HW1 4724   3.888   1.830   4.466
 1275SOL    HW2 4725   3.773   1.935   4.415
 1276SOL     OW 4726   6.699   6.203   5.316
 1276SOL    HW1 4727   6.710   6.108   5.346
 1276SOL    HW2 4728   6.613   6.211   5.265
 1277SOL     OW 4729   1.030   5.773   5.994
 1277SOL    HW1 4730   1.036   5.674   5.978
 1277SOL    HW2 4731   0.991   5.789   6.085
 1278SOL     OW 4732   0.826   6.981   4.626
 1278SOL    HW1 4733   0.901   6.996   4.561
 1278SOL    HW2 4734   0.781   6.894   4.605
 1279SOL     OW 4735   1.870   5.089   0.747
 1279SOL    HW1 4736   1.884   5.024   0.821
 1279SOL    HW2 4737   1.959   5.121   0.713
 1280SOL     OW 4738   3.801   6.368   4.445
 1280SOL    HW1 4739   3.778   6.461   4.418
 1280SOL    HW2 4740   3.864   6.371   4.523
 1281SOL     OW 4741   2.007   6.044   3.324
 1281SOL    HW1 4742   2.006   6.074   3.419
 1281SOL    HW2 4743   1.913   6.024   3.294
 1282SOL     OW 4744   0.067   2.460   6.878
 1282SOL    HW1 4745   0.039   2.535   6.818
 1282SOL    HW2 4746   0.159   2.477   6.913
 1283SOL     OW 4747   0.341   3.545   5.920
 1283SOL    HW1 4748   0.349   3.540   6.019
 1283SOL    HW2 4749   0.431   3.531   5.879
 1284SOL     OW 4750   4.897   2.298   1.197
 1284SOL    HW1 4751   4.848   2.356   1.132
 1284SOL    HW2 4752   4.962   2.354   1.249
 1285SOL     OW 4753   4.190   2.406   6.395
 1285SOL    HW1 4754   4.192   2.306   6.387
 1285SOL    HW2 4755   4.261   2.436   6.459
 1286SOL     OW 4756   4.611   3.893   1.358
 1286SOL    HW1 4757   4.675   3.932   1.292
 1286SOL    HW2 4758   4.518   3.896   1.321
 1287SOL     OW 4759   6.083   5.602   5.234
 1287SOL    HW1 4760   6.002   5.611   5.292
 1287SOL    HW2 4761   6.100   5.505   5.214
 1288SOL     OW 4762   4.046   3.235   6.411
 1288SOL    HW1 4763   3.980   3.307   6.386
 1288SOL    HW2 4764   4.038   3.159   6.347
 1289SOL     OW 4765   6.757   6.841   1.001
 1289SOL    HW1 4766   6.673   6.804   1.040
 1289SOL    HW2 4767   6.827   6.769   0.998
 1290SOL     OW 4768   0.845   6.366   6.905
 1290SOL    HW1 4769   0.855   6.267   6.908
 1290SOL    HW2 4770   0.924   6.409   6.948
 1291SOL     OW 4771   0.000   4.126   4.484
 1291SOL    HW1 4772   6.936   4.142   4.444
 1291SOL    HW2 4773   0.055   4.069   4.422
 1292SOL     OW 4774   0.735   6.058   2.446
 1292SOL    HW1 4775   0.813   6.119   2.450
 1292SOL    HW2 4776   0.651   6.111   2.434
 1293SOL     OW 4777   0.995   1.723   6.793
 1293SOL    HW1 4778   0.956   1.649   6.739
 1293SOL    HW2 4779   1.004   1.805   6.735
 1294SOL     OW 4780   0.882   3.507   6.144
 1294SOL    HW1 4781   0.933   3.525   6.060
 1294SOL    HW2 4782   0.897   3.412   6.172
 1295SOL     OW 4783   0.331   3.560   1.608
 1295SOL    HW1 4784   0.422   3.600   1.594
 1295SOL    HW2 4785   0.328   3.470   1.564
 1296SOL     OW 4786   3.984   6.670   5.738
 1296SOL    HW1 4787   3.932   6.686   5.821
 1296SOL    HW2 4788   3.931   6.614   5.675
 1297SOL     OW 4789   0.048   0.591   1.261
 1297SOL    HW1 4790   0.087   0.613   1.171
 1297SOL    HW2 4791   0.026   0.494   1.266
 1298SOL     OW 4792   5.646   5.161   3.048
 1298SOL    HW1 4793   5.623   5.069   3.016
 1298SOL    HW2 4794   5.685   5.213   2.972
 1299SOL     OW 4795   1.817   3.547   3.309
 1299SOL    HW1 4796   1.794   3.598   3.226
 1299SOL    HW2 4797   1.743   3.482   3.329
 1300SOL     OW 4798   2.457   2.893   1.383
 1300SOL    HW1 4799   2.446   2.842   1.468
 1300SOL    HW2 4800   2.484   2.987   1.403
 1301SOL     OW 4801   0.084   7.013   1.171
 1301SOL    HW1 4802   7.013   0.007   1.151
 1301SOL    HW2 4803   0.095   6.998   1.269
 1302SOL     OW 4804   4.226   0.775   5.935
 1302SOL    HW1 4805   4.150   0.840   5.937
 1302SOL    HW2 4806   4.273   0.782   5.846
 1303SOL     OW 4807   3.874   2.184   1.403
 1303SOL    HW1 4808   3.846   2.212   1.495
 1303SOL    HW2 4809   3.964   2.140   1.406
 1304SOL     OW 4810   2.344   0.721   6.990
 1304SOL    HW1 4811   2.364   0.631   6.952
 1304SOL    HW2 4812   2.254   0.751   6.959
 1305SOL     OW 4813   5.562   3.721   0.988
 1305SOL    HW1 4814   5.544   3.629   1.022
 1305SOL    HW2 4815   5.607   3.715   0.899
 1306SOL     OW 4816   1.175   5.324   3.860
 1306SOL    HW1 4817   1.268   5.346   3.888
 1306SOL    HW2 4818   1.177   5.278   3.771
 1307SOL     OW 4819   1.521   4.126   3.852
 1307SOL    HW1 4820   1.550   4.221   3.842
 1307SOL    HW2 4821   1.526   4.080   3.763
 1308SOL     OW 4822   6.536   6.982   5.315
 1308SOL    HW1 4823   6.437   6.997   5.320
 1308SOL    HW2 4824   6.568   6.948   5.404
 1309SOL     OW 4825   5.437   4.586   5.536
 1309SOL    HW1 4826   5.467   4.676   5.505
 1309SOL    HW2 4827   5.467   4.516   5.471
 1310SOL     OW 4828   6.545   4.159   3.964
 1310SOL    HW1 4829   6.522   4.132   3.871
 1310SOL    HW2 4830   6.641   4.189   3.967
 1311SOL     OW 4831   0.587   6.228   5.171
 1311SOL    HW1 4832   0.656   6.159   5.193
 1311SOL    HW2 4833   0.536   6.199   5.090
 1312SOL     OW 4834   0.740   6.389   6.653
 1312SOL    HW1 4835   0.781   6.403   6.743
 1312SOL    HW2 4836   0.786   6.313   6.607
 1313SOL     OW 4837   0.725   4.900   2.673
 1313SOL    HW1 4838   0.804   4.855   2.632
 1313SOL    HW2 4839   0.743   4.998   2.683
 1314SOL     OW 4840   4.341   1.198   5.683
 1314SOL    HW1 4841   4.276   1.210   5.758
 1314SOL    HW2 4842   4.363   1.287   5.644
 1315SOL     OW 4843   0.864   1.531   2.300
 1315SOL    HW1 4844   0.784   1.473   2.310
 1315SOL    HW2 4845   0.836   1.626   2.286
 1316SOL     OW 4846   2.788   6.043   5.390
 1316SOL    HW1 4847   2.832   6.131   5.375
 1316SOL    HW2 4848   2.694   6.058   5.423
 1317SOL     OW 4849   2.071   4.201   6.201
 1317SOL    HW1 4850   1.974   4.216   6.219
 1317SOL    HW2 4851   2.088   4.211   6.103
 1318SOL     OW 4852   0.841   1.779   1.062
 1318SOL    HW1 4853   0.818   1.682   1.070
 1318SOL    HW2 4854   0.869   1.814   1.152
 1319SOL     OW 4855   6.443   6.545   0.183
 1319SOL    HW1 4856   6.439   6.477   0.110
 1319SOL    HW2 4857   6.538   6.563   0.207
 1320SOL     OW 4858   4.282   4.599   6.872
 1320SOL    HW1 4859   4.186   4.572   6.868
 1320SOL    HW2 4860   4.296   4.664   6.947
 1321SOL     OW 4861   5.681   1.783   6.644
 1321SOL    HW1 4862   5.756   1.759   6.582
 1321SOL    HW2 4863   5.594   1.756   6.603
 1322SOL     OW 4864   3.819   0.997   3.140
 1322SOL    HW1 4865   3.893   1.058   3.169
 1322SOL    HW2 4866   3.807   0.924   3.207
 1323SOL     OW 4867   4.214   0.475   5.885
 1323SOL    HW1 4868   4.174   0.412   5.952
 1323SOL    HW2 4869   4.216   0.567   5.923
 1324SOL     OW 4870   0.617   4.044   6.622
 1324SOL    HW1 4871   0.662   3.970   6.573
 1324SOL    HW2 4872   0.646   4.043   6.718
 1325SOL     OW 4873   2.383   0.196   3.344
 1325SOL    HW1 4874   2.468   0.225   3.388
 1325SOL    HW2 4875   2.310   0.189   3.413
 1326SOL     OW 4876   4.603   3.860   5.383
 1326SOL    HW1 4877   4.580   3.949   5.342
 1326SOL    HW2 4878   4.671   3.814   5.327
 1327SOL     OW 4879   0.956   6.078   1.757
 1327SOL    HW1 4880   0.926   6.096   1.851
 1327SOL    HW2 4881   1.046   6.035   1.758
 1328SOL     OW 4882   1.960   3.098   1.250
 1328SOL    HW1 4883   1.900   3.165   1.206
 1328SOL    HW2 4884   1.909   3.012   1.262
 1329SOL     OW 4885   0.678   2.395   1.941
 1329SOL    HW1 4886   0.655   2.492   1.927
 1329SOL    HW2 4887   0.606   2.351   1.993
 1330SOL     OW 4888   0.866   1.140   2.105
 1330SOL    HW1 4889   0.773   1.173   2.121
 1330SOL    HW2 4890   0.932   1.203   2.146
 1331SOL     OW 4891   4.933   3.052   2.483
 1331SOL    HW1 4892   4.909   3.021   2.575
 1331SOL    HW2 4893   4.888   2.994   2.415
 1332SOL     OW 4894   2.747   0.396   6.858
 1332SOL    HW1 4895   2.704   0.473   6.904
 1332SOL    HW2 4896   2.730   0.403   6.759
 1333SOL     OW 4897   2.996   3.409   4.137
 1333SOL    HW1 4898   2.955   3.486   4.088
 1333SOL    HW2 4899   3.095   3.409   4.120
 1334SOL     OW 4900   5.984   1.790   4.037
 1334SOL    HW1 4901   6.073   1.752   4.014
 1334SOL    HW2 4902   5.955   1.853   3.965
 1335SOL     OW 4903   2.060   1.709   2.492
 1335SOL    HW1 4904   1.985   1.762   2.452
 1335SOL    HW2 4905   2.141   1.717   2.435
 1336SOL     OW 4906   2.100   2.775   5.360
 1336SOL    HW1 4907   2.141   2.684   5.348
 1336SOL    HW2 4908   2.123   2.832   5.281
 1337SOL     OW 4909   1.509   2.222   4.712
 1337SOL    HW1 4910   1.491   2.171   4.627
 1337SOL    HW2 4911   1.425   2.229   4.765
 1338SOL     OW 4912   5.295   2.268   4.606
 1338SOL    HW1 4913   5.223   2.200   4.591
 1338SOL    HW2 4914   5.286   2.342   4.539
 1339SOL     OW 4915   6.430   1.992   6.619
 1339SOL    HW1 4916   6.405   1.953   6.530
 1339SOL    HW2 4917   6.366   1.959   6.688
 1340SOL     OW 4918   6.210   1.673   2.459
 1340SOL    HW1 4919   6.138   1.682   2.390
 1340SOL    HW2 4920   6.290   1.725   2.430
 1341SOL     OW 4921   5.159   6.705   6.521
 1341SOL    HW1 4922   5.254   6.695   6.491
 1341SOL    HW2 4923   5.102   6.732   6.442
 1342SOL     OW 4924   3.052   5.813   6.120
 1342SOL    HW1 4925   3.005   5.823   6.207
 1342SOL    HW2 4926   3.138   5.764   6.134
 1343SOL     OW 4927   5.189   5.476   2.362
 1343SOL    HW1 4928   5.132   5.542   2.411
 1343SOL    HW2 4929   5.214   5.513   2.273
 1344SOL     OW 4930   6.670   5.873   4.678
 1344SOL    HW1 4931   6.761   5.877   4.637
 1344SOL    HW2 4932   6.638   5.779   4.679
 1345SOL     OW 4933   1.241   0.008   3.061
 1345SOL    HW1 4934   1.234   6.940   3.095
 1345SOL    HW2 4935   1.332   0.023   3.023
 1346SOL     OW 4936   0.838   5.569   4.747
 1346SOL    HW1 4937   0.877   5.490   4.698
 1346SOL    HW2 4938   0.797   5.538   4.833
 1347SOL     OW 4939   0.225   6.338   5.291
 1347SOL    HW1 4940   0.173   6.413   5.251
 1347SOL    HW2 4941   0.319   6.367   5.309
 1348SOL     OW 4942   5.393   5.925   3.392
 1348SOL    HW1 4943   5.369   5.932   3.295
 1348SOL    HW2 4944   5.479   5.877   3.402
 1349SOL     OW 4945   4.679   2.404   5.568
 1349SOL    HW1 4946   4.693   2.456   5.484
 1349SOL    HW2 4947   4.741   2.437   5.639
 1350SOL     OW 4948   5.327   5.168   5.320
 1350SOL    HW1 4949   5.346   5.089   5.378
 1350SOL    HW2 4950   5.366   5.250   5.362
 1351SOL     OW 4951   5.839   1.929   2.826
 1351SOL    HW1 4952   5.788   1.867   2.886
 1351SOL    HW2 4953   5.831   1.898   2.731
 1352SOL     OW 4954   0.059   6.227   2.464
 1352SOL    HW1 4955   6.994   6.264   2.485
 1352SOL    HW2 4956   0.060   6.128   2.482
 1353SOL     OW 4957   0.323   2.261   0.655
 1353SOL    HW1 4958   0.282   2.318   0.726
 1353SOL    HW2 4959   0.268   2.267   0.572
 1354SOL     OW 4960   0.976   4.243   1.927
 1354SOL    HW1 4961   1.072   4.237   1.898
 1354SOL    HW2 4962   0.951   4.339   1.939
 1355SOL     OW 4963   6.170   2.743   4.089
 1355SOL    HW1 4964   6.148   2.765   3.994
 1355SOL    HW2 4965   6.263   2.771   4.110
 1356SOL     OW 4966   3.273   3.240   2.540
 1356SOL    HW1 4967   3.370   3.218   2.552
 1356SOL    HW2 4968   3.217   3.182   2.599
 1357SOL     OW 4969   0.602   3.455   6.183
 1357SOL    HW1 4970   0.694   3.427   6.210
 1357SOL    HW2 4971   0.602   3.480   6.087
 1358SOL     OW 4972   4.148   7.017   6.011
 1358SOL    HW1 4973   4.068   6.959   5.996
 1358SOL    HW2 4974   4.228   6.975   5.969
 1359SOL     OW 4975   6.128   5.366   2.071
 1359SOL    HW1 4976   6.032   5.349   2.091
 1359SOL    HW2 4977   6.141   5.371   1.972
 1360SOL     OW 4978   3.207   3.041   6.974
 1360SOL    HW1 4979   3.171   3.064   0.039
 1360SOL    HW2 4980   3.224   3.124   6.922
 1361SOL     OW 4981   0.184   5.503   5.252
 1361SOL    HW1 4982   0.268   5.467   5.293
 1361SOL    HW2 4983   0.105   5.459   5.294
 1362SOL     OW 4984   3.247   4.048   3.690
 1362SOL    HW1 4985   3.231   4.073   3.595
 1362SOL    HW2 4986   3.176   3.984   3.721
 1363SOL     OW 4987   0.215   5.537   2.783
 1363SOL    HW1 4988   0.289   5.604   2.785
 1363SOL    HW2 4989   0.249   5.450   2.747
 1364SOL     OW 4990   6.463   3.218   1.228
 1364SOL    HW1 4991   6.551   3.231   1.273
 1364SOL    HW2 4992   6.413   3.305   1.228
 1365SOL     OW 4993   0.403   3.337   6.861
 1365SOL    HW1 4994   0.348   3.363   6.940
 1365SOL    HW2 4995   0.348   3.280   6.799
 1366SOL     OW 4996   0.867   4.747   0.268
 1366SOL    HW1 4997   0.773   4.778   0.275
 1366SOL    HW2 4998   0.885   4.715   0.174
 1367SOL     OW 4999   2.047   0.117   3.316
 1367SOL    HW1 5000   2.116   0.131   3.386
 1367SOL    HW2 5001   1.973   0.183   3.328
 1368SOL     OW 5002   5.966   0.538   3.173
 1368SOL    HW1 5003   5.980   0.608   3.103
 1368SOL    HW2 5004   5.964   0.581   3.263
 1369SOL     OW 5005   2.583   6.797   1.296
 1369SOL    HW1 5006   2.633   6.742   1.229
 1369SOL    HW2 5007   2.610   6.892   1.289
 1370SOL     OW 5008   3.841   1.052   0.946
 1370SOL    HW1 5009   3.929   1.021   0.910
 1370SOL    HW2 5010   3.785   1.088   0.872
 1371SOL     OW 5011   6.007   2.025   4.514
 1371SOL    HW1 5012   6.068   2.101   4.492
 1371SOL    HW2 5013   5.993   1.970   4.431
 1372SOL     OW 5014   1.419   2.892   0.272
 1372SOL    HW1 5015   1.332   2.875   0.226
 1372SOL    HW2 5016   1.422   2.987   0.304
 1373SOL     OW 5017   5.043   2.927   0.517
 1373SOL    HW1 5018   4.992   2.982   0.451
 1373SOL    HW2 5019   5.125   2.891   0.473
 1374SOL     OW 5020   5.258   1.750   7.011
 1374SOL    HW1 5021   5.248   1.682   0.058
 1374SOL    HW2 5022   5.339   1.730   6.956
 1375SOL     OW 5023   0.266   4.040   6.322
 1375SOL    HW1 5024   0.223   3.950   6.337
 1375SOL    HW2 5025   0.321   4.065   6.401
 1376SOL     OW 5026   4.404   4.673   4.654
 1376SOL    HW1 5027   4.400   4.711   4.747
 1376SOL    HW2 5028   4.312   4.675   4.614
 1377SOL     OW 5029   6.715   4.054   5.942
 1377SOL    HW1 5030   6.691   3.969   5.990
 1377SOL    HW2 5031   6.746   4.122   6.009
 1378SOL     OW 5032   5.985   1.284   4.774
 1378SOL    HW1 5033   6.069   1.239   4.804
 1378SOL    HW2 5034   5.987   1.380   4.801
 1379SOL     OW 5035   3.285   6.884   2.532
 1379SOL    HW1 5036   3.198   6.925   2.557
 1379SOL    HW2 5037   3.317   6.825   2.606
 1380SOL     OW 5038   0.195   0.236   2.463
 1380SOL    HW1 5039   0.247   0.280   2.535
 1380SOL    HW2 5040   0.099   0.265   2.469
 1381SOL     OW 5041   6.435   2.629   0.530
 1381SOL    HW1 5042   6.356   2.670   0.485
 1381SOL    HW2 5043   6.474   2.558   0.470
 1382SOL     OW 5044   4.424   4.451   0.601
 1382SOL    HW1 5045   4.406   4.370   0.545
 1382SOL    HW2 5046   4.337   4.494   0.624
 1383SOL     OW 5047   1.155   0.164   1.526
 1383SOL    HW1 5048   1.255   0.174   1.529
 1383SOL    HW2 5049   1.127   0.132   1.436
 1384SOL     OW 5050   4.227   0.277   1.803
 1384SOL    HW1 5051   4.296   0.242   1.740
 1384SOL    HW2 5052   4.268   0.289   1.894
 1385SOL     OW 5053   1.050   3.559   3.926
 1385SOL    HW1 5054   1.028   3.614   4.006
 1385SOL    HW2 5055   0.981   3.488   3.914
 1386SOL     OW 5056   2.926   0.924   4.942
 1386SOL    HW1 5057   2.836   0.968   4.938
 1386SOL    HW2 5058   2.997   0.991   4.923
 1387SOL     OW 5059   4.028   5.946   2.324
 1387SOL    HW1 5060   4.018   6.027   2.265
 1387SOL    HW2 5061   3.946   5.890   2.318
 1388SOL     OW 5062   0.364   6.700   3.220
 1388SOL    HW1 5063   0.316   6.781   3.189
 1388SOL    HW2 5064   0.405   6.653   3.141
 1389SOL     OW 5065   0.409   1.199   3.800
 1389SOL    HW1 5066   0.374   1.150   3.880
 1389SOL    HW2 5067   0.333   1.235   3.747
 1390SOL     OW 5068   5.498   2.474   5.926
 1390SOL    HW1 5069   5.533   2.401   5.984
 1390SOL    HW2 5070   5.399   2.479   5.934
 1391SOL     OW 5071   6.324   0.729   4.956
 1391SOL    HW1 5072   6.354   0.712   4.862
 1391SOL    HW2 5073   6.236   0.776   4.955
 1392SOL     OW 5074   5.207   6.017   6.850
 1392SOL    HW1 5075   5.272   6.088   6.878
 1392SOL    HW2 5076   5.235   5.979   6.761
 1393SOL     OW 5077   6.174   3.565   6.038
 1393SOL    HW1 5078   6.140   3.494   5.978
 1393SOL    HW2 5079   6.165   3.654   5.993
 1394SOL     OW 5080   3.973   6.439   4.176
 1394SOL    HW1 5081   4.047   6.381   4.212
 1394SOL    HW2 5082   3.912   6.383   4.119
 1395SOL     OW 5083   1.213   4.261   4.045
 1395SOL    HW1 5084   1.214   4.261   3.945
 1395SOL    HW2 5085   1.275   4.331   4.079
 1396SOL     OW 5086   1.608   0.519   3.733
 1396SOL    HW1 5087   1.637   0.505   3.638
 1396SOL    HW2 5088   1.513   0.490   3.744
 1397SOL     OW 5089   0.632   5.941   4.297
 1397SOL    HW1 5090   0.561   6.011   4.292
 1397SOL    HW2 5091   0.705   5.972   4.359
 1398SOL     OW 5092   1.428   1.868   6.460
 1398SOL    HW1 5093   1.489   1.936   6.420
 1398SOL    HW2 5094   1.399   1.804   6.388
 1399SOL     OW 5095   3.919   0.381   6.942
 1399SOL    HW1 5096   3.846   0.395   6.875
 1399SOL    HW2 5097   3.923   0.284   6.966
 1400SOL     OW 5098   6.968   2.158   4.455
 1400SOL    HW1 5099   6.877   2.152   4.497
 1400SOL    HW2 5100   7.007   2.248   4.473
 1401SOL     OW 5101   5.983   6.840   4.281
 1401SOL    HW1 5102   5.940   6.828   4.371
 1401SOL    HW2 5103   5.937   6.781   4.214
 1402SOL     OW 5104   5.937   4.382   6.826
 1402SOL    HW1 5105   5.940   4.481   6.831
 1402SOL    HW2 5106   5.854   4.353   6.777
 1403SOL     OW 5107   1.551   1.924   1.302
 1403SOL    HW1 5108   1.548   1.954   1.397
 1403SOL    HW2 5109   1.566   2.003   1.243
 1404SOL     OW 5110   5.815   6.893   0.222
 1404SOL    HW1 5111   5.779   6.802   0.199
 1404SOL    HW2 5112   5.788   6.917   0.315
 1405SOL     OW 5113   2.710   3.431   0.613
 1405SOL    HW1 5114   2.729   3.371   0.536
 1405SOL    HW2 5115   2.699   3.525   0.581
 1406SOL     OW 5116   2.929   4.762   0.841
 1406SOL    HW1 5117   3.012   4.716   0.872
 1406SOL    HW2 5118   2.851   4.699   0.846
 1407SOL     OW 5119   1.709   3.938   3.381
 1407SOL    HW1 5120   1.678   3.843   3.388
 1407SOL    HW2 5121   1.668   3.981   3.301
 1408SOL     OW 5122   5.336   6.462   6.628
 1408SOL    HW1 5123   5.377   6.534   6.572
 1408SOL    HW2 5124   5.407   6.414   6.680
 1409SOL     OW 5125   6.832   0.563   4.734
 1409SOL    HW1 5126   6.756   0.508   4.769
 1409SOL    HW2 5127   6.915   0.507   4.732
 1410SOL     OW 5128   2.859   4.227   0.355
 1410SOL    HW1 5129   2.799   4.276   0.292
 1410SOL    HW2 5130   2.954   4.252   0.337
 1411SOL     OW 5131   3.682   5.841   6.390
 1411SOL    HW1 5132   3.597   5.800   6.426
 1411SOL    HW2 5133   3.760   5.799   6.436
 1412SOL     OW 5134   0.746   4.184   1.512
 1412SOL    HW1 5135   0.659   4.197   1.560
 1412SOL    HW2 5136   0.787   4.274   1.495
 1413SOL     OW 5137   1.543   1.692   4.258
 1413SOL    HW1 5138   1.529   1.595   4.277
 1413SOL    HW2 5139   1.597   1.732   4.332
 1414SOL     OW 5140   1.613   2.134   2.064
 1414SOL    HW1 5141   1.536   2.190   2.096
 1414SOL    HW2 5142   1.694   2.155   2.118
 1415SOL     OW 5143   2.957   1.615   4.710
 1415SOL    HW1 5144   2.961   1.609   4.610
 1415SOL    HW2 5145   3.022   1.683   4.742
 1416SOL     OW 5146   3.779   0.620   4.266
 1416SOL    HW1 5147   3.716   0.609   4.343
 1416SOL    HW2 5148   3.730   0.660   4.189
 1417SOL     OW 5149   3.006   2.834   6.111
 1417SOL    HW1 5150   2.965   2.904   6.170
 1417SOL    HW2 5151   2.944   2.755   6.105
 1418SOL     OW 5152   2.766   3.631   0.036
 1418SOL    HW1 5153   2.821   3.709   0.065
 1418SOL    HW2 5154   2.730   3.648   6.969
 1419SOL     OW 5155   2.847   5.471   4.048
 1419SOL    HW1 5156   2.927   5.524   4.075
 1419SOL    HW2 5157   2.804   5.431   4.128
 1420SOL     OW 5158   3.840   5.704   2.647
 1420SOL    HW1 5159   3.758   5.672   2.694
 1420SOL    HW2 5160   3.826   5.798   2.616
 1421SOL     OW 5161   1.028   4.028   4.126
 1421SOL    HW1 5162   1.106   4.086   4.104
 1421SOL    HW2 5163   1.019   4.020   4.225
 1422SOL     OW 5164   3.335   4.310   5.980
 1422SOL    HW1 5165   3.253   4.319   5.924
 1422SOL    HW2 5166   3.415   4.339   5.927
 1423SOL     OW 5167   3.169   1.085   4.934
 1423SOL    HW1 5168   3.194   1.157   4.869
 1423SOL    HW2 5169   3.196   0.996   4.898
 1424SOL     OW 5170   6.627   3.418   6.686
 1424SOL    HW1 5171   6.702   3.438   6.623
 1424SOL    HW2 5172   6.551   3.378   6.635
 1425SOL     OW 5173   2.063   5.448   5.704
 1425SOL    HW1 5174   2.155   5.487   5.716
 1425SOL    HW2 5175   2.056   5.407   5.613
 1426SOL     OW 5176   1.827   2.069   5.842
 1426SOL    HW1 5177   1.789   2.161   5.847
 1426SOL    HW2 5178   1.833   2.040   5.746
 1427SOL     OW 5179   0.178   0.026   3.733
 1427SOL    HW1 5180   0.081   0.001   3.734
 1427SOL    HW2 5181   0.188   0.125   3.722
 1428SOL     OW 5182   0.098   2.045   2.001
 1428SOL    HW1 5183   0.099   2.053   2.100
 1428SOL    HW2 5184   0.154   2.117   1.961
 1429SOL     OW 5185   6.235   1.540   7.009
 1429SOL    HW1 5186   6.248   1.544   0.082
 1429SOL    HW2 5187   6.173   1.466   6.986
 1430SOL     OW 5188   2.104   4.574   3.943
 1430SOL    HW1 5189   2.104   4.546   4.039
 1430SOL    HW2 5190   2.151   4.505   3.889
 1431SOL     OW 5191   2.492   2.256   6.231
 1431SOL    HW1 5192   2.493   2.328   6.161
 1431SOL    HW2 5193   2.431   2.285   6.306
 1432SOL     OW 5194   2.198   1.032   1.424
 1432SOL    HW1 5195   2.237   1.112   1.378
 1432SOL    HW2 5196   2.188   1.051   1.521
 1433SOL     OW 5197   4.369   0.033   4.698
 1433SOL    HW1 5198   4.387   6.967   4.734
 1433SOL    HW2 5199   4.414   0.044   4.610
 1434SOL     OW 5200   6.810   0.895   6.080
 1434SOL    HW1 5201   6.839   0.916   6.174
 1434SOL    HW2 5202   6.823   0.798   6.062
 1435SOL     OW 5203   0.038   0.666   3.382
 1435SOL    HW1 5204   6.986   0.702   3.434
 1435SOL    HW2 5205   0.118   0.661   3.441
 1436SOL     OW 5206   6.059   3.820   0.174
 1436SOL    HW1 5207   6.149   3.821   0.219
 1436SOL    HW2 5208   6.054   3.896   0.109
 1437SOL     OW 5209   3.294   0.628   5.640
 1437SOL    HW1 5210   3.346   0.636   5.555
 1437SOL    HW2 5211   3.357   0.632   5.717
 1438SOL     OW 5212   2.760   0.198   1.840
 1438SOL    HW1 5213   2.859   0.208   1.850
 1438SOL    HW2 5214   2.715   0.285   1.861
 1439SOL     OW 5215   0.535   5.000   0.957
 1439SOL    HW1 5216   0.479   4.950   1.023
 1439SOL    HW2 5217   0.530   5.098   0.976
 1440SOL     OW 5218   3.509   3.469   5.233
 1440SOL    HW1 5219   3.607   3.485   5.241
 1440SOL    HW2 5220   3.460   3.536   5.289
 1441SOL     OW 5221   6.185   3.533   4.374
 1441SOL    HW1 5222   6.128   3.563   4.298
 1441SOL    HW2 5223   6.257   3.472   4.341
 1442SOL     OW 5224   0.253   4.905   0.268
 1442SOL    HW1 5225   0.250   4.807   0.289
 1442SOL    HW2 5226   0.330   4.924   0.208
 1443SOL     OW 5227   0.875   2.430   4.969
 1443SOL    HW1 5228   0.805   2.395   4.906
 1443SOL    HW2 5229   0.850   2.408   5.063
 1444SOL     OW 5230   4.594   5.910   1.311
 1444SOL    HW1 5231   4.531   5.971   1.358
 1444SOL    HW2 5232   4.544   5.854   1.245
 1445SOL     OW 5233   0.282   2.673   2.702
 1445SOL    HW1 5234   0.371   2.681   2.658
 1445SOL    HW2 5235   0.291   2.693   2.800
 1446SOL     OW 5236   4.955   2.497   6.611
 1446SOL    HW1 5237   5.036   2.477   6.555
 1446SOL    HW2 5238   4.957   2.593   6.638
 1447SOL     OW 5239   6.565   6.755   5.122
 1447SOL    HW1 5240   6.603   6.811   5.195
 1447SOL    HW2 5241   6.538   6.814   5.046
 1448SOL     OW 5242   6.761   2.292   0.238
 1448SOL    HW1 5243   6.700   2.315   0.162
 1448SOL    HW2 5244   6.850   2.264   0.201
 1449SOL     OW 5245   5.983   0.627   6.858
 1449SOL    HW1 5246   5.984   0.617   6.759
 1449SOL    HW2 5247   5.925   0.555   6.898
 1450SOL     OW 5248   0.724   2.477   2.357
 1450SOL    HW1 5249   0.757   2.393   2.315
 1450SOL    HW2 5250   0.635   2.460   2.399
 1451SOL     OW 5251   3.270   1.042   2.063
 1451SOL    HW1 5252   3.178   1.038   2.103
 1451SOL    HW2 5253   3.283   1.129   2.017
 1452SOL     OW 5254   4.213   1.735   4.711
 1452SOL    HW1 5255   4.209   1.689   4.800
 1452SOL    HW2 5256   4.239   1.669   4.640
 1453SOL     OW 5257   0.058   3.220   5.329
 1453SOL    HW1 5258   0.108   3.166   5.261
 1453SOL    HW2 5259   0.123   3.262   5.392
 1454SOL     OW 5260   6.354   2.486   2.673
 1454SOL    HW1 5261   6.390   2.577   2.653
 1454SOL    HW2 5262   6.257   2.494   2.697
 1455SOL     OW 5263   1.689   6.936   2.318
 1455SOL    HW1 5264   1.701   7.005   2.247
 1455SOL    HW2 5265   1.769   6.876   2.321
 1456SOL     OW 5266   6.511   0.239   5.383
 1456SOL    HW1 5267   6.530   0.150   5.341
 1456SOL    HW2 5268   6.595   0.278   5.419
 1457SOL     OW 5269   1.275   6.779   1.166
 1457SOL    HW1 5270   1.347   6.710   1.174
 1457SOL    HW2 5271   1.308   6.857   1.114
 1458SOL     OW 5272   5.147   6.423   3.836
 1458SOL    HW1 5273   5.138   6.522   3.831
 1458SOL    HW2 5274   5.239   6.396   3.809
 1459SOL     OW 5275   3.162   4.648   6.169
 1459SOL    HW1 5276   3.072   4.629   6.130
 1459SOL    HW2 5277   3.200   4.730   6.127
 1460SOL     OW 5278   0.491   5.208   5.915
 1460SOL    HW1 5279   0.588   5.220   5.894
 1460SOL    HW2 5280   0.437   5.272   5.861
 1461SOL     OW 5281   0.667   5.244   3.146
 1461SOL    HW1 5282   0.703   5.185   3.218
 1461SOL    HW2 5283   0.581   5.206   3.112
 1462SOL     OW 5284   0.385   0.907   5.879
 1462SOL    HW1 5285   0.483   0.893   5.870
 1462SOL    HW2 5286   0.356   0.888   5.973
 1463SOL     OW 5287   0.253   5.800   6.182
 1463SOL    HW1 5288   0.224   5.714   6.140
 1463SOL    HW2 5289   0.332   5.836   6.132
 1464SOL     OW 5290   6.425   7.023   0.836
 1464SOL    HW1 5291   6.395   0.083   0.794
 1464SOL    HW2 5292   6.500   6.984   0.783
 1465SOL     OW 5293   2.001   1.779   3.566
 1465SOL    HW1 5294   2.093   1.741   3.573
 1465SOL    HW2 5295   1.941   1.714   3.520
 1466SOL     OW 5296   1.575   0.551   2.824
 1466SOL    HW1 5297   1.506   0.623   2.834
 1466SOL    HW2 5298   1.605   0.546   2.729
 1467SOL     OW 5299   2.522   1.013   2.087
 1467SOL    HW1 5300   2.429   1.021   2.123
 1467SOL    HW2 5301   2.584   1.068   2.143
 1468SOL     OW 5302   5.102   5.788   3.115
 1468SOL    HW1 5303   5.141   5.712   3.167
 1468SOL    HW2 5304   5.152   5.872   3.136
 1469SOL     OW 5305   0.994   0.712   2.237
 1469SOL    HW1 5306   0.974   0.699   2.140
 1469SOL    HW2 5307   0.989   0.809   2.260
 1470SOL     OW 5308   1.893   0.797   3.101
 1470SOL    HW1 5309   1.920   0.892   3.091
 1470SOL    HW2 5310   1.794   0.789   3.089
 1471SOL     OW 5311   0.346   0.511   0.700
 1471SOL    HW1 5312   0.387   0.422   0.721
 1471SOL    HW2 5313   0.250   0.498   0.674
 1472SOL     OW 5314   4.747   5.966   4.790
 1472SOL    HW1 5315   4.696   6.044   4.751
 1472SOL    HW2 5316   4.830   5.999   4.834
 1473SOL     OW 5317   5.936   5.650   3.872
 1473SOL    HW1 5318   5.954   5.672   3.776
 1473SOL    HW2 5319   6.007   5.691   3.929
 1474SOL     OW 5320   6.125   6.024   3.607
 1474SOL    HW1 5321   6.121   6.111   3.558
 1474SOL    HW2 5322   6.158   5.953   3.545
 1475SOL     OW 5323   6.326   0.193   1.416
 1475SOL    HW1 5324   6.276   0.276   1.390
 1475SOL    HW2 5325   6.419   0.197   1.378
 1476SOL     OW 5326   1.761   1.556   1.667
 1476SOL    HW1 5327   1.757   1.470   1.718
 1476SOL    HW2 5328   1.857   1.583   1.655
 1477SOL     OW 5329   2.397   0.200   6.695
 1477SOL    HW1 5330   2.329   0.232   6.761
 1477SOL    HW2 5331   2.382   0.103   6.675
 1478SOL     OW 5332   5.249   4.425   0.284
 1478SOL    HW1 5333   5.189   4.456   0.359
 1478SOL    HW2 5334   5.321   4.367   0.322
 1479SOL     OW 5335   1.526   3.363   0.002
 1479SOL    HW1 5336   1.527   3.346   6.929
 1479SOL    HW2 5337   1.572   3.450   0.021
 1480SOL     OW 5338   2.843   0.072   6.316
 1480SOL    HW1 5339   2.756   0.097   6.360
 1480SOL    HW2 5340   2.917   0.124   6.357
 1481SOL     OW 5341   0.254   1.607   5.628
 1481SOL    HW1 5342   0.268   1.599   5.529
 1481SOL    HW2 5343   0.174   1.665   5.646
 1482SOL     OW 5344   5.214   2.496   1.097
 1482SOL    HW1 5345   5.172   2.570   1.045
 1482SOL    HW2 5346   5.185   2.408   1.060
 1483SOL     OW 5347   6.407   2.209   6.398
 1483SOL    HW1 5348   6.342   2.270   6.444
 1483SOL    HW2 5349   6.466   2.165   6.467
 1484SOL     OW 5350   6.149   4.374   4.226
 1484SOL    HW1 5351   6.224   4.310   4.210
 1484SOL    HW2 5352   6.133   4.427   4.143
 1485SOL     OW 5353   4.005   1.837   2.465
 1485SOL    HW1 5354   4.006   1.738   2.470
 1485SOL    HW2 5355   4.073   1.874   2.529
 1486SOL     OW 5356   4.764   2.493   2.495
 1486SOL    HW1 5357   4.830   2.465   2.565
 1486SOL    HW2 5358   4.672   2.491   2.532
 1487SOL     OW 5359   0.045   2.651   6.690
 1487SOL    HW1 5360   0.059   2.581   6.619
 1487SOL    HW2 5361   7.002   2.716   6.659
 1488SOL     OW 5362   5.528   2.403   3.213
 1488SOL    HW1 5363   5.557   2.482   3.268
 1488SOL    HW2 5364   5.434   2.379   3.236
 1489SOL     OW 5365   3.830   5.247   4.093
 1489SOL    HW1 5366   3.791   5.215   4.007
 1489SOL    HW2 5367   3.843   5.346   4.089
 1490SOL     OW 5368   1.403   3.048   1.661
 1490SOL    HW1 5369   1.423   2.969   1.719
 1490SOL    HW2 5370   1.305   3.055   1.646
 1491SOL     OW 5371   5.923   3.618   4.197
 1491SOL    HW1 5372   5.969   3.707   4.193
 1491SOL    HW2 5373   5.870   3.612   4.282
 1492SOL     OW 5374   5.447   2.125   2.670
 1492SOL    HW1 5375   5.358   2.167   2.660
 1492SOL    HW2 5376   5.465   2.107   2.767
 1493SOL     OW 5377   4.937   0.161   3.838
 1493SOL    HW1 5378   4.939   0.123   3.745
 1493SOL    HW2 5379   4.913   0.258   3.833
 1494SOL     OW 5380   5.304   2.224   5.855
 1494SOL    HW1 5381   5.396   2.194   5.828
 1494SOL    HW2 5382   5.274   2.173   5.935
 1495SOL     OW 5383   6.711   2.909   4.314
 1495SOL    HW1 5384   6.668   2.831   4.359
 1495SOL    HW2 5385   6.784   2.876   4.254
 1496SOL     OW 5386   1.163   1.384   2.570
 1496SOL    HW1 5387   1.187   1.349   2.660
 1496SOL    HW2 5388   1.072   1.426   2.573
 1497SOL     OW 5389   0.518   3.534   2.772
 1497SOL    HW1 5390   0.469   3.610   2.730
 1497SOL    HW2 5391   0.543   3.467   2.702
 1498SOL     OW 5392   1.993   4.324   6.535
 1498SOL    HW1 5393   1.952   4.412   6.560
 1498SOL    HW2 5394   2.068   4.340   6.470
 1499SOL     OW 5395   1.145   4.007   5.734
 1499SOL    HW1 5396   1.116   3.937   5.800
 1499SOL    HW2 5397   1.230   4.049   5.766
 1500SOL     OW 5398   6.343   6.792   0.246
 1500SOL    HW1 5399   6.365   6.695   0.231
 1500SOL    HW2 5400   6.244   6.804   0.238
 1501SOL     OW 5401   5.035   1.177   6.336
 1501SOL    HW1 5402   5.106   1.208   6.273
 1501SOL    HW2 5403   4.952   1.232   6.322
 1502SOL     OW 5404   5.709   6.642   1.372
 1502SOL    HW1 5405   5.809   6.646   1.370
 1502SOL    HW2 5406   5.676   6.588   1.294
 1503SOL     OW 5407   2.705   1.194   2.202
 1503SOL    HW1 5408   2.676   1.256   2.275
 1503SOL    HW2 5409   2.799   1.216   2.176
 1504SOL     OW 5410   1.019   1.492   4.723
 1504SOL    HW1 5411   0.978   1.431   4.654
 1504SOL    HW2 5412   1.000   1.587   4.699
 1505SOL     OW 5413   5.739   0.664   6.482
 1505SOL    HW1 5414   5.640   0.655   6.499
 1505SOL    HW2 5415   5.757   0.752   6.440
 1506SOL     OW 5416   1.556   4.920   1.728
 1506SOL    HW1 5417   1.594   5.002   1.685
 1506SOL    HW2 5418   1.521   4.944   1.819
 1507SOL     OW 5419   0.585   2.252   5.787
 1507SOL    HW1 5420   0.665   2.207   5.827
 1507SOL    HW2 5421   0.517   2.183   5.761
 1508SOL     OW 5422   6.611   0.614   1.808
 1508SOL    HW1 5423   6.553   0.659   1.876
 1508SOL    HW2 5424   6.553   0.564   1.743
 1509SOL     OW 5425   4.662   2.373   6.238
 1509SOL    HW1 5426   4.587   2.432   6.209
 1509SOL    HW2 5427   4.667   2.373   6.338
 1510SOL     OW 5428   6.108   2.540   4.283
 1510SOL    HW1 5429   6.122   2.444   4.257
 1510SOL    HW2 5430   6.144   2.600   4.212
 1511SOL     OW 5431   3.352   2.523   1.383
 1511SOL    HW1 5432   3.340   2.523   1.482
 1511SOL    HW2 5433   3.293   2.592   1.342
 1512SOL     OW 5434   0.124   6.532   2.114
 1512SOL    HW1 5435   0.073   6.447   2.100
 1512SOL    HW2 5436   0.222   6.512   2.120
 1513SOL     OW 5437   4.365   0.508   3.785
 1513SOL    HW1 5438   4.324   0.496   3.694
 1513SOL    HW2 5439   4.463   0.488   3.780
 1514SOL     OW 5440   4.957   2.713   5.591
 1514SOL    HW1 5441   5.050   2.722   5.625
 1514SOL    HW2 5442   4.908   2.645   5.646
 1515SOL     OW 5443   6.558   3.368   5.149
 1515SOL    HW1 5444   6.530   3.460   5.121
 1515SOL    HW2 5445   6.657   3.361   5.147
 1516SOL     OW 5446   0.597   0.404   1.089
 1516SOL    HW1 5447   0.508   0.390   1.132
 1516SOL    HW2 5448   0.594   0.487   1.034
 1517SOL     OW 5449   3.798   5.826   3.259
 1517SOL    HW1 5450   3.881   5.882   3.249
 1517SOL    HW2 5451   3.746   5.829   3.174
 1518SOL     OW 5452   0.787   3.001   0.459
 1518SOL    HW1 5453   0.846   3.041   0.529
 1518SOL    HW2 5454   0.700   2.972   0.500
 1519SOL     OW 5455   0.068   4.673   2.041
 1519SOL    HW1 5456   0.001   4.722   1.985
 1519SOL    HW2 5457   0.076   4.579   2.009
 1520SOL     OW 5458   1.177   3.413   2.776
 1520SOL    HW1 5459   1.195   3.441   2.871
 1520SOL    HW2 5460   1.208   3.319   2.763
 1521SOL     OW 5461   2.954   3.894   0.090
 1521SOL    HW1 5462   2.927   3.936   0.003
 1521SOL    HW2 5463   3.039   3.844   0.078
 1522SOL     OW 5464   6.495   0.753   4.731
 1522SOL    HW1 5465   6.551   0.704   4.664
 1522SOL    HW2 5466   6.470   0.842   4.695
 1523SOL     OW 5467   5.003   4.021   0.310
 1523SOL    HW1 5468   5.040   3.965   0.383
 1523SOL    HW2 5469   5.076   4.050   0.249
 1524SOL     OW 5470   1.075   2.072   2.176
 1524SOL    HW1 5471   1.166   2.080   2.217
 1524SOL    HW2 5472   1.084   2.065   2.076
 1525SOL     OW 5473   6.260   2.380   0.057
 1525SOL    HW1 5474   6.345   2.421   0.024
 1525SOL    HW2 5475   6.203   2.450   0.099
 1526SOL     OW 5476   1.212   0.367   6.628
 1526SOL    HW1 5477   1.280   0.400   6.562
 1526SOL    HW2 5478   1.141   0.437   6.640
 1527SOL     OW 5479   3.714   0.805   5.895
 1527SOL    HW1 5480   3.751   0.799   5.988
 1527SOL    HW2 5481   3.777   0.761   5.831
 1528SOL     OW 5482   5.101   5.956   1.681
 1528SOL    HW1 5483   5.193   5.991   1.703
 1528SOL    HW2 5484   5.078   5.980   1.587
 1529SOL     OW 5485   3.264   0.972   6.857
 1529SOL    HW1 5486   3.233   0.933   6.944
 1529SOL    HW2 5487   3.237   0.912   6.782
 1530SOL     OW 5488   2.578   0.865   1.865
 1530SOL    HW1 5489   2.558   0.915   1.949
 1530SOL    HW2 5490   2.510   0.793   1.853
 1531SOL     OW 5491   5.748   1.221   4.670
 1531SOL    HW1 5492   5.777   1.194   4.578
 1531SOL    HW2 5493   5.829   1.236   4.727
 1532SOL     OW 5494   2.733   3.243   6.039
 1532SOL    HW1 5495   2.701   3.164   6.091
 1532SOL    HW2 5496   2.831   3.257   6.057
 1533SOL     OW 5497   0.255   3.101   0.053
 1533SOL    HW1 5498   0.203   3.086   6.994
 1533SOL    HW2 5499   0.337   3.045   0.052
 1534SOL     OW 5500   1.011   4.899   6.551
 1534SOL    HW1 5501   1.008   4.989   6.506
 1534SOL    HW2 5502   0.995   4.828   6.483
 1535SOL     OW 5503   5.060   6.135   4.363
 1535SOL    HW1 5504   4.998   6.074   4.413
 1535SOL    HW2 5505   5.006   6.194   4.303
 1536SOL     OW 5506   3.788   4.555   5.347
 1536SOL    HW1 5507   3.700   4.508   5.334
 1536SOL    HW2 5508   3.778   4.651   5.323
 1537SOL     OW 5509   3.808   6.070   3.034
 1537SOL    HW1 5510   3.830   6.152   2.981
 1537SOL    HW2 5511   3.892   6.021   3.057
 1538SOL     OW 5512   3.574   5.509   6.335
 1538SOL    HW1 5513   3.497   5.563   6.368
 1538SOL    HW2 5514   3.571   5.504   6.235
 1539SOL     OW 5515   4.289   4.313   1.362
 1539SOL    HW1 5516   4.315   4.409   1.365
 1539SOL    HW2 5517   4.369   4.257   1.340
 1540SOL     OW 5518   1.260   0.309   5.031
 1540SOL    HW1 5519   1.263   0.309   5.131
 1540SOL    HW2 5520   1.303   0.225   4.997
 1541SOL     OW 5521   3.365   3.078   2.084
 1541SOL    HW1 5522   3.281   3.130   2.097
 1541SOL    HW2 5523   3.350   2.982   2.109
 1542SOL     OW 5524   0.305   5.846   1.291
 1542SOL    HW1 5525   0.227   5.884   1.242
 1542SOL    HW2 5526   0.356   5.785   1.231
 1543SOL     OW 5527   2.924   3.632   4.006
 1543SOL    HW1 5528   2.899   3.718   4.050
 1543SOL    HW2 5529   3.018   3.638   3.971
 1544SOL     OW 5530   3.086   3.856   1.924
 1544SOL    HW1 5531   3.053   3.831   2.015
 1544SOL    HW2 5532   3.118   3.774   1.876
 1545SOL     OW 5533   5.446   0.938   4.766
 1545SOL    HW1 5534   5.509   0.906   4.695
 1545SOL    HW2 5535   5.494   1.001   4.827
 1546SOL     OW 5536   5.516   0.446   6.279
 1546SOL    HW1 5537   5.593   0.382   6.288
 1546SOL    HW2 5538   5.549   0.540   6.292
 1547SOL     OW 5539   2.524   4.591   2.511
 1547SOL    HW1 5540   2.608   4.620   2.465
 1547SOL    HW2 5541   2.546   4.541   2.594
 1548SOL     OW 5542   4.818   3.610   5.607
 1548SOL    HW1 5543   4.798   3.513   5.622
 1548SOL    HW2 5544   4.832   3.655   5.695
 1549SOL     OW 5545   5.067   1.834   2.619
 1549SOL    HW1 5546   5.030   1.844   2.527
 1549SOL    HW2 5547   5.153   1.784   2.615
 1550SOL     OW 5548   3.285   5.702   6.148
 1550SOL    HW1 5549   3.298   5.691   6.050
 1550SOL    HW2 5550   3.266   5.613   6.190
 1551SOL     OW 5551   2.288   3.493   0.176
 1551SOL    HW1 5552   2.385   3.473   0.160
 1551SOL    HW2 5553   2.271   3.590   0.156
 1552SOL     OW 5554   0.584   0.463   1.676
 1552SOL    HW1 5555   0.563   0.453   1.579
 1552SOL    HW2 5556   0.682   0.449   1.690
 1553SOL     OW 5557   6.300   1.184   5.653
 1553SOL    HW1 5558   6.280   1.139   5.741
 1553SOL    HW2 5559   6.217   1.228   5.619
 1554SOL     OW 5560   3.401   1.936   2.923
 1554SOL    HW1 5561   3.366   2.010   2.981
 1554SOL    HW2 5562   3.501   1.933   2.931
 1555SOL     OW 5563   5.182   2.036   5.668
 1555SOL    HW1 5564   5.233   1.974   5.728
 1555SOL    HW2 5565   5.189   2.129   5.702
 1556SOL     OW 5566   3.704   0.928   0.350
 1556SOL    HW1 5567   3.669   1.022   0.347
 1556SOL    HW2 5568   3.744   0.909   0.439
 1557SOL     OW 5569   2.466   1.528   0.020
 1557SOL    HW1 5570   2.447   1.436   0.052
 1557SOL    HW2 5571   2.565   1.543   0.018
 1558SOL     OW 5572   5.665   1.612   4.044
 1558SOL    HW1 5573   5.588   1.567   3.998
 1558SOL    HW2 5574   5.674   1.705   4.011
 1559SOL     OW 5575   0.181   2.602   0.809
 1559SOL    HW1 5576   0.167   2.696   0.840
 1559SOL    HW2 5577   0.259   2.598   0.747
 1560SOL     OW 5578   2.635   1.196   6.579
 1560SOL    HW1 5579   2.611   1.232   6.489
 1560SOL    HW2 5580   2.712   1.248   6.617
 1561SOL     OW 5581   5.837   6.165   2.953
 1561SOL    HW1 5582   5.808   6.085   3.004
 1561SOL    HW2 5583   5.827   6.147   2.855
 1562SOL     OW 5584   3.582   6.113   1.118
 1562SOL    HW1 5585   3.535   6.105   1.206
 1562SOL    HW2 5586   3.597   6.210   1.098
 1563SOL     OW 5587   2.245   1.685   5.780
 1563SOL    HW1 5588   2.186   1.757   5.745
 1563SOL    HW2 5589   2.292   1.717   5.862
 1564SOL     OW 5590   1.541   2.243   2.840
 1564SOL    HW1 5591   1.501   2.334   2.854
 1564SOL    HW2 5592   1.478   2.186   2.788
 1565SOL     OW 5593   3.805   5.273   4.383
 1565SOL    HW1 5594   3.838   5.182   4.359
 1565SOL    HW2 5595   3.784   5.324   4.300
 1566SOL     OW 5596   6.697   5.616   4.899
 1566SOL    HW1 5597   6.791   5.639   4.877
 1566SOL    HW2 5598   6.644   5.605   4.815
 1567SOL     OW 5599   6.227   5.917   0.422
 1567SOL    HW1 5600   6.306   5.976   0.437
 1567SOL    HW2 5601   6.147   5.974   0.404
 1568SOL     OW 5602   2.177   6.220   2.720
 1568SOL    HW1 5603   2.275   6.208   2.737
 1568SOL    HW2 5604   2.154   6.317   2.722
 1569SOL     OW 5605   3.895   6.734   3.524
 1569SOL    HW1 5606   3.887   6.658   3.589
 1569SOL    HW2 5607   3.804   6.770   3.504
 1570SOL     OW 5608   1.791   6.074   0.542
 1570SOL    HW1 5609   1.771   6.013   0.619
 1570SOL    HW2 5610   1.845   6.025   0.474
 1571SOL     OW 5611   6.559   1.714   3.149
 1571SOL    HW1 5612   6.530   1.654   3.075
 1571SOL    HW2 5613   6.650   1.751   3.128
 1572SOL     OW 5614   1.872   5.517   0.661
 1572SOL    HW1 5615   1.795   5.491   0.719
 1572SOL    HW2 5616   1.937   5.572   0.714
 1573SOL     OW 5617   6.415   5.101   1.888
 1573SOL    HW1 5618   6.490   5.036   1.890
 1573SOL    HW2 5619   6.451   5.194   1.884
 1574SOL     OW 5620   6.350   2.361   3.552
 1574SOL    HW1 5621   6.421   2.396   3.491
 1574SOL    HW2 5622   6.261   2.394   3.522
 1575SOL     OW 5623   2.499   1.965   1.599
 1575SOL    HW1 5624   2.458   1.879   1.629
 1575SOL    HW2 5625   2.597   1.951   1.581
 1576SOL     OW 5626   0.699   6.973   3.697
 1576SOL    HW1 5627   0.723   0.039   3.662
 1576SOL    HW2 5628   0.732   6.964   3.791
 1577SOL     OW 5629   2.771   0.494   5.923
 1577SOL    HW1 5630   2.740   0.490   6.018
 1577SOL    HW2 5631   2.864   0.458   5.916
 1578SOL     OW 5632   5.111   1.924   5.246
 1578SOL    HW1 5633   5.077   1.844   5.198
 1578SOL    HW2 5634   5.054   1.942   5.326
 1579SOL     OW 5635   0.200   1.777   2.369
 1579SOL    HW1 5636   0.225   1.753   2.275
 1579SOL    HW2 5637   0.135   1.853   2.368
 1580SOL     OW 5638   3.507   4.106   3.815
 1580SOL    HW1 5639   3.525   4.194   3.858
 1580SOL    HW2 5640   3.413   4.104   3.781
 1581SOL     OW 5641   6.274   4.997   5.296
 1581SOL    HW1 5642   6.348   5.064   5.304
 1581SOL    HW2 5643   6.186   5.042   5.316
 1582SOL     OW 5644   2.565   6.444   4.634
 1582SOL    HW1 5645   2.513   6.437   4.719
 1582SOL    HW2 5646   2.641   6.380   4.637
 1583SOL     OW 5647   0.518   5.592   3.499
 1583SOL    HW1 5648   0.422   5.597   3.524
 1583SOL    HW2 5649   0.572   5.655   3.555
 1584SOL     OW 5650   0.904   5.179   5.589
 1584SOL    HW1 5651   0.975   5.110   5.598
 1584SOL    HW2 5652   0.859   5.170   5.500
 1585SOL     OW 5653   4.674   2.241   3.072
 1585SOL    HW1 5654   4.661   2.142   3.078
 1585SOL    HW2 5655   4.715   2.264   2.984
 1586SOL     OW 5656   3.021   5.106   2.172
 1586SOL    HW1 5657   2.943   5.083   2.113
 1586SOL    HW2 5658   3.046   5.027   2.227
 1587SOL     OW 5659   2.632   5.729   5.896
 1587SOL    HW1 5660   2.667   5.803   5.953
 1587SOL    HW2 5661   2.632   5.757   5.800
 1588SOL     OW 5662   4.850   1.310   1.631
 1588SOL    HW1 5663   4.827   1.403   1.661
 1588SOL    HW2 5664   4.793   1.244   1.681
 1589SOL     OW 5665   6.831   3.277   2.326
 1589SOL    HW1 5666   6.900   3.348   2.338
 1589SOL    HW2 5667   6.834   3.214   2.404
 1590SOL     OW 5668   4.930   0.465   3.931
 1590SOL    HW1 5669   4.919   0.536   4.000
 1590SOL    HW2 5670   4.951   0.507   3.843
 1591SOL     OW 5671   0.132   5.452   0.966
 1591SOL    HW1 5672   0.035   5.462   0.941
 1591SOL    HW2 5673   0.168   5.367   0.927
 1592SOL     OW 5674   2.328   3.622   6.345
 1592SOL    HW1 5675   2.357   3.579   6.260
 1592SOL    HW2 5676   2.319   3.721   6.330
 1593SOL     OW 5677   1.213   7.010   4.853
 1593SOL    HW1 5678   1.299   0.026   4.881
 1593SOL    HW2 5679   1.229   6.915   4.827
 1594SOL     OW 5680   0.357   6.195   1.951
 1594SOL    HW1 5681   0.347   6.107   1.903
 1594SOL    HW2 5682   0.348   6.180   2.050
 1595SOL     OW 5683   0.860   4.937   0.832
 1595SOL    HW1 5684   0.867   5.011   0.899
 1595SOL    HW2 5685   0.852   4.975   0.740
 1596SOL     OW 5686   6.978   3.609   3.703
 1596SOL    HW1 5687   6.892   3.608   3.754
 1596SOL    HW2 5688   7.004   3.704   3.685
 1597SOL     OW 5689   1.317   5.868   1.337
 1597SOL    HW1 5690   1.242   5.847   1.400
 1597SOL    HW2 5691   1.293   5.837   1.245
 1598SOL     OW 5692   0.261   4.562   6.334
 1598SOL    HW1 5693   0.221   4.633   6.276
 1598SOL    HW2 5694   0.272   4.478   6.281
 1599SOL     OW 5695   5.767   5.511   4.880
 1599SOL    HW1 5696   5.790   5.437   4.818
 1599SOL    HW2 5697   5.669   5.513   4.896
 1600SOL     OW 5698   3.152   1.504   3.627
 1600SOL    HW1 5699   3.239   1.518   3.580
 1600SOL    HW2 5700   3.102   1.590   3.632
 1601SOL     OW 5701   6.272   6.758   4.186
 1601SOL    HW1 5702   6.245   6.664   4.167
 1601SOL    HW2 5703   6.199   6.821   4.159
 1602SOL     OW 5704   4.289   4.687   3.889
 1602SOL    HW1 5705   4.352   4.658   3.961
 1602SOL    HW2 5706   4.329   4.765   3.840
 1603SOL     OW 5707   1.952   5.714   3.337
 1603SOL    HW1 5708   1.856   5.702   3.311
 1603SOL    HW2 5709   1.958   5.770   3.420
 1604SOL     OW 5710   4.904   4.526   1.609
 1604SOL    HW1 5711   4.973   4.511   1.680
 1604SOL    HW2 5712   4.901   4.447   1.548
 1605SOL     OW 5713   6.341   5.538   2.142
 1605SOL    HW1 5714   6.404   5.575   2.074
 1605SOL    HW2 5715   6.257   5.508   2.097
 1606SOL     OW 5716   4.104   6.119   5.930
 1606SOL    HW1 5717   4.178   6.155   5.987
 1606SOL    HW2 5718   4.102   6.019   5.938
 1607SOL     OW 5719   3.898   6.897   0.554
 1607SOL    HW1 5720   3.908   6.954   0.472
 1607SOL    HW2 5721   3.839   6.943   0.620
 1608SOL     OW 5722   0.555   0.857   3.532
 1608SOL    HW1 5723   0.578   0.936   3.589
 1608SOL    HW2 5724   0.456   0.843   3.535
 1609SOL     OW 5725   4.186   6.979   0.262
 1609SOL    HW1 5726   4.093   7.009   0.242
 1609SOL    HW2 5727   4.251   0.019   0.224
 1610SOL     OW 5728   5.935   5.379   0.532
 1610SOL    HW1 5729   5.998   5.445   0.491
 1610SOL    HW2 5730   5.841   5.411   0.522
 1611SOL     OW 5731   2.552   2.997   0.292
 1611SOL    HW1 5732   2.509   2.918   0.336
 1611SOL    HW2 5733   2.487   3.040   0.230
 1612SOL     OW 5734   2.900   0.162   0.420
 1612SOL    HW1 5735   2.852   0.083   0.383
 1612SOL    HW2 5736   2.924   0.144   0.516
 1613SOL     OW 5737   1.317   5.108   2.126
 1613SOL    HW1 5738   1.393   5.166   2.154
 1613SOL    HW2 5739   1.233   5.163   2.122
 1614SOL     OW 5740   5.436   1.739   6.468
 1614SOL    HW1 5741   5.345   1.780   6.474
 1614SOL    HW2 5742   5.463   1.732   6.371
 1615SOL     OW 5743   6.495   5.469   0.367
 1615SOL    HW1 5744   6.449   5.556   0.355
 1615SOL    HW2 5745   6.427   5.397   0.381
 1616SOL     OW 5746   3.744   0.835   4.612
 1616SOL    HW1 5747   3.825   0.854   4.558
 1616SOL    HW2 5748   3.760   0.754   4.669
 1617SOL     OW 5749   5.620   6.263   3.053
 1617SOL    HW1 5750   5.709   6.245   3.011
 1617SOL    HW2 5751   5.628   6.259   3.152
 1618SOL     OW 5752   1.864   6.521   3.174
 1618SOL    HW1 5753   1.929   6.445   3.177
 1618SOL    HW2 5754   1.888   6.587   3.245
 1619SOL     OW 5755   0.505   4.247   1.627
 1619SOL    HW1 5756   0.461   4.159   1.646
 1619SOL    HW2 5757   0.441   4.305   1.576
 1620SOL     OW 5758   3.081   4.748   1.393
 1620SOL    HW1 5759   3.034   4.836   1.395
 1620SOL    HW2 5760   3.052   4.693   1.472
 1621SOL     OW 5761   6.293   1.081   0.674
 1621SOL    HW1 5762   6.253   1.081   0.765
 1621SOL    HW2 5763   6.347   1.165   0.662
 1622SOL     OW 5764   0.459   3.254   5.584
 1622SOL    HW1 5765   0.383   3.302   5.628
 1622SOL    HW2 5766   0.429   3.162   5.558
 1623SOL     OW 5767   0.811   2.989   5.040
 1623SOL    HW1 5768   0.859   2.906   5.009
 1623SOL    HW2 5769   0.843   3.067   4.987
 1624SOL     OW 5770   3.713   1.371   5.225
 1624SOL    HW1 5771   3.713   1.396   5.128
 1624SOL    HW2 5772   3.682   1.449   5.280
 1625SOL     OW 5773   1.243   4.898   0.476
 1625SOL    HW1 5774   1.298   4.971   0.434
 1625SOL    HW2 5775   1.303   4.822   0.501
 1626SOL     OW 5776   3.384   1.181   0.915
 1626SOL    HW1 5777   3.319   1.227   0.975
 1626SOL    HW2 5778   3.344   1.095   0.882
 1627SOL     OW 5779   5.846   3.323   3.997
 1627SOL    HW1 5780   5.893   3.257   4.056
 1627SOL    HW2 5781   5.776   3.371   4.050
 1628SOL     OW 5782   4.603   5.055   0.067
 1628SOL    HW1 5783   4.590   5.090   0.160
 1628SOL    HW2 5784   4.690   5.087   0.031
 1629SOL     OW 5785   2.994   1.099   3.849
 1629SOL    HW1 5786   3.078   1.118   3.798
 1629SOL    HW2 5787   3.014   1.037   3.925
 1630SOL     OW 5788   0.430   4.881   6.174
 1630SOL    HW1 5789   0.491   4.849   6.246
 1630SOL    HW2 5790   0.367   4.950   6.211
 1631SOL     OW 5791   1.162   2.492   0.785
 1631SOL    HW1 5792   1.222   2.485   0.706
 1631SOL    HW2 5793   1.117   2.404   0.800
 1632SOL     OW 5794   5.769   2.761   1.545
 1632SOL    HW1 5795   5.835   2.688   1.525
 1632SOL    HW2 5796   5.696   2.724   1.603
 1633SOL     OW 5797   4.864   3.976   4.635
 1633SOL    HW1 5798   4.908   4.054   4.680
 1633SOL    HW2 5799   4.788   4.008   4.579
 1634SOL     OW 5800   5.188   5.791   4.797
 1634SOL    HW1 5801   5.127   5.723   4.755
 1634SOL    HW2 5802   5.133   5.858   4.847
 1635SOL     OW 5803   0.668   5.361   6.762
 1635SOL    HW1 5804   0.749   5.322   6.719
 1635SOL    HW2 5805   0.656   5.455   6.729
 1636SOL     OW 5806   3.172   4.646   0.896
 1636SOL    HW1 5807   3.141   4.634   0.990
 1636SOL    HW2 5808   3.251   4.589   0.879
 1637SOL     OW 5809   6.755   0.289   3.713
 1637SOL    HW1 5810   6.671   0.314   3.665
 1637SOL    HW2 5811   6.739   0.208   3.769
 1638SOL     OW 5812   0.118   3.437   2.632
 1638SOL    HW1 5813   0.076   3.396   2.713
 1638SOL    HW2 5814   0.117   3.537   2.641
 1639SOL     OW 5815   5.493   5.517   1.348
 1639SOL    HW1 5816   5.518   5.607   1.383
 1639SOL    HW2 5817   5.447   5.527   1.260
 1640SOL     OW 5818   5.636   7.004   6.996
 1640SOL    HW1 5819   5.541   7.013   7.025
 1640SOL    HW2 5820   5.695   0.029   0.033
 1641SOL     OW 5821   4.962   2.179   2.751
 1641SOL    HW1 5822   5.006   2.095   2.785
 1641SOL    HW2 5823   4.872   2.190   2.794
 1642SOL     OW 5824   0.176   3.641   0.321
 1642SOL    HW1 5825   0.262   3.634   0.272
 1642SOL    HW2 5826   0.130   3.726   0.297
 1643SOL     OW 5827   2.893   4.776   4.403
 1643SOL    HW1 5828   2.947   4.825   4.471
 1643SOL    HW2 5829   2.867   4.687   4.439
 1644SOL     OW 5830   5.663   4.026   0.014
 1644SOL    HW1 5831   5.624   4.118   0.014
 1644SOL    HW2 5832   5.674   3.995   0.108
 1645SOL     OW 5833   3.059   5.461   6.233
 1645SOL    HW1 5834   3.086   5.529   6.300
 1645SOL    HW2 5835   2.985   5.497   6.175
 1646SOL     OW 5836   1.689   6.647   0.914
 1646SOL    HW1 5837   1.620   6.577   0.936
 1646SOL    HW2 5838   1.773   6.627   0.964
 1647SOL     OW 5839   5.918   3.414   4.763
 1647SOL    HW1 5840   5.946   3.508   4.742
 1647SOL    HW2 5841   5.938   3.355   4.685
 1648SOL     OW 5842   5.164   5.706   0.408
 1648SOL    HW1 5843   5.073   5.666   0.417
 1648SOL    HW2 5844   5.158   5.799   0.373
 1649SOL     OW 5845   3.588   1.356   4.405
 1649SOL    HW1 5846   3.628   1.285   4.347
 1649SOL    HW2 5847   3.650   1.435   4.408
 1650SOL     OW 5848   0.604   5.970   4.724
 1650SOL    HW1 5849   0.616   5.930   4.634
 1650SOL    HW2 5850   0.669   5.929   4.788
 1651SOL     OW 5851   0.270   2.216   1.908
 1651SOL    HW1 5852   0.343   2.261   1.961
 1651SOL    HW2 5853   0.310   2.173   1.827
 1652SOL     OW 5854   1.381   3.163   2.738
 1652SOL    HW1 5855   1.428   3.216   2.808
 1652SOL    HW2 5856   1.419   3.185   2.648
 1653SOL     OW 5857   0.656   6.193   0.053
 1653SOL    HW1 5858   0.629   6.247   6.998
 1653SOL    HW2 5859   0.750   6.161   0.041
 1654SOL     OW 5860   6.939   3.667   1.719
 1654SOL    HW1 5861   6.946   3.571   1.691
 1654SOL    HW2 5862   7.014   3.689   1.781
 1655SOL     OW 5863   0.246   2.259   4.753
 1655SOL    HW1 5864   0.302   2.217   4.680
 1655SOL    HW2 5865   0.306   2.308   4.816
 1656SOL     OW 5866   2.366   4.756   3.251
 1656SOL    HW1 5867   2.347   4.693   3.175
 1656SOL    HW2 5868   2.464   4.776   3.254
 1657SOL     OW 5869   5.782   1.377   4.399
 1657SOL    HW1 5870   5.727   1.294   4.390
 1657SOL    HW2 5871   5.878   1.352   4.412
 1658SOL     OW 5872   5.540   0.999   1.201
 1658SOL    HW1 5873   5.467   0.932   1.185
 1658SOL    HW2 5874   5.556   1.008   1.300
 1659SOL     OW 5875   3.085   0.364   6.705
 1659SOL    HW1 5876   3.024   0.293   6.672
 1659SOL    HW2 5877   3.078   0.445   6.646
 1660SOL     OW 5878   1.705   5.933   2.972
 1660SOL    HW1 5879   1.799   5.918   2.944
 1660SOL    HW2 5880   1.645   5.925   2.893
 1661SOL     OW 5881   2.352   6.475   1.084
 1661SOL    HW1 5882   2.435   6.480   1.028
 1661SOL    HW2 5883   2.287   6.411   1.042
 1662SOL     OW 5884   0.245   1.420   4.071
 1662SOL    HW1 5885   0.239   1.517   4.093
 1662SOL    HW2 5886   0.203   1.403   3.982
 1663SOL     OW 5887   4.178   5.874   2.970
 1663SOL    HW1 5888   4.250   5.805   2.979
 1663SOL    HW2 5889   4.209   5.947   2.910
 1664SOL     OW 5890   2.601   6.480   5.136
 1664SOL    HW1 5891   2.525   6.524   5.091
 1664SOL    HW2 5892   2.567   6.421   5.210
 1665SOL     OW 5893   6.301   2.896   2.436
 1665SOL    HW1 5894   6.293   2.864   2.342
 1665SOL    HW2 5895   6.209   2.906   2.476
 1666SOL     OW 5896   5.137   1.563   6.502
 1666SOL    HW1 5897   5.079   1.487   6.530
 1666SOL    HW2 5898   5.081   1.633   6.457
 1667SOL     OW 5899   0.238   6.758   1.069
 1667SOL    HW1 5900   0.148   6.719   1.046
 1667SOL    HW2 5901   0.225   6.842   1.122
 1668SOL     OW 5902   5.223   5.677   3.926
 1668SOL    HW1 5903   5.247   5.755   3.867
 1668SOL    HW2 5904   5.177   5.607   3.871
 1669SOL     OW 5905   6.380   4.592   5.815
 1669SOL    HW1 5906   6.429   4.672   5.849
 1669SOL    HW2 5907   6.282   4.602   5.837
 1670SOL     OW 5908   6.877   4.100   5.468
 1670SOL    HW1 5909   6.869   4.029   5.398
 1670SOL    HW2 5910   6.893   4.057   5.557
 1671SOL     OW 5911   5.286   2.092   2.929
 1671SOL    HW1 5912   5.213   2.025   2.938
 1671SOL    HW2 5913   5.374   2.047   2.943
 1672SOL     OW 5914   1.321   3.536   1.432
 1672SOL    HW1 5915   1.387   3.611   1.426
 1672SOL    HW2 5916   1.291   3.511   1.339
 1673SOL     OW 5917   1.008   1.634   5.113
 1673SOL    HW1 5918   1.044   1.717   5.156
 1673SOL    HW2 5919   0.913   1.621   5.141
 1674SOL     OW 5920   0.780   2.747   2.678
 1674SOL    HW1 5921   0.694   2.701   2.657
 1674SOL    HW2 5922   0.811   2.798   2.598
 1675SOL     OW 5923   5.020   0.148   0.157
 1675SOL    HW1 5924   4.949   0.095   0.205
 1675SOL    HW2 5925   5.038   0.107   0.068
 1676SOL     OW 5926   2.422   2.398   1.568
 1676SOL    HW1 5927   2.406   2.320   1.629
 1676SOL    HW2 5928   2.376   2.479   1.605
 1677SOL     OW 5929   3.127   3.097   3.901
 1677SOL    HW1 5930   3.040   3.125   3.942
 1677SOL    HW2 5931   3.196   3.088   3.973
 1678SOL     OW 5932   6.392   4.302   2.983
 1678SOL    HW1 5933   6.423   4.237   3.052
 1678SOL    HW2 5934   6.456   4.378   2.977
 1679SOL     OW 5935   2.150   2.157   4.710
 1679SOL    HW1 5936   2.230   2.099   4.722
 1679SOL    HW2 5937   2.086   2.113   4.647
 1680SOL     OW 5938   0.510   2.789   5.580
 1680SOL    HW1 5939   0.562   2.772   5.664
 1680SOL    HW2 5940   0.463   2.705   5.553
 1681SOL     OW 5941   0.453   4.873   0.052
 1681SOL    HW1 5942   0.524   4.898   7.012
 1681SOL    HW2 5943   0.419   4.781   0.031
 1682SOL     OW 5944   1.709   0.758   5.759
 1682SOL    HW1 5945   1.707   0.772   5.660
 1682SOL    HW2 5946   1.759   0.675   5.780
 1683SOL     OW 5947   5.789   5.253   2.550
 1683SOL    HW1 5948   5.849   5.286   2.477
 1683SOL    HW2 5949   5.694   5.262   2.522
 1684SOL     OW 5950   0.992   6.305   2.196
 1684SOL    HW1 5951   0.997   6.275   2.291
 1684SOL    HW2 5952   1.075   6.277   2.148
 1685SOL     OW 5953   1.871   0.981   5.805
 1685SOL    HW1 5954   1.905   0.921   5.733
 1685SOL    HW2 5955   1.943   0.996   5.873
 1686SOL     OW 5956   2.513   6.275   4.214
 1686SOL    HW1 5957   2.437   6.340   4.220
 1686SOL    HW2 5958   2.591   6.319   4.169
 1687SOL     OW 5959   1.337   2.917   1.995
 1687SOL    HW1 5960   1.430   2.891   2.023
 1687SOL    HW2 5961   1.307   2.995   2.050
 1688SOL     OW 5962   2.314   1.960   3.597
 1688SOL    HW1 5963   2.299   1.862   3.581
 1688SOL    HW2 5964   2.365   1.998   3.520
 1689SOL     OW 5965   6.268   0.635   2.962
 1689SOL    HW1 5966   6.188   0.692   2.943
 1689SOL    HW2 5967   6.322   0.676   3.035
 1690SOL     OW 5968   1.200   2.457   4.404
 1690SOL    HW1 5969   1.206   2.540   4.348
 1690SOL    HW2 5970   1.178   2.482   4.498
 1691SOL     OW 5971   5.249   3.024   3.397
 1691SOL    HW1 5972   5.233   2.942   3.452
 1691SOL    HW2 5973   5.162   3.071   3.383
 1692SOL     OW 5974   5.188   6.306   1.078
 1692SOL    HW1 5975   5.130   6.385   1.099
 1692SOL    HW2 5976   5.245   6.284   1.158
 1693SOL     OW 5977   6.092   1.812   2.698
 1693SOL    HW1 5978   6.107   1.751   2.621
 1693SOL    HW2 5979   6.092   1.759   2.783
 1694SOL     OW 5980   5.566   1.646   3.278
 1694SOL    HW1 5981   5.601   1.691   3.361
 1694SOL    HW2 5982   5.643   1.620   3.220
 1695SOL     OW 5983   4.196   0.639   6.296
 1695SOL    HW1 5984   4.220   0.674   6.386
 1695SOL    HW2 5985   4.277   0.643   6.236
 1696SOL     OW 5986   4.311   6.065   0.977
 1696SOL    HW1 5987   4.345   6.093   1.067
 1696SOL    HW2 5988   4.296   6.146   0.921
 1697SOL     OW 5989   6.303   1.396   0.640
 1697SOL    HW1 5990   6.205   1.391   0.656
 1697SOL    HW2 5991   6.346   1.454   0.709
 1698SOL     OW 5992   3.476   0.052   0.475
 1698SOL    HW1 5993   3.487   0.130   0.414
 1698SOL    HW2 5994   3.551   0.050   0.541
 1699SOL     OW 5995   2.287   1.298   6.849
 1699SOL    HW1 5996   2.283   1.198   6.848
 1699SOL    HW2 5997   2.265   1.331   6.941
 1700SOL     OW 5998   6.713   4.590   3.512
 1700SOL    HW1 5999   6.644   4.660   3.530
 1700SOL    HW2 6000   6.794   4.633   3.472
 1701SOL     OW 6001   5.745   4.840   5.983
 1701SOL    HW1 6002   5.648   4.862   5.968
 1701SOL    HW2 6003   5.801   4.895   5.921
 1702SOL     OW 6004   6.323   1.366   1.227
 1702SOL    HW1 6005   6.395   1.304   1.259
 1702SOL    HW2 6006   6.356   1.460   1.232
 1703SOL     OW 6007   3.363   1.634   0.279
 1703SOL    HW1 6008   3.418   1.651   0.361
 1703SOL    HW2 6009   3.269   1.663   0.296
 1704SOL     OW 6010   0.638   1.732   0.641
 1704SOL    HW1 6011   0.703   1.758   0.712
 1704SOL    HW2 6012   0.632   1.804   0.572
 1705SOL     OW 6013   3.063   2.192   2.334
 1705SOL    HW1 6014   3.076   2.109   2.279
 1705SOL    HW2 6015   3.005   2.257   2.285
 1706SOL     OW 6016   5.103   1.349   1.659
 1706SOL    HW1 6017   5.017   1.300   1.644
 1706SOL    HW2 6018   5.143   1.372   1.571
 1707SOL     OW 6019   4.065   2.216   2.449
 1707SOL    HW1 6020   4.039   2.137   2.393
 1707SOL    HW2 6021   3.993   2.235   2.516
 1708SOL     OW 6022   4.897   5.832   1.798
 1708SOL    HW1 6023   4.977   5.879   1.759
 1708SOL    HW2 6024   4.814   5.881   1.772
 1709SOL     OW 6025   3.258   6.700   3.053
 1709SOL    HW1 6026   3.164   6.682   3.023
 1709SOL    HW2 6027   3.312   6.617   3.046
 1710SOL     OW 6028   4.806   4.809   3.699
 1710SOL    HW1 6029   4.850   4.882   3.648
 1710SOL    HW2 6030   4.796   4.836   3.795
 1711SOL     OW 6031   1.987   4.928   4.832
 1711SOL    HW1 6032   1.901   4.907   4.878
 1711SOL    HW2 6033   1.968   4.966   4.742
 1712SOL     OW 6034   6.484   3.066   4.245
 1712SOL    HW1 6035   6.571   3.025   4.273
 1712SOL    HW2 6036   6.502   3.144   4.185
 1713SOL     OW 6037   4.802   2.559   1.891
 1713SOL    HW1 6038   4.894   2.520   1.879
 1713SOL    HW2 6039   4.737   2.485   1.907
 1714SOL     OW 6040   3.444   1.335   6.294
 1714SOL    HW1 6041   3.377   1.383   6.351
 1714SOL    HW2 6042   3.426   1.355   6.198
 1715SOL     OW 6043   2.302   5.378   3.089
 1715SOL    HW1 6044   2.249   5.314   3.033
 1715SOL    HW2 6045   2.247   5.407   3.167
 1716SOL     OW 6046   4.432   6.946   2.645
 1716SOL    HW1 6047   4.520   6.900   2.657
 1716SOL    HW2 6048   4.362   6.879   2.621
 1717SOL     OW 6049   3.064   5.722   5.107
 1717SOL    HW1 6050   3.153   5.711   5.064
 1717SOL    HW2 6051   3.024   5.810   5.082
 1718SOL     OW 6052   3.123   1.064   1.798
 1718SOL    HW1 6053   3.207   1.028   1.758
 1718SOL    HW2 6054   3.125   1.163   1.796
 1719SOL     OW 6055   1.989   2.807   1.260
 1719SOL    HW1 6056   1.894   2.774   1.257
 1719SOL    HW2 6057   2.042   2.750   1.323
 1720SOL     OW 6058   0.161   3.172   0.578
 1720SOL    HW1 6059   0.228   3.220   0.522
 1720SOL    HW2 6060   0.155   3.077   0.549
 1721SOL     OW 6061   1.859   6.531   1.462
 1721SOL    HW1 6062   1.812   6.447   1.488
 1721SOL    HW2 6063   1.955   6.511   1.444
 1722SOL     OW 6064   3.069   1.488   4.062
 1722SOL    HW1 6065   3.141   1.451   4.003
 1722SOL    HW2 6066   3.110   1.539   4.137
 1723SOL     OW 6067   6.412   2.409   0.345
 1723SOL    HW1 6068   6.321   2.387   0.380
 1723SOL    HW2 6069   6.472   2.329   0.353
 1724SOL     OW 6070   0.198   2.886   2.144
 1724SOL    HW1 6071   0.242   2.927   2.064
 1724SOL    HW2 6072   0.255   2.812   2.180
 1725SOL     OW 6073   2.112   4.609   6.208
 1725SOL    HW1 6074   2.079   4.586   6.116
 1725SOL    HW2 6075   2.186   4.676   6.201
 1726SOL     OW 6076   5.748   4.585   5.058
 1726SOL    HW1 6077   5.716   4.491   5.073
 1726SOL    HW2 6078   5.845   4.584   5.035
 1727SOL     OW 6079   3.627   2.894   3.501
 1727SOL    HW1 6080   3.660   2.918   3.592
 1727SOL    HW2 6081   3.528   2.876   3.504
 1728SOL     OW 6082   5.761   5.923   5.286
 1728SOL    HW1 6083   5.735   6.009   5.331
 1728SOL    HW2 6084   5.735   5.846   5.344
 1729SOL     OW 6085   2.167   4.027   3.514
 1729SOL    HW1 6086   2.073   4.056   3.496
 1729SOL    HW2 6087   2.197   3.964   3.443
 1730SOL     OW 6088   2.003   0.297   5.136
 1730SOL    HW1 6089   2.062   0.377   5.136
 1730SOL    HW2 6090   2.011   0.250   5.048
 1731SOL     OW 6091   0.718   4.324   4.087
 1731SOL    HW1 6092   0.647   4.394   4.079
 1731SOL    HW2 6093   0.808   4.366   4.078
 1732SOL     OW 6094   2.183   5.002   6.098
 1732SOL    HW1 6095   2.218   4.977   6.189
 1732SOL    HW2 6096   2.141   4.922   6.056
 1733SOL     OW 6097   1.579   4.010   1.488
 1733SOL    HW1 6098   1.569   4.108   1.505
 1733SOL    HW2 6099   1.671   3.990   1.454
 1734SOL     OW 6100   4.485   2.968   1.175
 1734SOL    HW1 6101   4.416   2.917   1.225
 1734SOL    HW2 6102   4.489   3.062   1.209
 1735SOL     OW 6103   4.231   5.410   6.435
 1735SOL    HW1 6104   4.331   5.402   6.431
 1735SOL    HW2 6105   4.191   5.318   6.441
 1736SOL     OW 6106   3.718   3.795   1.153
 1736SOL    HW1 6107   3.772   3.745   1.086
 1736SOL    HW2 6108   3.637   3.742   1.178
 1737SOL     OW 6109   4.657   0.811   4.640
 1737SOL    HW1 6110   4.597   0.751   4.694
 1737SOL    HW2 6111   4.602   0.860   4.572
 1738SOL     OW 6112   1.894   2.855   4.749
 1738SOL    HW1 6113   1.857   2.946   4.735
 1738SOL    HW2 6114   1.939   2.824   4.666
 1739SOL     OW 6115   0.105   1.678   5.349
 1739SOL    HW1 6116   0.056   1.750   5.399
 1739SOL    HW2 6117   0.149   1.718   5.269
 1740SOL     OW 6118   6.963   2.270   5.198
 1740SOL    HW1 6119   7.002   2.217   5.123
 1740SOL    HW2 6120   6.923   2.207   5.265
 1741SOL     OW 6121   2.468   0.250   4.526
 1741SOL    HW1 6122   2.381   0.232   4.480
 1741SOL    HW2 6123   2.488   0.348   4.525
 1742SOL     OW 6124   6.185   0.759   5.628
 1742SOL    HW1 6125   6.280   0.771   5.658
 1742SOL    HW2 6126   6.145   0.680   5.675
 1743SOL     OW 6127   0.843   2.229   2.292
 1743SOL    HW1 6128   0.925   2.207   2.344
 1743SOL    HW2 6129   0.819   2.151   2.234
 1744SOL     OW 6130   6.212   3.333   3.364
 1744SOL    HW1 6131   6.166   3.412   3.324
 1744SOL    HW2 6132   6.207   3.339   3.464
 1745SOL     OW 6133   5.450   5.785   2.275
 1745SOL    HW1 6134   5.450   5.705   2.216
 1745SOL    HW2 6135   5.391   5.768   2.354
 1746SOL     OW 6136   1.386   4.344   4.392
 1746SOL    HW1 6137   1.384   4.248   4.364
 1746SOL    HW2 6138   1.386   4.402   4.311
 1747SOL     OW 6139   4.297   1.600   2.495
 1747SOL    HW1 6140   4.295   1.507   2.457
 1747SOL    HW2 6141   4.216   1.615   2.550
 1748SOL     OW 6142   6.990   2.091   5.005
 1748SOL    HW1 6143   0.045   2.037   4.978
 1748SOL    HW2 6144   6.908   2.048   4.968
 1749SOL     OW 6145   2.358   6.799   5.671
 1749SOL    HW1 6146   2.271   6.786   5.719
 1749SOL    HW2 6147   2.345   6.781   5.574
 1750SOL     OW 6148   4.974   6.206   3.912
 1750SOL    HW1 6149   4.934   6.228   3.823
 1750SOL    HW2 6150   5.048   6.270   3.933
 1751SOL     OW 6151   4.033   1.501   4.382
 1751SOL    HW1 6152   4.107   1.434   4.371
 1751SOL    HW2 6153   4.061   1.588   4.340
 1752SOL     OW 6154   6.440   1.004   2.437
 1752SOL    HW1 6155   6.467   1.077   2.373
 1752SOL    HW2 6156   6.464   0.915   2.398
 1753SOL     OW 6157   0.100   0.962   1.305
 1753SOL    HW1 6158   0.077   1.008   1.390
 1753SOL    HW2 6159   0.181   0.905   1.318
 1754SOL     OW 6160   1.574   4.647   6.929
 1754SOL    HW1 6161   1.662   4.693   6.924
 1754SOL    HW2 6162   1.535   4.638   6.837
 1755SOL     OW 6163   0.050   5.622   0.386
 1755SOL    HW1 6164   7.022   5.649   0.306
 1755SOL    HW2 6165   0.043   5.523   0.400
 1756SOL     OW 6166   4.137   5.090   5.414
 1756SOL    HW1 6167   4.140   5.045   5.324
 1756SOL    HW2 6168   4.230   5.108   5.445
 1757SOL     OW 6169   2.800   5.509   4.963
 1757SOL    HW1 6170   2.733   5.435   4.961
 1757SOL    HW2 6171   2.880   5.481   5.017
 1758SOL     OW 6172   1.985   1.076   4.411
 1758SOL    HW1 6173   1.938   1.043   4.330
 1758SOL    HW2 6174   1.947   1.165   4.438
 1759SOL     OW 6175   2.722   6.025   5.806
 1759SOL    HW1 6176   2.706   5.953   5.739
 1759SOL    HW2 6177   2.806   6.005   5.857
 1760SOL     OW 6178   5.869   0.748   3.366
 1760SOL    HW1 6179   5.844   0.844   3.354
 1760SOL    HW2 6180   5.786   0.692   3.372
 1761SOL     OW 6181   0.272   0.873   1.656
 1761SOL    HW1 6182   0.184   0.856   1.702
 1761SOL    HW2 6183   0.280   0.971   1.637
 1762SOL     OW 6184   0.610   1.031   4.345
 1762SOL    HW1 6185   0.670   0.980   4.282
 1762SOL    HW2 6186   0.527   0.979   4.362
 1763SOL     OW 6187   0.723   4.590   4.394
 1763SOL    HW1 6188   0.678   4.551   4.474
 1763SOL    HW2 6189   0.694   4.685   4.382
 1764SOL     OW 6190   2.128   3.187   2.297
 1764SOL    HW1 6191   2.113   3.217   2.203
 1764SOL    HW2 6192   2.069   3.239   2.358
 1765SOL     OW 6193   4.297   0.596   1.572
 1765SOL    HW1 6194   4.213   0.629   1.615
 1765SOL    HW2 6195   4.297   0.621   1.475
 1766SOL     OW 6196   5.428   4.997   3.692
 1766SOL    HW1 6197   5.395   5.073   3.635
 1766SOL    HW2 6198   5.525   5.008   3.709
 1767SOL     OW 6199   0.939   4.225   3.074
 1767SOL    HW1 6200   0.932   4.282   2.992
 1767SOL    HW2 6201   0.849   4.213   3.114
 1768SOL     OW 6202   3.341   0.801   6.564
 1768SOL    HW1 6203   3.392   0.741   6.626
 1768SOL    HW2 6204   3.270   0.748   6.518
 1769SOL     OW 6205   5.228   1.315   6.962
 1769SOL    HW1 6206   5.147   1.305   7.020
 1769SOL    HW2 6207   5.214   1.269   6.875
 1770SOL     OW 6208   6.493   4.892   4.987
 1770SOL    HW1 6209   6.536   4.880   4.898
 1770SOL    HW2 6210   6.560   4.925   5.054
 1771SOL     OW 6211   1.514   4.998   0.675
 1771SOL    HW1 6212   1.496   5.084   0.629
 1771SOL    HW2 6213   1.507   5.010   0.774
 1772SOL     OW 6214   3.607   5.959   3.431
 1772SOL    HW1 6215   3.673   5.919   3.367
 1772SOL    HW2 6216   3.646   5.958   3.523
 1773SOL     OW 6217   2.736   2.595   5.803
 1773SOL    HW1 6218   2.644   2.634   5.795
 1773SOL    HW2 6219   2.739   2.507   5.755
 1774SOL     OW 6220   5.337   6.280   1.885
 1774SOL    HW1 6221   5.264   6.346   1.862
 1774SOL    HW2 6222   5.316   6.237   1.972
 1775SOL     OW 6223   1.834   5.008   5.882
 1775SOL    HW1 6224   1.772   5.024   5.805
 1775SOL    HW2 6225   1.915   5.067   5.872
 1776SOL     OW 6226   4.858   0.622   6.615
 1776SOL    HW1 6227   4.803   0.541   6.594
 1776SOL    HW2 6228   4.808   0.704   6.586
 1777SOL     OW 6229   3.188   6.686   6.514
 1777SOL    HW1 6230   3.157   6.745   6.439
 1777SOL    HW2 6231   3.118   6.684   6.586
 1778SOL     OW 6232   4.789   2.093   4.028
 1778SOL    HW1 6233   4.880   2.052   4.021
 1778SOL    HW2 6234   4.797   2.192   4.033
 1779SOL     OW 6235   5.223   1.270   5.307
 1779SOL    HW1 6236   5.235   1.228   5.217
 1779SOL    HW2 6237   5.182   1.203   5.369
 1780SOL     OW 6238   1.737   4.093   5.656
 1780SOL    HW1 6239   1.713   4.082   5.560
 1780SOL    HW2 6240   1.813   4.032   5.678
 1781SOL     OW 6241   6.008   6.053   4.398
 1781SOL    HW1 6242   5.931   6.111   4.426
 1781SOL    HW2 6243   6.093   6.104   4.408
 1782SOL     OW 6244   2.899   1.042   2.475
 1782SOL    HW1 6245   2.888   0.967   2.411
 1782SOL    HW2 6246   2.950   1.116   2.431
 1783SOL     OW 6247   2.683   3.011   6.165
 1783SOL    HW1 6248   2.764   2.996   6.222
 1783SOL    HW2 6249   2.633   2.925   6.155
 1784SOL     OW 6250   2.207   1.579   1.478
 1784SOL    HW1 6251   2.215   1.480   1.480
 1784SOL    HW2 6252   2.129   1.605   1.421
 1785SOL     OW 6253   5.820   6.281   3.585
 1785SOL    HW1 6254   5.747   6.266   3.652
 1785SOL    HW2 6255   5.787   6.258   3.494
 1786SOL     OW 6256   1.964   4.180   0.287
 1786SOL    HW1 6257   2.049   4.226   0.262
 1786SOL    HW2 6258   1.913   4.156   0.205
 1787SOL     OW 6259   2.472   1.958   5.864
 1787SOL    HW1 6260   2.471   1.872   5.915
 1787SOL    HW2 6261   2.566   1.988   5.851
 1788SOL     OW 6262   4.354   3.930   0.315
 1788SOL    HW1 6263   4.392   3.840   0.292
 1788SOL    HW2 6264   4.420   3.980   0.371
 1789SOL     OW 6265   5.609   3.012   2.329
 1789SOL    HW1 6266   5.619   2.927   2.380
 1789SOL    HW2 6267   5.572   2.991   2.238
 1790SOL     OW 6268   2.947   0.827   4.417
 1790SOL    HW1 6269   2.946   0.811   4.515
 1790SOL    HW2 6270   2.876   0.893   4.393
 1791SOL     OW 6271   6.275   1.877   3.970
 1791SOL    HW1 6272   6.321   1.819   4.038
 1791SOL    HW2 6273   6.285   1.836   3.879
 1792SOL     OW 6274   7.010   0.964   4.232
 1792SOL    HW1 6275   0.069   0.979   4.283
 1792SOL    HW2 6276   0.003   0.903   4.154
 1793SOL     OW 6277   6.112   1.584   4.361
 1793SOL    HW1 6278   6.040   1.623   4.304
 1793SOL    HW2 6279   6.080   1.499   4.402
 1794SOL     OW 6280   5.212   6.789   5.433
 1794SOL    HW1 6281   5.167   6.801   5.522
 1794SOL    HW2 6282   5.310   6.804   5.443
 1795SOL     OW 6283   6.748   5.508   2.099
 1795SOL    HW1 6284   6.811   5.543   2.030
 1795SOL    HW2 6285   6.700   5.584   2.143
 1796SOL     OW 6286   2.396   1.573   5.226
 1796SOL    HW1 6287   2.460   1.636   5.183
 1796SOL    HW2 6288   2.317   1.625   5.260
 1797SOL     OW 6289   1.289   0.086   5.567
 1797SOL    HW1 6290   1.258   7.024   5.531
 1797SOL    HW2 6291   1.380   0.106   5.531
 1798SOL     OW 6292   3.746   3.017   4.909
 1798SOL    HW1 6293   3.704   3.073   4.981
 1798SOL    HW2 6294   3.841   3.045   4.898
 1799SOL     OW 6295   5.753   3.278   6.413
 1799SOL    HW1 6296   5.821   3.275   6.486
 1799SOL    HW2 6297   5.788   3.230   6.332
 1800SOL     OW 6298   5.061   5.216   3.231
 1800SOL    HW1 6299   5.012   5.289   3.279
 1800SOL    HW2 6300   5.157   5.239   3.223
 1801SOL     OW 6301   1.494   1.259   2.830
 1801SOL    HW1 6302   1.508   1.265   2.929
 1801SOL    HW2 6303   1.539   1.177   2.795
 1802SOL     OW 6304   6.755   6.016   3.300
 1802SOL    HW1 6305   6.726   5.935   3.250
 1802SOL    HW2 6306   6.707   6.019   3.388
 1803SOL     OW 6307   6.919   6.897   1.988
 1803SOL    HW1 6308   6.977   6.940   2.057
 1803SOL    HW2 6309   6.824   6.902   2.018
 1804SOL     OW 6310   4.297   3.831   5.456
 1804SOL    HW1 6311   4.264   3.741   5.481
 1804SOL    HW2 6312   4.363   3.863   5.523
 1805SOL     OW 6313   0.709   5.287   5.755
 1805SOL    HW1 6314   0.675   5.372   5.714
 1805SOL    HW2 6315   0.781   5.248   5.697
 1806SOL     OW 6316   0.604   2.646   1.910
 1806SOL    HW1 6317   0.665   2.663   1.833
 1806SOL    HW2 6318   0.568   2.733   1.944
 1807SOL     OW 6319   6.594   2.574   6.629
 1807SOL    HW1 6320   6.601   2.476   6.612
 1807SOL    HW2 6321   6.531   2.615   6.563
 1808SOL     OW 6322   5.803   4.325   4.756
 1808SOL    HW1 6323   5.740   4.295   4.827
 1808SOL    HW2 6324   5.891   4.350   4.798
 1809SOL     OW 6325   2.594   2.243   5.217
 1809SOL    HW1 6326   2.617   2.214   5.124
 1809SOL    HW2 6327   2.656   2.198   5.282
 1810SOL     OW 6328   1.067   0.707   4.751
 1810SOL    HW1 6329   1.059   0.693   4.850
 1810SOL    HW2 6330   1.115   0.793   4.733
 1811SOL     OW 6331   5.261   4.863   2.746
 1811SOL    HW1 6332   5.182   4.921   2.766
 1811SOL    HW2 6333   5.345   4.917   2.752
 1812SOL     OW 6334   4.642   6.981   6.692
 1812SOL    HW1 6335   4.574   6.954   6.759
 1812SOL    HW2 6336   4.696   0.032   6.728
 1813SOL     OW 6337   5.010   5.457   2.074
 1813SOL    HW1 6338   4.991   5.554   2.088
 1813SOL    HW2 6339   4.930   5.402   2.099
 1814SOL     OW 6340   6.396   0.647   0.686
 1814SOL    HW1 6341   6.379   0.718   0.618
 1814SOL    HW2 6342   6.337   0.568   0.668
 1815SOL     OW 6343   6.403   0.406   3.177
 1815SOL    HW1 6344   6.491   0.446   3.152
 1815SOL    HW2 6345   6.340   0.414   3.099
 1816SOL     OW 6346   3.595   4.894   6.997
 1816SOL    HW1 6347   3.625   4.811   0.020
 1816SOL    HW2 6348   3.552   4.956   0.036
 1817SOL     OW 6349   3.856   0.344   2.753
 1817SOL    HW1 6350   3.947   0.326   2.790
 1817SOL    HW2 6351   3.858   0.340   2.654
 1818SOL     OW 6352   1.477   6.669   0.697
 1818SOL    HW1 6353   1.567   6.697   0.727
 1818SOL    HW2 6354   1.486   6.603   0.622
 1819SOL     OW 6355   1.173   5.924   1.784
 1819SOL    HW1 6356   1.159   5.826   1.801
 1819SOL    HW2 6357   1.189   5.971   1.871
 1820SOL     OW 6358   3.440   0.199   2.222
 1820SOL    HW1 6359   3.440   0.294   2.252
 1820SOL    HW2 6360   3.346   0.165   2.222
 1821SOL     OW 6361   2.865   0.719   1.810
 1821SOL    HW1 6362   2.809   0.789   1.853
 1821SOL    HW2 6363   2.878   0.742   1.713
 1822SOL     OW 6364   0.918   2.916   1.612
 1822SOL    HW1 6365   0.937   2.870   1.525
 1822SOL    HW2 6366   0.852   2.989   1.597
 1823SOL     OW 6367   2.941   6.215   2.952
 1823SOL    HW1 6368   3.009   6.287   2.938
 1823SOL    HW2 6369   2.975   6.150   3.019
 1824SOL     OW 6370   3.755   4.190   0.507
 1824SOL    HW1 6371   3.762   4.152   0.599
 1824SOL    HW2 6372   3.827   4.151   0.449
 1825SOL     OW 6373   0.493   2.605   4.426
 1825SOL    HW1 6374   0.426   2.555   4.371
 1825SOL    HW2 6375   0.538   2.541   4.489
 1826SOL     OW 6376   2.654   0.925   1.231
 1826SOL    HW1 6377   2.715   0.872   1.172
 1826SOL    HW2 6378   2.566   0.877   1.240
 1827SOL     OW 6379   6.180   5.182   1.120
 1827SOL    HW1 6380   6.185   5.094   1.073
 1827SOL    HW2 6381   6.269   5.202   1.162
 1828SOL     OW 6382   1.534   2.928   6.761
 1828SOL    HW1 6383   1.450   2.917   6.815
 1828SOL    HW2 6384   1.536   2.860   6.688
 1829SOL     OW 6385   3.730   6.907   3.113
 1829SOL    HW1 6386   3.792   6.952   3.049
 1829SOL    HW2 6387   3.636   6.924   3.086
 1830SOL     OW 6388   5.806   6.385   4.322
 1830SOL    HW1 6389   5.862   6.427   4.393
 1830SOL    HW2 6390   5.850   6.398   4.233
 1831SOL     OW 6391   5.565   6.530   2.884
 1831SOL    HW1 6392   5.467   6.518   2.869
 1831SOL    HW2 6393   5.601   6.451   2.934
 1832SOL     OW 6394   3.588   1.687   0.468
 1832SOL    HW1 6395   3.632   1.634   0.541
 1832SOL    HW2 6396   3.650   1.759   0.437
 1833SOL     OW 6397   5.746   0.598   1.851
 1833SOL    HW1 6398   5.732   0.515   1.906
 1833SOL    HW2 6399   5.673   0.605   1.784
 1834SOL     OW 6400   2.023   3.967   1.077
 1834SOL    HW1 6401   2.092   3.915   1.128
 1834SOL    HW2 6402   1.934   3.924   1.089
 1835SOL     OW 6403   0.886   4.705   1.803
 1835SOL    HW1 6404   0.962   4.701   1.738
 1835SOL    HW2 6405   0.801   4.681   1.756
 1836SOL     OW 6406   5.738   2.336   2.186
 1836SOL    HW1 6407   5.713   2.311   2.092
 1836SOL    HW2 6408   5.833   2.311   2.204
 1837SOL     OW 6409   1.279   6.957   5.916
 1837SOL    HW1 6410   1.311   7.022   5.985
 1837SOL    HW2 6411   1.221   7.005   5.850
 1838SOL     OW 6412   5.912   1.090   5.895
 1838SOL    HW1 6413   5.870   1.003   5.923
 1838SOL    HW2 6414   5.846   1.143   5.841
 1839SOL     OW 6415   6.980   1.085   5.675
 1839SOL    HW1 6416   0.033   1.026   5.693
 1839SOL    HW2 6417   6.997   1.140   5.593
 1840SOL     OW 6418   3.925   0.193   2.178
 1840SOL    HW1 6419   3.854   0.153   2.120
 1840SOL    HW2 6420   3.952   0.282   2.141
 1841SOL     OW 6421   2.184   0.293   2.904
 1841SOL    HW1 6422   2.236   0.288   2.990
 1841SOL    HW2 6423   2.175   0.389   2.877
 1842SOL     OW 6424   0.957   5.850   1.310
 1842SOL    HW1 6425   0.993   5.943   1.318
 1842SOL    HW2 6426   0.960   5.821   1.214
 1843SOL     OW 6427   5.597   0.511   4.405
 1843SOL    HW1 6428   5.693   0.489   4.421
 1843SOL    HW2 6429   5.588   0.557   4.316
 1844SOL     OW 6430   4.463   0.348   5.048
 1844SOL    HW1 6431   4.402   0.313   4.976
 1844SOL    HW2 6432   4.415   0.416   5.103
 1845SOL     OW 6433   2.998   6.771   4.495
 1845SOL    HW1 6434   3.065   6.809   4.559
 1845SOL    HW2 6435   2.915   6.828   4.497
 1846SOL     OW 6436   4.782   0.919   2.872
 1846SOL    HW1 6437   4.683   0.932   2.866
 1846SOL    HW2 6438   4.804   0.867   2.954
 1847SOL     OW 6439   1.616   6.989   5.651
 1847SOL    HW1 6440   1.654   6.998   5.744
 1847SOL    HW2 6441   1.690   6.998   5.585
 1848SOL     OW 6442   2.055   6.359   3.929
 1848SOL    HW1 6443   2.127   6.293   3.953
 1848SOL    HW2 6444   2.017   6.335   3.840
 1849SOL     OW 6445   4.178   2.681   1.176
 1849SOL    HW1 6446   4.254   2.687   1.111
 1849SOL    HW2 6447   4.207   2.717   1.264
 1850SOL     OW 6448   6.340   2.407   2.346
 1850SOL    HW1 6449   6.362   2.349   2.267
 1850SOL    HW2 6450   6.310   2.350   2.422
 1851SOL     OW 6451   1.099   3.191   0.187
 1851SOL    HW1 6452   1.013   3.141   0.175
 1851SOL    HW2 6453   1.168   3.154   0.125
 1852SOL     OW 6454   0.439   4.862   2.666
 1852SOL    HW1 6455   0.410   4.937   2.606
 1852SOL    HW2 6456   0.537   4.844   2.651
 1853SOL     OW 6457   0.099   2.616   3.227
 1853SOL    HW1 6458   0.040   2.642   3.150
 1853SOL    HW2 6459   0.091   2.684   3.300
 1854SOL     OW 6460   1.912   4.910   2.644
 1854SOL    HW1 6461   1.911   4.982   2.714
 1854SOL    HW2 6462   1.870   4.827   2.681
 1855SOL     OW 6463   5.181   3.456   5.436
 1855SOL    HW1 6464   5.088   3.483   5.408
 1855SOL    HW2 6465   5.190   3.357   5.431
 1856SOL     OW 6466   4.782   3.142   6.343
 1856SOL    HW1 6467   4.760   3.171   6.250
 1856SOL    HW2 6468   4.851   3.070   6.340
 1857SOL     OW 6469   4.263   1.392   0.246
 1857SOL    HW1 6470   4.240   1.336   0.325
 1857SOL    HW2 6471   4.180   1.436   0.211
 1858SOL     OW 6472   5.154   2.559   3.127
 1858SOL    HW1 6473   5.062   2.554   3.166
 1858SOL    HW2 6474   5.212   2.490   3.169
 1859SOL     OW 6475   4.649   1.618   3.582
 1859SOL    HW1 6476   4.705   1.563   3.519
 1859SOL    HW2 6477   4.708   1.671   3.643
 1860SOL     OW 6478   0.030   1.746   5.731
 1860SOL    HW1 6479   6.964   1.708   5.724
 1860SOL    HW2 6480   0.062   1.740   5.825
 1861SOL     OW 6481   4.823   0.701   2.543
 1861SOL    HW1 6482   4.876   0.679   2.625
 1861SOL    HW2 6483   4.761   0.777   2.563
 1862SOL     OW 6484   2.083   6.628   6.868
 1862SOL    HW1 6485   2.164   6.615   6.926
 1862SOL    HW2 6486   2.002   6.596   6.916
 1863SOL     OW 6487   6.897   2.409   2.215
 1863SOL    HW1 6488   6.848   2.354   2.282
 1863SOL    HW2 6489   6.832   2.466   2.164
 1864SOL     OW 6490   3.279   5.816   4.403
 1864SOL    HW1 6491   3.202   5.848   4.347
 1864SOL    HW2 6492   3.261   5.722   4.431
 1865SOL     OW 6493   3.275   0.881   0.548
 1865SOL    HW1 6494   3.209   0.899   0.475
 1865SOL    HW2 6495   3.361   0.850   0.508
 1866SOL     OW 6496   0.059   4.727   3.545
 1866SOL    HW1 6497   0.061   4.825   3.563
 1866SOL    HW2 6498   7.017   4.707   3.474
 1867SOL     OW 6499   2.069   3.441   1.758
 1867SOL    HW1 6500   2.007   3.365   1.778
 1867SOL    HW2 6501   2.134   3.452   1.833
 1868SOL     OW 6502   5.334   3.492   6.726
 1868SOL    HW1 6503   5.423   3.455   6.698
 1868SOL    HW2 6504   5.318   3.471   6.822
 1869SOL     OW 6505   6.186   3.459   4.656
 1869SOL    HW1 6506   6.188   3.360   4.647
 1869SOL    HW2 6507   6.184   3.501   4.565
 1870SOL     OW 6508   1.237   3.375   5.034
 1870SOL    HW1 6509   1.334   3.396   5.028
 1870SOL    HW2 6510   1.207   3.328   4.951
 1871SOL     OW 6511   6.317   0.229   0.698
 1871SOL    HW1 6512   6.412   0.258   0.714
 1871SOL    HW2 6513   6.257   0.277   0.761
 1872SOL     OW 6514   4.518   2.093   6.864
 1872SOL    HW1 6515   4.437   2.045   6.897
 1872SOL    HW2 6516   4.569   2.034   6.802
 1873SOL     OW 6517   6.966   0.255   5.473
 1873SOL    HW1 6518   0.009   0.189   5.442
 1873SOL    HW2 6519   7.009   0.320   5.536
 1874SOL     OW 6520   1.229   1.080   6.303
 1874SOL    HW1 6521   1.225   1.140   6.223
 1874SOL    HW2 6522   1.324   1.060   6.325
 1875SOL     OW 6523   6.595   0.168   0.454
 1875SOL    HW1 6524   6.535   0.242   0.485
 1875SOL    HW2 6525   6.560   0.081   0.487
 1876SOL     OW 6526   3.944   6.020   6.298
 1876SOL    HW1 6527   3.893   6.096   6.336
 1876SOL    HW2 6528   4.038   6.050   6.277
 1877SOL     OW 6529   0.862   1.779   3.208
 1877SOL    HW1 6530   0.897   1.847   3.142
 1877SOL    HW2 6531   0.914   1.787   3.293
 1878SOL     OW 6532   0.203   4.132   3.807
 1878SOL    HW1 6533   0.163   4.045   3.836
 1878SOL    HW2 6534   0.294   4.141   3.848
 1879SOL     OW 6535   2.706   5.840   3.939
 1879SOL    HW1 6536   2.667   5.928   3.965
 1879SOL    HW2 6537   2.657   5.767   3.987
 1880SOL     OW 6538   0.667   1.830   2.862
 1880SOL    HW1 6539   0.604   1.807   2.935
 1880SOL    HW2 6540   0.663   1.928   2.842
 1881SOL     OW 6541   1.432   1.745   3.672
 1881SOL    HW1 6542   1.358   1.811   3.654
 1881SOL    HW2 6543   1.485   1.777   3.751
 1882SOL     OW 6544   0.625   4.958   6.875
 1882SOL    HW1 6545   0.695   4.930   6.808
 1882SOL    HW2 6546   0.659   5.035   6.928
 1883SOL     OW 6547   0.707   3.695   4.153
 1883SOL    HW1 6548   0.713   3.684   4.253
 1883SOL    HW2 6549   0.796   3.724   4.118
 1884SOL     OW 6550   5.877   2.315   1.265
 1884SOL    HW1 6551   5.804   2.254   1.237
 1884SOL    HW2 6552   5.923   2.352   1.184
 1885SOL     OW 6553   0.086   1.991   1.292
 1885SOL    HW1 6554   0.134   1.926   1.233
 1885SOL    HW2 6555   7.017   2.001   1.261
 1886SOL     OW 6556   2.100   2.152   0.174
 1886SOL    HW1 6557   2.113   2.125   0.270
 1886SOL    HW2 6558   2.188   2.149   0.126
 1887SOL     OW 6559   0.151   4.525   5.635
 1887SOL    HW1 6560   0.142   4.448   5.697
 1887SOL    HW2 6561   0.146   4.611   5.687
 1888SOL     OW 6562   2.240   2.107   5.913
 1888SOL    HW1 6563   2.318   2.046   5.921
 1888SOL    HW2 6564   2.168   2.078   5.976
 1889SOL     OW 6565   5.096   3.068   6.419
 1889SOL    HW1 6566   5.171   3.013   6.455
 1889SOL    HW2 6567   5.120   3.165   6.424
 1890SOL     OW 6568   1.662   6.029   5.671
 1890SOL    HW1 6569   1.728   6.104   5.666
 1890SOL    HW2 6570   1.633   6.017   5.766
 1891SOL     OW 6571   5.341   3.798   4.003
 1891SOL    HW1 6572   5.283   3.777   3.924
 1891SOL    HW2 6573   5.284   3.800   4.086
 1892SOL     OW 6574   3.605   6.385   1.060
 1892SOL    HW1 6575   3.531   6.439   1.021
 1892SOL    HW2 6576   3.646   6.435   1.137
 1893SOL     OW 6577   3.553   1.997   5.619
 1893SOL    HW1 6578   3.488   2.055   5.667
 1893SOL    HW2 6579   3.506   1.918   5.580
 1894SOL     OW 6580   4.250   3.856   1.642
 1894SOL    HW1 6581   4.321   3.924   1.655
 1894SOL    HW2 6582   4.290   3.772   1.604
 1895SOL     OW 6583   5.714   0.709   2.609
 1895SOL    HW1 6584   5.702   0.807   2.593
 1895SOL    HW2 6585   5.807   0.691   2.641
 1896SOL     OW 6586   0.329   0.554   3.499
 1896SOL    HW1 6587   0.261   0.485   3.474
 1896SOL    HW2 6588   0.410   0.509   3.538
 1897SOL     OW 6589   0.044   4.920   2.907
 1897SOL    HW1 6590   0.010   4.916   3.001
 1897SOL    HW2 6591   7.009   4.977   2.852
 1898SOL     OW 6592   3.193   5.528   1.620
 1898SOL    HW1 6593   3.193   5.600   1.689
 1898SOL    HW2 6594   3.100   5.492   1.608
 1899SOL     OW 6595   1.124   2.608   3.115
 1899SOL    HW1 6596   1.131   2.640   3.209
 1899SOL    HW2 6597   1.112   2.509   3.114
 1900SOL     OW 6598   0.796   0.364   5.382
 1900SOL    HW1 6599   0.843   0.335   5.298
 1900SOL    HW2 6600   0.757   0.284   5.427
 1901SOL     OW 6601   2.306   1.742   1.669
 1901SOL    HW1 6602   2.249   1.823   1.686
 1901SOL    HW2 6603   2.285   1.704   1.579
 1902SOL     OW 6604   2.463   2.489   4.759
 1902SOL    HW1 6605   2.529   2.440   4.703
 1902SOL    HW2 6606   2.371   2.478   4.719
 1903SOL     OW 6607   0.152   4.189   3.549
 1903SOL    HW1 6608   0.132   4.287   3.547
 1903SOL    HW2 6609   0.165   4.160   3.644
 1904SOL     OW 6610   6.066   6.973   3.762
 1904SOL    HW1 6611   6.068   6.969   3.662
 1904SOL    HW2 6612   6.159   6.969   3.798
 1905SOL     OW 6613   0.912   1.990   4.140
 1905SOL    HW1 6614   0.936   1.900   4.175
 1905SOL    HW2 6615   0.992   2.032   4.097
 1906SOL     OW 6616   3.031   6.999   5.515
 1906SOL    HW1 6617   2.993   6.914   5.479
 1906SOL    HW2 6618   2.960   0.044   5.515
 1907SOL     OW 6619   2.960   6.601   3.246
 1907SOL    HW1 6620   2.891   6.646   3.301
 1907SOL    HW2 6621   3.046   6.597   3.297
 1908SOL     OW 6622   4.833   0.789   4.860
 1908SOL    HW1 6623   4.921   0.744   4.876
 1908SOL    HW2 6624   4.805   0.775   4.765
 1909SOL     OW 6625   1.419   3.633   3.048
 1909SOL    HW1 6626   1.410   3.732   3.043
 1909SOL    HW2 6627   1.435   3.606   3.143
 1910SOL     OW 6628   6.419   2.132   6.977
 1910SOL    HW1 6629   6.438   2.206   6.912
 1910SOL    HW2 6630   6.369   2.169   0.030
 1911SOL     OW 6631   6.239   2.095   5.739
 1911SOL    HW1 6632   6.190   2.152   5.805
 1911SOL    HW2 6633   6.179   2.021   5.707
 1912SOL     OW 6634   3.902   6.558   1.472
 1912SOL    HW1 6635   3.804   6.546   1.493
 1912SOL    HW2 6636   3.940   6.628   1.532
 1913SOL     OW 6637   2.003   6.067   5.553
 1913SOL    HW1 6638   2.032   6.121   5.474
 1913SOL    HW2 6639   2.049   5.978   5.552
 1914SOL     OW 6640   2.993   2.836   6.820
 1914SOL    HW1 6641   3.077   2.890   6.832
 1914SOL    HW2 6642   2.995   2.789   6.732
 1915SOL     OW 6643   4.139   1.205   5.233
 1915SOL    HW1 6644   4.147   1.173   5.138
 1915SOL    HW2 6645   4.226   1.193   5.280
 1916SOL     OW 6646   3.409   5.753   0.829
 1916SOL    HW1 6647   3.468   5.833   0.846
 1916SOL    HW2 6648   3.463   5.670   0.838
 1917SOL     OW 6649   3.997   3.245   4.679
 1917SOL    HW1 6650   4.046   3.269   4.763
 1917SOL    HW2 6651   3.907   3.288   4.679
 1918SOL     OW 6652   6.818   0.113   6.490
 1918SOL    HW1 6653   6.910   0.140   6.464
 1918SOL    HW2 6654   6.771   0.191   6.532
 1919SOL     OW 6655   2.302   6.315   1.455
 1919SOL    HW1 6656   2.379   6.369   1.421
 1919SOL    HW2 6657   2.222   6.329   1.397
 1920SOL     OW 6658   0.805   5.179   2.811
 1920SOL    HW1 6659   0.849   5.262   2.774
 1920SOL    HW2 6660   0.711   5.200   2.836
 1921SOL     OW 6661   1.194   4.082   6.985
 1921SOL    HW1 6662   1.251   4.018   0.011
 1921SOL    HW2 6663   1.252   4.149   6.938
 1922SOL     OW 6664   3.623   3.990   0.946
 1922SOL    HW1 6665   3.529   3.972   0.916
 1922SOL    HW2 6666   3.639   3.947   1.035
 1923SOL     OW 6667   3.210   0.943   6.226
 1923SOL    HW1 6668   3.216   0.990   6.314
 1923SOL    HW2 6669   3.233   1.007   6.153
 1924SOL     OW 6670   5.892   5.613   2.028
 1924SOL    HW1 6671   5.973   5.660   1.994
 1924SOL    HW2 6672   5.843   5.672   2.093
 1925SOL     OW 6673   3.042   3.808   2.178
 1925SOL    HW1 6674   3.099   3.792   2.258
 1925SOL    HW2 6675   2.964   3.865   2.204
 1926SOL     OW 6676   0.844   6.934   3.928
 1926SOL    HW1 6677   0.920   6.950   3.865
 1926SOL    HW2 6678   0.855   6.845   3.971
 1927SOL     OW 6679   3.564   5.143   5.998
 1927SOL    HW1 6680   3.652   5.136   6.044
 1927SOL    HW2 6681   3.552   5.066   5.936
 1928SOL     OW 6682   6.800   3.820   6.292
 1928SOL    HW1 6683   6.718   3.792   6.240
 1928SOL    HW2 6684   6.882   3.787   6.245
 1929SOL     OW 6685   0.869   5.832   1.032
 1929SOL    HW1 6686   0.841   5.737   1.048
 1929SOL    HW2 6687   0.967   5.833   1.009
 1930SOL     OW 6688   4.073   3.767   0.109
 1930SOL    HW1 6689   4.090   3.863   0.132
 1930SOL    HW2 6690   4.040   3.761   0.014
 1931SOL     OW 6691   0.034   2.398   3.420
 1931SOL    HW1 6692   0.041   2.468   3.350
 1931SOL    HW2 6693   6.971   2.407   3.468
 1932SOL     OW 6694   5.109   3.713   2.700
 1932SOL    HW1 6695   5.090   3.615   2.703
 1932SOL    HW2 6696   5.027   3.763   2.672
 1933SOL     OW 6697   2.938   4.458   0.811
 1933SOL    HW1 6698   3.026   4.459   0.764
 1933SOL    HW2 6699   2.931   4.375   0.867
 1934SOL     OW 6700   0.375   0.418   4.519
 1934SOL    HW1 6701   0.323   0.392   4.438
 1934SOL    HW2 6702   0.410   0.511   4.507
 1935SOL     OW 6703   3.363   0.262   4.660
 1935SOL    HW1 6704   3.329   0.315   4.738
 1935SOL    HW2 6705   3.449   0.302   4.628
 1936SOL     OW 6706   6.390   4.258   4.183
 1936SOL    HW1 6707   6.436   4.224   4.101
 1936SOL    HW2 6708   6.459   4.286   4.250
 1937SOL     OW 6709   5.172   6.957   0.551
 1937SOL    HW1 6710   5.199   0.023   0.522
 1937SOL    HW2 6711   5.252   6.906   0.581
 1938SOL     OW 6712   3.658   0.901   1.891
 1938SOL    HW1 6713   3.656   0.807   1.923
 1938SOL    HW2 6714   3.753   0.934   1.890
 1939SOL     OW 6715   0.830   6.893   4.928
 1939SOL    HW1 6716   0.853   6.935   4.840
 1939SOL    HW2 6717   0.863   6.798   4.929
 1940SOL     OW 6718   4.532   4.821   6.616
 1940SOL    HW1 6719   4.554   4.815   6.518
 1940SOL    HW2 6720   4.441   4.783   6.632
 1941SOL     OW 6721   0.291   4.067   3.037
 1941SOL    HW1 6722   0.268   4.099   3.129
 1941SOL    HW2 6723   0.356   3.991   3.044
 1942SOL     OW 6724   5.664   0.458   2.121
 1942SOL    HW1 6725   5.625   0.418   2.204
 1942SOL    HW2 6726   5.743   0.514   2.145
 1943SOL     OW 6727   2.660   6.002   2.141
 1943SOL    HW1 6728   2.727   6.076   2.152
 1943SOL    HW2 6729   2.680   5.953   2.056
 1944SOL     OW 6730   5.625   2.102   0.302
 1944SOL    HW1 6731   5.689   2.094   0.379
 1944SOL    HW2 6732   5.612   2.198   0.279
 1945SOL     OW 6733   3.715   5.872   2.370
 1945SOL    HW1 6734   3.747   5.910   2.457
 1945SOL    HW2 6735   3.621   5.900   2.353
 1946SOL     OW 6736   6.254   0.732   0.992
 1946SOL    HW1 6737   6.344   0.695   0.972
 1946SOL    HW2 6738   6.184   0.678   0.945
 1947SOL     OW 6739   4.796   6.563   4.273
 1947SOL    HW1 6740   4.835   6.531   4.187
 1947SOL    HW2 6741   4.860   6.625   4.317
 1948SOL     OW 6742   5.614   6.210   3.758
 1948SOL    HW1 6743   5.552   6.141   3.721
 1948SOL    HW2 6744   5.653   6.177   3.844
 1949SOL     OW 6745   4.124   4.322   6.393
 1949SOL    HW1 6746   4.203   4.312   6.453
 1949SOL    HW2 6747   4.151   4.371   6.310
 1950SOL     OW 6748   3.737   4.690   1.142
 1950SOL    HW1 6749   3.744   4.599   1.183
 1950SOL    HW2 6750   3.644   4.724   1.152
 1951SOL     OW 6751   6.157   4.127   0.440
 1951SOL    HW1 6752   6.249   4.128   0.400
 1951SOL    HW2 6753   6.109   4.211   0.415
 1952SOL     OW 6754   4.072   2.246   6.659
 1952SOL    HW1 6755   4.082   2.345   6.649
 1952SOL    HW2 6756   4.059   2.205   6.569
 1953SOL     OW 6757   5.974   3.232   6.994
 1953SOL    HW1 6758   5.992   3.134   6.992
 1953SOL    HW2 6759   5.925   3.255   0.052
 1954SOL     OW 6760   5.656   1.328   4.117
 1954SOL    HW1 6761   5.564   1.364   4.131
 1954SOL    HW2 6762   5.718   1.369   4.183
 1955SOL     OW 6763   1.606   0.634   2.539
 1955SOL    HW1 6764   1.538   0.650   2.468
 1955SOL    HW2 6765   1.684   0.695   2.525
 1956SOL     OW 6766   4.744   6.597   2.144
 1956SOL    HW1 6767   4.807   6.674   2.133
 1956SOL    HW2 6768   4.660   6.629   2.189
 1957SOL     OW 6769   6.332   5.908   5.242
 1957SOL    HW1 6770   6.399   5.873   5.177
 1957SOL    HW2 6771   6.352   5.872   5.333
 1958SOL     OW 6772   5.573   2.550   2.591
 1958SOL    HW1 6773   5.607   2.456   2.586
 1958SOL    HW2 6774   5.631   2.610   2.537
 1959SOL     OW 6775   0.912   1.219   5.298
 1959SOL    HW1 6776   0.899   1.125   5.266
 1959SOL    HW2 6777   0.846   1.278   5.253
 1960SOL     OW 6778   6.893   4.717   1.569
 1960SOL    HW1 6779   6.812   4.776   1.571
 1960SOL    HW2 6780   6.921   4.702   1.474
 1961SOL     OW 6781   5.639   4.695   4.259
 1961SOL    HW1 6782   5.676   4.665   4.347
 1961SOL    HW2 6783   5.713   4.705   4.193
 1962SOL     OW 6784   2.479   6.715   3.564
 1962SOL    HW1 6785   2.410   6.779   3.597
 1962SOL    HW2 6786   2.517   6.749   3.477
 1963SOL     OW 6787   1.112   1.195   1.771
 1963SOL    HW1 6788   1.124   1.098   1.790
 1963SOL    HW2 6789   1.169   1.249   1.833
 1964SOL     OW 6790   4.796   4.007   1.090
 1964SOL    HW1 6791   4.734   4.001   1.011
 1964SOL    HW2 6792   4.812   4.103   1.112
 1965SOL     OW 6793   1.048   3.554   4.563
 1965SOL    HW1 6794   1.089   3.644   4.578
 1965SOL    HW2 6795   0.966   3.564   4.506
 1966SOL     OW 6796   6.770   6.139   6.922
 1966SOL    HW1 6797   6.725   6.196   6.990
 1966SOL    HW2 6798   6.717   6.140   6.837
 1967SOL     OW 6799   4.507   2.420   4.623
 1967SOL    HW1 6800   4.480   2.467   4.708
 1967SOL    HW2 6801   4.589   2.463   4.587
 1968SOL     OW 6802   3.491   6.847   0.337
 1968SOL    HW1 6803   3.484   6.935   0.385
 1968SOL    HW2 6804   3.399   6.809   0.325
 1969SOL     OW 6805   1.043   1.582   1.717
 1969SOL    HW1 6806   1.106   1.554   1.644
 1969SOL    HW2 6807   0.960   1.620   1.676
 1970SOL     OW 6808   2.388   0.320   6.152
 1970SOL    HW1 6809   2.323   0.387   6.187
 1970SOL    HW2 6810   2.473   0.325   6.206
 1971SOL     OW 6811   0.348   0.192   5.809
 1971SOL    HW1 6812   0.413   0.119   5.789
 1971SOL    HW2 6813   0.274   0.192   5.741
 1972SOL     OW 6814   5.982   2.807   2.865
 1972SOL    HW1 6815   5.891   2.767   2.879
 1972SOL    HW2 6816   6.046   2.735   2.840
 1973SOL     OW 6817   2.568   2.876   0.645
 1973SOL    HW1 6818   2.632   2.926   0.703
 1973SOL    HW2 6819   2.476   2.880   0.685
 1974SOL     OW 6820   5.947   6.180   4.076
 1974SOL    HW1 6821   5.865   6.126   4.059
 1974SOL    HW2 6822   5.921   6.272   4.106
 1975SOL     OW 6823   2.276   1.678   3.585
 1975SOL    HW1 6824   2.332   1.665   3.503
 1975SOL    HW2 6825   2.300   1.608   3.653
 1976SOL     OW 6826   0.647   5.838   0.386
 1976SOL    HW1 6827   0.657   5.937   0.399
 1976SOL    HW2 6828   0.716   5.805   0.322
 1977SOL     OW 6829   0.833   3.411   3.911
 1977SOL    HW1 6830   0.756   3.410   3.974
 1977SOL    HW2 6831   0.883   3.324   3.917
 1978SOL     OW 6832   0.972   0.680   3.263
 1978SOL    HW1 6833   1.050   0.685   3.325
 1978SOL    HW2 6834   0.888   0.701   3.314
 1979SOL     OW 6835   5.983   4.504   5.577
 1979SOL    HW1 6836   6.019   4.594   5.601
 1979SOL    HW2 6837   6.059   4.439   5.568
 1980SOL     OW 6838   2.709   0.697   5.546
 1980SOL    HW1 6839   2.674   0.689   5.452
 1980SOL    HW2 6840   2.805   0.725   5.543
 1981SOL     OW 6841   6.435   2.101   2.462
 1981SOL    HW1 6842   6.413   2.154   2.544
 1981SOL    HW2 6843   6.358   2.040   2.440
 1982SOL     OW 6844   0.290   3.914   5.110
 1982SOL    HW1 6845   0.361   3.895   5.178
 1982SOL    HW2 6846   0.211   3.955   5.154
 1983SOL     OW 6847   0.882   1.222   2.768
 1983SOL    HW1 6848   0.908   1.311   2.731
 1983SOL    HW2 6849   0.963   1.179   2.809
 1984SOL     OW 6850   6.472   2.366   4.864
 1984SOL    HW1 6851   6.449   2.271   4.882
 1984SOL    HW2 6852   6.571   2.379   4.876
 1985SOL     OW 6853   1.267   6.371   2.776
 1985SOL    HW1 6854   1.253   6.454   2.830
 1985SOL    HW2 6855   1.356   6.375   2.731
 1986SOL     OW 6856   1.393   0.627   0.225
 1986SOL    HW1 6857   1.364   0.642   0.319
 1986SOL    HW2 6858   1.493   0.631   0.220
 1987SOL     OW 6859   1.437   2.738   1.716
 1987SOL    HW1 6860   1.339   2.756   1.727
 1987SOL    HW2 6861   1.465   2.663   1.776
 1988SOL     OW 6862   5.877   4.460   0.979
 1988SOL    HW1 6863   5.880   4.361   0.976
 1988SOL    HW2 6864   5.789   4.492   0.943
 1989SOL     OW 6865   2.564   6.591   4.399
 1989SOL    HW1 6866   2.548   6.546   4.486
 1989SOL    HW2 6867   2.558   6.523   4.325
 1990SOL     OW 6868   3.158   6.532   0.235
 1990SOL    HW1 6869   3.213   6.456   0.271
 1990SOL    HW2 6870   3.137   6.515   0.139
 1991SOL     OW 6871   4.197   4.435   6.172
 1991SOL    HW1 6872   4.138   4.488   6.111
 1991SOL    HW2 6873   4.268   4.495   6.209
 1992SOL     OW 6874   0.843   0.463   6.854
 1992SOL    HW1 6875   0.745   0.463   6.838
 1992SOL    HW2 6876   0.874   0.369   6.869
 1993SOL     OW 6877   4.128   3.504   4.554
 1993SOL    HW1 6878   4.068   3.448   4.611
 1993SOL    HW2 6879   4.164   3.580   4.607
 1994SOL     OW 6880   0.939   1.094   0.414
 1994SOL    HW1 6881   0.903   1.187   0.422
 1994SOL    HW2 6882   1.030   1.097   0.371
 1995SOL     OW 6883   5.638   2.441   2.980
 1995SOL    HW1 6884   5.584   2.408   2.903
 1995SOL    HW2 6885   5.584   2.433   3.064
 1996SOL     OW 6886   2.218   3.517   0.745
 1996SOL    HW1 6887   2.171   3.600   0.775
 1996SOL    HW2 6888   2.198   3.500   0.649
 1997SOL     OW 6889   4.265   0.821   4.902
 1997SOL    HW1 6890   4.350   0.775   4.876
 1997SOL    HW2 6891   4.188   0.759   4.887
 1998SOL     OW 6892   3.202   3.932   6.381
 1998SOL    HW1 6893   3.143   4.010   6.361
 1998SOL    HW2 6894   3.294   3.949   6.347
 1999SOL     OW 6895   3.330   6.351   1.453
 1999SOL    HW1 6896   3.381   6.401   1.523
 1999SOL    HW2 6897   3.266   6.413   1.408
 2000SOL     OW 6898   4.478   2.301   5.119
 2000SOL    HW1 6899   4.528   2.383   5.091
 2000SOL    HW2 6900   4.476   2.236   5.042
 2001SOL     OW 6901   2.864   1.131   1.624
 2001SOL    HW1 6902   2.953   1.165   1.594
 2001SOL    HW2 6903   2.797   1.144   1.551
 2002SOL     OW 6904   0.869   4.475   6.519
 2002SOL    HW1 6905   0.904   4.448   6.429
 2002SOL    HW2 6906   0.814   4.401   6.557
 2003SOL     OW 6907   6.036   6.261   3.144
 2003SOL    HW1 6908   6.094   6.340   3.126
 2003SOL    HW2 6909   6.001   6.224   3.058
 2004SOL     OW 6910   4.851   1.329   5.555
 2004SOL    HW1 6911   4.804   1.315   5.642
 2004SOL    HW2 6912   4.794   1.388   5.497
 2005SOL     OW 6913   0.919   4.632   0.013
 2005SOL    HW1 6914   0.844   4.612   6.975
 2005SOL    HW2 6915   0.967   4.547   0.036
 2006SOL     OW 6916   4.799   5.339   4.010
 2006SOL    HW1 6917   4.783   5.438   4.011
 2006SOL    HW2 6918   4.822   5.309   4.103
 2007SOL     OW 6919   4.530   4.964   1.112
 2007SOL    HW1 6920   4.459   4.997   1.050
 2007SOL    HW2 6921   4.488   4.929   1.196
 2008SOL     OW 6922   1.953   5.024   3.048
 2008SOL    HW1 6923   1.946   5.098   3.115
 2008SOL    HW2 6924   2.000   4.946   3.088
 2009SOL     OW 6925   6.157   0.364   2.324
 2009SOL    HW1 6926   6.110   0.380   2.237
 2009SOL    HW2 6927   6.125   0.277   2.363
 2010SOL     OW 6928   2.016   1.750   1.069
 2010SOL    HW1 6929   2.083   1.692   1.023
 2010SOL    HW2 6930   2.044   1.846   1.060
 2011SOL     OW 6931   6.773   1.430   4.488
 2011SOL    HW1 6932   6.709   1.363   4.525
 2011SOL    HW2 6933   6.726   1.491   4.425
 2012SOL     OW 6934   1.602   2.843   2.059
 2012SOL    HW1 6935   1.641   2.755   2.031
 2012SOL    HW2 6936   1.650   2.876   2.141
 2013SOL     OW 6937   6.303   2.010   3.532
 2013SOL    HW1 6938   6.248   1.928   3.549
 2013SOL    HW2 6939   6.243   2.090   3.534
 2014SOL     OW 6940   2.089   4.777   3.086
 2014SOL    HW1 6941   2.084   4.694   3.142
 2014SOL    HW2 6942   2.167   4.771   3.025
 2015SOL     OW 6943   1.747   1.433   0.383
 2015SOL    HW1 6944   1.668   1.378   0.411
 2015SOL    HW2 6945   1.794   1.467   0.465
 2016SOL     OW 6946   0.790   5.921   4.523
 2016SOL    HW1 6947   0.788   5.826   4.491
 2016SOL    HW2 6948   0.875   5.937   4.574
 2017SOL     OW 6949   2.404   6.809   4.719
 2017SOL    HW1 6950   2.503   6.793   4.728
 2017SOL    HW2 6951   2.386   6.858   4.633
 2018SOL     OW 6952   5.573   6.966   5.649
 2018SOL    HW1 6953   5.619   6.936   5.733
 2018SOL    HW2 6954   5.570   0.040   5.646
 2019SOL     OW 6955   5.212   2.263   1.671
 2019SOL    HW1 6956   5.294   2.274   1.727
 2019SOL    HW2 6957   5.146   2.334   1.695
 2020SOL     OW 6958   0.846   6.179   4.891
 2020SOL    HW1 6959   0.781   6.170   4.816
 2020SOL    HW2 6960   0.923   6.236   4.863
 2021SOL     OW 6961   2.097   5.471   3.303
 2021SOL    HW1 6962   2.093   5.418   3.388
 2021SOL    HW2 6963   2.066   5.564   3.320
 2022SOL     OW 6964   1.899   3.668   3.551
 2022SOL    HW1 6965   1.879   3.613   3.470
 2022SOL    HW2 6966   1.828   3.738   3.562
 2023SOL     OW 6967   6.161   0.818   6.210
 2023SOL    HW1 6968   6.125   0.762   6.135
 2023SOL    HW2 6969   6.260   0.801   6.219
 2024SOL     OW 6970   0.193   6.927   3.247
 2024SOL    HW1 6971   0.206   6.913   3.345
 2024SOL    HW2 6972   0.153   7.017   3.230
 2025SOL     OW 6973   2.812   2.292   2.737
 2025SOL    HW1 6974   2.862   2.368   2.780
 2025SOL    HW2 6975   2.724   2.281   2.783
 2026SOL     OW 6976   0.193   3.128   6.197
 2026SOL    HW1 6977   0.192   3.214   6.248
 2026SOL    HW2 6978   0.101   3.111   6.160
 2027SOL     OW 6979   0.771   0.601   0.085
 2027SOL    HW1 6980   0.827   0.546   0.023
 2027SOL    HW2 6981   0.681   0.559   0.095
 2028SOL     OW 6982   2.661   0.727   5.274
 2028SOL    HW1 6983   2.752   0.754   5.241
 2028SOL    HW2 6984   2.618   0.666   5.207
 2029SOL     OW 6985   6.120   0.386   1.210
 2029SOL    HW1 6986   6.155   0.361   1.119
 2029SOL    HW2 6987   6.193   0.431   1.262
 2030SOL     OW 6988   2.586   0.515   2.986
 2030SOL    HW1 6989   2.646   0.569   3.044
 2030SOL    HW2 6990   2.606   0.418   2.998
 2031SOL     OW 6991   6.467   6.170   2.052
 2031SOL    HW1 6992   6.561   6.144   2.031
 2031SOL    HW2 6993   6.466   6.222   2.138
 2032SOL     OW 6994   5.106   6.393   1.771
 2032SOL    HW1 6995   5.070   6.407   1.863
 2032SOL    HW2 6996   5.031   6.391   1.705
 2033SOL     OW 6997   3.894   3.933   6.887
 2033SOL    HW1 6998   3.895   3.944   6.788
 2033SOL    HW2 6999   3.987   3.942   6.923
 2034SOL     OW 7000   3.099   6.705   5.216
 2034SOL    HW1 7001   3.094   6.668   5.123
 2034SOL    HW2 7002   3.161   6.648   5.271
 2035SOL     OW 7003   6.969   0.585   1.950
 2035SOL    HW1 7004   6.984   0.662   2.012
 2035SOL    HW2 7005   6.937   0.619   1.862
 2036SOL     OW 7006   1.525   5.217   2.671
 2036SOL    HW1 7007   1.438   5.178   2.641
 2036SOL    HW2 7008   1.578   5.246   2.592
 2037SOL     OW 7009   6.836   3.180   5.456
 2037SOL    HW1 7010   6.818   3.089   5.420
 2037SOL    HW2 7011   6.932   3.204   5.440
 2038SOL     OW 7012   0.982   1.914   6.574
 2038SOL    HW1 7013   0.918   1.971   6.626
 2038SOL    HW2 7014   0.939   1.883   6.489
 2039SOL     OW 7015   1.255   5.759   3.127
 2039SOL    HW1 7016   1.275   5.773   3.030
 2039SOL    HW2 7017   1.166   5.797   3.149
 2040SOL     OW 7018   3.892   3.004   4.605
 2040SOL    HW1 7019   3.833   2.958   4.671
 2040SOL    HW2 7020   3.940   3.079   4.650
 2041SOL     OW 7021   0.528   6.062   5.447
 2041SOL    HW1 7022   0.508   6.108   5.360
 2041SOL    HW2 7023   0.611   6.007   5.437
 2042SOL     OW 7024   5.005   4.591   6.803
 2042SOL    HW1 7025   5.045   4.656   6.868
 2042SOL    HW2 7026   4.919   4.628   6.768
 2043SOL     OW 7027   6.156   3.646   3.373
 2043SOL    HW1 7028   6.195   3.658   3.464
 2043SOL    HW2 7029   6.162   3.732   3.322
 2044SOL     OW 7030   5.030   6.726   1.759
 2044SOL    HW1 7031   5.112   6.755   1.709
 2044SOL    HW2 7032   5.042   6.633   1.793
 2045SOL     OW 7033   3.386   4.904   3.714
 2045SOL    HW1 7034   3.415   4.810   3.732
 2045SOL    HW2 7035   3.443   4.967   3.767
 2046SOL     OW 7036   6.549   1.785   3.752
 2046SOL    HW1 7037   6.556   1.877   3.714
 2046SOL    HW2 7038   6.483   1.732   3.699
 2047SOL     OW 7039   5.885   2.499   7.005
 2047SOL    HW1 7040   5.946   2.536   0.048
 2047SOL    HW2 7041   5.863   2.570   6.937
 2048SOL     OW 7042   1.556   6.217   0.120
 2048SOL    HW1 7043   1.570   6.289   0.188
 2048SOL    HW2 7044   1.459   6.213   0.096
 2049SOL     OW 7045   5.328   1.997   6.083
 2049SOL    HW1 7046   5.404   1.938   6.058
 2049SOL    HW2 7047   5.363   2.087   6.109
 2050SOL     OW 7048   0.605   3.118   2.948
 2050SOL    HW1 7049   0.661   3.176   3.008
 2050SOL    HW2 7050   0.586   3.031   2.993
 2051SOL     OW 7051   1.181   5.641   0.861
 2051SOL    HW1 7052   1.172   5.727   0.911
 2051SOL    HW2 7053   1.146   5.566   0.918
 2052SOL     OW 7054   1.288   3.691   1.025
 2052SOL    HW1 7055   1.315   3.661   0.933
 2052SOL    HW2 7056   1.248   3.782   1.019
 2053SOL     OW 7057   6.068   6.705   4.830
 2053SOL    HW1 7058   6.056   6.793   4.876
 2053SOL    HW2 7059   5.978   6.661   4.818
 2054SOL     OW 7060   3.487   3.608   2.480
 2054SOL    HW1 7061   3.405   3.554   2.462
 2054SOL    HW2 7062   3.470   3.670   2.557
 2055SOL     OW 7063   5.741   3.629   3.462
 2055SOL    HW1 7064   5.806   3.648   3.536
 2055SOL    HW2 7065   5.751   3.697   3.390
 2056SOL     OW 7066   2.719   6.570   2.519
 2056SOL    HW1 7067   2.671   6.654   2.497
 2056SOL    HW2 7068   2.773   6.541   2.440
 2057SOL     OW 7069   5.472   3.613   4.967
 2057SOL    HW1 7070   5.384   3.612   5.014
 2057SOL    HW2 7071   5.522   3.529   4.987
 2058SOL     OW 7072   0.812   1.369   3.403
 2058SOL    HW1 7073   0.804   1.464   3.375
 2058SOL    HW2 7074   0.722   1.335   3.433
 2059SOL     OW 7075   2.305   5.886   6.686
 2059SOL    HW1 7076   2.381   5.888   6.622
 2059SOL    HW2 7077   2.332   5.929   6.772
 2060SOL     OW 7078   0.023   3.631   0.776
 2060SOL    HW1 7079   0.101   3.664   0.723
 2060SOL    HW2 7080   6.964   3.660   0.733
 2061SOL     OW 7081   6.953   1.656   3.803
 2061SOL    HW1 7082   6.868   1.673   3.853
 2061SOL    HW2 7083   7.022   1.723   3.830
 2062SOL     OW 7084   6.383   0.252   3.777
 2062SOL    HW1 7085   6.362   0.250   3.875
 2062SOL    HW2 7086   6.302   0.227   3.724
 2063SOL     OW 7087   2.022   6.863   6.251
 2063SOL    HW1 7088   1.938   6.915   6.240
 2063SOL    HW2 7089   2.096   6.925   6.276
 2064SOL     OW 7090   0.587   2.352   5.512
 2064SOL    HW1 7091   0.568   2.280   5.444
 2064SOL    HW2 7092   0.591   2.311   5.603
 2065SOL     OW 7093   6.842   2.608   4.871
 2065SOL    HW1 7094   6.900   2.636   4.795
 2065SOL    HW2 7095   6.883   2.528   4.916
 2066SOL     OW 7096   0.959   4.942   3.631
 2066SOL    HW1 7097   0.927   5.032   3.600
 2066SOL    HW2 7098   0.881   4.885   3.653
 2067SOL     OW 7099   6.574   5.390   1.016
 2067SOL    HW1 7100   6.666   5.358   0.992
 2067SOL    HW2 7101   6.574   5.422   1.111
 2068SOL     OW 7102   1.882   1.215   4.834
 2068SOL    HW1 7103   1.958   1.171   4.787
 2068SOL    HW2 7104   1.804   1.222   4.772
 2069SOL     OW 7105   0.531   2.951   3.291
 2069SOL    HW1 7106   0.613   2.896   3.274
 2069SOL    HW2 7107   0.454   2.912   3.240
 2070SOL     OW 7108   1.288   0.901   2.171
 2070SOL    HW1 7109   1.328   0.821   2.215
 2070SOL    HW2 7110   1.207   0.873   2.119
 2071SOL     OW 7111   6.425   6.265   5.932
 2071SOL    HW1 7112   6.511   6.301   5.969
 2071SOL    HW2 7113   6.368   6.231   6.007
 2072SOL     OW 7114   4.157   6.378   3.863
 2072SOL    HW1 7115   4.102   6.295   3.863
 2072SOL    HW2 7116   4.105   6.453   3.905
 2073SOL     OW 7117   4.231   0.250   4.516
 2073SOL    HW1 7118   4.280   0.167   4.488
 2073SOL    HW2 7119   4.134   0.227   4.531
 2074SOL     OW 7120   1.335   2.494   0.247
 2074SOL    HW1 7121   1.365   2.575   0.296
 2074SOL    HW2 7122   1.402   2.420   0.259
 2075SOL     OW 7123   5.742   3.248   1.877
 2075SOL    HW1 7124   5.830   3.228   1.835
 2075SOL    HW2 7125   5.757   3.288   1.967
 2076SOL     OW 7126   5.831   0.354   0.200
 2076SOL    HW1 7127   5.929   0.373   0.194
 2076SOL    HW2 7128   5.811   0.267   0.155
 2077SOL     OW 7129   5.201   2.820   2.627
 2077SOL    HW1 7130   5.297   2.790   2.623
 2077SOL    HW2 7131   5.169   2.817   2.721
 2078SOL     OW 7132   1.161   5.846   5.469
 2078SOL    HW1 7133   1.218   5.919   5.430
 2078SOL    HW2 7134   1.173   5.843   5.568
 2079SOL     OW 7135   5.374   1.871   3.872
 2079SOL    HW1 7136   5.275   1.869   3.863
 2079SOL    HW2 7137   5.407   1.964   3.858
 2080SOL     OW 7138   1.684   0.290   4.951
 2080SOL    HW1 7139   1.736   0.238   4.882
 2080SOL    HW2 7140   1.681   0.237   5.036
 2081SOL     OW 7141   1.577   5.423   4.497
 2081SOL    HW1 7142   1.586   5.384   4.405
 2081SOL    HW2 7143   1.482   5.417   4.527
 2082SOL     OW 7144   0.734   0.435   2.966
 2082SOL    HW1 7145   0.791   0.517   2.967
 2082SOL    HW2 7146   0.645   0.456   3.006
 2083SOL     OW 7147   6.479   5.314   6.199
 2083SOL    HW1 7148   6.535   5.293   6.279
 2083SOL    HW2 7149   6.503   5.404   6.164
 2084SOL     OW 7150   1.366   3.645   3.552
 2084SOL    HW1 7151   1.362   3.572   3.620
 2084SOL    HW2 7152   1.345   3.733   3.597
 2085SOL     OW 7153   4.403   0.519   6.952
 2085SOL    HW1 7154   4.473   0.589   6.962
 2085SOL    HW2 7155   4.315   0.562   6.932
 2086SOL     OW 7156   4.349   6.831   5.638
 2086SOL    HW1 7157   4.262   6.866   5.602
 2086SOL    HW2 7158   4.359   6.735   5.611
 2087SOL     OW 7159   5.189   0.243   0.846
 2087SOL    HW1 7160   5.176   0.323   0.904
 2087SOL    HW2 7161   5.169   0.266   0.751
 2088SOL     OW 7162   1.812   5.856   0.060
 2088SOL    HW1 7163   1.739   5.809   0.010
 2088SOL    HW2 7164   1.866   5.789   0.110
 2089SOL     OW 7165   5.348   2.068   6.574
 2089SOL    HW1 7166   5.312   2.002   6.640
 2089SOL    HW2 7167   5.338   2.032   6.482
 2090SOL     OW 7168   3.834   2.642   5.797
 2090SOL    HW1 7169   3.890   2.592   5.863
 2090SOL    HW2 7170   3.743   2.658   5.835
 2091SOL     OW 7171   0.078   5.527   0.061
 2091SOL    HW1 7172   0.109   5.436   0.091
 2091SOL    HW2 7173   0.059   5.525   6.989
 2092SOL     OW 7174   5.446   3.851   0.245
 2092SOL    HW1 7175   5.525   3.913   0.242
 2092SOL    HW2 7176   5.363   3.903   0.227
 2093SOL     OW 7177   2.506   1.901   1.334
 2093SOL    HW1 7178   2.472   1.818   1.377
 2093SOL    HW2 7179   2.501   1.977   1.400
 2094SOL     OW 7180   5.896   1.653   1.752
 2094SOL    HW1 7181   5.820   1.674   1.690
 2094SOL    HW2 7182   5.976   1.624   1.699
 2095SOL     OW 7183   5.763   0.275   5.334
 2095SOL    HW1 7184   5.693   0.291   5.403
 2095SOL    HW2 7185   5.775   0.357   5.278
 2096SOL     OW 7186   4.934   3.793   2.905
 2096SOL    HW1 7187   5.025   3.750   2.901
 2096SOL    HW2 7188   4.867   3.726   2.936
 2097SOL     OW 7189   3.080   3.385   6.706
 2097SOL    HW1 7190   3.144   3.367   6.781
 2097SOL    HW2 7191   3.120   3.452   6.644
 2098SOL     OW 7192   3.840   5.733   1.879
 2098SOL    HW1 7193   3.763   5.796   1.893
 2098SOL    HW2 7194   3.819   5.645   1.922
 2099SOL     OW 7195   3.321   2.572   6.187
 2099SOL    HW1 7196   3.292   2.564   6.092
 2099SOL    HW2 7197   3.312   2.667   6.217
 2100SOL     OW 7198   4.736   2.361   6.496
 2100SOL    HW1 7199   4.819   2.406   6.528
 2100SOL    HW2 7200   4.739   2.264   6.521
 2101SOL     OW 7201   1.273   6.370   2.175
 2101SOL    HW1 7202   1.301   6.281   2.211
 2101SOL    HW2 7203   1.266   6.436   2.250
 2102SOL     OW 7204   6.066   4.467   3.130
 2102SOL    HW1 7205   6.076   4.384   3.074
 2102SOL    HW2 7206   5.984   4.517   3.101
 2103SOL     OW 7207   4.186   4.152   5.752
 2103SOL    HW1 7208   4.130   4.189   5.679
 2103SOL    HW2 7209   4.276   4.126   5.716
 2104SOL     OW 7210   2.333   4.493   1.197
 2104SOL    HW1 7211   2.299   4.410   1.241
 2104SOL    HW2 7212   2.412   4.470   1.140
 2105SOL     OW 7213   4.960   6.377   5.290
 2105SOL    HW1 7214   5.011   6.423   5.363
 2105SOL    HW2 7215   4.904   6.443   5.241
 2106SOL     OW 7216   4.997   4.268   1.440
 2106SOL    HW1 7217   5.063   4.337   1.411
 2106SOL    HW2 7218   5.046   4.190   1.480
 2107SOL     OW 7219   4.734   2.892   5.605
 2107SOL    HW1 7220   4.643   2.875   5.642
 2107SOL    HW2 7221   4.791   2.811   5.618
 2108SOL     OW 7222   5.982   5.868   5.163
 2108SOL    HW1 7223   6.023   5.792   5.213
 2108SOL    HW2 7224   5.892   5.889   5.201
 2109SOL     OW 7225   4.227   6.272   2.243
 2109SOL    HW1 7226   4.144   6.226   2.211
 2109SOL    HW2 7227   4.201   6.350   2.300
 2110SOL     OW 7228   1.925   1.549   0.627
 2110SOL    HW1 7229   1.864   1.600   0.688
 2110SOL    HW2 7230   2.013   1.596   0.622
 2111SOL     OW 7231   1.770   2.497   6.642
 2111SOL    HW1 7232   1.769   2.558   6.721
 2111SOL    HW2 7233   1.677   2.464   6.625
 2112SOL     OW 7234   5.583   3.405   0.812
 2112SOL    HW1 7235   5.645   3.387   0.888
 2112SOL    HW2 7236   5.585   3.502   0.789
 2113SOL     OW 7237   2.326   2.317   5.235
 2113SOL    HW1 7238   2.291   2.282   5.148
 2113SOL    HW2 7239   2.419   2.284   5.249
 2114SOL     OW 7240   1.766   2.161   6.604
 2114SOL    HW1 7241   1.800   2.067   6.609
 2114SOL    HW2 7242   1.832   2.222   6.646
 2115SOL     OW 7243   2.105   3.767   2.961
 2115SOL    HW1 7244   2.043   3.816   3.022
 2115SOL    HW2 7245   2.134   3.682   3.005
 2116SOL     OW 7246   1.113   5.355   2.777
 2116SOL    HW1 7247   1.171   5.281   2.742
 2116SOL    HW2 7248   1.132   5.368   2.874
 2117SOL     OW 7249   6.928   5.284   1.660
 2117SOL    HW1 7250   6.990   5.215   1.696
 2117SOL    HW2 7251   6.908   5.352   1.731
 2118SOL     OW 7252   6.449   3.228   2.591
 2118SOL    HW1 7253   6.507   3.301   2.554
 2118SOL    HW2 7254   6.484   3.139   2.560
 2119SOL     OW 7255   1.364   0.136   1.118
 2119SOL    HW1 7256   1.406   0.195   1.050
 2119SOL    HW2 7257   1.425   0.126   1.197
 2120SOL     OW 7258   6.926   5.029   3.490
 2120SOL    HW1 7259   6.966   5.111   3.448
 2120SOL    HW2 7260   6.980   5.002   3.569
 2121SOL     OW 7261   1.336   4.355   5.809
 2121SOL    HW1 7262   1.426   4.387   5.782
 2121SOL    HW2 7263   1.340   4.258   5.833
 2122SOL     OW 7264   5.729   4.091   5.743
 2122SOL    HW1 7265   5.692   4.182   5.728
 2122SOL    HW2 7266   5.759   4.083   5.838
 2123SOL     OW 7267   6.829   5.823   2.393
 2123SOL    HW1 7268   6.915   5.771   2.392
 2123SOL    HW2 7269   6.805   5.844   2.488
 2124SOL     OW 7270   3.214   2.270   0.981
 2124SOL    HW1 7271   3.284   2.309   0.921
 2124SOL    HW2 7272   3.253   2.254   1.071
 2125SOL     OW 7273   2.184   0.343   2.090
 2125SOL    HW1 7274   2.283   0.334   2.080
 2125SOL    HW2 7275   2.151   0.410   2.023
 2126SOL     OW 7276   3.502   1.711   6.047
 2126SOL    HW1 7277   3.551   1.673   6.125
 2126SOL    HW2 7278   3.558   1.703   5.965
 2127SOL     OW 7279   0.679   3.008   5.276
 2127SOL    HW1 7280   0.615   3.081   5.252
 2127SOL    HW2 7281   0.749   3.000   5.204
 2128SOL     OW 7282   6.035   3.547   3.912
 2128SOL    HW1 7283   6.027   3.542   4.012
 2128SOL    HW2 7284   5.944   3.552   3.871
 2129SOL     OW 7285   4.447   3.276   5.496
 2129SOL    HW1 7286   4.379   3.204   5.482
 2129SOL    HW2 7287   4.416   3.338   5.567
 2130SOL     OW 7288   3.492   0.070   2.612
 2130SOL    HW1 7289   3.424   0.001   2.585
 2130SOL    HW2 7290   3.455   0.161   2.596
 2131SOL     OW 7291   5.245   1.273   0.610
 2131SOL    HW1 7292   5.227   1.175   0.600
 2131SOL    HW2 7293   5.321   1.299   0.551
 2132SOL     OW 7294   3.317   0.226   1.462
 2132SOL    HW1 7295   3.225   0.259   1.440
 2132SOL    HW2 7296   3.311   0.141   1.514
 2133SOL     OW 7297   3.163   2.767   0.097
 2133SOL    HW1 7298   3.179   2.865   0.085
 2133SOL    HW2 7299   3.069   2.745   0.069
 2134SOL     OW 7300   0.303   0.875   6.159
 2134SOL    HW1 7301   0.338   0.795   6.207
 2134SOL    HW2 7302   0.313   0.956   6.217
 2135SOL     OW 7303   1.361   3.585   5.309
 2135SOL    HW1 7304   1.342   3.497   5.352
 2135SOL    HW2 7305   1.320   3.586   5.217
 2136SOL     OW 7306   1.024   3.865   3.796
 2136SOL    HW1 7307   0.932   3.884   3.832
 2136SOL    HW2 7308   1.016   3.817   3.709
 2137SOL     OW 7309   2.931   5.315   4.780
 2137SOL    HW1 7310   2.889   5.244   4.836
 2137SOL    HW2 7311   2.897   5.404   4.808
 2138SOL     OW 7312   6.539   0.428   2.868
 2138SOL    HW1 7313   6.440   0.433   2.849
 2138SOL    HW2 7314   6.583   0.510   2.832
 2139SOL     OW 7315   3.688   0.758   3.264
 2139SOL    HW1 7316   3.589   0.773   3.262
 2139SOL    HW2 7317   3.725   0.794   3.350
 2140SOL     OW 7318   3.969   6.814   4.209
 2140SOL    HW1 7319   3.995   6.812   4.305
 2140SOL    HW2 7320   4.006   6.897   4.166
 2141SOL     OW 7321   6.202   3.972   2.337
 2141SOL    HW1 7322   6.118   3.919   2.324
 2141SOL    HW2 7323   6.217   4.030   2.257
 2142SOL     OW 7324   2.028   2.550   3.036
 2142SOL    HW1 7325   1.975   2.475   2.998
 2142SOL    HW2 7326   1.974   2.634   3.032
 2143SOL     OW 7327   2.790   4.452   1.303
 2143SOL    HW1 7328   2.732   4.371   1.292
 2143SOL    HW2 7329   2.766   4.520   1.234
 2144SOL     OW 7330   1.281   5.488   4.513
 2144SOL    HW1 7331   1.251   5.574   4.553
 2144SOL    HW2 7332   1.254   5.485   4.416
 2145SOL     OW 7333   4.664   6.208   4.286
 2145SOL    HW1 7334   4.712   6.280   4.337
 2145SOL    HW2 7335   4.707   6.198   4.196
 2146SOL     OW 7336   2.613   3.501   1.695
 2146SOL    HW1 7337   2.692   3.488   1.755
 2146SOL    HW2 7338   2.529   3.486   1.748
 2147SOL     OW 7339   6.261   1.689   6.147
 2147SOL    HW1 7340   6.305   1.611   6.192
 2147SOL    HW2 7341   6.183   1.656   6.093
 2148SOL     OW 7342   5.682   2.578   5.349
 2148SOL    HW1 7343   5.647   2.661   5.393
 2148SOL    HW2 7344   5.608   2.510   5.344
 2149SOL     OW 7345   3.699   2.302   1.048
 2149SOL    HW1 7346   3.666   2.232   1.111
 2149SOL    HW2 7347   3.642   2.383   1.054
 2150SOL     OW 7348   2.695   2.082   2.569
 2150SOL    HW1 7349   2.606   2.122   2.591
 2150SOL    HW2 7350   2.768   2.143   2.600
 2151SOL     OW 7351   1.444   0.110   4.911
 2151SOL    HW1 7352   1.530   0.093   4.960
 2151SOL    HW2 7353   1.460   0.098   4.812
 2152SOL     OW 7354   3.289   5.785   1.485
 2152SOL    HW1 7355   3.211   5.726   1.507
 2152SOL    HW2 7356   3.273   5.827   1.395
 2153SOL     OW 7357   3.769   0.831   2.691
 2153SOL    HW1 7358   3.703   0.853   2.763
 2153SOL    HW2 7359   3.729   0.852   2.602
 2154SOL     OW 7360   5.075   0.262   5.249
 2154SOL    HW1 7361   5.057   0.326   5.323
 2154SOL    HW2 7362   4.988   0.225   5.216
 2155SOL     OW 7363   2.628   5.585   0.051
 2155SOL    HW1 7364   2.580   5.625   6.998
 2155SOL    HW2 7365   2.694   5.518   0.018
 2156SOL     OW 7366   1.993   1.533   4.928
 2156SOL    HW1 7367   1.914   1.547   4.869
 2156SOL    HW2 7368   1.966   1.546   5.024
 2157SOL     OW 7369   6.290   0.947   3.098
 2157SOL    HW1 7370   6.254   0.990   3.015
 2157SOL    HW2 7371   6.255   0.996   3.178
 2158SOL     OW 7372   3.770   5.920   1.290
 2158SOL    HW1 7373   3.830   5.955   1.218
 2158SOL    HW2 7374   3.696   5.867   1.249
 2159SOL     OW 7375   1.549   6.437   4.970
 2159SOL    HW1 7376   1.611   6.374   4.922
 2159SOL    HW2 7377   1.532   6.402   5.063
 2160SOL     OW 7378   3.952   3.897   0.562
 2160SOL    HW1 7379   3.953   3.977   0.501
 2160SOL    HW2 7380   3.888   3.829   0.526
 2161SOL     OW 7381   5.381   5.323   2.777
 2161SOL    HW1 7382   5.463   5.374   2.754
 2161SOL    HW2 7383   5.326   5.375   2.843
 2162SOL     OW 7384   2.111   1.054   1.948
 2162SOL    HW1 7385   2.139   1.148   1.969
 2162SOL    HW2 7386   2.024   1.035   1.993
 2163SOL     OW 7387   0.974   4.667   6.100
 2163SOL    HW1 7388   1.025   4.752   6.082
 2163SOL    HW2 7389   1.020   4.615   6.172
 2164SOL     OW 7390   1.568   2.731   0.122
 2164SOL    HW1 7391   1.530   2.808   0.173
 2164SOL    HW2 7392   1.496   2.690   0.065
 2165SOL     OW 7393   0.657   2.130   2.838
 2165SOL    HW1 7394   0.735   2.190   2.820
 2165SOL    HW2 7395   0.624   2.092   2.752
 2166SOL     OW 7396   1.547   2.419   5.186
 2166SOL    HW1 7397   1.512   2.459   5.271
 2166SOL    HW2 7398   1.627   2.469   5.155
 2167SOL     OW 7399   2.007   1.562   3.877
 2167SOL    HW1 7400   1.942   1.627   3.838
 2167SOL    HW2 7401   2.061   1.520   3.804
 2168SOL     OW 7402   0.444   2.133   3.799
 2168SOL    HW1 7403   0.350   2.099   3.804
 2168SOL    HW2 7404   0.493   2.108   3.883
 2169SOL     OW 7405   5.393   0.965   6.801
 2169SOL    HW1 7406   5.475   1.014   6.833
 2169SOL    HW2 7407   5.325   1.031   6.770
 2170SOL     OW 7408   6.823   5.076   5.570
 2170SOL    HW1 7409   6.903   5.018   5.554
 2170SOL    HW2 7410   6.774   5.090   5.483
 2171SOL     OW 7411   0.357   4.662   1.885
 2171SOL    HW1 7412   0.301   4.589   1.926
 2171SOL    HW2 7413   0.395   4.630   1.799
 2172SOL     OW 7414   2.200   2.610   0.440
 2172SOL    HW1 7415   2.105   2.640   0.440
 2172SOL    HW2 7416   2.208   2.523   0.391
 2173SOL     OW 7417   3.847   0.643   5.681
 2173SOL    HW1 7418   3.803   0.700   5.611
 2173SOL    HW2 7419   3.947   0.653   5.674
 2174SOL     OW 7420   5.460   6.660   5.281
 2174SOL    HW1 7421   5.374   6.623   5.246
 2174SOL    HW2 7422   5.536   6.627   5.226
 2175SOL     OW 7423   2.369   2.785   4.276
 2175SOL    HW1 7424   2.348   2.871   4.230
 2175SOL    HW2 7425   2.354   2.795   4.375
 2176SOL     OW 7426   6.947   2.102   0.612
 2176SOL    HW1 7427   6.883   2.036   0.573
 2176SOL    HW2 7428   6.906   2.193   0.611
 2177SOL     OW 7429   6.018   1.978   3.337
 2177SOL    HW1 7430   6.091   1.937   3.282
 2177SOL    HW2 7431   5.929   1.948   3.302
 2178SOL     OW 7432   1.904   2.229   0.803
 2178SOL    HW1 7433   1.869   2.279   0.882
 2178SOL    HW2 7434   1.854   2.144   0.792
 2179SOL     OW 7435   2.146   5.366   5.222
 2179SOL    HW1 7436   2.167   5.269   5.219
 2179SOL    HW2 7437   2.088   5.391   5.144
 2180SOL     OW 7438   1.698   2.579   2.013
 2180SOL    HW1 7439   1.616   2.541   1.971
 2180SOL    HW2 7440   1.774   2.572   1.948
 2181SOL     OW 7441   4.214   4.749   4.450
 2181SOL    HW1 7442   4.224   4.729   4.353
 2181SOL    HW2 7443   4.177   4.841   4.462
 2182SOL     OW 7444   1.156   3.590   4.272
 2182SOL    HW1 7445   1.191   3.628   4.186
 2182SOL    HW2 7446   1.192   3.643   4.349
 2183SOL     OW 7447   2.684   3.993   6.045
 2183SOL    HW1 7448   2.666   3.969   5.949
 2183SOL    HW2 7449   2.657   4.088   6.061
 2184SOL     OW 7450   4.670   1.884   6.748
 2184SOL    HW1 7451   4.698   1.884   6.844
 2184SOL    HW2 7452   4.742   1.843   6.692
 2185SOL     OW 7453   0.896   1.767   0.780
 2185SOL    HW1 7454   0.887   1.767   0.880
 2185SOL    HW2 7455   0.934   1.680   0.750
 2186SOL     OW 7456   0.580   5.915   1.953
 2186SOL    HW1 7457   0.644   5.839   1.967
 2186SOL    HW2 7458   0.601   5.987   2.020
 2187SOL     OW 7459   6.664   0.505   3.126
 2187SOL    HW1 7460   6.640   0.602   3.116
 2187SOL    HW2 7461   6.749   0.486   3.075
 2188SOL     OW 7462   6.950   6.955   5.174
 2188SOL    HW1 7463   6.898   6.883   5.220
 2188SOL    HW2 7464   6.987   6.920   5.088
 2189SOL     OW 7465   1.639   0.098   0.802
 2189SOL    HW1 7466   1.560   0.159   0.792
 2189SOL    HW2 7467   1.616   0.024   0.867
 2190SOL     OW 7468   0.166   2.857   1.657
 2190SOL    HW1 7469   0.106   2.833   1.581
 2190SOL    HW2 7470   0.246   2.798   1.657
 2191SOL     OW 7471   3.054   2.222   6.814
 2191SOL    HW1 7472   3.080   2.259   6.725
 2191SOL    HW2 7473   3.063   2.293   6.884
 2192SOL     OW 7474   4.328   1.048   2.416
 2192SOL    HW1 7475   4.240   1.007   2.390
 2192SOL    HW2 7476   4.329   1.145   2.391
 2193SOL     OW 7477   6.037   5.829   6.459
 2193SOL    HW1 7478   6.123   5.877   6.476
 2193SOL    HW2 7479   5.976   5.889   6.407
 2194SOL     OW 7480   2.531   4.224   5.650
 2194SOL    HW1 7481   2.594   4.250   5.577
 2194SOL    HW2 7482   2.495   4.133   5.632
 2195SOL     OW 7483   0.460   0.707   4.229
 2195SOL    HW1 7484   0.400   0.707   4.149
 2195SOL    HW2 7485   0.420   0.765   4.300
 2196SOL     OW 7486   3.075   6.962   5.156
 2196SOL    HW1 7487   3.165   6.990   5.124
 2196SOL    HW2 7488   3.072   6.862   5.164
 2197SOL     OW 7489   3.254   3.441   0.959
 2197SOL    HW1 7490   3.220   3.349   0.980
 2197SOL    HW2 7491   3.221   3.470   0.869
 2198SOL     OW 7492   5.852   1.562   0.352
 2198SOL    HW1 7493   5.801   1.487   0.309
 2198SOL    HW2 7494   5.795   1.645   0.352
 2199SOL     OW 7495   5.397   1.082   3.264
 2199SOL    HW1 7496   5.349   1.009   3.312
 2199SOL    HW2 7497   5.331   1.151   3.233
 2200SOL     OW 7498   2.363   0.981   5.498
 2200SOL    HW1 7499   2.381   1.058   5.559
 2200SOL    HW2 7500   2.377   1.010   5.403
 2201SOL     OW 7501   6.676   2.873   3.363
 2201SOL    HW1 7502   6.625   2.870   3.277
 2201SOL    HW2 7503   6.676   2.966   3.398
 2202SOL     OW 7504   2.433   5.294   1.937
 2202SOL    HW1 7505   2.530   5.316   1.950
 2202SOL    HW2 7506   2.388   5.372   1.893
 2203SOL     OW 7507   1.821   2.263   1.428
 2203SOL    HW1 7508   1.874   2.181   1.406
 2203SOL    HW2 7509   1.799   2.264   1.525
 2204SOL     OW 7510   3.642   1.008   1.142
 2204SOL    HW1 7511   3.671   1.082   1.203
 2204SOL    HW2 7512   3.695   1.012   1.057
 2205SOL     OW 7513   1.149   0.386   6.090
 2205SOL    HW1 7514   1.050   0.376   6.079
 2205SOL    HW2 7515   1.189   0.413   6.003
 2206SOL     OW 7516   3.210   4.289   6.294
 2206SOL    HW1 7517   3.272   4.269   6.218
 2206SOL    HW2 7518   3.259   4.338   6.366
 2207SOL     OW 7519   3.081   4.111   6.904
 2207SOL    HW1 7520   3.049   4.164   6.826
 2207SOL    HW2 7521   3.158   4.159   6.947
 2208SOL     OW 7522   1.530   6.195   3.185
 2208SOL    HW1 7523   1.475   6.160   3.109
 2208SOL    HW2 7524   1.615   6.142   3.191
 2209SOL     OW 7525   1.732   6.349   5.649
 2209SOL    HW1 7526   1.648   6.369   5.598
 2209SOL    HW2 7527   1.710   6.298   5.732
 2210SOL     OW 7528   6.290   4.824   3.626
 2210SOL    HW1 7529   6.237   4.895   3.672
 2210SOL    HW2 7530   6.230   4.749   3.600
 2211SOL     OW 7531   5.524   0.702   0.423
 2211SOL    HW1 7532   5.607   0.750   0.451
 2211SOL    HW2 7533   5.547   0.630   0.358
 2212SOL     OW 7534   1.487   5.854   6.759
 2212SOL    HW1 7535   1.418   5.830   6.827
 2212SOL    HW2 7536   1.502   5.953   6.762
 2213SOL     OW 7537   3.582   2.662   5.332
 2213SOL    HW1 7538   3.612   2.741   5.279
 2213SOL    HW2 7539   3.486   2.642   5.311
 2214SOL     OW 7540   3.297   2.881   5.145
 2214SOL    HW1 7541   3.288   2.790   5.184
 2214SOL    HW2 7542   3.228   2.894   5.073
 2215SOL     OW 7543   6.075   1.464   0.431
 2215SOL    HW1 7544   6.060   1.402   0.507
 2215SOL    HW2 7545   5.992   1.516   0.413
 2216SOL     OW 7546   1.902   0.299   5.938
 2216SOL    HW1 7547   1.967   0.236   5.894
 2216SOL    HW2 7548   1.856   0.252   6.013
 2217SOL     OW 7549   3.922   6.631   1.213
 2217SOL    HW1 7550   3.907   6.730   1.215
 2217SOL    HW2 7551   3.918   6.595   1.306
 2218SOL     OW 7552   0.461   6.380   6.789
 2218SOL    HW1 7553   0.417   6.449   6.732
 2218SOL    HW2 7554   0.392   6.316   6.823
 2219SOL     OW 7555   5.511   1.578   1.800
 2219SOL    HW1 7556   5.583   1.527   1.752
 2219SOL    HW2 7557   5.461   1.635   1.734
 2220SOL     OW 7558   1.051   0.405   4.549
 2220SOL    HW1 7559   1.146   0.404   4.580
 2220SOL    HW2 7560   0.991   0.373   4.622
 2221SOL     OW 7561   5.843   1.098   5.125
 2221SOL    HW1 7562   5.940   1.100   5.099
 2221SOL    HW2 7563   5.791   1.050   5.055
 2222SOL     OW 7564   4.976   0.430   0.889
 2222SOL    HW1 7565   4.932   0.519   0.899
 2222SOL    HW2 7566   4.921   0.372   0.828
 2223SOL     OW 7567   5.972   1.546   4.825
 2223SOL    HW1 7568   6.053   1.596   4.856
 2223SOL    HW2 7569   5.913   1.608   4.773
 2224SOL     OW 7570   1.555   3.891   0.703
 2224SOL    HW1 7571   1.506   3.960   0.756
 2224SOL    HW2 7572   1.652   3.897   0.723
 2225SOL     OW 7573   6.712   6.703   3.084
 2225SOL    HW1 7574   6.665   6.783   3.122
 2225SOL    HW2 7575   6.770   6.662   3.155
 2226SOL     OW 7576   3.706   4.552   0.765
 2226SOL    HW1 7577   3.769   4.629   0.777
 2226SOL    HW2 7578   3.749   4.469   0.799
 2227SOL     OW 7579   5.389   3.224   0.766
 2227SOL    HW1 7580   5.467   3.283   0.789
 2227SOL    HW2 7581   5.377   3.222   0.667
 2228SOL     OW 7582   2.728   4.981   0.914
 2228SOL    HW1 7583   2.668   4.923   0.970
 2228SOL    HW2 7584   2.794   4.924   0.866
 2229SOL     OW 7585   4.086   1.740   4.268
 2229SOL    HW1 7586   4.097   1.803   4.191
 2229SOL    HW2 7587   4.116   1.784   4.353
 2230SOL     OW 7588   5.933   5.703   6.709
 2230SOL    HW1 7589   5.839   5.672   6.725
 2230SOL    HW2 7590   5.931   5.791   6.661
 2231SOL     OW 7591   0.409   0.530   2.330
 2231SOL    HW1 7592   0.336   0.477   2.288
 2231SOL    HW2 7593   0.376   0.572   2.415
 2232SOL     OW 7594   0.157   3.466   5.136
 2232SOL    HW1 7595   0.165   3.493   5.232
 2232SOL    HW2 7596   0.229   3.400   5.113
 2233SOL     OW 7597   2.469   3.583   0.842
 2233SOL    HW1 7598   2.471   3.683   0.854
 2233SOL    HW2 7599   2.381   3.557   0.801
 2234SOL     OW 7600   3.868   2.017   1.693
 2234SOL    HW1 7601   3.845   2.110   1.662
 2234SOL    HW2 7602   3.950   2.020   1.750
 2235SOL     OW 7603   2.768   0.142   1.571
 2235SOL    HW1 7604   2.687   0.083   1.563
 2235SOL    HW2 7605   2.765   0.192   1.657
 2236SOL     OW 7606   1.033   4.685   6.402
 2236SOL    HW1 7607   0.986   4.607   6.442
 2236SOL    HW2 7608   1.132   4.670   6.406
 2237SOL     OW 7609   6.143   4.793   4.498
 2237SOL    HW1 7610   6.094   4.880   4.492
 2237SOL    HW2 7611   6.157   4.768   4.594
 2238SOL     OW 7612   5.461   4.245   0.703
 2238SOL    HW1 7613   5.391   4.205   0.761
 2238SOL    HW2 7614   5.551   4.235   0.746
 2239SOL     OW 7615   3.905   4.945   3.275
 2239SOL    HW1 7616   3.899   4.978   3.370
 2239SOL    HW2 7617   3.907   5.023   3.213
 2240SOL     OW 7618   5.138   5.903   3.760
 2240SOL    HW1 7619   5.180   5.849   3.687
 2240SOL    HW2 7620   5.207   5.964   3.800
 2241SOL     OW 7621   0.465   6.565   2.986
 2241SOL    HW1 7622   0.533   6.538   2.917
 2241SOL    HW2 7623   0.384   6.508   2.977
 2242SOL     OW 7624   5.014   1.935   2.872
 2242SOL    HW1 7625   5.033   1.904   2.779
 2242SOL    HW2 7626   4.915   1.929   2.889
 2243SOL     OW 7627   2.720   6.474   5.940
 2243SOL    HW1 7628   2.788   6.402   5.953
 2243SOL    HW2 7629   2.678   6.497   6.028
 2244SOL     OW 7630   2.361   6.374   1.743
 2244SOL    HW1 7631   2.353   6.340   1.650
 2244SOL    HW2 7632   2.306   6.317   1.804
 2245SOL     OW 7633   0.581   1.822   1.489
 2245SOL    HW1 7634   0.645   1.880   1.539
 2245SOL    HW2 7635   0.588   1.728   1.522
 2246SOL     OW 7636   0.673   2.039   5.571
 2246SOL    HW1 7637   0.755   2.080   5.612
 2246SOL    HW2 7638   0.664   2.070   5.476
 2247SOL     OW 7639   3.546   3.209   4.815
 2247SOL    HW1 7640   3.524   3.115   4.840
 2247SOL    HW2 7641   3.494   3.272   4.873
 2248SOL     OW 7642   4.467   4.354   5.803
 2248SOL    HW1 7643   4.400   4.428   5.793
 2248SOL    HW2 7644   4.484   4.312   5.714
 2249SOL     OW 7645   6.193   6.001   3.066
 2249SOL    HW1 7646   6.197   6.070   2.994
 2249SOL    HW2 7647   6.202   6.044   3.155
 2250SOL     OW 7648   4.138   3.555   6.428
 2250SOL    HW1 7649   4.153   3.540   6.525
 2250SOL    HW2 7650   4.187   3.637   6.399
 2251SOL     OW 7651   4.993   0.967   0.089
 2251SOL    HW1 7652   5.037   0.940   0.003
 2251SOL    HW2 7653   4.991   1.067   0.094
 2252SOL     OW 7654   5.072   2.711   2.428
 2252SOL    HW1 7655   4.981   2.744   2.404
 2252SOL    HW2 7656   5.122   2.783   2.475
 2253SOL     OW 7657   0.977   3.146   6.663
 2253SOL    HW1 7658   0.971   3.176   6.568
 2253SOL    HW2 7659   0.957   3.223   6.723
 2254SOL     OW 7660   3.926   3.236   5.005
 2254SOL    HW1 7661   3.866   3.316   4.995
 2254SOL    HW2 7662   4.017   3.258   4.969
 2255SOL     OW 7663   4.767   2.478   6.846
 2255SOL    HW1 7664   4.793   2.452   6.939
 2255SOL    HW2 7665   4.841   2.454   6.783
 2256SOL     OW 7666   5.263   5.967   1.341
 2256SOL    HW1 7667   5.357   5.951   1.311
 2256SOL    HW2 7668   5.235   6.059   1.316
 2257SOL     OW 7669   0.055   2.257   3.900
 2257SOL    HW1 7670   0.071   2.288   3.807
 2257SOL    HW2 7671   0.012   2.166   3.898
 2258SOL     OW 7672   1.371   5.575   5.531
 2258SOL    HW1 7673   1.357   5.624   5.445
 2258SOL    HW2 7674   1.428   5.630   5.592
 2259SOL     OW 7675   5.348   3.340   6.949
 2259SOL    HW1 7676   5.306   3.250   6.939
 2259SOL    HW2 7677   5.447   3.330   6.956
 2260SOL     OW 7678   6.213   4.649   2.470
 2260SOL    HW1 7679   6.273   4.573   2.495
 2260SOL    HW2 7680   6.172   4.688   2.552
 2261SOL     OW 7681   6.671   5.983   6.667
 2261SOL    HW1 7682   6.742   6.051   6.650
 2261SOL    HW2 7683   6.601   5.989   6.595
 2262SOL     OW 7684   5.695   1.617   2.197
 2262SOL    HW1 7685   5.742   1.532   2.217
 2262SOL    HW2 7686   5.609   1.598   2.148
 2263SOL     OW 7687   3.455   6.097   6.778
 2263SOL    HW1 7688   3.503   6.106   6.691
 2263SOL    HW2 7689   3.357   6.088   6.762
 2264SOL     OW 7690   3.576   3.775   0.598
 2264SOL    HW1 7691   3.592   3.732   0.687
 2264SOL    HW2 7692   3.478   3.777   0.579
 2265SOL     OW 7693   0.510   1.427   4.499
 2265SOL    HW1 7694   0.557   1.366   4.563
 2265SOL    HW2 7695   0.448   1.372   4.442
 2266SOL     OW 7696   5.898   2.216   0.848
 2266SOL    HW1 7697   5.993   2.190   0.861
 2266SOL    HW2 7698   5.839   2.138   0.868
 2267SOL     OW 7699   4.790   2.519   4.585
 2267SOL    HW1 7700   4.761   2.506   4.680
 2267SOL    HW2 7701   4.845   2.441   4.557
 2268SOL     OW 7702   6.623   3.863   6.783
 2268SOL    HW1 7703   6.553   3.813   6.834
 2268SOL    HW2 7704   6.638   3.819   6.694
 2269SOL     OW 7705   5.734   5.852   4.565
 2269SOL    HW1 7706   5.661   5.920   4.575
 2269SOL    HW2 7707   5.811   5.877   4.623
 2270SOL     OW 7708   3.295   2.183   6.261
 2270SOL    HW1 7709   3.233   2.236   6.203
 2270SOL    HW2 7710   3.366   2.243   6.298
 2271SOL     OW 7711   6.230   4.303   0.157
 2271SOL    HW1 7712   6.204   4.299   0.060
 2271SOL    HW2 7713   6.292   4.227   0.178
 2272SOL     OW 7714   6.153   2.057   6.328
 2272SOL    HW1 7715   6.085   2.088   6.262
 2272SOL    HW2 7716   6.222   2.127   6.341
 2273SOL     OW 7717   2.132   6.982   2.288
 2273SOL    HW1 7718   2.089   0.047   2.278
 2273SOL    HW2 7719   2.109   6.944   2.377
 2274SOL     OW 7720   0.247   3.153   6.669
 2274SOL    HW1 7721   0.189   3.214   6.616
 2274SOL    HW2 7722   0.191   3.103   6.735
 2275SOL     OW 7723   6.077   0.697   3.980
 2275SOL    HW1 7724   6.134   0.746   3.914
 2275SOL    HW2 7725   6.038   0.615   3.936
 2276SOL     OW 7726   2.238   5.410   0.800
 2276SOL    HW1 7727   2.204   5.323   0.765
 2276SOL    HW2 7728   2.288   5.395   0.886
 2277SOL     OW 7729   4.200   3.562   5.439
 2277SOL    HW1 7730   4.258   3.501   5.494
 2277SOL    HW2 7731   4.239   3.570   5.347
 2278SOL     OW 7732   6.560   4.822   3.550
 2278SOL    HW1 7733   6.469   4.811   3.589
 2278SOL    HW2 7734   6.590   4.916   3.562
 2279SOL     OW 7735   5.029   5.921   4.976
 2279SOL    HW1 7736   5.002   6.010   5.012
 2279SOL    HW2 7737   5.014   5.851   5.047
 2280SOL     OW 7738   0.189   6.389   4.124
 2280SOL    HW1 7739   0.222   6.421   4.036
 2280SOL    HW2 7740   0.169   6.467   4.183
 2281SOL     OW 7741   3.092   1.339   1.765
 2281SOL    HW1 7742   3.150   1.414   1.795
 2281SOL    HW2 7743   3.075   1.348   1.667
 2282SOL     OW 7744   4.660   6.963   5.123
 2282SOL    HW1 7745   4.699   6.925   5.039
 2282SOL    HW2 7746   4.592   6.899   5.160
 2283SOL     OW 7747   0.499   4.424   2.138
 2283SOL    HW1 7748   0.559   4.386   2.068
 2283SOL    HW2 7749   0.504   4.523   2.137
 2284SOL     OW 7750   1.527   2.314   0.265
 2284SOL    HW1 7751   1.619   2.354   0.267
 2284SOL    HW2 7752   1.525   2.234   0.325
 2285SOL     OW 7753   2.149   2.121   1.144
 2285SOL    HW1 7754   2.145   2.211   1.101
 2285SOL    HW2 7755   2.236   2.111   1.193
 2286SOL     OW 7756   6.834   0.565   4.106
 2286SOL    HW1 7757   6.799   0.657   4.121
 2286SOL    HW2 7758   6.762   0.498   4.124
 2287SOL     OW 7759   1.859   1.324   3.537
 2287SOL    HW1 7760   1.936   1.297   3.480
 2287SOL    HW2 7761   1.776   1.329   3.481
 2288SOL     OW 7762   6.574   5.627   4.623
 2288SOL    HW1 7763   6.616   5.556   4.566
 2288SOL    HW2 7764   6.478   5.603   4.640
 2289SOL     OW 7765   0.286   4.432   2.787
 2289SOL    HW1 7766   0.249   4.525   2.786
 2289SOL    HW2 7767   0.295   4.399   2.693
 2290SOL     OW 7768   1.451   4.113   1.796
 2290SOL    HW1 7769   1.501   4.029   1.774
 2290SOL    HW2 7770   1.493   4.158   1.874
 2291SOL     OW 7771   2.312   2.295   6.435
 2291SOL    HW1 7772   2.326   2.249   6.522
 2291SOL    HW2 7773   2.232   2.256   6.389
 2292SOL     OW 7774   5.769   2.558   4.280
 2292SOL    HW1 7775   5.670   2.558   4.297
 2292SOL    HW2 7776   5.811   2.479   4.324
 2293SOL     OW 7777   5.152   0.008   1.227
 2293SOL    HW1 7778   5.240   6.992   1.249
 2293SOL    HW2 7779   5.160   0.058   1.141
 2294SOL     OW 7780   3.272   1.055   6.464
 2294SOL    HW1 7781   3.308   0.967   6.493
 2294SOL    HW2 7782   3.309   1.127   6.523
 2295SOL     OW 7783   0.557   1.414   2.595
 2295SOL    HW1 7784   0.617   1.465   2.657
 2295SOL    HW2 7785   0.523   1.333   2.642
 2296SOL     OW 7786   3.667   5.955   1.871
 2296SOL    HW1 7787   3.615   5.957   1.786
 2296SOL    HW2 7788   3.615   6.002   1.942
 2297SOL     OW 7789   4.682   4.501   5.414
 2297SOL    HW1 7790   4.693   4.559   5.334
 2297SOL    HW2 7791   4.609   4.435   5.398
 2298SOL     OW 7792   4.313   3.427   1.741
 2298SOL    HW1 7793   4.412   3.421   1.729
 2298SOL    HW2 7794   4.279   3.342   1.780
 2299SOL     OW 7795   5.014   5.042   4.874
 2299SOL    HW1 7796   5.084   5.114   4.873
 2299SOL    HW2 7797   5.039   4.972   4.806
 2300SOL     OW 7798   2.375   5.861   1.643
 2300SOL    HW1 7799   2.473   5.860   1.621
 2300SOL    HW2 7800   2.334   5.945   1.609
 2301SOL     OW 7801   3.540   2.840   2.870
 2301SOL    HW1 7802   3.589   2.924   2.896
 2301SOL    HW2 7803   3.605   2.764   2.864
 2302SOL     OW 7804   3.366   6.810   0.952
 2302SOL    HW1 7805   3.428   6.887   0.937
 2302SOL    HW2 7806   3.326   6.782   0.865
 2303SOL     OW 7807   2.047   3.426   6.628
 2303SOL    HW1 7808   1.947   3.424   6.617
 2303SOL    HW2 7809   2.075   3.350   6.687
 2304SOL     OW 7810   5.269   6.681   4.087
 2304SOL    HW1 7811   5.273   6.581   4.085
 2304SOL    HW2 7812   5.229   6.711   4.174
 2305SOL     OW 7813   2.557   6.806   2.446
 2305SOL    HW1 7814   2.576   6.852   2.532
 2305SOL    HW2 7815   2.535   6.874   2.376
 2306SOL     OW 7816   2.326   5.078   1.648
 2306SOL    HW1 7817   2.411   5.038   1.682
 2306SOL    HW2 7818   2.253   5.064   1.716
 2307SOL     OW 7819   6.734   3.570   3.818
 2307SOL    HW1 7820   6.712   3.530   3.907
 2307SOL    HW2 7821   6.672   3.532   3.749
 2308SOL     OW 7822   1.570   4.693   1.587
 2308SOL    HW1 7823   1.658   4.649   1.609
 2308SOL    HW2 7824   1.561   4.778   1.639
 2309SOL     OW 7825   1.328   0.764   6.312
 2309SOL    HW1 7826   1.376   0.846   6.345
 2309SOL    HW2 7827   1.279   0.786   6.228
 2310SOL     OW 7828   5.402   5.674   0.123
 2310SOL    HW1 7829   5.356   5.762   0.107
 2310SOL    HW2 7830   5.385   5.613   0.046
 2311SOL     OW 7831   2.149   6.597   1.508
 2311SOL    HW1 7832   2.156   6.529   1.581
 2311SOL    HW2 7833   2.232   6.653   1.506
 2312SOL     OW 7834   4.106   5.880   2.580
 2312SOL    HW1 7835   4.118   5.959   2.641
 2312SOL    HW2 7836   4.091   5.912   2.487
 2313SOL     OW 7837   6.019   5.731   1.371
 2313SOL    HW1 7838   6.101   5.725   1.429
 2313SOL    HW2 7839   6.047   5.733   1.275
 2314SOL     OW 7840   5.543   6.510   3.571
 2314SOL    HW1 7841   5.549   6.494   3.669
 2314SOL    HW2 7842   5.600   6.588   3.546
 2315SOL     OW 7843   5.141   3.480   6.104
 2315SOL    HW1 7844   5.205   3.520   6.039
 2315SOL    HW2 7845   5.190   3.415   6.162
 2316SOL     OW 7846   3.865   1.199   3.859
 2316SOL    HW1 7847   3.958   1.166   3.842
 2316SOL    HW2 7848   3.863   1.298   3.847
 2317SOL     OW 7849   0.888   6.676   2.768
 2317SOL    HW1 7850   0.940   6.654   2.686
 2317SOL    HW2 7851   0.793   6.694   2.743
 2318SOL     OW 7852   1.817   2.595   3.952
 2318SOL    HW1 7853   1.835   2.682   3.906
 2318SOL    HW2 7854   1.787   2.612   4.045
 2319SOL     OW 7855   1.972   4.932   3.765
 2319SOL    HW1 7856   2.029   4.861   3.805
 2319SOL    HW2 7857   1.909   4.891   3.698
 2320SOL     OW 7858   0.917   2.063   5.131
 2320SOL    HW1 7859   0.977   2.127   5.179
 2320SOL    HW2 7860   0.951   2.050   5.038
 2321SOL     OW 7861   2.664   0.608   6.972
 2321SOL    HW1 7862   2.720   0.652   0.017
 2321SOL    HW2 7863   2.625   0.678   6.912
 2322SOL     OW 7864   3.439   1.406   4.833
 2322SOL    HW1 7865   3.474   1.465   4.760
 2322SOL    HW2 7866   3.354   1.363   4.804
 2323SOL     OW 7867   2.634   4.957   1.687
 2323SOL    HW1 7868   2.574   4.917   1.618
 2323SOL    HW2 7869   2.678   4.884   1.740
 2324SOL     OW 7870   6.091   6.144   1.326
 2324SOL    HW1 7871   6.075   6.235   1.286
 2324SOL    HW2 7872   6.009   6.089   1.316
 2325SOL     OW 7873   1.182   4.575   2.633
 2325SOL    HW1 7874   1.208   4.501   2.696
 2325SOL    HW2 7875   1.202   4.549   2.539
 2326SOL     OW 7876   3.632   5.782   6.001
 2326SOL    HW1 7877   3.569   5.834   6.060
 2326SOL    HW2 7878   3.725   5.794   6.034
 2327SOL     OW 7879   6.073   3.157   4.655
 2327SOL    HW1 7880   6.009   3.197   4.589
 2327SOL    HW2 7881   6.141   3.103   4.606
 2328SOL     OW 7882   3.039   1.627   2.403
 2328SOL    HW1 7883   3.087   1.692   2.462
 2328SOL    HW2 7884   2.956   1.671   2.367
 2329SOL     OW 7885   1.656   3.993   5.015
 2329SOL    HW1 7886   1.717   4.053   5.066
 2329SOL    HW2 7887   1.709   3.935   4.953
 2330SOL     OW 7888   0.866   3.879   2.179
 2330SOL    HW1 7889   0.936   3.808   2.168
 2330SOL    HW2 7890   0.838   3.914   2.090
 2331SOL     OW 7891   5.922   4.812   1.393
 2331SOL    HW1 7892   5.911   4.908   1.417
 2331SOL    HW2 7893   5.878   4.794   1.305
 2332SOL     OW 7894   4.318   1.731   5.349
 2332SOL    HW1 7895   4.330   1.816   5.297
 2332SOL    HW2 7896   4.387   1.727   5.422
 2333SOL     OW 7897   0.450   5.673   2.748
 2333SOL    HW1 7898   0.496   5.731   2.815
 2333SOL    HW2 7899   0.434   5.726   2.664
 2334SOL     OW 7900   2.406   0.199   0.035
 2334SOL    HW1 7901   2.482   0.166   7.006
 2334SOL    HW2 7902   2.324   0.144   0.016
 2335SOL     OW 7903   6.069   1.405   3.010
 2335SOL    HW1 7904   6.049   1.421   3.107
 2335SOL    HW2 7905   6.152   1.350   3.003
 2336SOL     OW 7906   4.488   1.552   4.801
 2336SOL    HW1 7907   4.544   1.614   4.857
 2336SOL    HW2 7908   4.427   1.500   4.860
 2337SOL     OW 7909   4.505   1.064   3.429
 2337SOL    HW1 7910   4.573   1.137   3.438
 2337SOL    HW2 7911   4.553   0.976   3.419
 2338SOL     OW 7912   1.213   1.515   6.000
 2338SOL    HW1 7913   1.180   1.441   5.941
 2338SOL    HW2 7914   1.232   1.478   6.091
 2339SOL     OW 7915   3.851   4.106   4.872
 2339SOL    HW1 7916   3.767   4.156   4.849
 2339SOL    HW2 7917   3.894   4.148   4.952
 2340SOL     OW 7918   5.178   4.716   6.976
 2340SOL    HW1 7919   5.259   4.775   6.972
 2340SOL    HW2 7920   5.206   4.622   6.996
 2341SOL     OW 7921   5.947   4.173   1.012
 2341SOL    HW1 7922   5.880   4.099   1.024
 2341SOL    HW2 7923   5.996   4.159   0.926
 2342SOL     OW 7924   0.495   6.416   5.326
 2342SOL    HW1 7925   0.533   6.338   5.276
 2342SOL    HW2 7926   0.488   6.394   5.424
 2343SOL     OW 7927   1.611   6.284   2.362
 2343SOL    HW1 7928   1.689   6.224   2.351
 2343SOL    HW2 7929   1.546   6.270   2.287
 2344SOL     OW 7930   1.806   0.838   1.243
 2344SOL    HW1 7931   1.894   0.819   1.287
 2344SOL    HW2 7932   1.783   0.762   1.181
 2345SOL     OW 7933   2.929   5.283   5.629
 2345SOL    HW1 7934   2.978   5.242   5.707
 2345SOL    HW2 7935   2.946   5.381   5.628
 2346SOL     OW 7936   4.861   2.898   4.481
 2346SOL    HW1 7937   4.938   2.835   4.476
 2346SOL    HW2 7938   4.848   2.929   4.576
 2347SOL     OW 7939   2.359   3.225   1.752
 2347SOL    HW1 7940   2.375   3.316   1.790
 2347SOL    HW2 7941   2.445   3.188   1.717
 2348SOL     OW 7942   3.555   6.220   3.537
 2348SOL    HW1 7943   3.567   6.122   3.521
 2348SOL    HW2 7944   3.641   6.259   3.570
 2349SOL     OW 7945   0.407   4.944   5.891
 2349SOL    HW1 7946   0.379   4.909   5.981
 2349SOL    HW2 7947   0.434   5.040   5.899
 2350SOL     OW 7948   5.206   0.036   6.445
 2350SOL    HW1 7949   5.108   0.049   6.458
 2350SOL    HW2 7950   5.222   6.995   6.372
 2351SOL     OW 7951   3.353   5.156   2.020
 2351SOL    HW1 7952   3.401   5.237   2.053
 2351SOL    HW2 7953   3.275   5.184   1.963
 2352SOL     OW 7954   1.170   3.320   2.361
 2352SOL    HW1 7955   1.244   3.387   2.363
 2352SOL    HW2 7956   1.083   3.367   2.348
 2353SOL     OW 7957   3.203   4.612   5.313
 2353SOL    HW1 7958   3.122   4.570   5.271
 2353SOL    HW2 7959   3.174   4.671   5.388
 2354SOL     OW 7960   3.000   1.729   5.915
 2354SOL    HW1 7961   3.099   1.729   5.899
 2354SOL    HW2 7962   2.952   1.710   5.829
 2355SOL     OW 7963   1.377   5.650   6.460
 2355SOL    HW1 7964   1.469   5.670   6.495
 2355SOL    HW2 7965   1.376   5.558   6.421
 2356SOL     OW 7966   2.348   4.111   6.912
 2356SOL    HW1 7967   2.398   4.071   6.989
 2356SOL    HW2 7968   2.394   4.090   6.826
 2357SOL     OW 7969   4.325   5.154   3.636
 2357SOL    HW1 7970   4.397   5.115   3.579
 2357SOL    HW2 7971   4.277   5.081   3.684
 2358SOL     OW 7972   2.526   5.185   5.397
 2358SOL    HW1 7973   2.598   5.144   5.453
 2358SOL    HW2 7974   2.481   5.114   5.342
 2359SOL     OW 7975   0.154   0.920   5.712
 2359SOL    HW1 7976   0.189   0.923   5.618
 2359SOL    HW2 7977   0.228   0.893   5.774
 2360SOL     OW 7978   5.280   6.181   5.972
 2360SOL    HW1 7979   5.232   6.235   5.903
 2360SOL    HW2 7980   5.272   6.225   6.061
 2361SOL     OW 7981   2.895   0.511   5.062
 2361SOL    HW1 7982   2.930   0.515   4.969
 2361SOL    HW2 7983   2.877   0.604   5.095
 2362SOL     OW 7984   3.034   0.389   5.473
 2362SOL    HW1 7985   3.088   0.331   5.533
 2362SOL    HW2 7986   3.021   0.479   5.515
 2363SOL     OW 7987   4.027   2.691   5.599
 2363SOL    HW1 7988   4.054   2.613   5.541
 2363SOL    HW2 7989   3.940   2.670   5.644
 2364SOL     OW 7990   0.252   2.305   3.263
 2364SOL    HW1 7991   0.191   2.256   3.201
 2364SOL    HW2 7992   0.198   2.354   3.331
 2365SOL     OW 7993   6.285   2.409   6.590
 2365SOL    HW1 7994   6.357   2.359   6.639
 2365SOL    HW2 7995   6.197   2.389   6.633
 2366SOL     OW 7996   1.385   4.858   5.663
 2366SOL    HW1 7997   1.408   4.944   5.619
 2366SOL    HW2 7998   1.373   4.872   5.761
 2367SOL     OW 7999   3.526   3.654   6.911
 2367SOL    HW1 8000   3.584   3.729   6.945
 2367SOL    HW2 8001   3.532   3.576   6.974
 2368SOL     OW 8002   4.674   0.023   3.511
 2368SOL    HW1 8003   4.616   7.002   3.444
 2368SOL    HW2 8004   4.678   0.120   3.491
 2369SOL     OW 8005   1.652   2.143   5.100
 2369SOL    HW1 8006   1.749   2.120   5.104
 2369SOL    HW2 8007   1.642   2.241   5.082
 2370SOL     OW 8008   4.925   3.787   6.631
 2370SOL    HW1 8009   4.898   3.780   6.535
 2370SOL    HW2 8010   4.907   3.700   6.677
 2371SOL     OW 8011   1.266   6.055   1.582
 2371SOL    HW1 8012   1.233   5.983   1.643
 2371SOL    HW2 8013   1.360   6.035   1.554
 2372SOL     OW 8014   0.678   2.509   1.491
 2372SOL    HW1 8015   0.601   2.560   1.451
 2372SOL    HW2 8016   0.644   2.445   1.559
 2373SOL     OW 8017   6.598   7.000   0.210
 2373SOL    HW1 8018   6.499   7.012   0.217
 2373SOL    HW2 8019   6.633   6.959   0.294
 2374SOL     OW 8020   6.239   0.911   4.130
 2374SOL    HW1 8021   6.261   0.940   4.037
 2374SOL    HW2 8022   6.319   0.865   4.170
 2375SOL     OW 8023   1.942   6.648   4.303
 2375SOL    HW1 8024   1.859   6.598   4.326
 2375SOL    HW2 8025   2.013   6.628   4.371
 2376SOL     OW 8026   5.841   2.815   4.380
 2376SOL    HW1 8027   5.872   2.857   4.294
 2376SOL    HW2 8028   5.802   2.725   4.361
 2377SOL     OW 8029   3.467   3.902   3.416
 2377SOL    HW1 8030   3.460   3.803   3.416
 2377SOL    HW2 8031   3.381   3.941   3.450
 2378SOL     OW 8032   5.505   2.330   6.403
 2378SOL    HW1 8033   5.476   2.426   6.409
 2378SOL    HW2 8034   5.551   2.303   6.487
 2379SOL     OW 8035   6.643   1.437   6.712
 2379SOL    HW1 8036   6.594   1.353   6.689
 2379SOL    HW2 8037   6.585   1.495   6.769
 2380SOL     OW 8038   6.370   6.371   6.236
 2380SOL    HW1 8039   6.352   6.456   6.186
 2380SOL    HW2 8040   6.328   6.294   6.187
 2381SOL     OW 8041   2.118   4.080   4.066
 2381SOL    HW1 8042   2.158   4.072   3.974
 2381SOL    HW2 8043   2.033   4.131   4.060
 2382SOL     OW 8044   2.562   4.922   2.957
 2382SOL    HW1 8045   2.536   4.974   3.038
 2382SOL    HW2 8046   2.595   4.985   2.886
 2383SOL     OW 8047   5.188   5.704   6.908
 2383SOL    HW1 8048   5.168   5.776   6.974
 2383SOL    HW2 8049   5.117   5.702   6.838
 2384SOL     OW 8050   0.784   6.904   2.329
 2384SOL    HW1 8051   0.751   6.951   2.410
 2384SOL    HW2 8052   0.709   6.895   2.263
 2385SOL     OW 8053   6.154   6.836   1.250
 2385SOL    HW1 8054   6.225   6.847   1.320
 2385SOL    HW2 8055   6.141   6.922   1.201
 2386SOL     OW 8056   5.106   4.946   4.070
 2386SOL    HW1 8057   5.124   5.037   4.105
 2386SOL    HW2 8058   5.084   4.884   4.146
 2387SOL     OW 8059   6.997   1.971   3.580
 2387SOL    HW1 8060   6.971   1.910   3.655
 2387SOL    HW2 8061   0.066   1.951   3.552
 2388SOL     OW 8062   1.173   1.770   4.403
 2388SOL    HW1 8063   1.268   1.748   4.381
 2388SOL    HW2 8064   1.116   1.763   4.321
 2389SOL     OW 8065   5.084   3.917   3.750
 2389SOL    HW1 8066   5.154   3.855   3.713
 2389SOL    HW2 8067   5.003   3.864   3.777
 2390SOL     OW 8068   3.334   3.512   4.510
 2390SOL    HW1 8069   3.257   3.455   4.541
 2390SOL    HW2 8070   3.408   3.453   4.479
 2391SOL     OW 8071   4.736   4.584   5.713
 2391SOL    HW1 8072   4.835   4.592   5.721
 2391SOL    HW2 8073   4.713   4.534   5.630
 2392SOL     OW 8074   3.790   6.115   5.567
 2392SOL    HW1 8075   3.855   6.153   5.633
 2392SOL    HW2 8076   3.706   6.169   5.570
 2393SOL     OW 8077   3.815   5.231   0.489
 2393SOL    HW1 8078   3.720   5.220   0.459
 2393SOL    HW2 8079   3.875   5.232   0.410
 2394SOL     OW 8080   1.916   3.414   5.207
 2394SOL    HW1 8081   2.001   3.414   5.154
 2394SOL    HW2 8082   1.871   3.325   5.198
 2395SOL     OW 8083   6.385   2.740   6.960
 2395SOL    HW1 8084   6.417   2.779   6.874
 2395SOL    HW2 8085   6.463   2.727   7.022
 2396SOL     OW 8086   4.622   6.098   0.146
 2396SOL    HW1 8087   4.680   6.017   0.134
 2396SOL    HW2 8088   4.574   6.091   0.233
 2397SOL     OW 8089   0.241   3.700   0.599
 2397SOL    HW1 8090   0.232   3.661   0.507
 2397SOL    HW2 8091   0.320   3.762   0.601
 2398SOL     OW 8092   2.889   4.552   6.086
 2398SOL    HW1 8093   2.878   4.541   5.987
 2398SOL    HW2 8094   2.917   4.465   6.126
 2399SOL     OW 8095   4.642   1.360   2.416
 2399SOL    HW1 8096   4.726   1.414   2.424
 2399SOL    HW2 8097   4.641   1.314   2.327
 2400SOL     OW 8098   3.972   4.965   0.310
 2400SOL    HW1 8099   4.023   4.929   0.388
 2400SOL    HW2 8100   3.983   5.064   0.305
 2401SOL     OW 8101   3.973   0.769   6.155
 2401SOL    HW1 8102   3.893   0.825   6.175
 2401SOL    HW2 8103   4.039   0.776   6.231
 2402SOL     OW 8104   0.203   2.797   4.042
 2402SOL    HW1 8105   0.190   2.876   4.102
 2402SOL    HW2 8106   0.159   2.717   4.082
 2403SOL     OW 8107   2.787   2.994   0.127
 2403SOL    HW1 8108   2.789   3.082   0.080
 2403SOL    HW2 8109   2.704   2.988   0.184
 2404SOL     OW 8110   5.702   1.415   2.655
 2404SOL    HW1 8111   5.752   1.486   2.604
 2404SOL    HW2 8112   5.734   1.325   2.626
 2405SOL     OW 8113   3.173   3.626   3.876
 2405SOL    HW1 8114   3.204   3.540   3.835
 2405SOL    HW2 8115   3.251   3.677   3.911
 2406SOL     OW 8116   1.838   0.445   3.857
 2406SOL    HW1 8117   1.752   0.461   3.808
 2406SOL    HW2 8118   1.873   0.354   3.834
 2407SOL     OW 8119   4.801   3.009   2.768
 2407SOL    HW1 8120   4.822   2.980   2.861
 2407SOL    HW2 8121   4.736   2.946   2.726
 2408SOL     OW 8122   3.156   5.351   2.229
 2408SOL    HW1 8123   3.253   5.330   2.237
 2408SOL    HW2 8124   3.105   5.267   2.211
 2409SOL     OW 8125   1.649   2.559   2.326
 2409SOL    HW1 8126   1.721   2.547   2.395
 2409SOL    HW2 8127   1.690   2.586   2.239
 2410SOL     OW 8128   5.702   2.962   6.024
 2410SOL    HW1 8129   5.658   2.886   5.977
 2410SOL    HW2 8130   5.701   2.947   6.122
 2411SOL     OW 8131   4.385   5.198   5.486
 2411SOL    HW1 8132   4.357   5.284   5.528
 2411SOL    HW2 8133   4.482   5.183   5.502
 2412SOL     OW 8134   2.814   4.060   6.904
 2412SOL    HW1 8135   2.793   4.156   6.924
 2412SOL    HW2 8136   2.913   4.048   6.896
 2413SOL     OW 8137   6.696   2.954   6.979
 2413SOL    HW1 8138   6.674   2.860   6.954
 2413SOL    HW2 8139   6.691   2.965   0.053
 2414SOL     OW 8140   5.784   4.277   1.970
 2414SOL    HW1 8141   5.869   4.245   2.011
 2414SOL    HW2 8142   5.735   4.336   2.034
 2415SOL     OW 8143   0.458   0.092   1.039
 2415SOL    HW1 8144   0.484   7.022   1.057
 2415SOL    HW2 8145   0.539   0.146   1.019
 2416SOL     OW 8146   3.190   1.916   5.242
 2416SOL    HW1 8147   3.104   1.953   5.206
 2416SOL    HW2 8148   3.196   1.936   5.340
 2417SOL     OW 8149   4.169   2.706   0.004
 2417SOL    HW1 8150   4.217   2.773   0.062
 2417SOL    HW2 8151   4.212   2.616   0.015
 2418SOL     OW 8152   2.911   3.711   3.688
 2418SOL    HW1 8153   2.920   3.803   3.650
 2418SOL    HW2 8154   2.861   3.715   3.775
 2419SOL     OW 8155   0.689   6.436   3.615
 2419SOL    HW1 8156   0.707   6.533   3.632
 2419SOL    HW2 8157   0.598   6.426   3.575
 2420SOL     OW 8158   4.032   0.529   2.347
 2420SOL    HW1 8159   3.981   0.558   2.265
 2420SOL    HW2 8160   4.065   0.610   2.395
 2421SOL     OW 8161   2.452   0.912   5.187
 2421SOL    HW1 8162   2.527   0.850   5.212
 2421SOL    HW2 8163   2.447   0.920   5.087
 2422SOL     OW 8164   6.008   0.031   1.505
 2422SOL    HW1 8165   5.925   7.001   1.513
 2422SOL    HW2 8166   5.984   0.120   1.466
 2423SOL     OW 8167   1.641   5.978   3.792
 2423SOL    HW1 8168   1.713   5.917   3.824
 2423SOL    HW2 8169   1.575   5.993   3.866
 2424SOL     OW 8170   5.640   5.978   5.967
 2424SOL    HW1 8171   5.597   6.068   5.970
 2424SOL    HW2 8172   5.681   5.963   5.877
 2425SOL     OW 8173   5.913   0.292   4.395
 2425SOL    HW1 8174   6.012   0.277   4.391
 2425SOL    HW2 8175   5.894   0.390   4.390
 2426SOL     OW 8176   1.011   4.424   4.089
 2426SOL    HW1 8177   1.064   4.508   4.083
 2426SOL    HW2 8178   1.073   4.346   4.092
 2427SOL     OW 8179   6.163   5.683   6.810
 2427SOL    HW1 8180   6.148   5.638   6.898
 2427SOL    HW2 8181   6.081   5.676   6.755
 2428SOL     OW 8182   0.444   7.017   3.185
 2428SOL    HW1 8183   0.356   6.978   3.212
 2428SOL    HW2 8184   0.504   7.022   3.265
 2429SOL     OW 8185   6.259   5.865   4.286
 2429SOL    HW1 8186   6.315   5.783   4.280
 2429SOL    HW2 8187   6.309   5.936   4.335
 2430SOL     OW 8188   5.886   2.436   1.776
 2430SOL    HW1 8189   5.855   2.458   1.683
 2430SOL    HW2 8190   5.942   2.511   1.811
 2431SOL     OW 8191   3.882   7.024   1.658
 2431SOL    HW1 8192   3.902   0.090   1.695
 2431SOL    HW2 8193   3.783   7.009   1.660
 2432SOL     OW 8194   4.151   6.401   2.888
 2432SOL    HW1 8195   4.222   6.453   2.841
 2432SOL    HW2 8196   4.186   6.370   2.977
 2433SOL     OW 8197   3.046   6.488   0.998
 2433SOL    HW1 8198   3.135   6.443   0.996
 2433SOL    HW2 8199   3.055   6.578   1.039
 2434SOL     OW 8200   4.433   1.419   3.499
 2434SOL    HW1 8201   4.510   1.472   3.535
 2434SOL    HW2 8202   4.424   1.436   3.401
 2435SOL     OW 8203   4.465   5.443   5.829
 2435SOL    HW1 8204   4.481   5.541   5.840
 2435SOL    HW2 8205   4.413   5.428   5.744
 2436SOL     OW 8206   1.604   7.003   0.568
 2436SOL    HW1 8207   1.617   0.017   0.659
 2436SOL    HW2 8208   1.514   0.004   0.533
 2437SOL     OW 8209   4.242   5.275   0.490
 2437SOL    HW1 8210   4.335   5.244   0.511
 2437SOL    HW2 8211   4.245   5.341   0.415
 2438SOL     OW 8212   3.732   1.517   5.587
 2438SOL    HW1 8213   3.669   1.439   5.592
 2438SOL    HW2 8214   3.826   1.484   5.583
 2439SOL     OW 8215   1.402   4.192   0.250
 2439SOL    HW1 8216   1.452   4.266   0.205
 2439SOL    HW2 8217   1.466   4.126   0.289
 2440SOL     OW 8218   3.677   6.297   5.192
 2440SOL    HW1 8219   3.587   6.264   5.220
 2440SOL    HW2 8220   3.681   6.302   5.092
 2441SOL     OW 8221   5.951   0.893   6.997
 2441SOL    HW1 8222   5.958   0.809   6.943
 2441SOL    HW2 8223   5.918   0.869   0.063
 2442SOL     OW 8224   6.944   5.668   3.896
 2442SOL    HW1 8225   7.021   5.644   3.954
 2442SOL    HW2 8226   6.927   5.767   3.901
 2443SOL     OW 8227   3.471   6.996   6.313
 2443SOL    HW1 8228   3.395   7.023   6.372
 2443SOL    HW2 8229   3.448   6.911   6.266
 2444SOL     OW 8230   3.687   4.262   6.433
 2444SOL    HW1 8231   3.778   4.225   6.456
 2444SOL    HW2 8232   3.617   4.199   6.465
 2445SOL     OW 8233   6.862   1.203   2.512
 2445SOL    HW1 8234   6.960   1.188   2.500
 2445SOL    HW2 8235   6.839   1.199   2.609
 2446SOL     OW 8236   0.549   3.033   4.537
 2446SOL    HW1 8237   0.640   3.070   4.556
 2446SOL    HW2 8238   0.554   2.972   4.458
 2447SOL     OW 8239   2.232   1.193   0.703
 2447SOL    HW1 8240   2.243   1.097   0.679
 2447SOL    HW2 8241   2.135   1.218   0.698
 2448SOL     OW 8242   0.598   0.456   4.220
 2448SOL    HW1 8243   0.624   0.423   4.311
 2448SOL    HW2 8244   0.521   0.520   4.230
 2449SOL     OW 8245   0.087   3.979   2.559
 2449SOL    HW1 8246   0.177   4.021   2.547
 2449SOL    HW2 8247   0.017   4.051   2.567
 2450SOL     OW 8248   2.793   5.140   4.986
 2450SOL    HW1 8249   2.784   5.057   5.041
 2450SOL    HW2 8250   2.710   5.195   4.996
 2451SOL     OW 8251   0.402   7.000   3.917
 2451SOL    HW1 8252   0.364   0.001   3.828
 2451SOL    HW2 8253   0.469   0.042   3.946
 2452SOL     OW 8254   2.697   2.037   3.285
 2452SOL    HW1 8255   2.605   2.022   3.322
 2452SOL    HW2 8256   2.729   1.954   3.240
 2453SOL     OW 8257   6.677   3.479   0.721
 2453SOL    HW1 8258   6.615   3.463   0.797
 2453SOL    HW2 8259   6.768   3.442   0.743
 2454SOL     OW 8260   2.962   0.885   0.002
 2454SOL    HW1 8261   2.945   0.821   6.953
 2454SOL    HW2 8262   2.924   0.975   7.005
 2455SOL     OW 8263   5.291   0.659   1.036
 2455SOL    HW1 8264   5.303   0.560   1.038
 2455SOL    HW2 8265   5.275   0.692   1.129
 2456SOL     OW 8266   5.760   1.386   6.998
 2456SOL    HW1 8267   5.771   1.470   6.944
 2456SOL    HW2 8268   5.677   1.338   6.969
 2457SOL     OW 8269   6.271   6.085   6.755
 2457SOL    HW1 8270   6.237   6.013   6.816
 2457SOL    HW2 8271   6.330   6.044   6.686
 2458SOL     OW 8272   2.377   5.816   4.025
 2458SOL    HW1 8273   2.430   5.731   4.035
 2458SOL    HW2 8274   2.406   5.863   3.941
 2459SOL     OW 8275   2.601   6.472   0.030
 2459SOL    HW1 8276   2.640   6.483   6.964
 2459SOL    HW2 8277   2.668   6.431   0.091
 2460SOL     OW 8278   1.672   1.763   1.791
 2460SOL    HW1 8279   1.693   1.698   1.719
 2460SOL    HW2 8280   1.672   1.716   1.880
 2461SOL     OW 8281   4.651   0.197   2.887
 2461SOL    HW1 8282   4.704   0.112   2.893
 2461SOL    HW2 8283   4.558   0.176   2.857
 2462SOL     OW 8284   2.623   5.185   0.213
 2462SOL    HW1 8285   2.642   5.282   0.232
 2462SOL    HW2 8286   2.669   5.159   0.128
 2463SOL     OW 8287   6.138   2.665   4.517
 2463SOL    HW1 8288   6.108   2.631   4.428
 2463SOL    HW2 8289   6.107   2.602   4.589
 2464SOL     OW 8290   1.775   4.075   1.972
 2464SOL    HW1 8291   1.755   4.027   2.058
 2464SOL    HW2 8292   1.707   4.146   1.957
 2465SOL     OW 8293   1.108   7.002   1.995
 2465SOL    HW1 8294   1.116   0.035   2.076
 2465SOL    HW2 8295   1.167   6.922   2.007
 2466SOL     OW 8296   2.677   1.688   1.754
 2466SOL    HW1 8297   2.704   1.717   1.663
 2466SOL    HW2 8298   2.726   1.742   1.822
 2467SOL     OW 8299   5.509   1.728   4.695
 2467SOL    HW1 8300   5.552   1.642   4.668
 2467SOL    HW2 8301   5.579   1.792   4.726
 2468SOL     OW 8302   5.691   6.116   2.427
 2468SOL    HW1 8303   5.740   6.048   2.372
 2468SOL    HW2 8304   5.757   6.182   2.465
 2469SOL     OW 8305   4.010   4.368   5.328
 2469SOL    HW1 8306   3.968   4.457   5.345
 2469SOL    HW2 8307   4.094   4.380   5.275
 2470SOL     OW 8308   3.751   4.776   5.751
 2470SOL    HW1 8309   3.816   4.701   5.754
 2470SOL    HW2 8310   3.745   4.819   5.841
 2471SOL     OW 8311   2.391   6.465   0.716
 2471SOL    HW1 8312   2.348   6.542   0.669
 2471SOL    HW2 8313   2.435   6.405   0.649
 2472SOL     OW 8314   4.312   2.062   3.983
 2472SOL    HW1 8315   4.263   2.133   4.033
 2472SOL    HW2 8316   4.411   2.078   3.991
 2473SOL     OW 8317   2.085   3.961   5.098
 2473SOL    HW1 8318   2.181   3.990   5.103
 2473SOL    HW2 8319   2.079   3.863   5.119
 2474SOL     OW 8320   0.868   5.690   0.207
 2474SOL    HW1 8321   0.953   5.660   0.250
 2474SOL    HW2 8322   0.877   5.681   0.107
 2475SOL     OW 8323   4.957   0.726   1.079
 2475SOL    HW1 8324   4.888   0.726   1.152
 2475SOL    HW2 8325   4.912   0.718   0.990
 2476SOL     OW 8326   0.486   2.592   3.747
 2476SOL    HW1 8327   0.452   2.602   3.840
 2476SOL    HW2 8328   0.469   2.676   3.695
 2477SOL     OW 8329   5.401   0.971   2.499
 2477SOL    HW1 8330   5.378   1.033   2.424
 2477SOL    HW2 8331   5.397   0.877   2.468
 2478SOL     OW 8332   5.961   0.566   2.176
 2478SOL    HW1 8333   5.919   0.560   2.267
 2478SOL    HW2 8334   6.029   0.639   2.175
 2479SOL     OW 8335   1.337   3.895   1.605
 2479SOL    HW1 8336   1.423   3.943   1.592
 2479SOL    HW2 8337   1.354   3.799   1.627
 2480SOL     OW 8338   6.100   4.457   1.118
 2480SOL    HW1 8339   6.009   4.456   1.077
 2480SOL    HW2 8340   6.100   4.520   1.196
 2481SOL     OW 8341   2.551   0.155   0.313
 2481SOL    HW1 8342   2.595   0.076   0.269
 2481SOL    HW2 8343   2.616   0.231   0.318
 2482SOL     OW 8344   4.822   3.066   5.855
 2482SOL    HW1 8345   4.802   3.013   5.937
 2482SOL    HW2 8346   4.770   3.030   5.778
 2483SOL     OW 8347   2.261   1.672   6.902
 2483SOL    HW1 8348   2.170   1.631   6.899
 2483SOL    HW2 8349   2.330   1.600   6.910
 2484SOL     OW 8350   2.204   0.313   0.226
 2484SOL    HW1 8351   2.273   0.296   0.156
 2484SOL    HW2 8352   2.195   0.232   0.284
 2485SOL     OW 8353   5.019   4.374   2.090
 2485SOL    HW1 8354   4.999   4.281   2.122
 2485SOL    HW2 8355   5.072   4.422   2.160
 2486SOL     OW 8356   3.017   5.240   3.639
 2486SOL    HW1 8357   2.992   5.275   3.549
 2486SOL    HW2 8358   3.055   5.148   3.629
 2487SOL     OW 8359   3.854   5.594   6.896
 2487SOL    HW1 8360   3.837   5.691   6.916
 2487SOL    HW2 8361   3.936   5.586   6.840
 2488SOL     OW 8362   1.992   4.514   2.495
 2488SOL    HW1 8363   2.034   4.429   2.464
 2488SOL    HW2 8364   1.908   4.494   2.545
 2489SOL     OW 8365   2.280   6.107   3.719
 2489SOL    HW1 8366   2.347   6.032   3.717
 2489SOL    HW2 8367   2.310   6.180   3.657
 2490SOL     OW 8368   6.503   5.716   1.119
 2490SOL    HW1 8369   6.427   5.776   1.143
 2490SOL    HW2 8370   6.561   5.760   1.051
 2491SOL     OW 8371   2.364   5.794   1.197
 2491SOL    HW1 8372   2.424   5.739   1.139
 2491SOL    HW2 8373   2.282   5.819   1.145
 2492SOL     OW 8374   4.464   3.086   6.858
 2492SOL    HW1 8375   4.466   3.168   6.801
 2492SOL    HW2 8376   4.369   3.057   6.873
 2493SOL     OW 8377   5.855   0.384   2.997
 2493SOL    HW1 8378   5.897   0.427   3.077
 2493SOL    HW2 8379   5.755   0.396   3.001
 2494SOL     OW 8380   5.819   3.762   2.169
 2494SOL    HW1 8381   5.883   3.721   2.234
 2494SOL    HW2 8382   5.732   3.781   2.216
 2495SOL     OW 8383   5.321   0.477   4.930
 2495SOL    HW1 8384   5.389   0.528   4.879
 2495SOL    HW2 8385   5.264   0.540   4.982
 2496SOL     OW 8386   0.111   4.473   6.056
 2496SOL    HW1 8387   0.165   4.557   6.053
 2496SOL    HW2 8388   0.134   4.415   5.978
 2497SOL     OW 8389   0.178   1.241   1.222
 2497SOL    HW1 8390   0.215   1.260   1.313
 2497SOL    HW2 8391   0.176   1.142   1.207
 2498SOL     OW 8392   3.357   2.141   3.612
 2498SOL    HW1 8393   3.358   2.042   3.595
 2498SOL    HW2 8394   3.347   2.157   3.710
 2499SOL     OW 8395   4.541   2.087   4.144
 2499SOL    HW1 8396   4.560   2.153   4.217
 2499SOL    HW2 8397   4.617   2.087   4.079
 2500SOL     OW 8398   4.485   3.006   5.876
 2500SOL    HW1 8399   4.479   3.099   5.841
 2500SOL    HW2 8400   4.427   2.995   5.956
 2501SOL     OW 8401   0.019   6.083   6.929
 2501SOL    HW1 8402   0.043   6.047   7.020
 2501SOL    HW2 8403   6.945   6.085   6.919
 2502SOL     OW 8404   2.279   5.986   3.302
 2502SOL    HW1 8405   2.298   5.912   3.365
 2502SOL    HW2 8406   2.183   6.013   3.310
 2503SOL     OW 8407   3.591   5.515   6.047
 2503SOL    HW1 8408   3.616   5.465   5.964
 2503SOL    HW2 8409   3.603   5.613   6.032
 2504SOL     OW 8410   3.144   5.261   5.441
 2504SOL    HW1 8411   3.076   5.251   5.513
 2504SOL    HW2 8412   3.106   5.226   5.355
 2505SOL     OW 8413   1.750   6.482   4.371
 2505SOL    HW1 8414   1.729   6.446   4.462
 2505SOL    HW2 8415   1.765   6.406   4.307
 2506SOL     OW 8416   5.798   3.548   6.164
 2506SOL    HW1 8417   5.829   3.453   6.168
 2506SOL    HW2 8418   5.867   3.608   6.204
 2507SOL     OW 8419   0.167   4.043   0.767
 2507SOL    HW1 8420   0.086   3.996   0.802
 2507SOL    HW2 8421   0.200   3.997   0.684
 2508SOL     OW 8422   2.622   1.316   2.458
 2508SOL    HW1 8423   2.601   1.413   2.473
 2508SOL    HW2 8424   2.681   1.284   2.532
 2509SOL     OW 8425   5.982   3.077   2.968
 2509SOL    HW1 8426   5.999   2.984   2.936
 2509SOL    HW2 8427   5.884   3.091   2.981
 2510SOL     OW 8428   3.508   4.296   1.051
 2510SOL    HW1 8429   3.561   4.211   1.060
 2510SOL    HW2 8430   3.451   4.307   1.132
 2511SOL     OW 8431   2.318   2.050   4.404
 2511SOL    HW1 8432   2.220   2.071   4.403
 2511SOL    HW2 8433   2.339   1.986   4.330
 2512SOL     OW 8434   5.165   5.502   5.368
 2512SOL    HW1 8435   5.155   5.598   5.393
 2512SOL    HW2 8436   5.098   5.447   5.418
 2513SOL     OW 8437   1.036   3.245   5.578
 2513SOL    HW1 8438   0.959   3.273   5.521
 2513SOL    HW2 8439   1.098   3.188   5.525
 2514SOL     OW 8440   6.573   4.120   4.421
 2514SOL    HW1 8441   6.499   4.055   4.411
 2514SOL    HW2 8442   6.553   4.182   4.497
 2515SOL     OW 8443   1.330   0.024   0.543
 2515SOL    HW1 8444   1.278   0.093   0.592
 2515SOL    HW2 8445   1.284   6.961   0.552
 2516SOL     OW 8446   5.688   0.123   2.796
 2516SOL    HW1 8447   5.749   0.200   2.778
 2516SOL    HW2 8448   5.625   0.112   2.719
 2517SOL     OW 8449   2.026   5.828   5.348
 2517SOL    HW1 8450   2.108   5.837   5.291
 2517SOL    HW2 8451   1.948   5.803   5.289
 2518SOL     OW 8452   2.467   3.160   6.784
 2518SOL    HW1 8453   2.479   3.213   6.700
 2518SOL    HW2 8454   2.478   3.063   6.764
 2519SOL     OW 8455   5.039   5.466   4.394
 2519SOL    HW1 8456   5.017   5.435   4.486
 2519SOL    HW2 8457   5.107   5.405   4.353
 2520SOL     OW 8458   1.239   2.483   1.070
 2520SOL    HW1 8459   1.203   2.564   1.024
 2520SOL    HW2 8460   1.200   2.401   1.028
 2521SOL     OW 8461   0.936   6.577   5.521
 2521SOL    HW1 8462   0.989   6.555   5.603
 2521SOL    HW2 8463   0.855   6.518   5.517
 2522SOL     OW 8464   0.447   3.227   5.947
 2522SOL    HW1 8465   0.470   3.169   5.869
 2522SOL    HW2 8466   0.347   3.235   5.953
 2523SOL     OW 8467   0.314   3.282   1.215
 2523SOL    HW1 8468   0.226   3.312   1.179
 2523SOL    HW2 8469   0.388   3.323   1.161
 2524SOL     OW 8470   0.774   5.946   4.047
 2524SOL    HW1 8471   0.718   5.989   3.976
 2524SOL    HW2 8472   0.727   5.955   4.135
 2525SOL     OW 8473   1.124   2.331   5.052
 2525SOL    HW1 8474   1.119   2.281   5.138
 2525SOL    HW2 8475   1.032   2.348   5.018
 2526SOL     OW 8476   1.398   3.939   6.200
 2526SOL    HW1 8477   1.338   4.006   6.157
 2526SOL    HW2 8478   1.390   3.852   6.153
 2527SOL     OW 8479   5.039   0.154   4.782
 2527SOL    HW1 8480   4.987   0.078   4.821
 2527SOL    HW2 8481   5.108   0.184   4.848
 2528SOL     OW 8482   6.282   4.626   0.965
 2528SOL    HW1 8483   6.214   4.559   0.995
 2528SOL    HW2 8484   6.320   4.597   0.877
 2529SOL     OW 8485   6.371   5.577   6.021
 2529SOL    HW1 8486   6.329   5.608   6.106
 2529SOL    HW2 8487   6.300   5.554   5.955
 2530SOL     OW 8488   1.088   6.191   4.485
 2530SOL    HW1 8489   1.023   6.151   4.549
 2530SOL    HW2 8490   1.101   6.129   4.407
 2531SOL     OW 8491   5.649   5.711   4.179
 2531SOL    HW1 8492   5.565   5.744   4.222
 2531SOL    HW2 8493   5.715   5.684   4.250
 2532SOL     OW 8494   0.908   6.016   0.802
 2532SOL    HW1 8495   0.847   5.965   0.742
 2532SOL    HW2 8496   0.909   5.975   0.892
 2533SOL     OW 8497   4.564   6.464   3.710
 2533SOL    HW1 8498   4.575   6.563   3.724
 2533SOL    HW2 8499   4.522   6.423   3.790
 2534SOL     OW 8500   2.068   6.869   3.326
 2534SOL    HW1 8501   2.128   6.827   3.258
 2534SOL    HW2 8502   2.048   6.963   3.299
 2535SOL     OW 8503   2.243   2.726   6.648
 2535SOL    HW1 8504   2.209   2.714   6.555
 2535SOL    HW2 8505   2.220   2.646   6.703
 2536SOL     OW 8506   0.755   2.186   3.373
 2536SOL    HW1 8507   0.736   2.107   3.432
 2536SOL    HW2 8508   0.673   2.243   3.368
 2537SOL     OW 8509   5.303   5.929   6.606
 2537SOL    HW1 8510   5.386   5.912   6.660
 2537SOL    HW2 8511   5.327   5.939   6.510
 2538SOL     OW 8512   1.518   4.319   4.630
 2538SOL    HW1 8513   1.553   4.398   4.680
 2538SOL    HW2 8514   1.457   4.350   4.557
 2539SOL     OW 8515   4.299   0.255   5.744
 2539SOL    HW1 8516   4.347   0.190   5.802
 2539SOL    HW2 8517   4.282   0.339   5.795
 2540SOL     OW 8518   4.842   1.197   1.218
 2540SOL    HW1 8519   4.834   1.152   1.306
 2540SOL    HW2 8520   4.864   1.294   1.232
 2541SOL     OW 8521   1.758   0.488   5.806
 2541SOL    HW1 8522   1.659   0.482   5.803
 2541SOL    HW2 8523   1.795   0.404   5.847
 2542SOL     OW 8524   4.355   1.450   5.596
 2542SOL    HW1 8525   4.415   1.465   5.517
 2542SOL    HW2 8526   4.344   1.536   5.646
 2543SOL     OW 8527   2.228   0.924   3.295
 2543SOL    HW1 8528   2.207   0.841   3.243
 2543SOL    HW2 8529   2.265   0.898   3.384
 2544SOL     OW 8530   0.690   5.302   2.425
 2544SOL    HW1 8531   0.650   5.390   2.453
 2544SOL    HW2 8532   0.616   5.236   2.408
 2545SOL     OW 8533   1.585   0.539   1.312
 2545SOL    HW1 8534   1.507   0.601   1.310
 2545SOL    HW2 8535   1.597   0.502   1.404
 2546SOL     OW 8536   7.006   2.712   1.804
 2546SOL    HW1 8537   0.012   2.791   1.752
 2546SOL    HW2 8538   6.939   2.660   1.750
 2547SOL     OW 8539   5.579   5.254   6.734
 2547SOL    HW1 8540   5.584   5.350   6.705
 2547SOL    HW2 8541   5.637   5.198   6.675
 2548SOL     OW 8542   2.808   0.377   5.303
 2548SOL    HW1 8543   2.870   0.381   5.381
 2548SOL    HW2 8544   2.848   0.426   5.226
 2549SOL     OW 8545   2.099   2.064   2.085
 2549SOL    HW1 8546   2.170   2.123   2.122
 2549SOL    HW2 8547   2.141   1.986   2.039
 2550SOL     OW 8548   6.517   0.353   6.588
 2550SOL    HW1 8549   6.502   0.319   6.681
 2550SOL    HW2 8550   6.467   0.439   6.575
 2551SOL     OW 8551   3.178   5.164   6.965
 2551SOL    HW1 8552   3.170   5.211   0.027
 2551SOL    HW2 8553   3.275   5.144   6.947
 2552SOL     OW 8554   1.511   5.755   5.663
 2552SOL    HW1 8555   1.550   5.797   5.581
 2552SOL    HW2 8556   1.564   5.784   5.743
 2553SOL     OW 8557   2.737   3.640   6.776
 2553SOL    HW1 8558   2.741   3.562   6.713
 2553SOL    HW2 8559   2.772   3.721   6.730
 2554SOL     OW 8560   1.256   5.751   6.246
 2554SOL    HW1 8561   1.156   5.745   6.254
 2554SOL    HW2 8562   1.297   5.732   6.335
 2555SOL     OW 8563   5.988   6.266   6.296
 2555SOL    HW1 8564   5.936   6.194   6.342
 2555SOL    HW2 8565   6.059   6.301   6.357
 2556SOL     OW 8566   3.841   5.831   0.823
 2556SOL    HW1 8567   3.872   5.894   0.751
 2556SOL    HW2 8568   3.741   5.833   0.828
 2557SOL     OW 8569   2.262   1.854   6.139
 2557SOL    HW1 8570   2.317   1.925   6.184
 2557SOL    HW2 8571   2.166   1.882   6.138
 2558SOL     OW 8572   3.579   3.272   6.095
 2558SOL    HW1 8573   3.486   3.286   6.127
 2558SOL    HW2 8574   3.578   3.254   5.997
 2559SOL     OW 8575   6.397   3.316   4.430
 2559SOL    HW1 8576   6.440   3.300   4.520
 2559SOL    HW2 8577   6.332   3.243   4.411
 2560SOL     OW 8578   4.925   3.568   4.118
 2560SOL    HW1 8579   4.971   3.514   4.047
 2560SOL    HW2 8580   4.881   3.507   4.183
 2561SOL     OW 8581   3.793   0.556   3.098
 2561SOL    HW1 8582   3.834   0.596   3.016
 2561SOL    HW2 8583   3.754   0.629   3.154
 2562SOL     OW 8584   2.311   5.310   2.320
 2562SOL    HW1 8585   2.307   5.351   2.411
 2562SOL    HW2 8586   2.406   5.297   2.293
 2563SOL     OW 8587   4.016   1.719   6.810
 2563SOL    HW1 8588   3.961   1.731   6.728
 2563SOL    HW2 8589   3.976   1.773   6.885
 2564SOL     OW 8590   1.188   6.981   6.274
 2564SOL    HW1 8591   1.100   6.988   6.228
 2564SOL    HW2 8592   1.240   6.905   6.236
 2565SOL     OW 8593   0.143   0.657   1.025
 2565SOL    HW1 8594   0.095   0.745   1.031
 2565SOL    HW2 8595   0.238   0.673   0.997
 2566SOL     OW 8596   1.112   6.578   0.413
 2566SOL    HW1 8597   1.035   6.606   0.355
 2566SOL    HW2 8598   1.180   6.651   0.417
 2567SOL     OW 8599   1.441   1.091   2.369
 2567SOL    HW1 8600   1.400   1.018   2.314
 2567SOL    HW2 8601   1.507   1.052   2.433
 2568SOL     OW 8602   2.597   0.627   0.338
 2568SOL    HW1 8603   2.555   0.658   0.253
 2568SOL    HW2 8604   2.637   0.537   0.325
 2569SOL     OW 8605   2.288   1.456   2.650
 2569SOL    HW1 8606   2.326   1.548   2.659
 2569SOL    HW2 8607   2.305   1.422   2.558
 2570SOL     OW 8608   5.692   0.189   6.627
 2570SOL    HW1 8609   5.711   0.102   6.673
 2570SOL    HW2 8610   5.646   0.251   6.691
 2571SOL     OW 8611   2.893   3.408   4.414
 2571SOL    HW1 8612   2.913   3.405   4.316
 2571SOL    HW2 8613   2.970   3.371   4.465
 2572SOL     OW 8614   1.664   6.630   1.627
 2572SOL    HW1 8615   1.607   6.553   1.656
 2572SOL    HW2 8616   1.737   6.596   1.567
 2573SOL     OW 8617   6.692   1.409   2.456
 2573SOL    HW1 8618   6.757   1.334   2.465
 2573SOL    HW2 8619   6.726   1.489   2.506
 2574SOL     OW 8620   0.284   2.775   0.342
 2574SOL    HW1 8621   0.285   2.708   0.267
 2574SOL    HW2 8622   0.212   2.842   0.325
 2575SOL     OW 8623   5.060   4.031   0.698
 2575SOL    HW1 8624   5.047   3.954   0.636
 2575SOL    HW2 8625   5.094   3.999   0.786
 2576SOL     OW 8626   3.899   0.115   3.686
 2576SOL    HW1 8627   3.922   0.098   3.590
 2576SOL    HW2 8628   3.834   0.047   3.717
 2577SOL     OW 8629   4.327   6.552   2.753
 2577SOL    HW1 8630   4.301   6.648   2.766
 2577SOL    HW2 8631   4.399   6.528   2.819
 2578SOL     OW 8632   4.745   2.816   4.937
 2578SOL    HW1 8633   4.716   2.847   5.027
 2578SOL    HW2 8634   4.845   2.819   4.930
 2579SOL     OW 8635   1.172   1.377   3.965
 2579SOL    HW1 8636   1.253   1.405   3.913
 2579SOL    HW2 8637   1.197   1.311   4.035
 2580SOL     OW 8638   1.793   3.187   6.442
 2580SOL    HW1 8639   1.841   3.273   6.463
 2580SOL    HW2 8640   1.757   3.147   6.527
 2581SOL     OW 8641   6.120   4.748   1.808
 2581SOL    HW1 8642   6.163   4.660   1.828
 2581SOL    HW2 8643   6.180   4.822   1.840
 2582SOL     OW 8644   1.348   4.184   2.677
 2582SOL    HW1 8645   1.359   4.107   2.614
 2582SOL    HW2 8646   1.254   4.188   2.709
 2583SOL     OW 8647   0.769   1.497   1.031
 2583SOL    HW1 8648   0.707   1.454   1.097
 2583SOL    HW2 8649   0.859   1.511   1.073
 2584SOL     OW 8650   3.439   5.633   0.571
 2584SOL    HW1 8651   3.502   5.579   0.627
 2584SOL    HW2 8652   3.411   5.715   0.620
 2585SOL     OW 8653   3.572   0.873   0.107
 2585SOL    HW1 8654   3.609   0.913   0.190
 2585SOL    HW2 8655   3.476   0.898   0.097
 2586SOL     OW 8656   4.815   1.941   3.714
 2586SOL    HW1 8657   4.734   1.908   3.763
 2586SOL    HW2 8658   4.807   2.040   3.701
 2587SOL     OW 8659   6.520   1.086   4.272
 2587SOL    HW1 8660   6.496   1.133   4.187
 2587SOL    HW2 8661   6.615   1.103   4.294
 2588SOL     OW 8662   4.815   0.011   0.260
 2588SOL    HW1 8663   4.837   6.982   0.341
 2588SOL    HW2 8664   4.739   0.073   0.280
 2589SOL     OW 8665   0.361   5.854   4.836
 2589SOL    HW1 8666   0.352   5.883   4.932
 2589SOL    HW2 8667   0.400   5.928   4.782
 2590SOL     OW 8668   3.292   6.320   2.375
 2590SOL    HW1 8669   3.300   6.419   2.371
 2590SOL    HW2 8670   3.235   6.288   2.299
 2591SOL     OW 8671   6.274   6.084   2.482
 2591SOL    HW1 8672   6.205   6.055   2.548
 2591SOL    HW2 8673   6.242   6.063   2.390
 2592SOL     OW 8674   2.363   6.775   1.445
 2592SOL    HW1 8675   2.445   6.802   1.395
 2592SOL    HW2 8676   2.303   6.854   1.455
 2593SOL     OW 8677   2.946   6.350   1.426
 2593SOL    HW1 8678   2.904   6.288   1.359
 2593SOL    HW2 8679   2.967   6.437   1.382
 2594SOL     OW 8680   0.246   6.474   6.067
 2594SOL    HW1 8681   0.211   6.562   6.033
 2594SOL    HW2 8682   0.171   6.408   6.070
 2595SOL     OW 8683   6.461   1.453   5.462
 2595SOL    HW1 8684   6.373   1.445   5.416
 2595SOL    HW2 8685   6.477   1.371   5.518
 2596SOL     OW 8686   3.842   2.298   1.655
 2596SOL    HW1 8687   3.924   2.294   1.711
 2596SOL    HW2 8688   3.764   2.327   1.711
 2597SOL     OW 8689   1.676   3.707   6.805
 2597SOL    HW1 8690   1.769   3.720   6.771
 2597SOL    HW2 8691   1.680   3.665   6.896
 2598SOL     OW 8692   6.227   1.068   4.533
 2598SOL    HW1 8693   6.271   1.100   4.617
 2598SOL    HW2 8694   6.298   1.045   4.466
 2599SOL     OW 8695   2.768   0.465   0.665
 2599SOL    HW1 8696   2.848   0.507   0.621
 2599SOL    HW2 8697   2.686   0.516   0.640
 2600SOL     OW 8698   4.961   3.597   4.453
 2600SOL    HW1 8699   4.948   3.549   4.540
 2600SOL    HW2 8700   4.990   3.532   4.383
 2601SOL     OW 8701   2.831   1.655   6.633
 2601SOL    HW1 8702   2.773   1.602   6.695
 2601SOL    HW2 8703   2.779   1.729   6.592
 2602SOL     OW 8704   7.004   4.699   3.819
 2602SOL    HW1 8705   0.024   4.777   3.863
 2602SOL    HW2 8706   0.030   4.672   3.738
 2603SOL     OW 8707   1.957   1.811   2.065
 2603SOL    HW1 8708   1.958   1.910   2.080
 2603SOL    HW2 8709   1.947   1.792   1.968
 2604SOL     OW 8710   4.915   1.458   2.879
 2604SOL    HW1 8711   4.979   1.510   2.823
 2604SOL    HW2 8712   4.872   1.386   2.824
 2605SOL     OW 8713   2.862   4.908   3.376
 2605SOL    HW1 8714   2.822   4.923   3.467
 2605SOL    HW2 8715   2.957   4.878   3.386
 2606SOL     OW 8716   0.437   4.526   0.853
 2606SOL    HW1 8717   0.433   4.504   0.951
 2606SOL    HW2 8718   0.393   4.614   0.837
 2607SOL     OW 8719   0.815   1.138   5.739
 2607SOL    HW1 8720   0.818   1.180   5.829
 2607SOL    HW2 8721   0.891   1.171   5.684
 2608SOL     OW 8722   3.962   5.224   2.327
 2608SOL    HW1 8723   4.037   5.284   2.301
 2608SOL    HW2 8724   3.990   5.168   2.406
 2609SOL     OW 8725   0.409   2.031   2.177
 2609SOL    HW1 8726   0.319   2.026   2.220
 2609SOL    HW2 8727   0.405   1.988   2.086
 2610SOL     OW 8728   6.999   4.958   4.254
 2610SOL    HW1 8729   6.938   4.888   4.290
 2610SOL    HW2 8730   7.014   5.029   4.324
 2611SOL     OW 8731   5.238   6.598   1.481
 2611SOL    HW1 8732   5.249   6.505   1.516
 2611SOL    HW2 8733   5.141   6.615   1.462
 2612SOL     OW 8734   6.426   6.618   6.104
 2612SOL    HW1 8735   6.517   6.602   6.065
 2612SOL    HW2 8736   6.432   6.688   6.176
 2613SOL     OW 8737   2.775   6.635   1.157
 2613SOL    HW1 8738   2.721   6.551   1.154
 2613SOL    HW2 8739   2.770   6.681   1.069
 2614SOL     OW 8740   6.438   0.181   6.064
 2614SOL    HW1 8741   6.401   0.157   5.975
 2614SOL    HW2 8742   6.535   0.203   6.055
 2615SOL     OW 8743   6.057   3.715   2.657
 2615SOL    HW1 8744   6.083   3.659   2.736
 2615SOL    HW2 8745   6.074   3.663   2.573
 2616SOL     OW 8746   3.927   3.394   4.056
 2616SOL    HW1 8747   3.970   3.420   4.143
 2616SOL    HW2 8748   3.850   3.455   4.039
 2617SOL     OW 8749   3.962   6.208   1.089
 2617SOL    HW1 8750   3.938   6.114   1.067
 2617SOL    HW2 8751   3.947   6.224   1.187
 2618SOL     OW 8752   6.865   6.828   4.230
 2618SOL    HW1 8753   6.945   6.887   4.239
 2618SOL    HW2 8754   6.841   6.791   4.319
 2619SOL     OW 8755   3.737   1.325   3.082
 2619SOL    HW1 8756   3.754   1.326   2.984
 2619SOL    HW2 8757   3.718   1.231   3.111
 2620SOL     OW 8758   0.702   6.561   3.257
 2620SOL    HW1 8759   0.780   6.500   3.246
 2620SOL    HW2 8760   0.732   6.648   3.297
 2621SOL     OW 8761   1.725   5.649   2.424
 2621SOL    HW1 8762   1.735   5.723   2.358
 2621SOL    HW2 8763   1.635   5.654   2.467
 2622SOL     OW 8764   2.247   2.453   6.148
 2622SOL    HW1 8765   2.205   2.365   6.170
 2622SOL    HW2 8766   2.324   2.439   6.086
 2623SOL     OW 8767   3.421   1.793   5.523
 2623SOL    HW1 8768   3.395   1.697   5.526
 2623SOL    HW2 8769   3.464   1.814   5.435
 2624SOL     OW 8770   6.281   2.712   5.306
 2624SOL    HW1 8771   6.349   2.670   5.364
 2624SOL    HW2 8772   6.199   2.734   5.359
 2625SOL     OW 8773   3.364   2.112   5.794
 2625SOL    HW1 8774   3.305   2.098   5.873
 2625SOL    HW2 8775   3.309   2.139   5.715
 2626SOL     OW 8776   0.278   0.621   5.207
 2626SOL    HW1 8777   0.200   0.593   5.263
 2626SOL    HW2 8778   0.248   0.633   5.112
 2627SOL     OW 8779   1.269   0.933   5.039
 2627SOL    HW1 8780   1.228   1.024   5.053
 2627SOL    HW2 8781   1.221   0.866   5.096
 2628SOL     OW 8782   1.826   4.538   6.681
 2628SOL    HW1 8783   1.814   4.637   6.676
 2628SOL    HW2 8784   1.851   4.512   6.774
 2629SOL     OW 8785   3.414   4.196   1.788
 2629SOL    HW1 8786   3.324   4.233   1.764
 2629SOL    HW2 8787   3.402   4.113   1.843
 2630SOL     OW 8788   3.362   1.690   3.940
 2630SOL    HW1 8789   3.426   1.746   3.992
 2630SOL    HW2 8790   3.286   1.748   3.908
 2631SOL     OW 8791   5.029   0.513   4.264
 2631SOL    HW1 8792   5.101   0.449   4.240
 2631SOL    HW2 8793   5.023   0.522   4.363
 2632SOL     OW 8794   2.886   2.108   6.531
 2632SOL    HW1 8795   2.789   2.129   6.538
 2632SOL    HW2 8796   2.939   2.188   6.559
 2633SOL     OW 8797   6.708   1.529   5.309
 2633SOL    HW1 8798   6.631   1.525   5.371
 2633SOL    HW2 8799   6.682   1.490   5.220
 2634SOL     OW 8800   1.352   3.903   3.003
 2634SOL    HW1 8801   1.292   3.971   3.046
 2634SOL    HW2 8802   1.306   3.863   2.924
 2635SOL     OW 8803   6.174   6.091   5.425
 2635SOL    HW1 8804   6.167   6.183   5.386
 2635SOL    HW2 8805   6.170   6.023   5.352
 2636SOL     OW 8806   4.933   0.435   5.656
 2636SOL    HW1 8807   5.031   0.446   5.674
 2636SOL    HW2 8808   4.908   0.488   5.575
 2637SOL     OW 8809   5.646   1.853   3.918
 2637SOL    HW1 8810   5.551   1.842   3.890
 2637SOL    HW2 8811   5.650   1.908   4.002
 2638SOL     OW 8812   6.522   0.168   2.943
 2638SOL    HW1 8813   6.536   0.267   2.942
 2638SOL    HW2 8814   6.533   0.132   2.850
 2639SOL     OW 8815   0.966   0.504   1.817
 2639SOL    HW1 8816   1.029   0.438   1.859
 2639SOL    HW2 8817   0.925   0.464   1.735
 2640SOL     OW 8818   0.108   6.486   4.520
 2640SOL    HW1 8819   0.179   6.416   4.518
 2640SOL    HW2 8820   0.031   6.456   4.463
 2641SOL     OW 8821   4.923   2.902   1.853
 2641SOL    HW1 8822   4.857   2.929   1.924
 2641SOL    HW2 8823   4.877   2.900   1.765
 2642SOL     OW 8824   4.284   0.055   4.302
 2642SOL    HW1 8825   4.186   0.063   4.284
 2642SOL    HW2 8826   4.314   6.988   4.281
 2643SOL     OW 8827   0.675   3.799   2.581
 2643SOL    HW1 8828   0.757   3.840   2.543
 2643SOL    HW2 8829   0.655   3.841   2.670
 2644SOL     OW 8830   6.484   5.869   6.106
 2644SOL    HW1 8831   6.464   5.778   6.071
 2644SOL    HW2 8832   6.503   5.930   6.029
 2645SOL     OW 8833   4.639   5.856   4.453
 2645SOL    HW1 8834   4.719   5.904   4.417
 2645SOL    HW2 8835   4.645   5.759   4.432
 2646SOL     OW 8836   5.896   0.102   0.104
 2646SOL    HW1 8837   5.885   0.028   0.171
 2646SOL    HW2 8838   5.906   0.063   0.012
 2647SOL     OW 8839   6.787   1.083   2.267
 2647SOL    HW1 8840   6.699   1.129   2.261
 2647SOL    HW2 8841   6.846   1.133   2.330
 2648SOL     OW 8842   0.223   6.835   3.529
 2648SOL    HW1 8843   0.267   6.754   3.567
 2648SOL    HW2 8844   0.193   6.895   3.604
 2649SOL     OW 8845   5.938   3.573   6.661
 2649SOL    HW1 8846   6.017   3.622   6.700
 2649SOL    HW2 8847   5.895   3.630   6.591
 2650SOL     OW 8848   0.274   3.760   4.373
 2650SOL    HW1 8849   0.257   3.662   4.364
 2650SOL    HW2 8850   0.364   3.782   4.336
 2651SOL     OW 8851   0.185   2.022   0.022
 2651SOL    HW1 8852   0.148   1.946   6.995
 2651SOL    HW2 8853   0.222   1.989   0.109
 2652SOL     OW 8854   3.355   3.935   3.970
 2652SOL    HW1 8855   3.388   3.986   3.890
 2652SOL    HW2 8856   3.264   3.967   3.995
 2653SOL     OW 8857   5.515   0.207   5.628
 2653SOL    HW1 8858   5.421   0.215   5.596
 2653SOL    HW2 8859   5.517   0.206   5.728
 2654SOL     OW 8860   5.218   5.057   0.990
 2654SOL    HW1 8861   5.120   5.039   1.004
 2654SOL    HW2 8862   5.270   5.017   1.065
 2655SOL     OW 8863   4.790   4.987   4.337
 2655SOL    HW1 8864   4.804   5.084   4.319
 2655SOL    HW2 8865   4.694   4.971   4.361
 2656SOL     OW 8866   3.559   5.026   3.868
 2656SOL    HW1 8867   3.610   5.093   3.815
 2656SOL    HW2 8868   3.623   4.972   3.924
 2657SOL     OW 8869   1.836   4.135   6.683
 2657SOL    HW1 8870   1.876   4.086   6.760
 2657SOL    HW2 8871   1.896   4.211   6.657
 2658SOL     OW 8872   4.797   4.516   0.423
 2658SOL    HW1 8873   4.813   4.428   0.378
 2658SOL    HW2 8874   4.835   4.590   0.367
 2659SOL     OW 8875   5.982   3.008   5.170
 2659SOL    HW1 8876   5.995   3.074   5.096
 2659SOL    HW2 8877   5.927   2.931   5.137
 2660SOL     OW 8878   0.789   1.460   0.770
 2660SOL    HW1 8879   0.764   1.466   0.866
 2660SOL    HW2 8880   0.707   1.456   0.713
 2661SOL     OW 8881   2.186   6.349   0.836
 2661SOL    HW1 8882   2.178   6.255   0.801
 2661SOL    HW2 8883   2.266   6.392   0.796
 2662SOL     OW 8884   4.516   0.252   5.528
 2662SOL    HW1 8885   4.464   0.247   5.613
 2662SOL    HW2 8886   4.454   0.271   5.452
 2663SOL     OW 8887   2.637   3.842   0.843
 2663SOL    HW1 8888   2.685   3.929   0.841
 2663SOL    HW2 8889   2.651   3.797   0.931
 2664SOL     OW 8890   4.212   3.683   5.025
 2664SOL    HW1 8891   4.128   3.707   5.073
 2664SOL    HW2 8892   4.284   3.663   5.091
 2665SOL     OW 8893   2.505   2.570   5.043
 2665SOL    HW1 8894   2.517   2.539   4.949
 2665SOL    HW2 8895   2.591   2.559   5.093
 2666SOL     OW 8896   5.552   4.057   1.299
 2666SOL    HW1 8897   5.637   4.078   1.251
 2666SOL    HW2 8898   5.558   4.089   1.393
 2667SOL     OW 8899   1.723   6.032   4.185
 2667SOL    HW1 8900   1.752   5.950   4.135
 2667SOL    HW2 8901   1.777   6.042   4.268
 2668SOL     OW 8902   5.731   3.601   4.404
 2668SOL    HW1 8903   5.633   3.608   4.385
 2668SOL    HW2 8904   5.757   3.670   4.472
 2669SOL     OW 8905   2.818   4.680   5.345
 2669SOL    HW1 8906   2.728   4.637   5.354
 2669SOL    HW2 8907   2.870   4.631   5.275
 2670SOL     OW 8908   5.722   2.259   6.573
 2670SOL    HW1 8909   5.748   2.168   6.606
 2670SOL    HW2 8910   5.804   2.316   6.566
 2671SOL     OW 8911   3.773   4.832   6.303
 2671SOL    HW1 8912   3.709   4.783   6.244
 2671SOL    HW2 8913   3.723   4.898   6.358
 2672SOL     OW 8914   0.302   5.133   0.570
 2672SOL    HW1 8915   0.375   5.082   0.616
 2672SOL    HW2 8916   0.308   5.117   0.472
 2673SOL     OW 8917   6.033   1.287   4.442
 2673SOL    HW1 8918   6.093   1.244   4.509
 2673SOL    HW2 8919   6.057   1.256   4.350
 2674SOL     OW 8920   1.157   4.236   3.746
 2674SOL    HW1 8921   1.195   4.154   3.702
 2674SOL    HW2 8922   1.065   4.215   3.780
 2675SOL     OW 8923   6.319   5.469   4.409
 2675SOL    HW1 8924   6.243   5.531   4.428
 2675SOL    HW2 8925   6.405   5.521   4.408
 2676SOL     OW 8926   4.057   1.516   1.123
 2676SOL    HW1 8927   4.146   1.562   1.118
 2676SOL    HW2 8928   4.032   1.484   1.032
 2677SOL     OW 8929   2.957   3.958   0.365
 2677SOL    HW1 8930   2.950   3.911   0.277
 2677SOL    HW2 8931   2.924   4.051   0.356
 2678SOL     OW 8932   6.694   3.152   1.359
 2678SOL    HW1 8933   6.700   3.151   1.459
 2678SOL    HW2 8934   6.785   3.166   1.321
 2679SOL     OW 8935   3.508   5.047   0.854
 2679SOL    HW1 8936   3.421   5.080   0.891
 2679SOL    HW2 8937   3.493   4.959   0.808
 2680SOL     OW 8938   0.594   1.455   0.579
 2680SOL    HW1 8939   0.579   1.551   0.605
 2680SOL    HW2 8940   0.529   1.430   0.507
 2681SOL     OW 8941   1.261   2.307   4.818
 2681SOL    HW1 8942   1.231   2.300   4.913
 2681SOL    HW2 8943   1.234   2.395   4.780
 2682SOL     OW 8944   5.516   4.299   2.418
 2682SOL    HW1 8945   5.566   4.381   2.446
 2682SOL    HW2 8946   5.497   4.303   2.320
 2683SOL     OW 8947   2.638   3.706   0.590
 2683SOL    HW1 8948   2.634   3.714   0.690
 2683SOL    HW2 8949   2.553   3.741   0.550
 2684SOL     OW 8950   4.882   5.740   1.089
 2684SOL    HW1 8951   4.798   5.773   1.047
 2684SOL    HW2 8952   4.933   5.685   1.024
 2685SOL     OW 8953   6.281   6.128   0.083
 2685SOL    HW1 8954   6.197   6.181   0.070
 2685SOL    HW2 8955   6.264   6.032   0.063
 2686SOL     OW 8956   1.816   1.544   5.957
 2686SOL    HW1 8957   1.881   1.556   5.882
 2686SOL    HW2 8958   1.848   1.471   6.018
 2687SOL     OW 8959   4.574   4.447   2.240
 2687SOL    HW1 8960   4.643   4.500   2.190
 2687SOL    HW2 8961   4.538   4.376   2.180
 2688SOL     OW 8962   4.639   4.588   0.156
 2688SOL    HW1 8963   4.637   4.602   0.255
 2688SOL    HW2 8964   4.698   4.510   0.134
 2689SOL     OW 8965   1.304   3.502   3.772
 2689SOL    HW1 8966   1.246   3.421   3.780
 2689SOL    HW2 8967   1.252   3.583   3.798
 2690SOL     OW 8968   3.211   3.637   4.292
 2690SOL    HW1 8969   3.259   3.609   4.376
 2690SOL    HW2 8970   3.235   3.575   4.218
 2691SOL     OW 8971   1.490   5.333   2.192
 2691SOL    HW1 8972   1.501   5.418   2.141
 2691SOL    HW2 8973   1.580   5.303   2.226
 2692SOL     OW 8974   3.565   5.138   3.085
 2692SOL    HW1 8975   3.481   5.092   3.112
 2692SOL    HW2 8976   3.637   5.070   3.070
 2693SOL     OW 8977   1.074   4.213   2.711
 2693SOL    HW1 8978   1.106   4.284   2.773
 2693SOL    HW2 8979   0.998   4.249   2.656
 2694SOL     OW 8980   4.629   6.721   2.966
 2694SOL    HW1 8981   4.617   6.766   3.055
 2694SOL    HW2 8982   4.577   6.635   2.966
 2695SOL     OW 8983   4.439   0.729   2.597
 2695SOL    HW1 8984   4.456   0.827   2.595
 2695SOL    HW2 8985   4.438   0.697   2.692
 2696SOL     OW 8986   3.975   3.648   5.519
 2696SOL    HW1 8987   3.990   3.665   5.616
 2696SOL    HW2 8988   4.060   3.619   5.476
 2697SOL     OW 8989   3.142   1.798   2.829
 2697SOL    HW1 8990   3.221   1.836   2.878
 2697SOL    HW2 8991   3.162   1.797   2.731
 2698SOL     OW 8992   1.957   5.974   0.285
 2698SOL    HW1 8993   2.016   5.893   0.272
 2698SOL    HW2 8994   1.863   5.951   0.260
 2699SOL     OW 8995   3.224   6.794   0.330
 2699SOL    HW1 8996   3.145   6.839   0.372
 2699SOL    HW2 8997   3.203   6.698   0.313
 2700SOL     OW 8998   1.855   3.838   0.673
 2700SOL    HW1 8999   1.878   3.925   0.715
 2700SOL    HW2 9000   1.856   3.766   0.743
 2701SOL     OW 9001   4.536   0.705   6.498
 2701SOL    HW1 9002   4.584   0.651   6.430
 2701SOL    HW2 9003   4.590   0.786   6.520
 2702SOL     OW 9004   0.449   3.079   4.083
 2702SOL    HW1 9005   0.533   3.039   4.119
 2702SOL    HW2 9006   0.454   3.085   3.983
 2703SOL     OW 9007   2.154   0.571   2.460
 2703SOL    HW1 9008   2.079   0.513   2.495
 2703SOL    HW2 9009   2.213   0.517   2.400
 2704SOL     OW 9010   6.836   6.315   0.938
 2704SOL    HW1 9011   6.833   6.286   1.033
 2704SOL    HW2 9012   6.922   6.284   0.897
 2705SOL     OW 9013   0.910   4.967   4.135
 2705SOL    HW1 9014   0.913   4.929   4.043
 2705SOL    HW2 9015   0.972   4.915   4.194
 2706SOL     OW 9016   0.685   0.717   1.536
 2706SOL    HW1 9017   0.760   0.668   1.493
 2706SOL    HW2 9018   0.600   0.665   1.523
 2707SOL     OW 9019   2.658   0.644   4.741
 2707SOL    HW1 9020   2.637   0.571   4.805
 2707SOL    HW2 9021   2.575   0.697   4.722
 2708SOL     OW 9022   0.839   2.670   0.277
 2708SOL    HW1 9023   0.927   2.702   0.313
 2708SOL    HW2 9024   0.853   2.632   0.185
 2709SOL     OW 9025   5.780   6.358   0.147
 2709SOL    HW1 9026   5.716   6.283   0.161
 2709SOL    HW2 9027   5.835   6.371   0.231
 2710SOL     OW 9028   0.881   2.777   3.786
 2710SOL    HW1 9029   0.976   2.791   3.812
 2710SOL    HW2 9030   0.821   2.828   3.847
 2711SOL     OW 9031   2.793   1.570   4.063
 2711SOL    HW1 9032   2.886   1.534   4.058
 2711SOL    HW2 9033   2.762   1.595   3.971
 2712SOL     OW 9034   3.153   4.664   0.610
 2712SOL    HW1 9035   3.076   4.622   0.563
 2712SOL    HW2 9036   3.138   4.659   0.709
 2713SOL     OW 9037   1.919   2.066   5.154
 2713SOL    HW1 9038   1.979   2.004   5.103
 2713SOL    HW2 9039   1.955   2.160   5.147
 2714SOL     OW 9040   4.482   2.303   0.422
 2714SOL    HW1 9041   4.496   2.216   0.469
 2714SOL    HW2 9042   4.389   2.307   0.386
 2715SOL     OW 9043   5.000   1.687   0.464
 2715SOL    HW1 9044   4.996   1.632   0.380
 2715SOL    HW2 9045   4.908   1.719   0.487
 2716SOL     OW 9046   5.155   4.698   2.550
 2716SOL    HW1 9047   5.241   4.670   2.506
 2716SOL    HW2 9048   5.177   4.749   2.633
 2717SOL     OW 9049   2.235   4.701   2.130
 2717SOL    HW1 9050   2.223   4.612   2.086
 2717SOL    HW2 9051   2.193   4.700   2.221
 2718SOL     OW 9052   1.637   3.013   5.885
 2718SOL    HW1 9053   1.645   2.924   5.930
 2718SOL    HW2 9054   1.702   3.077   5.926
 2719SOL     OW 9055   6.883   5.970   1.137
 2719SOL    HW1 9056   6.922   5.884   1.171
 2719SOL    HW2 9057   6.804   5.951   1.080
 2720SOL     OW 9058   1.969   6.060   2.575
 2720SOL    HW1 9059   2.010   6.002   2.505
 2720SOL    HW2 9060   2.040   6.101   2.631
 2721SOL     OW 9061   3.197   0.523   3.975
 2721SOL    HW1 9062   3.228   0.522   4.071
 2721SOL    HW2 9063   3.097   0.520   3.973
 2722SOL     OW 9064   6.514   5.853   1.661
 2722SOL    HW1 9065   6.569   5.779   1.622
 2722SOL    HW2 9066   6.513   5.930   1.598
 2723SOL     OW 9067   0.722   6.875   5.786
 2723SOL    HW1 9068   0.818   6.877   5.758
 2723SOL    HW2 9069   0.706   6.795   5.843
 2724SOL     OW 9070   2.632   6.920   6.768
 2724SOL    HW1 9071   2.725   6.937   6.802
 2724SOL    HW2 9072   2.608   6.825   6.784
 2725SOL     OW 9073   5.629   4.955   4.358
 2725SOL    HW1 9074   5.617   4.858   4.336
 2725SOL    HW2 9075   5.722   4.983   4.334
 2726SOL     OW 9076   0.050   3.181   0.849
 2726SOL    HW1 9077   0.125   3.189   0.783
 2726SOL    HW2 9078   6.998   3.134   0.806
 2727SOL     OW 9079   0.423   5.170   4.032
 2727SOL    HW1 9080   0.471   5.093   4.075
 2727SOL    HW2 9081   0.484   5.216   3.968
 2728SOL     OW 9082   3.832   6.509   5.605
 2728SOL    HW1 9083   3.781   6.468   5.681
 2728SOL    HW2 9084   3.770   6.525   5.528
 2729SOL     OW 9085   6.776   5.672   1.230
 2729SOL    HW1 9086   6.803   5.578   1.213
 2729SOL    HW2 9087   6.693   5.693   1.179
 2730SOL     OW 9088   2.039   5.022   1.038
 2730SOL    HW1 9089   1.952   4.973   1.033
 2730SOL    HW2 9090   2.075   5.037   0.946
 2731SOL     OW 9091   3.835   3.675   2.116
 2731SOL    HW1 9092   3.875   3.624   2.041
 2731SOL    HW2 9093   3.899   3.744   2.149
 2732SOL     OW 9094   5.526   2.422   1.871
 2732SOL    HW1 9095   5.505   2.475   1.954
 2732SOL    HW2 9096   5.609   2.369   1.885
 2733SOL     OW 9097   0.482   0.006   4.697
 2733SOL    HW1 9098   0.406   0.031   4.756
 2733SOL    HW2 9099   0.567   0.003   4.750
 2734SOL     OW 9100   2.025   5.408   1.576
 2734SOL    HW1 9101   2.111   5.363   1.552
 2734SOL    HW2 9102   2.043   5.482   1.641
 2735SOL     OW 9103   1.138   3.235   3.099
 2735SOL    HW1 9104   1.089   3.314   3.062
 2735SOL    HW2 9105   1.083   3.152   3.085
 2736SOL     OW 9106   4.502   6.862   4.815
 2736SOL    HW1 9107   4.476   6.939   4.873
 2736SOL    HW2 9108   4.572   6.891   4.749
 2737SOL     OW 9109   3.689   3.624   5.742
 2737SOL    HW1 9110   3.633   3.542   5.732
 2737SOL    HW2 9111   3.688   3.676   5.656
 2738SOL     OW 9112   5.650   4.950   3.961
 2738SOL    HW1 9113   5.554   4.944   3.990
 2738SOL    HW2 9114   5.696   4.864   3.983
 2739SOL     OW 9115   0.011   4.894   0.948
 2739SOL    HW1 9116   6.988   4.878   1.034
 2739SOL    HW2 9117   0.043   4.989   0.946
 2740SOL     OW 9118   6.101   3.567   2.435
 2740SOL    HW1 9119   6.113   3.469   2.451
 2740SOL    HW2 9120   6.180   3.603   2.387
 2741SOL     OW 9121   6.562   0.636   5.913
 2741SOL    HW1 9122   6.538   0.733   5.907
 2741SOL    HW2 9123   6.660   0.627   5.929
 2742SOL     OW 9124   2.359   5.217   6.601
 2742SOL    HW1 9125   2.319   5.309   6.604
 2742SOL    HW2 9126   2.381   5.193   6.507
 2743SOL     OW 9127   0.104   5.357   2.561
 2743SOL    HW1 9128   0.191   5.324   2.599
 2743SOL    HW2 9129   0.053   5.281   2.523
 2744SOL     OW 9130   5.064   1.594   6.883
 2744SOL    HW1 9131   5.140   1.570   6.943
 2744SOL    HW2 9132   5.098   1.605   6.789
 2745SOL     OW 9133   0.652   0.091   6.488
 2745SOL    HW1 9134   0.638   7.022   6.518
 2745SOL    HW2 9135   0.573   0.147   6.515
 2746SOL     OW 9136   2.065   2.249   4.049
 2746SOL    HW1 9137   2.081   2.302   3.966
 2746SOL    HW2 9138   2.084   2.306   4.129
 2747SOL     OW 9139   5.964   3.574   5.545
 2747SOL    HW1 9140   6.007   3.643   5.487
 2747SOL    HW2 9141   5.865   3.590   5.548
 2748SOL     OW 9142   4.516   2.221   0.789
 2748SOL    HW1 9143   4.599   2.167   0.782
 2748SOL    HW2 9144   4.531   2.311   0.749
 2749SOL     OW 9145   6.357   4.546   3.152
 2749SOL    HW1 9146   6.372   4.594   3.066
 2749SOL    HW2 9147   6.265   4.507   3.152
 2750SOL     OW 9148   0.857   4.864   1.194
 2750SOL    HW1 9149   0.814   4.800   1.130
 2750SOL    HW2 9150   0.920   4.923   1.144
 2751SOL     OW 9151   0.415   6.292   0.898
 2751SOL    HW1 9152   0.356   6.276   0.819
 2751SOL    HW2 9153   0.506   6.318   0.867
 2752SOL     OW 9154   4.770   4.887   5.683
 2752SOL    HW1 9155   4.863   4.853   5.699
 2752SOL    HW2 9156   4.709   4.810   5.664
 2753SOL     OW 9157   0.738   0.081   5.954
 2753SOL    HW1 9158   0.745   0.172   5.912
 2753SOL    HW2 9159   0.722   0.013   5.883
 2754SOL     OW 9160   6.819   0.719   3.486
 2754SOL    HW1 9161   6.771   0.644   3.440
 2754SOL    HW2 9162   6.790   0.723   3.582
 2755SOL     OW 9163   2.487   0.098   3.964
 2755SOL    HW1 9164   2.502   7.025   3.971
 2755SOL    HW2 9165   2.502   0.140   4.054
 2756SOL     OW 9166   5.571   4.296   5.650
 2756SOL    HW1 9167   5.561   4.312   5.552
 2756SOL    HW2 9168   5.586   4.383   5.697
 2757SOL     OW 9169   2.421   1.610   6.189
 2757SOL    HW1 9170   2.403   1.704   6.220
 2757SOL    HW2 9171   2.488   1.612   6.115
 2758SOL     OW 9172   4.931   6.441   3.001
 2758SOL    HW1 9173   4.870   6.375   2.956
 2758SOL    HW2 9174   4.880   6.494   3.069
 2759SOL     OW 9175   4.483   5.560   5.397
 2759SOL    HW1 9176   4.421   5.534   5.323
 2759SOL    HW2 9177   4.567   5.598   5.358
 2760SOL     OW 9178   0.461   5.875   2.547
 2760SOL    HW1 9179   0.549   5.901   2.588
 2760SOL    HW2 9180   0.405   5.957   2.533
 2761SOL     OW 9181   1.851   4.629   4.855
 2761SOL    HW1 9182   1.923   4.693   4.828
 2761SOL    HW2 9183   1.893   4.545   4.891
 2762SOL     OW 9184   2.265   1.787   6.388
 2762SOL    HW1 9185   2.178   1.818   6.426
 2762SOL    HW2 9186   2.264   1.798   6.288
 2763SOL     OW 9187   4.625   1.757   4.943
 2763SOL    HW1 9188   4.706   1.814   4.931
 2763SOL    HW2 9189   4.551   1.793   4.885
 2764SOL     OW 9190   0.295   0.401   2.103
 2764SOL    HW1 9191   0.250   0.313   2.095
 2764SOL    HW2 9192   0.288   0.451   2.017
 2765SOL     OW 9193   6.508   6.751   1.087
 2765SOL    HW1 9194   6.446   6.676   1.108
 2765SOL    HW2 9195   6.472   6.837   1.124
 2766SOL     OW 9196   4.365   2.510   7.016
 2766SOL    HW1 9197   4.436   2.571   0.027
 2766SOL    HW2 9198   4.402   2.458   6.939
 2767SOL     OW 9199   6.713   5.537   6.841
 2767SOL    HW1 9200   6.740   5.633   6.853
 2767SOL    HW2 9201   6.653   5.509   6.916
 2768SOL     OW 9202   4.858   0.652   1.679
 2768SOL    HW1 9203   4.822   0.566   1.644
 2768SOL    HW2 9204   4.782   0.713   1.703
 2769SOL     OW 9205   2.238   4.161   6.546
 2769SOL    HW1 9206   2.138   4.164   6.549
 2769SOL    HW2 9207   2.271   4.235   6.487
 2770SOL     OW 9208   4.738   5.693   5.515
 2770SOL    HW1 9209   4.738   5.593   5.519
 2770SOL    HW2 9210   4.746   5.722   5.420
 2771SOL     OW 9211   5.350   1.358   4.626
 2771SOL    HW1 9212   5.340   1.372   4.724
 2771SOL    HW2 9213   5.420   1.419   4.590
 2772SOL     OW 9214   2.989   1.104   0.948
 2772SOL    HW1 9215   3.056   1.093   0.876
 2772SOL    HW2 9216   2.918   1.033   0.939
 2773SOL     OW 9217   6.436   2.825   4.108
 2773SOL    HW1 9218   6.459   2.896   4.174
 2773SOL    HW2 9219   6.511   2.759   4.101
 2774SOL     OW 9220   5.441   3.260   2.866
 2774SOL    HW1 9221   5.506   3.299   2.932
 2774SOL    HW2 9222   5.484   3.184   2.817
 2775SOL     OW 9223   6.414   3.594   5.469
 2775SOL    HW1 9224   6.496   3.650   5.453
 2775SOL    HW2 9225   6.431   3.501   5.437
 2776SOL     OW 9226   5.059   3.848   5.996
 2776SOL    HW1 9227   5.078   3.904   5.915
 2776SOL    HW2 9228   5.020   3.906   6.067
 2777SOL     OW 9229   3.050   1.975   1.333
 2777SOL    HW1 9230   3.112   2.049   1.355
 2777SOL    HW2 9231   2.992   2.002   1.256
 2778SOL     OW 9232   0.991   6.374   6.030
 2778SOL    HW1 9233   1.063   6.432   6.069
 2778SOL    HW2 9234   0.955   6.315   6.102
 2779SOL     OW 9235   5.653   6.729   2.162
 2779SOL    HW1 9236   5.653   6.778   2.075
 2779SOL    HW2 9237   5.589   6.652   2.157
 2780SOL     OW 9238   0.476   6.992   5.735
 2780SOL    HW1 9239   0.562   6.965   5.778
 2780SOL    HW2 9240   0.457   6.933   5.657
 2781SOL     OW 9241   5.857   0.509   2.432
 2781SOL    HW1 9242   5.833   0.412   2.422
 2781SOL    HW2 9243   5.789   0.554   2.489
 2782SOL     OW 9244   4.416   1.418   5.258
 2782SOL    HW1 9245   4.497   1.440   5.312
 2782SOL    HW2 9246   4.365   1.344   5.302
 2783SOL     OW 9247   6.443   4.162   2.307
 2783SOL    HW1 9248   6.423   4.118   2.394
 2783SOL    HW2 9249   6.542   4.169   2.296
 2784SOL     OW 9250   3.195   1.403   2.097
 2784SOL    HW1 9251   3.243   1.447   2.173
 2784SOL    HW2 9252   3.259   1.385   2.023
 2785SOL     OW 9253   5.437   2.689   0.709
 2785SOL    HW1 9254   5.380   2.639   0.774
 2785SOL    HW2 9255   5.407   2.785   0.706
 2786SOL     OW 9256   5.975   6.868   2.030
 2786SOL    HW1 9257   5.905   6.820   1.979
 2786SOL    HW2 9258   5.956   6.966   2.031
 2787SOL     OW 9259   5.798   6.725   5.474
 2787SOL    HW1 9260   5.770   6.813   5.511
 2787SOL    HW2 9261   5.839   6.738   5.384
 2788SOL     OW 9262   2.830   6.618   5.597
 2788SOL    HW1 9263   2.857   6.594   5.504
 2788SOL    HW2 9264   2.776   6.703   5.595
 2789SOL     OW 9265   1.928   2.048   3.905
 2789SOL    HW1 9266   1.994   2.113   3.943
 2789SOL    HW2 9267   1.961   2.016   3.816
 2790SOL     OW 9268   3.271   5.424   1.353
 2790SOL    HW1 9269   3.273   5.456   1.448
 2790SOL    HW2 9270   3.251   5.326   1.351
 2791SOL     OW 9271   0.724   3.190   2.339
 2791SOL    HW1 9272   0.691   3.106   2.295
 2791SOL    HW2 9273   0.647   3.241   2.375
 2792SOL     OW 9274   2.650   0.527   3.977
 2792SOL    HW1 9275   2.661   0.588   4.056
 2792SOL    HW2 9276   2.555   0.499   3.969
 2793SOL     OW 9277   4.933   3.626   1.599
 2793SOL    HW1 9278   5.006   3.625   1.531
 2793SOL    HW2 9279   4.971   3.597   1.687
 2794SOL     OW 9280   6.448   1.885   6.089
 2794SOL    HW1 9281   6.524   1.861   6.028
 2794SOL    HW2 9282   6.393   1.803   6.106
 2795SOL     OW 9283   1.283   3.446   1.186
 2795SOL    HW1 9284   1.283   3.523   1.123
 2795SOL    HW2 9285   1.346   3.376   1.153
 2796SOL     OW 9286   0.070   6.298   3.238
 2796SOL    HW1 9287   0.110   6.227   3.296
 2796SOL    HW2 9288   0.143   6.346   3.189
 2797SOL     OW 9289   5.276   5.560   5.114
 2797SOL    HW1 9290   5.230   5.529   5.197
 2797SOL    HW2 9291   5.292   5.658   5.120
 2798SOL     OW 9292   6.269   5.733   2.814
 2798SOL    HW1 9293   6.285   5.648   2.764
 2798SOL    HW2 9294   6.216   5.796   2.757
 2799SOL     OW 9295   5.720   5.924   5.718
 2799SOL    HW1 9296   5.622   5.927   5.697
 2799SOL    HW2 9297   5.770   5.977   5.650
 2800SOL     OW 9298   5.633   6.469   5.804
 2800SOL    HW1 9299   5.626   6.386   5.860
 2800SOL    HW2 9300   5.544   6.512   5.798
 2801SOL     OW 9301   0.612   5.721   5.729
 2801SOL    HW1 9302   0.533   5.712   5.668
 2801SOL    HW2 9303   0.609   5.647   5.797
 2802SOL     OW 9304   5.397   6.556   5.702
 2802SOL    HW1 9305   5.350   6.645   5.695
 2802SOL    HW2 9306   5.465   6.549   5.629
 2803SOL     OW 9307   3.904   5.135   5.556
 2803SOL    HW1 9308   3.993   5.135   5.512
 2803SOL    HW2 9309   3.855   5.219   5.533
 2804SOL     OW 9310   1.023   3.983   5.150
 2804SOL    HW1 9311   0.924   3.975   5.160
 2804SOL    HW2 9312   1.051   4.076   5.174
 2805SOL     OW 9313   5.850   3.308   2.840
 2805SOL    HW1 9314   5.810   3.228   2.884
 2805SOL    HW2 9315   5.950   3.306   2.852
 2806SOL     OW 9316   1.911   3.886   5.756
 2806SOL    HW1 9317   1.993   3.859   5.706
 2806SOL    HW2 9318   1.936   3.915   5.849
 2807SOL     OW 9319   4.924   6.986   3.633
 2807SOL    HW1 9320   4.920   6.936   3.719
 2807SOL    HW2 9321   4.832   7.001   3.598
 2808SOL     OW 9322   6.482   5.309   1.615
 2808SOL    HW1 9323   6.561   5.350   1.570
 2808SOL    HW2 9324   6.481   5.335   1.712
 2809SOL     OW 9325   4.813   2.907   1.074
 2809SOL    HW1 9326   4.743   2.957   1.124
 2809SOL    HW2 9327   4.885   2.970   1.044
 2810SOL     OW 9328   2.507   5.852   2.764
 2810SOL    HW1 9329   2.480   5.924   2.829
 2810SOL    HW2 9330   2.574   5.889   2.700
 2811SOL     OW 9331   1.790   1.635   3.456
 2811SOL    HW1 9332   1.756   1.555   3.506
 2811SOL    HW2 9333   1.717   1.703   3.449
 2812SOL     OW 9334   5.993   3.376   0.701
 2812SOL    HW1 9335   6.058   3.365   0.626
 2812SOL    HW2 9336   5.900   3.372   0.665
 2813SOL     OW 9337   0.514   1.733   0.038
 2813SOL    HW1 9338   0.457   1.790   7.004
 2813SOL    HW2 9339   0.573   1.676   7.007
 2814SOL     OW 9340   2.951   3.957   5.749
 2814SOL    HW1 9341   2.877   3.921   5.691
 2814SOL    HW2 9342   3.038   3.951   5.700
 2815SOL     OW 9343   6.676   4.960   6.410
 2815SOL    HW1 9344   6.734   4.895   6.461
 2815SOL    HW2 9345   6.580   4.938   6.426
 2816SOL     OW 9346   6.410   6.207   4.193
 2816SOL    HW1 9347   6.416   6.142   4.268
 2816SOL    HW2 9348   6.315   6.217   4.164
 2817SOL     OW 9349   3.046   0.348   2.223
 2817SOL    HW1 9350   3.031   0.431   2.277
 2817SOL    HW2 9351   3.051   0.373   2.126
 2818SOL     OW 9352   0.303   1.149   2.282
 2818SOL    HW1 9353   0.270   1.243   2.271
 2818SOL    HW2 9354   0.336   1.137   2.376
 2819SOL     OW 9355   1.948   6.721   1.689
 2819SOL    HW1 9356   1.978   6.672   1.607
 2819SOL    HW2 9357   1.849   6.737   1.683
 2820SOL     OW 9358   1.889   1.957   3.071
 2820SOL    HW1 9359   1.818   1.909   3.123
 2820SOL    HW2 9360   1.851   1.992   2.986
 2821SOL     OW 9361   3.188   4.866   5.909
 2821SOL    HW1 9362   3.156   4.941   5.851
 2821SOL    HW2 9363   3.208   4.786   5.851
 2822SOL     OW 9364   4.408   1.833   0.506
 2822SOL    HW1 9365   4.482   1.897   0.527
 2822SOL    HW2 9366   4.395   1.771   0.584
 2823SOL     OW 9367   5.689   1.367   0.223
 2823SOL    HW1 9368   5.589   1.370   0.228
 2823SOL    HW2 9369   5.717   1.369   0.127
 2824SOL     OW 9370   1.900   1.954   5.390
 2824SOL    HW1 9371   1.942   2.024   5.449
 2824SOL    HW2 9372   1.900   1.987   5.295
 2825SOL     OW 9373   5.577   0.183   5.889
 2825SOL    HW1 9374   5.624   0.259   5.932
 2825SOL    HW2 9375   5.569   0.107   5.953
 2826SOL     OW 9376   3.981   2.994   6.622
 2826SOL    HW1 9377   3.910   3.063   6.609
 2826SOL    HW2 9378   4.060   3.016   6.565
 2827SOL     OW 9379   6.981   0.574   6.529
 2827SOL    HW1 9380   6.989   0.523   6.443
 2827SOL    HW2 9381   6.939   0.517   6.598
 2828SOL     OW 9382   1.935   2.547   0.849
 2828SOL    HW1 9383   1.974   2.474   0.906
 2828SOL    HW2 9384   1.946   2.635   0.895
 2829SOL     OW 9385   3.458   3.308   3.533
 2829SOL    HW1 9386   3.547   3.284   3.572
 2829SOL    HW2 9387   3.454   3.276   3.438
 2830SOL     OW 9388   3.040   4.047   5.128
 2830SOL    HW1 9389   3.125   4.083   5.167
 2830SOL    HW2 9390   3.056   4.018   5.033
 2831SOL     OW 9391   0.997   3.565   3.299
 2831SOL    HW1 9392   0.972   3.512   3.380
 2831SOL    HW2 9393   1.065   3.515   3.245
 2832SOL     OW 9394   0.715   3.119   1.718
 2832SOL    HW1 9395   0.789   3.180   1.689
 2832SOL    HW2 9396   0.683   3.147   1.809
 2833SOL     OW 9397   2.964   1.286   2.223
 2833SOL    HW1 9398   3.042   1.268   2.164
 2833SOL    HW2 9399   2.997   1.321   2.311
 2834SOL     OW 9400   3.577   6.292   5.603
 2834SOL    HW1 9401   3.527   6.289   5.689
 2834SOL    HW2 9402   3.568   6.383   5.562
 2835SOL     OW 9403   0.571   6.902   1.165
 2835SOL    HW1 9404   0.560   6.803   1.167
 2835SOL    HW2 9405   0.575   6.937   1.259
 2836SOL     OW 9406   1.106   6.788   1.409
 2836SOL    HW1 9407   1.050   6.709   1.385
 2836SOL    HW2 9408   1.181   6.796   1.344
 2837SOL     OW 9409   5.399   4.615   2.442
 2837SOL    HW1 9410   5.456   4.684   2.397
 2837SOL    HW2 9411   5.444   4.583   2.525
 2838SOL     OW 9412   4.253   3.559   1.038
 2838SOL    HW1 9413   4.250   3.537   1.135
 2838SOL    HW2 9414   4.189   3.500   0.988
 2839SOL     OW 9415   0.019   2.613   2.596
 2839SOL    HW1 9416   0.110   2.594   2.634
 2839SOL    HW2 9417   0.000   2.711   2.603
 2840SOL     OW 9418   1.672   5.910   1.932
 2840SOL    HW1 9419   1.648   5.851   1.855
 2840SOL    HW2 9420   1.611   5.989   1.934
 2841SOL     OW 9421   5.943   2.347   6.399
 2841SOL    HW1 9422   5.917   2.283   6.327
 2841SOL    HW2 9423   5.985   2.298   6.475
 2842SOL     OW 9424   0.614   5.268   4.255
 2842SOL    HW1 9425   0.685   5.297   4.320
 2842SOL    HW2 9426   0.524   5.286   4.294
 2843SOL     OW 9427   2.758   1.822   2.569
 2843SOL    HW1 9428   2.855   1.808   2.589
 2843SOL    HW2 9429   2.737   1.919   2.573
 2844SOL     OW 9430   6.284   5.453   0.661
 2844SOL    HW1 9431   6.270   5.414   0.570
 2844SOL    HW2 9432   6.310   5.549   0.653
 2845SOL     OW 9433   5.086   2.936   2.171
 2845SOL    HW1 9434   5.134   2.854   2.141
 2845SOL    HW2 9435   5.149   2.997   2.219
 2846SOL     OW 9436   3.902   0.256   0.524
 2846SOL    HW1 9437   3.906   0.256   0.424
 2846SOL    HW2 9438   3.829   0.318   0.554
 2847SOL     OW 9439   5.127   4.094   3.488
 2847SOL    HW1 9440   5.112   4.117   3.391
 2847SOL    HW2 9441   5.083   4.163   3.545
 2848SOL     OW 9442   2.462   2.885   5.991
 2848SOL    HW1 9443   2.404   2.963   6.017
 2848SOL    HW2 9444   2.554   2.918   5.972
 2849SOL     OW 9445   3.312   0.477   1.106
 2849SOL    HW1 9446   3.388   0.486   1.170
 2849SOL    HW2 9447   3.259   0.395   1.127
 2850SOL     OW 9448   1.927   0.192   2.966
 2850SOL    HW1 9449   1.917   0.093   2.951
 2850SOL    HW2 9450   2.013   0.223   2.927
 2851SOL     OW 9451   5.340   2.954   6.535
 2851SOL    HW1 9452   5.305   2.897   6.609
 2851SOL    HW2 9453   5.423   3.000   6.564
 2852SOL     OW 9454   6.148   4.265   6.935
 2852SOL    HW1 9455   6.075   4.321   6.895
 2852SOL    HW2 9456   6.224   4.257   6.871
 2853SOL     OW 9457   1.512   2.506   6.805
 2853SOL    HW1 9458   1.598   2.557   6.818
 2853SOL    HW2 9459   1.459   2.508   6.889
 2854SOL     OW 9460   4.300   0.780   5.659
 2854SOL    HW1 9461   4.383   0.732   5.629
 2854SOL    HW2 9462   4.219   0.729   5.630
 2855SOL     OW 9463   1.264   2.020   5.419
 2855SOL    HW1 9464   1.254   1.928   5.381
 2855SOL    HW2 9465   1.346   2.025   5.476
 2856SOL     OW 9466   0.761   3.340   4.332
 2856SOL    HW1 9467   0.841   3.299   4.287
 2856SOL    HW2 9468   0.688   3.353   4.265
 2857SOL     OW 9469   0.749   2.707   1.684
 2857SOL    HW1 9470   0.810   2.786   1.671
 2857SOL    HW2 9471   0.761   2.643   1.608
 2858SOL     OW 9472   4.388   4.890   2.615
 2858SOL    HW1 9473   4.420   4.797   2.599
 2858SOL    HW2 9474   4.301   4.887   2.665
 2859SOL     OW 9475   6.398   0.051   7.002
 2859SOL    HW1 9476   6.346   0.061   0.062
 2859SOL    HW2 9477   6.457   6.996   7.009
 2860SOL     OW 9478   2.572   0.539   2.487
 2860SOL    HW1 9479   2.592   0.626   2.441
 2860SOL    HW2 9480   2.500   0.554   2.555
 2861SOL     OW 9481   3.264   5.513   5.417
 2861SOL    HW1 9482   3.278   5.544   5.323
 2861SOL    HW2 9483   3.236   5.417   5.416
 2862SOL     OW 9484   4.205   2.463   1.539
 2862SOL    HW1 9485   4.117   2.511   1.536
 2862SOL    HW2 9486   4.249   2.468   1.450
 2863SOL     OW 9487   4.990   1.465   6.080
 2863SOL    HW1 9488   4.999   1.539   6.014
 2863SOL    HW2 9489   4.976   1.378   6.032
 2864SOL     OW 9490   4.569   2.468   0.646
 2864SOL    HW1 9491   4.641   2.453   0.579
 2864SOL    HW2 9492   4.482   2.483   0.599
 2865SOL     OW 9493   4.054   6.622   3.982
 2865SOL    HW1 9494   3.991   6.699   3.982
 2865SOL    HW2 9495   4.031   6.559   4.056
 2866SOL     OW 9496   5.625   4.530   0.317
 2866SOL    HW1 9497   5.684   4.573   0.386
 2866SOL    HW2 9498   5.558   4.471   0.363
 2867SOL     OW 9499   5.965   5.872   3.018
 2867SOL    HW1 9500   5.902   5.902   3.089
 2867SOL    HW2 9501   6.058   5.902   3.042
 2868SOL     OW 9502   1.407   0.982   5.695
 2868SOL    HW1 9503   1.325   1.005   5.643
 2868SOL    HW2 9504   1.487   0.990   5.635
 2869SOL     OW 9505   6.664   0.824   3.115
 2869SOL    HW1 9506   6.760   0.800   3.099
 2869SOL    HW2 9507   6.639   0.902   3.058
 2870SOL     OW 9508   0.729   1.805   5.895
 2870SOL    HW1 9509   0.749   1.845   5.985
 2870SOL    HW2 9510   0.807   1.818   5.834
 2871SOL     OW 9511   5.866   0.990   0.892
 2871SOL    HW1 9512   5.830   1.081   0.871
 2871SOL    HW2 9513   5.965   0.994   0.897
 2872SOL     OW 9514   2.438   2.090   1.115
 2872SOL    HW1 9515   2.421   2.050   1.024
 2872SOL    HW2 9516   2.453   2.016   1.181
 2873SOL     OW 9517   6.771   6.998   2.465
 2873SOL    HW1 9518   6.733   7.018   2.555
 2873SOL    HW2 9519   6.835   6.922   2.472
 2874SOL     OW 9520   4.021   6.449   2.624
 2874SOL    HW1 9521   4.068   6.468   2.710
 2874SOL    HW2 9522   3.929   6.414   2.644
 2875SOL     OW 9523   4.468   0.194   1.648
 2875SOL    HW1 9524   4.441   0.098   1.643
 2875SOL    HW2 9525   4.547   0.204   1.709
 2876SOL     OW 9526   1.899   0.384   3.167
 2876SOL    HW1 9527   1.808   0.424   3.173
 2876SOL    HW2 9528   1.898   0.307   3.103
 2877SOL     OW 9529   2.381   1.124   6.053
 2877SOL    HW1 9530   2.438   1.060   6.002
 2877SOL    HW2 9531   2.439   1.189   6.101
 2878SOL     OW 9532   2.895   3.812   5.201
 2878SOL    HW1 9533   2.930   3.903   5.179
 2878SOL    HW2 9534   2.919   3.749   5.128
 2879SOL     OW 9535   5.729   5.587   5.825
 2879SOL    HW1 9536   5.775   5.670   5.795
 2879SOL    HW2 9537   5.736   5.578   5.924
 2880SOL     OW 9538   0.790   1.279   3.125
 2880SOL    HW1 9539   0.823   1.289   3.218
 2880SOL    HW2 9540   0.818   1.359   3.071
 2881SOL     OW 9541   3.941   5.868   0.337
 2881SOL    HW1 9542   3.947   5.774   0.304
 2881SOL    HW2 9543   3.997   5.879   0.419
 2882SOL     OW 9544   0.007   5.758   1.194
 2882SOL    HW1 9545   6.945   5.709   1.196
 2882SOL    HW2 9546   0.081   5.695   1.214
 2883SOL     OW 9547   5.717   0.038   3.652
 2883SOL    HW1 9548   5.798   0.054   3.595
 2883SOL    HW2 9549   5.686   0.125   3.690
 2884SOL     OW 9550   1.011   6.599   2.542
 2884SOL    HW1 9551   0.947   6.647   2.481
 2884SOL    HW2 9552   1.098   6.647   2.543
 2885SOL     OW 9553   1.526   2.654   4.545
 2885SOL    HW1 9554   1.558   2.589   4.477
 2885SOL    HW2 9555   1.534   2.614   4.636
 2886SOL     OW 9556   1.792   3.411   6.610
 2886SOL    HW1 9557   1.695   3.428   6.592
 2886SOL    HW2 9558   1.802   3.359   6.695
 2887SOL     OW 9559   1.012   6.663   4.983
 2887SOL    HW1 9560   1.017   6.658   5.083
 2887SOL    HW2 9561   1.101   6.689   4.947
 2888SOL     OW 9562   0.362   4.425   0.311
 2888SOL    HW1 9563   0.323   4.517   0.309
 2888SOL    HW2 9564   0.374   4.395   0.405
 2889SOL     OW 9565   2.693   5.951   2.607
 2889SOL    HW1 9566   2.790   5.936   2.588
 2889SOL    HW2 9567   2.649   5.990   2.526
 2890SOL     OW 9568   1.560   6.215   0.606
 2890SOL    HW1 9569   1.547   6.309   0.577
 2890SOL    HW2 9570   1.622   6.169   0.543
 2891SOL     OW 9571   0.775   3.902   3.366
 2891SOL    HW1 9572   0.692   3.867   3.409
 2891SOL    HW2 9573   0.816   3.972   3.424
 2892SOL     OW 9574   6.008   2.999   1.355
 2892SOL    HW1 9575   5.961   2.931   1.411
 2892SOL    HW2 9576   6.095   3.024   1.398
 2893SOL     OW 9577   1.039   4.851   4.347
 2893SOL    HW1 9578   1.055   4.906   4.428
 2893SOL    HW2 9579   1.029   4.754   4.372
 2894SOL     OW 9580   1.055   3.533   1.776
 2894SOL    HW1 9581   1.070   3.453   1.833
 2894SOL    HW2 9582   0.974   3.519   1.719
 2895SOL     OW 9583   5.682   1.314   5.466
 2895SOL    HW1 9584   5.590   1.295   5.502
 2895SOL    HW2 9585   5.728   1.227   5.446
 2896SOL     OW 9586   3.922   6.888   5.340
 2896SOL    HW1 9587   3.945   6.804   5.290
 2896SOL    HW2 9588   3.928   6.966   5.278
 2897SOL     OW 9589   3.647   5.140   2.240
 2897SOL    HW1 9590   3.713   5.215   2.231
 2897SOL    HW2 9591   3.689   5.055   2.206
 2898SOL     OW 9592   4.181   4.771   4.178
 2898SOL    HW1 9593   4.240   4.850   4.160
 2898SOL    HW2 9594   4.140   4.739   4.093
 2899SOL     OW 9595   0.405   1.389   0.939
 2899SOL    HW1 9596   0.474   1.321   0.913
 2899SOL    HW2 9597   0.315   1.345   0.944
 2900SOL     OW 9598   3.819   4.707   6.573
 2900SOL    HW1 9599   3.751   4.763   6.621
 2900SOL    HW2 9600   3.778   4.668   6.490
 2901SOL     OW 9601   2.542   4.542   3.357
 2901SOL    HW1 9602   2.608   4.479   3.397
 2901SOL    HW2 9603   2.590   4.625   3.327
 2902SOL     OW 9604   6.682   4.965   3.165
 2902SOL    HW1 9605   6.630   4.901   3.222
 2902SOL    HW2 9606   6.662   4.947   3.069
 2903SOL     OW 9607   3.976   6.423   0.450
 2903SOL    HW1 9608   3.993   6.515   0.486
 2903SOL    HW2 9609   3.887   6.421   0.404
 2904SOL     OW 9610   3.042   5.179   5.201
 2904SOL    HW1 9611   2.971   5.111   5.221
 2904SOL    HW2 9612   3.006   5.248   5.139
 2905SOL     OW 9613   1.372   3.984   4.052
 2905SOL    HW1 9614   1.408   4.049   3.985
 2905SOL    HW2 9615   1.297   3.931   4.011
 2906SOL     OW 9616   4.749   5.625   2.686
 2906SOL    HW1 9617   4.714   5.693   2.750
 2906SOL    HW2 9618   4.679   5.601   2.620
 2907SOL     OW 9619   0.701   1.679   3.564
 2907SOL    HW1 9620   0.785   1.653   3.611
 2907SOL    HW2 9621   0.676   1.773   3.589
 2908SOL     OW 9622   4.811   0.282   3.386
 2908SOL    HW1 9623   4.843   0.192   3.357
 2908SOL    HW2 9624   4.787   0.336   3.305
 2909SOL     OW 9625   2.481   5.550   4.295
 2909SOL    HW1 9626   2.533   5.496   4.360
 2909SOL    HW2 9627   2.438   5.627   4.342
 2910SOL     OW 9628   5.724   0.276   4.064
 2910SOL    HW1 9629   5.790   0.216   4.018
 2910SOL    HW2 9630   5.698   0.237   4.152
 2911SOL     OW 9631   1.860   5.512   3.995
 2911SOL    HW1 9632   1.946   5.537   4.038
 2911SOL    HW2 9633   1.838   5.417   4.017
 2912SOL     OW 9634   6.205   6.837   0.561
 2912SOL    HW1 9635   6.205   6.865   0.657
 2912SOL    HW2 9636   6.190   6.917   0.503
 2913SOL     OW 9637   3.563   5.040   1.892
 2913SOL    HW1 9638   3.491   5.108   1.908
 2913SOL    HW2 9639   3.549   4.962   1.953
 2914SOL     OW 9640   6.158   5.938   6.952
 2914SOL    HW1 9641   6.082   5.947   7.016
 2914SOL    HW2 9642   6.140   5.863   6.888
 2915SOL     OW 9643   3.083   1.961   3.341
 2915SOL    HW1 9644   3.035   1.946   3.255
 2915SOL    HW2 9645   3.118   1.873   3.376
 2916SOL     OW 9646   1.285   5.864   0.398
 2916SOL    HW1 9647   1.376   5.829   0.378
 2916SOL    HW2 9648   1.275   5.878   0.496
 2917SOL     OW 9649   3.135   0.003   4.168
 2917SOL    HW1 9650   3.087   0.085   4.137
 2917SOL    HW2 9651   3.234   0.014   4.153
 2918SOL     OW 9652   6.171   4.291   5.556
 2918SOL    HW1 9653   6.153   4.278   5.458
 2918SOL    HW2 9654   6.270   4.299   5.571
 2919SOL     OW 9655   5.936   0.593   2.732
 2919SOL    HW1 9656   5.882   0.598   2.815
 2919SOL    HW2 9657   5.926   0.503   2.690
 2920SOL     OW 9658   2.806   0.852   0.987
 2920SOL    HW1 9659   2.751   0.768   0.986
 2920SOL    HW2 9660   2.754   0.926   0.945
 2921SOL     OW 9661   0.847   0.252   5.139
 2921SOL    HW1 9662   0.905   0.177   5.106
 2921SOL    HW2 9663   0.852   0.328   5.075
 2922SOL     OW 9664   4.878   6.427   1.630
 2922SOL    HW1 9665   4.877   6.373   1.546
 2922SOL    HW2 9666   4.791   6.476   1.640
 2923SOL     OW 9667   6.261   5.915   3.827
 2923SOL    HW1 9668   6.203   5.945   3.751
 2923SOL    HW2 9669   6.233   5.962   3.911
 2924SOL     OW 9670   6.739   2.514   5.373
 2924SOL    HW1 9671   6.819   2.531   5.315
 2924SOL    HW2 9672   6.759   2.542   5.467
 2925SOL     OW 9673   5.910   2.405   0.434
 2925SOL    HW1 9674   5.907   2.324   0.375
 2925SOL    HW2 9675   6.003   2.418   0.468
 2926SOL     OW 9676   5.757   2.051   6.723
 2926SOL    HW1 9677   5.732   1.966   6.676
 2926SOL    HW2 9678   5.817   2.031   6.800
 2927SOL     OW 9679   1.788   3.297   1.138
 2927SOL    HW1 9680   1.818   3.361   1.067
 2927SOL    HW2 9681   1.762   3.347   1.220
 2928SOL     OW 9682   6.633   0.742   6.568
 2928SOL    HW1 9683   6.538   0.713   6.581
 2928SOL    HW2 9684   6.682   0.736   6.655
 2929SOL     OW 9685   1.225   2.592   6.121
 2929SOL    HW1 9686   1.302   2.560   6.176
 2929SOL    HW2 9687   1.159   2.639   6.180
 2930SOL     OW 9688   5.334   6.830   5.706
 2930SOL    HW1 9689   5.259   6.896   5.696
 2930SOL    HW2 9690   5.420   6.874   5.681
 2931SOL     OW 9691   4.834   5.228   0.290
 2931SOL    HW1 9692   4.880   5.275   0.214
 2931SOL    HW2 9693   4.739   5.258   0.295
 2932SOL     OW 9694   0.743   5.705   2.032
 2932SOL    HW1 9695   0.731   5.656   2.118
 2932SOL    HW2 9696   0.795   5.649   1.969
 2933SOL     OW 9697   1.790   6.509   2.420
 2933SOL    HW1 9698   1.821   6.430   2.472
 2933SOL    HW2 9699   1.724   6.480   2.350
 2934SOL     OW 9700   5.556   2.521   6.633
 2934SOL    HW1 9701   5.654   2.524   6.614
 2934SOL    HW2 9702   5.532   2.430   6.667
 2935SOL     OW 9703   6.663   3.215   6.356
 2935SOL    HW1 9704   6.572   3.250   6.334
 2935SOL    HW2 9705   6.726   3.292   6.372
 2936SOL     OW 9706   4.620   5.870   0.413
 2936SOL    HW1 9707   4.545   5.933   0.393
 2936SOL    HW2 9708   4.690   5.918   0.466
 2937SOL     OW 9709   5.552   5.225   1.343
 2937SOL    HW1 9710   5.502   5.305   1.377
 2937SOL    HW2 9711   5.487   5.157   1.310
 2938SOL     OW 9712   5.485   4.602   0.101
 2938SOL    HW1 9713   5.562   4.582   0.162
 2938SOL    HW2 9714   5.409   4.541   0.123
 2939SOL     OW 9715   2.446   0.338   2.090
 2939SOL    HW1 9716   2.461   0.249   2.048
 2939SOL    HW2 9717   2.504   0.406   2.046
 2940SOL     OW 9718   5.493   4.855   5.498
 2940SOL    HW1 9719   5.510   4.879   5.402
 2940SOL    HW2 9720   5.406   4.895   5.527
 2941SOL     OW 9721   1.397   2.188   4.381
 2941SOL    HW1 9722   1.461   2.218   4.310
 2941SOL    HW2 9723   1.327   2.259   4.394
 2942SOL     OW 9724   3.833   1.705   0.758
 2942SOL    HW1 9725   3.922   1.737   0.725
 2942SOL    HW2 9726   3.825   1.726   0.856
 2943SOL     OW 9727   6.073   4.175   3.741
 2943SOL    HW1 9728   6.145   4.226   3.788
 2943SOL    HW2 9729   6.107   4.141   3.653
 2944SOL     OW 9730   2.918   6.043   4.142
 2944SOL    HW1 9731   2.823   6.065   4.163
 2944SOL    HW2 9732   2.963   6.125   4.106
 2945SOL     OW 9733   4.068   3.274   1.738
 2945SOL    HW1 9734   4.039   3.181   1.759
 2945SOL    HW2 9735   3.992   3.338   1.754
 2946SOL     OW 9736   1.862   4.634   6.311
 2946SOL    HW1 9737   1.953   4.628   6.270
 2946SOL    HW2 9738   1.801   4.568   6.268
 2947SOL     OW 9739   0.854   5.865   1.600
 2947SOL    HW1 9740   0.881   5.860   1.504
 2947SOL    HW2 9741   0.857   5.960   1.631
 2948SOL     OW 9742   0.092   4.417   4.615
 2948SOL    HW1 9743   0.040   4.417   4.529
 2948SOL    HW2 9744   0.190   4.424   4.595
 2949SOL     OW 9745   1.219   5.575   1.288
 2949SOL    HW1 9746   1.172   5.487   1.280
 2949SOL    HW2 9747   1.169   5.634   1.351
 2950SOL     OW 9748   6.129   5.856   4.584
 2950SOL    HW1 9749   6.058   5.909   4.538
 2950SOL    HW2 9750   6.186   5.918   4.639
 2951SOL     OW 9751   5.714   1.905   2.326
 2951SOL    HW1 9752   5.812   1.920   2.330
 2951SOL    HW2 9753   5.695   1.808   2.313
 2952SOL     OW 9754   0.209   6.069   5.274
 2952SOL    HW1 9755   0.225   6.168   5.285
 2952SOL    HW2 9756   0.222   6.024   5.363
 2953SOL     OW 9757   6.172   3.947   3.003
 2953SOL    HW1 9758   6.159   3.925   2.906
 2953SOL    HW2 9759   6.107   3.895   3.058
 2954SOL     OW 9760   1.011   5.244   2.179
 2954SOL    HW1 9761   1.033   5.280   2.270
 2954SOL    HW2 9762   0.919   5.275   2.153
 2955SOL     OW 9763   0.965   4.117   1.369
 2955SOL    HW1 9764   0.875   4.142   1.407
 2955SOL    HW2 9765   1.023   4.080   1.442
 2956SOL     OW 9766   5.567   5.880   3.065
 2956SOL    HW1 9767   5.616   5.797   3.039
 2956SOL    HW2 9768   5.618   5.929   3.135
 2957SOL     OW 9769   5.214   4.186   1.673
 2957SOL    HW1 9770   5.262   4.256   1.620
 2957SOL    HW2 9771   5.232   4.096   1.633
 2958SOL     OW 9772   2.199   4.375   3.808
 2958SOL    HW1 9773   2.287   4.375   3.761
 2958SOL    HW2 9774   2.129   4.334   3.750
 2959SOL     OW 9775   4.841   3.325   1.778
 2959SOL    HW1 9776   4.865   3.327   1.681
 2959SOL    HW2 9777   4.921   3.297   1.831
 2960SOL     OW 9778   3.150   0.194   0.290
 2960SOL    HW1 9779   3.079   0.165   0.354
 2960SOL    HW2 9780   3.113   0.266   0.230
 2961SOL     OW 9781   5.832   4.767   3.275
 2961SOL    HW1 9782   5.853   4.691   3.336
 2961SOL    HW2 9783   5.795   4.843   3.328
 2962SOL     OW 9784   4.341   6.037   3.864
 2962SOL    HW1 9785   4.417   6.062   3.804
 2962SOL    HW2 9786   4.344   6.092   3.947
 2963SOL     OW 9787   1.249   0.987   6.855
 2963SOL    HW1 9788   1.210   1.057   6.915
 2963SOL    HW2 9789   1.222   0.896   6.889
 2964SOL     OW 9790   7.003   1.702   5.067
 2964SOL    HW1 9791   0.064   1.735   5.105
 2964SOL    HW2 9792   6.927   1.749   5.111
 2965SOL     OW 9793   0.848   0.609   4.596
 2965SOL    HW1 9794   0.881   0.538   4.533
 2965SOL    HW2 9795   0.925   0.646   4.648
 2966SOL     OW 9796   4.768   5.017   3.036
 2966SOL    HW1 9797   4.759   5.098   2.979
 2966SOL    HW2 9798   4.859   5.014   3.076
 2967SOL     OW 9799   6.022   0.992   5.593
 2967SOL    HW1 9800   5.936   0.980   5.642
 2967SOL    HW2 9801   6.078   0.909   5.603
 2968SOL     OW 9802   1.011   2.784   0.461
 2968SOL    HW1 9803   1.057   2.873   0.472
 2968SOL    HW2 9804   0.933   2.779   0.523
 2969SOL     OW 9805   4.508   2.246   4.377
 2969SOL    HW1 9806   4.483   2.165   4.428
 2969SOL    HW2 9807   4.571   2.302   4.431
 2970SOL     OW 9808   2.706   3.031   5.321
 2970SOL    HW1 9809   2.624   3.017   5.266
 2970SOL    HW2 9810   2.714   2.957   5.388
 2971SOL     OW 9811   5.152   4.014   0.962
 2971SOL    HW1 9812   5.181   3.935   1.015
 2971SOL    HW2 9813   5.115   4.084   1.023
 2972SOL     OW 9814   6.213   4.991   6.436
 2972SOL    HW1 9815   6.148   4.918   6.457
 2972SOL    HW2 9816   6.225   4.998   6.337
 2973SOL     OW 9817   5.359   5.731   1.842
 2973SOL    HW1 9818   5.332   5.797   1.772
 2973SOL    HW2 9819   5.379   5.643   1.800
 2974SOL     OW 9820   0.303   4.562   3.786
 2974SOL    HW1 9821   0.218   4.518   3.815
 2974SOL    HW2 9822   0.376   4.538   3.851
 2975SOL     OW 9823   5.044   4.169   4.049
 2975SOL    HW1 9824   4.990   4.090   4.018
 2975SOL    HW2 9825   5.098   4.143   4.129
 2976SOL     OW 9826   4.284   2.062   2.519
 2976SOL    HW1 9827   4.240   2.143   2.480
 2976SOL    HW2 9828   4.299   1.994   2.447
 2977SOL     OW 9829   1.353   0.718   2.843
 2977SOL    HW1 9830   1.326   0.806   2.884
 2977SOL    HW2 9831   1.276   0.655   2.846
 2978SOL     OW 9832   3.607   4.844   6.741
 2978SOL    HW1 9833   3.640   4.874   6.830
 2978SOL    HW2 9834   3.552   4.761   6.752
 2979SOL     OW 9835   3.751   1.448   3.822
 2979SOL    HW1 9836   3.736   1.437   3.921
 2979SOL    HW2 9837   3.675   1.407   3.772
 2980SOL     OW 9838   1.824   5.817   5.540
 2980SOL    HW1 9839   1.808   5.904   5.587
 2980SOL    HW2 9840   1.886   5.831   5.463
 2981SOL     OW 9841   2.642   1.002   6.774
 2981SOL    HW1 9842   2.643   1.061   6.693
 2981SOL    HW2 9843   2.666   1.056   6.855
 2982SOL     OW 9844   2.473   5.703   0.951
 2982SOL    HW1 9845   2.418   5.693   0.869
 2982SOL    HW2 9846   2.569   5.718   0.925
 2983SOL     OW 9847   6.196   2.218   2.035
 2983SOL    HW1 9848   6.283   2.211   2.084
 2983SOL    HW2 9849   6.148   2.131   2.039
 2984SOL     OW 9850   6.237   4.725   6.995
 2984SOL    HW1 9851   6.287   4.677   0.041
 2984SOL    HW2 9852   6.301   4.771   6.934
 2985SOL     OW 9853   1.925   2.490   4.875
 2985SOL    HW1 9854   1.967   2.570   4.831
 2985SOL    HW2 9855   1.961   2.407   4.833
 2986SOL     OW 9856   3.591   4.119   2.816
 2986SOL    HW1 9857   3.680   4.159   2.839
 2986SOL    HW2 9858   3.577   4.035   2.869
 2987SOL     OW 9859   1.356   1.466   3.768
 2987SOL    HW1 9860   1.357   1.413   3.683
 2987SOL    HW2 9861   1.366   1.563   3.747
 2988SOL     OW 9862   1.798   6.526   2.726
 2988SOL    HW1 9863   1.733   6.558   2.657
 2988SOL    HW2 9864   1.835   6.437   2.698
 2989SOL     OW 9865   4.927   4.795   6.177
 2989SOL    HW1 9866   4.961   4.862   6.244
 2989SOL    HW2 9867   4.946   4.829   6.085
 2990SOL     OW 9868   3.659   1.444   4.103
 2990SOL    HW1 9869   3.583   1.433   4.039
 2990SOL    HW2 9870   3.662   1.538   4.135
 2991SOL     OW 9871   6.067   3.317   5.911
 2991SOL    HW1 9872   6.059   3.300   5.813
 2991SOL    HW2 9873   5.980   3.297   5.956
 2992SOL     OW 9874   1.187   5.271   4.856
 2992SOL    HW1 9875   1.204   5.224   4.943
 2992SOL    HW2 9876   1.193   5.370   4.871
 2993SOL     OW 9877   0.414   5.056   1.538
 2993SOL    HW1 9878   0.497   5.000   1.538
 2993SOL    HW2 9879   0.422   5.129   1.605
 2994SOL     OW 9880   3.981   6.432   0.118
 2994SOL    HW1 9881   4.031   6.516   0.098
 2994SOL    HW2 9882   4.045   6.361   0.147
 2995SOL     OW 9883   3.778   1.198   6.415
 2995SOL    HW1 9884   3.781   1.222   6.512
 2995SOL    HW2 9885   3.731   1.110   6.403
 2996SOL     OW 9886   0.565   1.191   4.951
 2996SOL    HW1 9887   0.555   1.108   5.005
 2996SOL    HW2 9888   0.623   1.256   4.999
 2997SOL     OW 9889   4.666   0.301   3.128
 2997SOL    HW1 9890   4.579   0.339   3.160
 2997SOL    HW2 9891   4.659   0.277   3.031
 2998SOL     OW 9892   5.310   6.822   3.604
 2998SOL    HW1 9893   5.404   6.838   3.635
 2998SOL    HW2 9894   5.280   6.899   3.548
 2999SOL     OW 9895   2.346   5.202   5.700
 2999SOL    HW1 9896   2.394   5.248   5.626
 2999SOL    HW2 9897   2.288   5.130   5.662
 3000SOL     OW 9898   2.988   4.308   6.126
 3000SOL    HW1 9899   2.936   4.230   6.159
 3000SOL    HW2 9900   3.069   4.321   6.184
 3001SOL     OW 9901   6.952   1.006   6.772
 3001SOL    HW1 9902   6.942   0.906   6.777
 3001SOL    HW2 9903   6.893   1.042   6.700
 3002SOL     OW 9904   3.478   2.137   0.009
 3002SOL    HW1 9905   3.550   2.091   0.060
 3002SOL    HW2 9906   3.404   2.073   7.015
 3003SOL     OW 9907   0.710   6.916   0.870
 3003SOL    HW1 9908   0.712   7.013   0.844
 3003SOL    HW2 9909   0.741   6.906   0.964
 3004SOL     OW 9910   0.696   4.105   2.598
 3004SOL    HW1 9911   0.749   4.183   2.632
 3004SOL    HW2 9912   0.648   4.131   2.514
 3005SOL     OW 9913   1.356   2.528   7.010
 3005SOL    HW1 9914   1.267   2.563   6.979
 3005SOL    HW2 9915   1.353   2.516   0.084
 3006SOL     OW 9916   5.509   2.550   4.391
 3006SOL    HW1 9917   5.517   2.528   4.489
 3006SOL    HW2 9918   5.418   2.526   4.359
 3007SOL     OW 9919   5.556   4.150   0.975
 3007SOL    HW1 9920   5.520   4.187   1.061
 3007SOL    HW2 9921   5.639   4.098   0.994
 3008SOL     OW 9922   3.118   2.531   6.391
 3008SOL    HW1 9923   3.039   2.537   6.330
 3008SOL    HW2 9924   3.199   2.506   6.339
 3009SOL     OW 9925   6.641   2.590   3.056
 3009SOL    HW1 9926   6.735   2.587   3.089
 3009SOL    HW2 9927   6.615   2.500   3.021
 3010SOL     OW 9928   2.778   5.881   3.230
 3010SOL    HW1 9929   2.773   5.787   3.198
 3010SOL    HW2 9930   2.687   5.923   3.226
 3011SOL     OW 9931   5.604   1.101   3.048
 3011SOL    HW1 9932   5.560   1.094   2.958
 3011SOL    HW2 9933   5.539   1.075   3.119
 3012SOL     OW 9934   2.510   3.334   6.574
 3012SOL    HW1 9935   2.461   3.325   6.487
 3012SOL    HW2 9936   2.576   3.409   6.568
 3013SOL     OW 9937   5.625   5.484   4.054
 3013SOL    HW1 9938   5.666   5.563   4.099
 3013SOL    HW2 9939   5.528   5.479   4.077
 3014SOL     OW 9940   4.898   2.130   5.369
 3014SOL    HW1 9941   4.957   2.210   5.379
 3014SOL    HW2 9942   4.804   2.155   5.389
 3015SOL     OW 9943   1.966   1.804   0.298
 3015SOL    HW1 9944   1.986   1.733   0.230
 3015SOL    HW2 9945   1.931   1.885   0.251
 3016SOL     OW 9946   3.087   6.160   4.417
 3016SOL    HW1 9947   3.084   6.079   4.475
 3016SOL    HW2 9948   3.136   6.233   4.465
 3017SOL     OW 9949   6.264   5.670   2.373
 3017SOL    HW1 9950   6.288   5.626   2.287
 3017SOL    HW2 9951   6.285   5.609   2.449
 3018SOL     OW 9952   2.788   0.317   6.575
 3018SOL    HW1 9953   2.868   0.302   6.517
 3018SOL    HW2 9954   2.722   0.244   6.560
 3019SOL     OW 9955   0.648   0.029   6.785
 3019SOL    HW1 9956   0.708   7.012   6.853
 3019SOL    HW2 9957   0.640   6.993   6.706
 3020SOL     OW 9958   4.003   3.036   0.938
 3020SOL    HW1 9959   3.995   3.106   0.867
 3020SOL    HW2 9960   4.098   3.005   0.943
 3021SOL     OW 9961   3.278   0.181   5.037
 3021SOL    HW1 9962   3.197   0.238   5.050
 3021SOL    HW2 9963   3.356   0.238   5.013
 3022SOL     OW 9964   4.123   4.995   4.564
 3022SOL    HW1 9965   4.108   5.014   4.661
 3022SOL    HW2 9966   4.035   4.975   4.520
 3023SOL     OW 9967   4.253   6.297   3.094
 3023SOL    HW1 9968   4.323   6.225   3.098
 3023SOL    HW2 9969   4.212   6.308   3.184
 3024SOL     OW 9970   5.478   6.879   4.658
 3024SOL    HW1 9971   5.388   6.918   4.636
 3024SOL    HW2 9972   5.467   6.812   4.732
 3025SOL     OW 9973   4.301   5.945   1.275
 3025SOL    HW1 9974   4.303   6.042   1.250
 3025SOL    HW2 9975   4.271   5.936   1.369
 3026SOL     OW 9976   0.160   1.161   5.971
 3026SOL    HW1 9977   0.188   1.117   6.057
 3026SOL    HW2 9978   0.210   1.119   5.895
 3027SOL     OW 9979   3.965   1.536   3.071
 3027SOL    HW1 9980   3.904   1.484   3.012
 3027SOL    HW2 9981   3.912   1.595   3.132
 3028SOL     OW 9982   1.368   3.375   6.063
 3028SOL    HW1 9983   1.424   3.377   5.980
 3028SOL    HW2 9984   1.288   3.316   6.048
 3029SOL     OW 9985   0.953   3.502   5.025
 3029SOL    HW1 9986   0.945   3.477   4.928
 3029SOL    HW2 9987   1.047   3.489   5.056
 3030SOL     OW 9988   1.161   2.939   0.756
 3030SOL    HW1 9989   1.104   2.989   0.691
 3030SOL    HW2 9990   1.252   2.980   0.758
 3031SOL     OW 9991   0.287   5.200   1.120
 3031SOL    HW1 9992   0.297   5.101   1.135
 3031SOL    HW2 9993   0.316   5.249   1.203
 3032SOL     OW 9994   1.962   6.837   1.359
 3032SOL    HW1 9995   1.967   6.908   1.430
 3032SOL    HW2 9996   2.014   6.757   1.389
 3033SOL     OW 9997   5.298   1.084   2.268
 3033SOL    HW1 9998   5.321   1.015   2.199
 3033SOL    HW2 9999   5.271   1.169   2.223
 3034SOL     OW10000   1.070   0.433   3.066
 3034SOL    HW110001   1.036   0.516   3.021
 3034SOL    HW210002   0.993   0.374   3.091
 3035SOL     OW10003   0.522   2.927   6.031
 3035SOL    HW110004   0.530   2.987   6.110
 3035SOL    HW210005   0.480   2.978   5.955
 3036SOL     OW10006   1.534   2.197   5.570
 3036SOL    HW110007   1.631   2.216   5.579
 3036SOL    HW210008   1.503   2.143   5.647
 3037SOL     OW10009   6.215   5.266   6.222
 3037SOL    HW110010   6.314   5.282   6.217
 3037SOL    HW210011   6.177   5.316   6.299
 3038SOL     OW10012   5.171   5.130   5.722
 3038SOL    HW110013   5.266   5.161   5.734
 3038SOL    HW210014   5.109   5.208   5.730
 3039SOL     OW10015   1.089   3.019   1.316
 3039SOL    HW110016   0.990   3.025   1.325
 3039SOL    HW210017   1.125   3.105   1.282
 3040SOL     OW10018   3.483   3.945   6.285
 3040SOL    HW110019   3.469   3.846   6.291
 3040SOL    HW210020   3.438   3.980   6.203
 3041SOL     OW10021   2.100   4.226   5.648
 3041SOL    HW110022   2.126   4.222   5.551
 3041SOL    HW210023   2.014   4.277   5.657
 3042SOL     OW10024   6.543   6.355   3.168
 3042SOL    HW110025   6.637   6.335   3.197
 3042SOL    HW210026   6.543   6.383   3.073
 3043SOL     OW10027   3.121   3.979   1.679
 3043SOL    HW110028   3.097   3.955   1.773
 3043SOL    HW210029   3.146   4.076   1.675
 3044SOL     OW10030   3.970   5.789   5.853
 3044SOL    HW110031   3.940   5.707   5.805
 3044SOL    HW210032   3.939   5.785   5.948
 3045SOL     OW10033   4.853   0.047   3.236
 3045SOL    HW110034   4.856   0.063   3.138
 3045SOL    HW210035   4.912   6.995   3.259
 3046SOL     OW10036   3.578   0.873   6.427
 3046SOL    HW110037   3.633   0.849   6.507
 3046SOL    HW210038   3.483   0.842   6.442
 3047SOL     OW10039   6.024   0.670   1.634
 3047SOL    HW110040   6.000   0.711   1.722
 3047SOL    HW210041   5.954   0.692   1.567
 3048SOL     OW10042   3.993   2.628   1.469
 3048SOL    HW110043   3.920   2.560   1.461
 3048SOL    HW210044   3.952   2.720   1.466
 3049SOL     OW10045   1.614   6.957   3.575
 3049SOL    HW110046   1.527   6.948   3.526
 3049SOL    HW210047   1.600   7.014   3.656
 3050SOL     OW10048   3.178   1.876   1.753
 3050SOL    HW110049   3.134   1.963   1.776
 3050SOL    HW210050   3.139   1.842   1.668
 3051SOL     OW10051   2.110   6.823   6.600
 3051SOL    HW110052   2.076   6.750   6.541
 3051SOL    HW210053   2.116   6.790   6.694
 3052SOL     OW10054   4.851   5.357   1.719
 3052SOL    HW110055   4.905   5.288   1.671
 3052SOL    HW210056   4.865   5.446   1.675
 3053SOL     OW10057   6.605   3.005   1.083
 3053SOL    HW110058   6.702   3.019   1.101
 3053SOL    HW210059   6.550   3.062   1.144
 3054SOL     OW10060   5.858   2.134   1.586
 3054SOL    HW110061   5.794   2.205   1.555
 3054SOL    HW210062   5.943   2.177   1.617
 3055SOL     OW10063   5.221   0.233   4.977
 3055SOL    HW110064   5.196   0.218   5.073
 3055SOL    HW210065   5.259   0.326   4.967
 3056SOL     OW10066   6.190   1.063   5.908
 3056SOL    HW110067   6.237   1.128   5.967
 3056SOL    HW210068   6.092   1.085   5.905
 3057SOL     OW10069   4.283   5.545   3.914
 3057SOL    HW110070   4.336   5.472   3.870
 3057SOL    HW210071   4.195   5.554   3.868
 3058SOL     OW10072   0.311   4.781   0.825
 3058SOL    HW110073   0.378   4.855   0.821
 3058SOL    HW210074   0.222   4.818   0.851
 3059SOL     OW10075   2.741   1.844   4.274
 3059SOL    HW110076   2.744   1.903   4.355
 3059SOL    HW210077   2.747   1.748   4.303
 3060SOL     OW10078   1.594   5.402   6.900
 3060SOL    HW110079   1.646   5.359   6.974
 3060SOL    HW210080   1.565   5.332   6.835
 3061SOL     OW10081   6.697   6.039   5.968
 3061SOL    HW110082   6.665   6.131   5.988
 3061SOL    HW210083   6.783   6.022   6.017
 3062SOL     OW10084   2.208   0.085   1.164
 3062SOL    HW110085   2.245   0.105   1.074
 3062SOL    HW210086   2.185   0.170   1.211
 3063SOL     OW10087   1.911   4.379   1.451
 3063SOL    HW110088   1.906   4.337   1.361
 3063SOL    HW210089   1.889   4.476   1.445
 3064SOL     OW10090   5.047   3.534   0.718
 3064SOL    HW110091   5.127   3.508   0.665
 3064SOL    HW210092   4.993   3.453   0.740
 3065SOL     OW10093   1.454   2.567   6.526
 3065SOL    HW110094   1.455   2.539   6.621
 3065SOL    HW210095   1.375   2.626   6.509
 3066SOL     OW10096   5.117   4.525   0.524
 3066SOL    HW110097   5.141   4.511   0.620
 3066SOL    HW210098   5.064   4.609   0.515
 3067SOL     OW10099   4.024   1.349   6.361
 3067SOL    HW110100   3.934   1.305   6.360
 3067SOL    HW210101   4.014   1.446   6.387
 3068SOL     OW10102   7.009   6.649   1.318
 3068SOL    HW110103   0.060   6.692   1.366
 3068SOL    HW210104   0.013   6.621   1.226
 3069SOL     OW10105   6.845   6.366   2.447
 3069SOL    HW110106   6.814   6.299   2.380
 3069SOL    HW210107   6.884   6.445   2.400
 3070SOL     OW10108   2.832   1.205   6.928
 3070SOL    HW110109   2.793   1.288   6.889
 3070SOL    HW210110   2.927   1.222   6.955
 3071SOL     OW10111   6.670   6.369   4.130
 3071SOL    HW110112   6.583   6.320   4.123
 3071SOL    HW210113   6.740   6.308   4.166
 3072SOL     OW10114   2.508   5.711   6.349
 3072SOL    HW110115   2.516   5.704   6.249
 3072SOL    HW210116   2.441   5.781   6.372
 3073SOL     OW10117   0.223   3.702   3.569
 3073SOL    HW110118   0.216   3.723   3.471
 3073SOL    HW210119   0.234   3.603   3.581
 3074SOL     OW10120   6.976   4.134   1.371
 3074SOL    HW110121   6.929   4.180   1.295
 3074SOL    HW210122   6.908   4.105   1.439
 3075SOL     OW10123   2.311   5.445   2.602
 3075SOL    HW110124   2.248   5.519   2.579
 3075SOL    HW210125   2.403   5.483   2.616
 3076SOL     OW10126   6.345   1.213   3.717
 3076SOL    HW110127   6.411   1.265   3.772
 3076SOL    HW210128   6.394   1.164   3.645
 3077SOL     OW10129   5.446   4.574   1.598
 3077SOL    HW110130   5.431   4.557   1.695
 3077SOL    HW210131   5.524   4.636   1.587
 3078SOL     OW10132   0.008   3.327   2.891
 3078SOL    HW110133   0.039   3.410   2.936
 3078SOL    HW210134   6.996   3.263   2.959
 3079SOL     OW10135   2.940   2.260   3.291
 3079SOL    HW110136   2.956   2.242   3.388
 3079SOL    HW210137   3.013   2.318   3.255
 3080SOL     OW10138   6.436   4.912   2.604
 3080SOL    HW110139   6.367   4.891   2.536
 3080SOL    HW210140   6.514   4.957   2.561
 3081SOL     OW10141   1.073   3.955   6.302
 3081SOL    HW110142   1.141   3.919   6.366
 3081SOL    HW210143   1.119   4.005   6.230
 3082SOL     OW10144   1.980   5.778   4.358
 3082SOL    HW110145   2.010   5.795   4.264
 3082SOL    HW210146   2.058   5.790   4.419
 3083SOL     OW10147   3.048   6.038   3.520
 3083SOL    HW110148   2.957   6.003   3.501
 3083SOL    HW210149   3.072   6.020   3.615
 3084SOL     OW10150   6.511   4.067   3.720
 3084SOL    HW110151   6.571   4.094   3.645
 3084SOL    HW210152   6.516   3.968   3.734
 3085SOL     OW10153   6.449   4.126   0.623
 3085SOL    HW110154   6.425   4.188   0.697
 3085SOL    HW210155   6.454   4.177   0.537
 3086SOL     OW10156   5.253   1.776   0.407
 3086SOL    HW110157   5.156   1.757   0.423
 3086SOL    HW210158   5.267   1.875   0.404
 3087SOL     OW10159   2.180   6.804   3.565
 3087SOL    HW110160   2.135   6.828   3.479
 3087SOL    HW210161   2.159   6.709   3.588
 3088SOL     OW10162   2.300   4.325   4.743
 3088SOL    HW110163   2.241   4.404   4.728
 3088SOL    HW210164   2.246   4.248   4.777
 3089SOL     OW10165   3.523   1.579   4.641
 3089SOL    HW110166   3.556   1.666   4.679
 3089SOL    HW210167   3.569   1.562   4.554
 3090SOL     OW10168   2.333   1.606   1.903
 3090SOL    HW110169   2.347   1.659   1.819
 3090SOL    HW210170   2.239   1.571   1.904
 3091SOL     OW10171   1.319   0.991   0.789
 3091SOL    HW110172   1.275   1.054   0.725
 3091SOL    HW210173   1.365   1.043   0.861
 3092SOL     OW10174   5.670   0.076   0.816
 3092SOL    HW110175   5.652   7.010   0.853
 3092SOL    HW210176   5.660   0.144   0.889
 3093SOL     OW10177   5.278   5.628   6.578
 3093SOL    HW110178   5.339   5.676   6.515
 3093SOL    HW210179   5.238   5.693   6.642
 3094SOL     OW10180   2.388   0.496   3.934
 3094SOL    HW110181   2.390   0.478   3.836
 3094SOL    HW210182   2.306   0.455   3.973
 3095SOL     OW10183   2.563   4.155   5.334
 3095SOL    HW110184   2.507   4.166   5.416
 3095SOL    HW210185   2.520   4.089   5.272
 3096SOL     OW10186   0.758   5.160   5.350
 3096SOL    HW110187   0.758   5.069   5.309
 3096SOL    HW210188   0.806   5.224   5.290
 3097SOL     OW10189   5.907   3.866   6.787
 3097SOL    HW110190   5.924   3.786   6.843
 3097SOL    HW210191   5.994   3.912   6.767
 3098SOL     OW10192   1.661   3.265   1.740
 3098SOL    HW110193   1.695   3.182   1.695
 3098SOL    HW210194   1.570   3.287   1.704
 3099SOL     OW10195   1.178   6.214   3.737
 3099SOL    HW110196   1.165   6.229   3.639
 3099SOL    HW210197   1.133   6.128   3.763
 3100SOL     OW10198   6.591   5.794   3.860
 3100SOL    HW110199   6.518   5.729   3.840
 3100SOL    HW210200   6.572   5.881   3.815
 3101SOL     OW10201   6.405   5.763   6.707
 3101SOL    HW110202   6.312   5.726   6.704
 3101SOL    HW210203   6.462   5.716   6.639
 3102SOL     OW10204   6.217   0.064   1.826
 3102SOL    HW110205   6.204   7.007   1.771
 3102SOL    HW210206   6.131   0.114   1.831
 3103SOL     OW10207   4.248   1.438   1.812
 3103SOL    HW110208   4.156   1.475   1.826
 3103SOL    HW210209   4.277   1.391   1.895
 3104SOL     OW10210   4.364   0.485   6.556
 3104SOL    HW110211   4.422   0.439   6.623
 3104SOL    HW210212   4.420   0.522   6.482
 3105SOL     OW10213   6.262   4.268   1.191
 3105SOL    HW110214   6.346   4.287   1.140
 3105SOL    HW210215   6.183   4.301   1.140
 3106SOL     OW10216   4.528   0.087   4.458
 3106SOL    HW110217   4.594   0.161   4.446
 3106SOL    HW210218   4.439   0.115   4.420
 3107SOL     OW10219   3.611   0.636   4.488
 3107SOL    HW110220   3.656   0.723   4.505
 3107SOL    HW210221   3.517   0.639   4.522
 3108SOL     OW10222   2.566   5.630   5.067
 3108SOL    HW110223   2.663   5.610   5.054
 3108SOL    HW210224   2.534   5.587   5.151
 3109SOL     OW10225   5.695   6.748   3.467
 3109SOL    HW110226   5.669   6.773   3.560
 3109SOL    HW210227   5.675   6.823   3.405
 3110SOL     OW10228   1.342   3.526   3.287
 3110SOL    HW110229   1.309   3.578   3.366
 3110SOL    HW210230   1.318   3.429   3.298
 3111SOL     OW10231   6.944   4.941   3.177
 3111SOL    HW110232   6.991   5.023   3.210
 3111SOL    HW210233   6.847   4.960   3.166
 3112SOL     OW10234   3.453   2.907   7.003
 3112SOL    HW110235   3.452   2.822   6.951
 3112SOL    HW210236   3.375   2.964   6.976
 3113SOL     OW10237   3.292   5.060   3.092
 3113SOL    HW110238   3.241   5.142   3.066
 3113SOL    HW210239   3.302   5.000   3.013
 3114SOL     OW10240   3.483   1.827   0.132
 3114SOL    HW110241   3.418   1.883   0.080
 3114SOL    HW210242   3.432   1.762   0.189
 3115SOL     OW10243   3.801   4.387   5.961
 3115SOL    HW110244   3.803   4.296   6.002
 3115SOL    HW210245   3.775   4.454   6.031
 3116SOL     OW10246   6.908   2.130   6.911
 3116SOL    HW110247   6.820   2.145   6.956
 3116SOL    HW210248   6.976   2.193   6.950
 3117SOL     OW10249   4.553   4.137   5.311
 3117SOL    HW110250   4.630   4.137   5.247
 3117SOL    HW210251   4.479   4.195   5.274
 3118SOL     OW10252   0.963   4.883   1.988
 3118SOL    HW110253   0.933   4.801   1.941
 3118SOL    HW210254   1.049   4.915   1.948
 3119SOL     OW10255   2.316   2.924   6.989
 3119SOL    HW110256   2.362   2.933   6.901
 3119SOL    HW210257   2.260   2.841   6.989
 3120SOL     OW10258   2.928   0.408   6.178
 3120SOL    HW110259   2.996   0.470   6.139
 3120SOL    HW210260   2.839   0.453   6.178
 3121SOL     OW10261   6.342   1.491   4.460
 3121SOL    HW110262   6.261   1.549   4.448
 3121SOL    HW210263   6.400   1.529   4.532
 3122SOL     OW10264   4.645   5.692   5.946
 3122SOL    HW110265   4.741   5.708   5.968
 3122SOL    HW210266   4.612   5.766   5.888
 3123SOL     OW10267   2.333   1.878   2.570
 3123SOL    HW110268   2.380   1.966   2.565
 3123SOL    HW210269   2.330   1.836   2.479
 3124SOL     OW10270   4.940   0.151   4.507
 3124SOL    HW110271   4.967   0.147   4.603
 3124SOL    HW210272   5.021   0.141   4.449
 3125SOL     OW10273   1.208   3.332   5.804
 3125SOL    HW110274   1.150   3.308   5.726
 3125SOL    HW210275   1.168   3.410   5.852
 3126SOL     OW10276   5.849   4.171   5.512
 3126SOL    HW110277   5.772   4.127   5.465
 3126SOL    HW210278   5.836   4.163   5.611
 3127SOL     OW10279   2.032   2.300   6.820
 3127SOL    HW110280   1.967   2.321   6.893
 3127SOL    HW210281   2.033   2.201   6.804
 3128SOL     OW10282   3.209   1.386   6.415
 3128SOL    HW110283   3.148   1.457   6.451
 3128SOL    HW210284   3.173   1.353   6.328
 3129SOL     OW10285   6.442   3.708   6.920
 3129SOL    HW110286   6.394   3.796   6.924
 3129SOL    HW210287   6.378   3.636   6.896
 3130SOL     OW10288   2.120   4.429   2.075
 3130SOL    HW110289   2.126   4.375   1.992
 3130SOL    HW210290   2.024   4.436   2.104
 3131SOL     OW10291   0.599   3.259   1.436
 3131SOL    HW110292   0.642   3.189   1.492
 3131SOL    HW210293   0.510   3.283   1.474
 3132SOL     OW10294   4.971   5.442   6.390
 3132SOL    HW110295   4.975   5.433   6.290
 3132SOL    HW210296   5.042   5.384   6.431
 3133SOL     OW10297   3.286   1.020   2.801
 3133SOL    HW110298   3.349   1.062   2.736
 3133SOL    HW210299   3.241   1.092   2.855
 3134SOL     OW10300   4.165   4.287   1.112
 3134SOL    HW110301   4.237   4.304   1.044
 3134SOL    HW210302   4.205   4.288   1.203
 3135SOL     OW10303   4.888   0.513   5.924
 3135SOL    HW110304   4.954   0.456   5.973
 3135SOL    HW210305   4.876   0.478   5.831
 3136SOL     OW10306   5.305   0.200   2.664
 3136SOL    HW110307   5.383   0.146   2.633
 3136SOL    HW210308   5.230   0.139   2.688
 3137SOL     OW10309   6.271   0.405   2.833
 3137SOL    HW110310   6.238   0.483   2.887
 3137SOL    HW210311   6.221   0.323   2.859
 3138SOL     OW10312   0.131   6.095   3.517
 3138SOL    HW110313   0.113   6.005   3.555
 3138SOL    HW210314   0.045   6.137   3.488
 3139SOL     OW10315   4.045   5.365   6.980
 3139SOL    HW110316   4.034   5.267   6.990
 3139SOL    HW210317   3.958   5.406   6.953
 3140SOL     OW10318   6.481   6.069   6.486
 3140SOL    HW110319   6.417   6.019   6.427
 3140SOL    HW210320   6.485   6.164   6.457
 3141SOL     OW10321   1.077   0.691   6.467
 3141SOL    HW110322   1.040   0.606   6.505
 3141SOL    HW210323   1.158   0.718   6.520
 3142SOL     OW10324   2.844   6.977   2.358
 3142SOL    HW110325   2.788   0.026   2.394
 3142SOL    HW210326   2.798   6.936   2.279
 3143SOL     OW10327   6.397   1.930   0.464
 3143SOL    HW110328   6.420   1.843   0.508
 3143SOL    HW210329   6.334   1.915   0.388
 3144SOL     OW10330   4.225   3.843   0.961
 3144SOL    HW110331   4.190   3.749   0.953
 3144SOL    HW210332   4.186   3.899   0.889
 3145SOL     OW10333   2.070   6.218   2.360
 3145SOL    HW110334   2.022   6.262   2.284
 3145SOL    HW210335   2.041   6.122   2.366
 3146SOL     OW10336   0.440   1.761   4.320
 3146SOL    HW110337   0.524   1.727   4.364
 3146SOL    HW210338   0.454   1.855   4.290
 3147SOL     OW10339   2.958   5.376   0.726
 3147SOL    HW110340   3.021   5.306   0.760
 3147SOL    HW210341   2.879   5.382   0.786
 3148SOL     OW10342   6.703   0.051   3.381
 3148SOL    HW110343   6.774   0.073   3.448
 3148SOL    HW210344   6.727   0.092   3.293
 3149SOL     OW10345   3.221   0.666   6.196
 3149SOL    HW110346   3.314   0.638   6.172
 3149SOL    HW210347   3.214   0.766   6.191
 3150SOL     OW10348   6.596   5.690   5.412
 3150SOL    HW110349   6.533   5.766   5.421
 3150SOL    HW210350   6.632   5.686   5.319
 3151SOL     OW10351   0.605   1.224   4.674
 3151SOL    HW110352   0.580   1.211   4.770
 3151SOL    HW210353   0.672   1.154   4.648
 3152SOL     OW10354   0.687   5.303   0.804
 3152SOL    HW110355   0.596   5.337   0.828
 3152SOL    HW210356   0.709   5.329   0.710
 3153SOL     OW10357   6.353   5.713   0.625
 3153SOL    HW110358   6.422   5.685   0.692
 3153SOL    HW210359   6.365   5.809   0.603
 3154SOL     OW10360   0.067   1.871   6.643
 3154SOL    HW110361   7.019   1.864   6.575
 3154SOL    HW210362   0.140   1.929   6.606
 3155SOL     OW10363   6.794   4.429   0.426
 3155SOL    HW110364   6.794   4.435   0.326
 3155SOL    HW210365   6.869   4.483   0.463
 3156SOL     OW10366   3.093   2.982   2.260
 3156SOL    HW110367   3.180   2.934   2.268
 3156SOL    HW210368   3.018   2.915   2.261
 3157SOL     OW10369   2.403   1.572   5.580
 3157SOL    HW110370   2.444   1.641   5.521
 3157SOL    HW210371   2.354   1.617   5.655
 3158SOL     OW10372   3.525   1.775   4.128
 3158SOL    HW110373   3.621   1.803   4.137
 3158SOL    HW210374   3.467   1.841   4.176
 3159SOL     OW10375   5.620   0.469   0.304
 3159SOL    HW110376   5.685   0.417   0.249
 3159SOL    HW210377   5.654   0.478   0.398
 3160SOL     OW10378   0.771   5.941   5.424
 3160SOL    HW110379   0.847   5.999   5.395
 3160SOL    HW210380   0.753   5.872   5.354
 3161SOL     OW10381   2.220   2.867   2.825
 3161SOL    HW110382   2.130   2.871   2.869
 3161SOL    HW210383   2.243   2.957   2.789
 3162SOL     OW10384   1.424   5.375   1.911
 3162SOL    HW110385   1.468   5.437   1.847
 3162SOL    HW210386   1.481   5.294   1.925
 3163SOL     OW10387   4.422   3.520   6.859
 3163SOL    HW110388   4.393   3.580   6.933
 3163SOL    HW210389   4.343   3.497   6.802
 3164SOL     OW10390   3.991   5.464   1.142
 3164SOL    HW110391   3.979   5.516   1.057
 3164SOL    HW210392   4.082   5.424   1.144
 3165SOL     OW10393   0.884   0.044   1.496
 3165SOL    HW110394   0.955   0.033   1.426
 3165SOL    HW210395   0.925   0.041   1.587
 3166SOL     OW10396   4.012   1.888   3.765
 3166SOL    HW110397   3.935   1.850   3.816
 3166SOL    HW210398   3.989   1.893   3.668
 3167SOL     OW10399   6.084   4.191   0.749
 3167SOL    HW110400   6.131   4.107   0.721
 3167SOL    HW210401   6.025   4.222   0.675
 3168SOL     OW10402   4.891   2.739   0.344
 3168SOL    HW110403   4.822   2.809   0.329
 3168SOL    HW210404   4.921   2.702   0.257
 3169SOL     OW10405   2.317   4.284   4.162
 3169SOL    HW110406   2.243   4.229   4.124
 3169SOL    HW210407   2.367   4.230   4.230
 3170SOL     OW10408   4.027   5.931   1.551
 3170SOL    HW110409   3.943   5.984   1.547
 3170SOL    HW210410   4.028   5.864   1.476
 3171SOL     OW10411   0.198   1.398   2.297
 3171SOL    HW110412   0.167   1.359   2.384
 3171SOL    HW210413   0.129   1.461   2.262
 3172SOL     OW10414   0.125   5.905   0.122
 3172SOL    HW110415   0.198   5.846   0.156
 3172SOL    HW210416   0.098   5.969   0.194
 3173SOL     OW10417   3.269   2.307   0.276
 3173SOL    HW110418   3.315   2.246   0.341
 3173SOL    HW210419   3.330   2.326   0.199
 3174SOL     OW10420   3.146   2.463   0.603
 3174SOL    HW110421   3.049   2.485   0.605
 3174SOL    HW210422   3.193   2.521   0.536
 3175SOL     OW10423   6.064   1.042   1.878
 3175SOL    HW110424   6.111   1.041   1.790
 3175SOL    HW210425   6.013   0.957   1.890
 3176SOL     OW10426   1.037   4.344   5.632
 3176SOL    HW110427   0.975   4.396   5.574
 3176SOL    HW210428   1.124   4.393   5.642
 3177SOL     OW10429   4.815   4.301   3.673
 3177SOL    HW110430   4.908   4.326   3.700
 3177SOL    HW210431   4.780   4.369   3.609
 3178SOL     OW10432   6.627   2.025   1.082
 3178SOL    HW110433   6.618   1.929   1.056
 3178SOL    HW210434   6.596   2.083   1.007
 3179SOL     OW10435   1.009   2.590   2.116
 3179SOL    HW110436   0.983   2.501   2.080
 3179SOL    HW210437   0.955   2.611   2.197
 3180SOL     OW10438   5.939   0.697   0.290
 3180SOL    HW110439   5.948   0.624   0.221
 3180SOL    HW210440   6.028   0.717   0.329
 3181SOL     OW10441   0.250   2.167   2.736
 3181SOL    HW110442   0.170   2.119   2.699
 3181SOL    HW210443   0.332   2.111   2.721
 3182SOL     OW10444   2.704   0.574   6.502
 3182SOL    HW110445   2.726   0.604   6.409
 3182SOL    HW210446   2.719   0.476   6.510
 3183SOL     OW10447   4.981   3.744   2.341
 3183SOL    HW110448   5.060   3.684   2.356
 3183SOL    HW210449   4.957   3.789   2.428
 3184SOL     OW10450   0.981   3.073   2.931
 3184SOL    HW110451   1.033   3.110   2.854
 3184SOL    HW210452   1.011   2.979   2.949
 3185SOL     OW10453   4.989   5.739   6.714
 3185SOL    HW110454   4.912   5.681   6.689
 3185SOL    HW210455   4.972   5.833   6.685
 3186SOL     OW10456   3.205   2.181   1.409
 3186SOL    HW110457   3.275   2.208   1.344
 3186SOL    HW210458   3.230   2.213   1.501
 3187SOL     OW10459   4.515   4.972   0.749
 3187SOL    HW110460   4.548   4.933   0.663
 3187SOL    HW210461   4.549   4.917   0.825
 3188SOL     OW10462   0.982   6.566   4.194
 3188SOL    HW110463   0.920   6.568   4.116
 3188SOL    HW210464   0.991   6.657   4.232
 3189SOL     OW10465   1.103   1.724   1.400
 3189SOL    HW110466   1.170   1.766   1.339
 3189SOL    HW210467   1.150   1.662   1.464
 3190SOL     OW10468   0.935   5.058   0.067
 3190SOL    HW110469   0.840   5.080   0.090
 3190SOL    HW210470   0.943   5.042   6.994
 3191SOL     OW10471   5.276   5.948   0.728
 3191SOL    HW110472   5.262   5.953   0.630
 3191SOL    HW210473   5.367   5.911   0.748
 3192SOL     OW10474   7.024   3.162   1.347
 3192SOL    HW110475   0.078   3.130   1.398
 3192SOL    HW210476   0.029   3.227   1.277
 3193SOL     OW10477   4.382   1.030   6.678
 3193SOL    HW110478   4.407   1.066   6.588
 3193SOL    HW210479   4.319   0.954   6.668
 3194SOL     OW10480   1.372   1.681   6.673
 3194SOL    HW110481   1.383   1.764   6.618
 3194SOL    HW210482   1.303   1.622   6.631
 3195SOL     OW10483   2.586   1.361   3.599
 3195SOL    HW110484   2.619   1.367   3.505
 3195SOL    HW210485   2.569   1.265   3.621
 3196SOL     OW10486   0.347   0.567   6.628
 3196SOL    HW110487   0.308   0.526   6.546
 3196SOL    HW210488   0.422   0.628   6.601
 3197SOL     OW10489   3.210   6.760   4.236
 3197SOL    HW110490   3.186   6.856   4.220
 3197SOL    HW210491   3.165   6.702   4.167
 3198SOL     OW10492   5.997   3.148   4.170
 3198SOL    HW110493   5.939   3.070   4.147
 3198SOL    HW210494   6.072   3.119   4.229
 3199SOL     OW10495   5.041   4.298   2.913
 3199SOL    HW110496   5.071   4.381   2.867
 3199SOL    HW210497   4.967   4.320   2.977
 3200SOL     OW10498   5.821   3.561   2.439
 3200SOL    HW110499   5.919   3.578   2.435
 3200SOL    HW210500   5.803   3.464   2.422
 3201SOL     OW10501   6.255   4.685   3.997
 3201SOL    HW110502   6.242   4.760   3.933
 3201SOL    HW210503   6.344   4.642   3.982
 3202SOL     OW10504   1.055   4.758   1.570
 3202SOL    HW110505   0.991   4.727   1.500
 3202SOL    HW210506   1.072   4.856   1.559
 3203SOL     OW10507   6.572   2.373   0.675
 3203SOL    HW110508   6.513   2.453   0.679
 3203SOL    HW210509   6.607   2.353   0.767
 3204SOL     OW10510   4.728   6.385   3.320
 3204SOL    HW110511   4.630   6.399   3.337
 3204SOL    HW210512   4.741   6.300   3.268
 3205SOL     OW10513   5.697   2.607   6.189
 3205SOL    HW110514   5.642   2.682   6.224
 3205SOL    HW210515   5.770   2.643   6.131
 3206SOL     OW10516   2.170   4.701   7.000
 3206SOL    HW110517   2.234   4.641   0.024
 3206SOL    HW210518   2.131   4.651   6.922
 3207SOL     OW10519   0.951   0.875   5.732
 3207SOL    HW110520   0.903   0.963   5.734
 3207SOL    HW210521   0.969   0.844   5.825
 3208SOL     OW10522   4.644   6.538   5.844
 3208SOL    HW110523   4.717   6.554   5.777
 3208SOL    HW210524   4.651   6.604   5.919
 3209SOL     OW10525   4.166   5.376   3.598
 3209SOL    HW110526   4.196   5.293   3.551
 3209SOL    HW210527   4.201   5.375   3.692
 3210SOL     OW10528   0.917   4.218   0.823
 3210SOL    HW110529   0.899   4.315   0.834
 3210SOL    HW210530   0.964   4.183   0.904
 3211SOL     OW10531   2.250   3.466   0.450
 3211SOL    HW110532   2.275   3.471   0.353
 3211SOL    HW210533   2.154   3.491   0.461
 3212SOL     OW10534   3.104   6.837   1.499
 3212SOL    HW110535   3.005   6.824   1.498
 3212SOL    HW210536   3.141   6.803   1.586
 3213SOL     OW10537   0.964   6.821   0.626
 3213SOL    HW110538   0.975   6.914   0.660
 3213SOL    HW210539   1.054   6.781   0.609
 3214SOL     OW10540   4.169   5.637   0.608
 3214SOL    HW110541   4.240   5.603   0.670
 3214SOL    HW210542   4.090   5.576   0.612
 3215SOL     OW10543   0.095   3.334   1.083
 3215SOL    HW110544   0.022   3.398   1.108
 3215SOL    HW210545   0.076   3.296   0.993
 3216SOL     OW10546   6.546   5.492   0.036
 3216SOL    HW110547   6.569   5.489   0.133
 3216SOL    HW210548   6.514   5.583   0.012
 3217SOL     OW10549   0.182   5.237   2.194
 3217SOL    HW110550   0.237   5.158   2.222
 3217SOL    HW210551   0.172   5.237   2.094
 3218SOL     OW10552   4.550   2.204   3.674
 3218SOL    HW110553   4.641   2.210   3.634
 3218SOL    HW210554   4.517   2.109   3.669
 3219SOL     OW10555   0.226   1.980   3.773
 3219SOL    HW110556   0.130   1.989   3.797
 3219SOL    HW210557   0.254   1.884   3.783
 3220SOL     OW10558   0.146   5.463   6.505
 3220SOL    HW110559   0.185   5.480   6.414
 3220SOL    HW210560   0.118   5.550   6.545
 3221SOL     OW10561   4.368   0.592   1.290
 3221SOL    HW110562   4.434   0.585   1.216
 3221SOL    HW210563   4.305   0.667   1.272
 3222SOL     OW10564   3.216   1.215   2.542
 3222SOL    HW110565   3.144   1.274   2.505
 3222SOL    HW210566   3.197   1.194   2.637
 3223SOL     OW10567   2.403   6.587   6.621
 3223SOL    HW110568   2.320   6.627   6.583
 3223SOL    HW210569   2.393   6.487   6.625
 3224SOL     OW10570   4.715   4.031   5.792
 3224SOL    HW110571   4.703   4.118   5.839
 3224SOL    HW210572   4.810   4.022   5.763
 3225SOL     OW10573   5.249   3.112   6.051
 3225SOL    HW110574   5.265   3.160   6.137
 3225SOL    HW210575   5.296   3.023   6.054
 3226SOL     OW10576   2.169   1.469   2.901
 3226SOL    HW110577   2.180   1.447   2.804
 3226SOL    HW210578   2.081   1.515   2.915
 3227SOL     OW10579   3.407   2.616   6.806
 3227SOL    HW110580   3.377   2.659   6.721
 3227SOL    HW210581   3.507   2.620   6.813
 3228SOL     OW10582   7.019   3.964   2.047
 3228SOL    HW110583   0.030   4.029   2.113
 3228SOL    HW210584   7.016   3.872   2.088
 3229SOL     OW10585   4.206   0.538   4.810
 3229SOL    HW110586   4.130   0.555   4.873
 3229SOL    HW210587   4.220   0.440   4.799
 3230SOL     OW10588   2.495   3.925   5.555
 3230SOL    HW110589   2.522   3.911   5.459
 3230SOL    HW210590   2.487   3.837   5.601
 3231SOL     OW10591   2.639   0.051   1.253
 3231SOL    HW110592   2.582   0.122   1.295
 3231SOL    HW210593   2.735   0.079   1.256
 3232SOL     OW10594   4.873   6.594   5.136
 3232SOL    HW110595   4.872   6.681   5.186
 3232SOL    HW210596   4.801   6.595   5.066
 3233SOL     OW10597   0.896   2.313   1.565
 3233SOL    HW110598   0.952   2.278   1.640
 3233SOL    HW210599   0.927   2.406   1.542
 3234SOL     OW10600   0.327   2.220   6.907
 3234SOL    HW110601   0.410   2.182   6.948
 3234SOL    HW210602   0.247   2.171   6.943
 3235SOL     OW10603   6.191   0.658   2.685
 3235SOL    HW110604   6.093   0.636   2.684
 3235SOL    HW210605   6.241   0.587   2.734
 3236SOL     OW10606   1.521   3.051   0.594
 3236SOL    HW110607   1.509   2.957   0.624
 3236SOL    HW210608   1.617   3.067   0.573
 3237SOL     OW10609   5.496   1.442   3.575
 3237SOL    HW110610   5.570   1.426   3.641
 3237SOL    HW210611   5.459   1.534   3.588
 3238SOL     OW10612   6.767   5.625   0.655
 3238SOL    HW110613   6.744   5.573   0.573
 3238SOL    HW210614   6.862   5.657   0.650
 3239SOL     OW10615   6.774   1.663   2.633
 3239SOL    HW110616   6.830   1.723   2.576
 3239SOL    HW210617   6.819   1.650   2.722
 3240SOL     OW10618   6.686   6.731   6.293
 3240SOL    HW110619   6.638   6.819   6.286
 3240SOL    HW210620   6.773   6.745   6.339
 3241SOL     OW10621   4.420   1.188   4.824
 3241SOL    HW110622   4.517   1.175   4.839
 3241SOL    HW210623   4.386   1.260   4.885
 3242SOL     OW10624   4.145   3.704   6.844
 3242SOL    HW110625   4.209   3.778   6.823
 3242SOL    HW210626   4.074   3.700   6.773
 3243SOL     OW10627   4.366   4.074   0.793
 3243SOL    HW110628   4.411   3.988   0.769
 3243SOL    HW210629   4.268   4.065   0.781
 3244SOL     OW10630   4.576   5.773   6.970
 3244SOL    HW110631   4.661   5.784   7.021
 3244SOL    HW210632   4.592   5.796   6.874
 3245SOL     OW10633   5.404   3.120   5.115
 3245SOL    HW110634   5.363   3.094   5.028
 3245SOL    HW210635   5.502   3.098   5.113
 3246SOL     OW10636   5.540   0.334   2.365
 3246SOL    HW110637   5.614   0.294   2.418
 3246SOL    HW210638   5.498   0.408   2.418
 3247SOL     OW10639   6.667   4.460   2.630
 3247SOL    HW110640   6.702   4.476   2.537
 3247SOL    HW210641   6.692   4.368   2.659
 3248SOL     OW10642   6.497   3.671   1.433
 3248SOL    HW110643   6.408   3.709   1.459
 3248SOL    HW210644   6.493   3.635   1.340
 3249SOL     OW10645   4.015   3.173   4.326
 3249SOL    HW110646   3.984   3.119   4.404
 3249SOL    HW210647   4.079   3.243   4.357
 3250SOL     OW10648   5.651   0.203   2.019
 3250SOL    HW110649   5.552   0.197   2.036
 3250SOL    HW210650   5.687   0.288   2.057
 3251SOL     OW10651   3.199   0.959   3.619
 3251SOL    HW110652   3.151   0.927   3.537
 3251SOL    HW210653   3.211   1.058   3.614
 3252SOL     OW10654   2.278   0.945   2.868
 3252SOL    HW110655   2.295   1.021   2.930
 3252SOL    HW210656   2.267   0.861   2.920
 3253SOL     OW10657   4.724   4.391   1.903
 3253SOL    HW110658   4.776   4.306   1.914
 3253SOL    HW210659   4.628   4.374   1.927
 3254SOL     OW10660   4.953   5.776   5.659
 3254SOL    HW110661   5.020   5.797   5.588
 3254SOL    HW210662   4.863   5.761   5.617
 3255SOL     OW10663   5.326   6.465   0.318
 3255SOL    HW110664   5.241   6.483   0.369
 3255SOL    HW210665   5.398   6.440   0.383
 3256SOL     OW10666   3.083   0.502   0.617
 3256SOL    HW110667   3.043   0.523   0.528
 3256SOL    HW210668   3.051   0.412   0.648
 3257SOL     OW10669   1.448   1.877   2.044
 3257SOL    HW110670   1.501   1.806   2.091
 3257SOL    HW210671   1.503   1.960   2.035
 3258SOL     OW10672   4.518   5.146   2.519
 3258SOL    HW110673   4.458   5.197   2.458
 3258SOL    HW210674   4.473   5.061   2.548
 3259SOL     OW10675   5.263   5.276   4.246
 3259SOL    HW110676   5.261   5.248   4.150
 3259SOL    HW210677   5.288   5.372   4.253
 3260SOL     OW10678   0.870   1.847   1.331
 3260SOL    HW110679   0.882   1.947   1.329
 3260SOL    HW210680   0.955   1.804   1.359
 3261SOL     OW10681   5.873   0.680   1.390
 3261SOL    HW110682   5.794   0.728   1.353
 3261SOL    HW210683   5.907   0.614   1.322
 3262SOL     OW10684   3.049   2.199   2.665
 3262SOL    HW110685   2.956   2.214   2.698
 3262SOL    HW210686   3.046   2.172   2.569
 3263SOL     OW10687   2.544   0.969   3.369
 3263SOL    HW110688   2.579   1.023   3.293
 3263SOL    HW210689   2.534   0.874   3.340
 3264SOL     OW10690   1.179   3.916   0.993
 3264SOL    HW110691   1.154   3.981   1.065
 3264SOL    HW210692   1.182   3.963   0.905
 3265SOL     OW10693   5.496   0.716   6.568
 3265SOL    HW110694   5.469   0.696   6.662
 3265SOL    HW210695   5.415   0.739   6.514
 3266SOL     OW10696   1.853   3.946   0.425
 3266SOL    HW110697   1.887   4.040   0.421
 3266SOL    HW210698   1.844   3.918   0.520
 3267SOL     OW10699   3.314   6.432   0.942
 3267SOL    HW110700   3.322   6.333   0.939
 3267SOL    HW210701   3.312   6.469   0.849
 3268SOL     OW10702   1.334   3.630   1.694
 3268SOL    HW110703   1.239   3.629   1.722
 3268SOL    HW210704   1.340   3.607   1.596
 3269SOL     OW10705   4.972   5.712   2.065
 3269SOL    HW110706   4.950   5.770   1.987
 3269SOL    HW210707   5.049   5.751   2.115
 3270SOL     OW10708   1.010   4.273   6.030
 3270SOL    HW110709   0.922   4.226   6.036
 3270SOL    HW210710   1.029   4.295   5.934
 3271SOL     OW10711   5.698   3.653   2.705
 3271SOL    HW110712   5.627   3.584   2.720
 3271SOL    HW210713   5.754   3.625   2.627
 3272SOL     OW10714   3.494   4.716   5.984
 3272SOL    HW110715   3.528   4.770   5.907
 3272SOL    HW210716   3.448   4.776   6.050
 3273SOL     OW10717   0.151   6.240   0.790
 3273SOL    HW110718   0.144   6.197   0.880
 3273SOL    HW210719   0.186   6.173   0.724
 3274SOL     OW10720   4.991   0.966   0.699
 3274SOL    HW110721   5.075   0.988   0.648
 3274SOL    HW210722   5.011   0.965   0.797
 3275SOL     OW10723   6.034   1.715   6.918
 3275SOL    HW110724   6.004   1.803   6.955
 3275SOL    HW210725   6.087   1.666   6.986
 3276SOL     OW10726   2.585   5.785   0.364
 3276SOL    HW110727   2.578   5.710   0.430
 3276SOL    HW210728   2.672   5.778   0.315
 3277SOL     OW10729   3.700   0.040   6.495
 3277SOL    HW110730   3.639   0.016   6.420
 3277SOL    HW210731   3.790   0.064   6.458
 3278SOL     OW10732   0.847   0.970   5.220
 3278SOL    HW110733   0.816   0.933   5.132
 3278SOL    HW210734   0.867   0.895   5.283
 3279SOL     OW10735   5.153   0.286   0.591
 3279SOL    HW110736   5.222   0.229   0.547
 3279SOL    HW210737   5.064   0.271   0.548
 3280SOL     OW10738   3.962   4.902   4.273
 3280SOL    HW110739   4.014   4.987   4.262
 3280SOL    HW210740   4.022   4.824   4.256
 3281SOL     OW10741   1.902   4.918   1.641
 3281SOL    HW110742   1.986   4.962   1.674
 3281SOL    HW210743   1.823   4.961   1.685
 3282SOL     OW10744   0.009   4.903   5.572
 3282SOL    HW110745   0.013   4.848   5.489
 3282SOL    HW210746   0.102   4.918   5.606
 3283SOL     OW10747   3.666   0.093   1.097
 3283SOL    HW110748   3.670   0.119   1.194
 3283SOL    HW210749   3.759   0.076   1.064
 3284SOL     OW10750   0.290   5.084   6.981
 3284SOL    HW110751   0.317   5.055   6.889
 3284SOL    HW210752   0.336   5.028   0.023
 3285SOL     OW10753   4.199   2.235   3.602
 3285SOL    HW110754   4.267   2.172   3.639
 3285SOL    HW210755   4.182   2.213   3.506
 3286SOL     OW10756   3.352   2.828   2.224
 3286SOL    HW110757   3.421   2.842   2.295
 3286SOL    HW210758   3.394   2.782   2.146
 3287SOL     OW10759   0.818   0.902   0.036
 3287SOL    HW110760   0.817   0.803   0.048
 3287SOL    HW210761   0.821   0.924   6.964
 3288SOL     OW10762   0.818   5.648   5.530
 3288SOL    HW110763   0.749   5.675   5.597
 3288SOL    HW210764   0.894   5.603   5.577
 3289SOL     OW10765   2.830   0.180   5.609
 3289SOL    HW110766   2.782   0.147   5.528
 3289SOL    HW210767   2.791   0.268   5.638
 3290SOL     OW10768   0.327   6.829   1.557
 3290SOL    HW110769   0.328   6.786   1.648
 3290SOL    HW210770   0.402   6.791   1.502
 3291SOL     OW10771   1.248   6.800   0.580
 3291SOL    HW110772   1.321   6.770   0.642
 3291SOL    HW210773   1.278   6.786   0.485
 3292SOL     OW10774   0.391   1.419   0.372
 3292SOL    HW110775   0.345   1.334   0.395
 3292SOL    HW210776   0.450   1.405   0.292
 3293SOL     OW10777   7.018   3.689   2.155
 3293SOL    HW110778   6.992   3.609   2.102
 3293SOL    HW210779   7.006   3.671   2.253
 3294SOL     OW10780   5.965   2.003   6.514
 3294SOL    HW110781   6.020   2.019   6.433
 3294SOL    HW210782   5.923   1.912   6.509
 3295SOL     OW10783   1.292   2.666   2.077
 3295SOL    HW110784   1.196   2.641   2.087
 3295SOL    HW210785   1.299   2.756   2.034
 3296SOL     OW10786   1.226   6.967   2.729
 3296SOL    HW110787   1.135   7.008   2.719
 3296SOL    HW210788   1.283   0.001   2.786
 3297SOL     OW10789   2.904   0.822   5.195
 3297SOL    HW110790   2.995   0.828   5.236
 3297SOL    HW210791   2.903   0.871   5.108
 3298SOL     OW10792   6.030   1.819   5.271
 3298SOL    HW110793   6.008   1.891   5.205
 3298SOL    HW210794   6.029   1.730   5.225
 3299SOL     OW10795   3.115   5.900   2.808
 3299SOL    HW110796   3.060   5.937   2.883
 3299SOL    HW210797   3.071   5.921   2.721
 3300SOL     OW10798   6.483   0.892   5.084
 3300SOL    HW110799   6.506   0.836   5.163
 3300SOL    HW210800   6.432   0.836   5.018
 3301SOL     OW10801   1.580   3.119   3.585
 3301SOL    HW110802   1.584   3.031   3.634
 3301SOL    HW210803   1.556   3.102   3.489
 3302SOL     OW10804   0.894   4.709   5.405
 3302SOL    HW110805   0.892   4.725   5.504
 3302SOL    HW210806   0.868   4.793   5.357
 3303SOL     OW10807   3.514   4.098   1.569
 3303SOL    HW110808   3.474   4.006   1.570
 3303SOL    HW210809   3.479   4.150   1.647
 3304SOL     OW10810   1.210   5.620   4.048
 3304SOL    HW110811   1.212   5.714   4.012
 3304SOL    HW210812   1.264   5.561   3.987
 3305SOL     OW10813   2.016   0.993   2.502
 3305SOL    HW110814   2.099   0.942   2.479
 3305SOL    HW210815   1.991   1.052   2.425
 3306SOL     OW10816   2.012   5.412   5.455
 3306SOL    HW110817   2.039   5.408   5.358
 3306SOL    HW210818   1.927   5.362   5.468
 3307SOL     OW10819   0.233   5.401   6.765
 3307SOL    HW110820   0.228   5.449   6.678
 3307SOL    HW210821   0.147   5.414   6.815
 3308SOL     OW10822   2.597   6.497   0.900
 3308SOL    HW110823   2.531   6.484   0.826
 3308SOL    HW210824   2.631   6.591   0.898
 3309SOL     OW10825   0.196   6.066   3.046
 3309SOL    HW110826   0.175   6.008   2.967
 3309SOL    HW210827   0.124   6.055   3.115
 3310SOL     OW10828   0.066   3.382   6.642
 3310SOL    HW110829   0.012   3.368   6.725
 3310SOL    HW210830   0.086   3.480   6.631
 3311SOL     OW10831   2.443   3.979   1.179
 3311SOL    HW110832   2.488   3.891   1.166
 3311SOL    HW210833   2.398   3.981   1.268
 3312SOL     OW10834   3.890   4.539   5.735
 3312SOL    HW110835   3.986   4.533   5.706
 3312SOL    HW210836   3.876   4.479   5.814
 3313SOL     OW10837   0.866   5.705   3.463
 3313SOL    HW110838   0.853   5.621   3.411
 3313SOL    HW210839   0.930   5.765   3.415
 3314SOL     OW10840   2.570   1.617   2.760
 3314SOL    HW110841   2.552   1.619   2.662
 3314SOL    HW210842   2.659   1.659   2.778
 3315SOL     OW10843   6.489   3.730   4.232
 3315SOL    HW110844   6.569   3.780   4.198
 3315SOL    HW210845   6.463   3.659   4.166
 3316SOL     OW10846   4.996   1.557   5.659
 3316SOL    HW110847   5.049   1.473   5.645
 3316SOL    HW210848   4.904   1.545   5.622
 3317SOL     OW10849   4.360   3.028   1.694
 3317SOL    HW110850   4.285   2.969   1.722
 3317SOL    HW210851   4.435   3.023   1.760
 3318SOL     OW10852   1.841   1.138   1.229
 3318SOL    HW110853   1.834   1.039   1.231
 3318SOL    HW210854   1.764   1.179   1.278
 3319SOL     OW10855   6.567   1.521   4.248
 3319SOL    HW110856   6.492   1.457   4.260
 3319SOL    HW210857   6.639   1.477   4.194
 3320SOL     OW10858   6.275   6.986   5.082
 3320SOL    HW110859   6.300   7.018   5.174
 3320SOL    HW210860   6.202   6.918   5.089
 3321SOL     OW10861   4.663   1.513   0.409
 3321SOL    HW110862   4.736   1.541   0.472
 3321SOL    HW210863   4.576   1.512   0.458
 3322SOL     OW10864   6.267   3.159   1.020
 3322SOL    HW110865   6.347   3.159   1.080
 3322SOL    HW210866   6.256   3.069   0.979
 3323SOL     OW10867   3.166   2.922   0.402
 3323SOL    HW110868   3.094   2.855   0.416
 3323SOL    HW210869   3.254   2.884   0.429
 3324SOL     OW10870   3.889   5.502   6.552
 3324SOL    HW110871   3.793   5.523   6.572
 3324SOL    HW210872   3.946   5.527   6.630
 3325SOL     OW10873   0.852   3.068   0.169
 3325SOL    HW110874   0.767   3.101   0.211
 3325SOL    HW210875   0.838   2.976   0.132
 3326SOL     OW10876   4.700   1.960   1.402
 3326SOL    HW110877   4.627   1.996   1.344
 3326SOL    HW210878   4.682   1.865   1.424
 3327SOL     OW10879   2.905   5.606   1.760
 3327SOL    HW110880   2.966   5.587   1.837
 3327SOL    HW210881   2.829   5.542   1.761
 3328SOL     OW10882   4.199   2.323   0.426
 3328SOL    HW110883   4.130   2.263   0.466
 3328SOL    HW210884   4.220   2.396   0.491
 3329SOL     OW10885   4.771   0.592   5.056
 3329SOL    HW110886   4.763   0.496   5.028
 3329SOL    HW210887   4.833   0.640   4.995
 3330SOL     OW10888   6.320   4.864   1.349
 3330SOL    HW110889   6.274   4.852   1.261
 3330SOL    HW210890   6.418   4.870   1.334
 3331SOL     OW10891   2.117   3.005   1.483
 3331SOL    HW110892   2.052   3.008   1.406
 3331SOL    HW210893   2.158   3.095   1.494
 3332SOL     OW10894   6.115   5.171   6.807
 3332SOL    HW110895   6.126   5.074   6.784
 3332SOL    HW210896   6.035   5.181   6.868
 3333SOL     OW10897   4.347   4.213   6.527
 3333SOL    HW110898   4.319   4.208   6.623
 3333SOL    HW210899   4.394   4.128   6.502
 3334SOL     OW10900   2.956   3.828   1.515
 3334SOL    HW110901   2.916   3.859   1.428
 3334SOL    HW210902   2.997   3.907   1.562
 3335SOL     OW10903   5.006   7.001   5.015
 3335SOL    HW110904   5.102   6.980   5.032
 3335SOL    HW210905   4.963   0.006   5.100
 3336SOL     OW10906   2.420   6.422   4.864
 3336SOL    HW110907   2.442   6.329   4.893
 3336SOL    HW210908   2.431   6.484   4.942
 3337SOL     OW10909   3.225   3.999   2.689
 3337SOL    HW110910   3.125   3.996   2.682
 3337SOL    HW210911   3.260   4.072   2.631
 3338SOL     OW10912   5.288   3.329   1.794
 3338SOL    HW110913   5.348   3.249   1.784
 3338SOL    HW210914   5.343   3.411   1.804
 3339SOL     OW10915   6.918   0.392   6.771
 3339SOL    HW110916   6.850   0.318   6.770
 3339SOL    HW210917   6.891   0.461   6.839
 3340SOL     OW10918   3.476   1.769   2.275
 3340SOL    HW110919   3.555   1.789   2.334
 3340SOL    HW210920   3.509   1.750   2.182
 3341SOL     OW10921   1.285   5.598   3.345
 3341SOL    HW110922   1.372   5.549   3.359
 3341SOL    HW210923   1.284   5.637   3.253
 3342SOL     OW10924   2.374   6.976   4.329
 3342SOL    HW110925   2.303   6.922   4.285
 3342SOL    HW210926   2.337   0.039   4.356
 3343SOL     OW10927   5.738   3.304   0.601
 3343SOL    HW110928   5.676   3.328   0.676
 3343SOL    HW210929   5.739   3.377   0.533
 3344SOL     OW10930   5.481   3.530   4.297
 3344SOL    HW110931   5.560   3.549   4.238
 3344SOL    HW210932   5.404   3.501   4.241
 3345SOL     OW10933   1.533   3.619   5.727
 3345SOL    HW110934   1.546   3.521   5.742
 3345SOL    HW210935   1.551   3.641   5.631
 3346SOL     OW10936   1.711   0.717   1.025
 3346SOL    HW110937   1.742   0.782   0.956
 3346SOL    HW210938   1.613   0.727   1.039
 3347SOL     OW10939   0.940   3.515   5.399
 3347SOL    HW110940   0.859   3.572   5.386
 3347SOL    HW210941   1.014   3.571   5.436
 3348SOL     OW10942   3.517   3.866   4.220
 3348SOL    HW110943   3.476   3.849   4.131
 3348SOL    HW210944   3.571   3.786   4.248
 3349SOL     OW10945   0.893   6.180   2.713
 3349SOL    HW110946   0.959   6.125   2.765
 3349SOL    HW210947   0.851   6.248   2.773
 3350SOL     OW10948   0.454   2.562   6.477
 3350SOL    HW110949   0.506   2.582   6.560
 3350SOL    HW210950   0.517   2.541   6.402
 3351SOL     OW10951   4.889   1.389   1.974
 3351SOL    HW110952   4.797   1.420   2.000
 3351SOL    HW210953   4.957   1.450   2.014
 3352SOL     OW10954   6.819   2.338   0.544
 3352SOL    HW110955   6.818   2.341   0.444
 3352SOL    HW210956   6.725   2.344   0.578
 3353SOL     OW10957   1.857   5.773   1.536
 3353SOL    HW110958   1.824   5.857   1.494
 3353SOL    HW210959   1.957   5.771   1.533
 3354SOL     OW10960   4.655   2.549   5.351
 3354SOL    HW110961   4.735   2.600   5.317
 3354SOL    HW210962   4.579   2.561   5.288
 3355SOL     OW10963   2.291   1.898   6.706
 3355SOL    HW110964   2.290   1.829   6.634
 3355SOL    HW210965   2.316   1.856   6.793
 3356SOL     OW10966   0.479   4.643   5.738
 3356SOL    HW110967   0.384   4.673   5.750
 3356SOL    HW210968   0.540   4.702   5.791
 3357SOL     OW10969   2.336   4.325   1.716
 3357SOL    HW110970   2.255   4.316   1.658
 3357SOL    HW210971   2.394   4.398   1.681
 3358SOL     OW10972   4.413   1.214   0.880
 3358SOL    HW110973   4.377   1.139   0.824
 3358SOL    HW210974   4.500   1.186   0.922
 3359SOL     OW10975   0.419   0.253   3.178
 3359SOL    HW110976   0.393   0.311   3.100
 3359SOL    HW210977   0.417   0.157   3.151
 3360SOL     OW10978   0.833   1.213   6.634
 3360SOL    HW110979   0.793   1.160   6.559
 3360SOL    HW210980   0.886   1.153   6.693
 3361SOL     OW10981   1.306   4.794   4.163
 3361SOL    HW110982   1.302   4.780   4.262
 3361SOL    HW210983   1.270   4.885   4.141
 3362SOL     OW10984   3.494   1.279   2.478
 3362SOL    HW110985   3.399   1.308   2.492
 3362SOL    HW210986   3.513   1.275   2.380
 3363SOL     OW10987   6.152   6.872   1.618
 3363SOL    HW110988   6.098   6.923   1.552
 3363SOL    HW210989   6.244   6.857   1.582
 3364SOL     OW10990   1.379   4.625   3.800
 3364SOL    HW110991   1.292   4.626   3.850
 3364SOL    HW210992   1.411   4.719   3.787
 3365SOL     OW10993   6.572   2.189   5.180
 3365SOL    HW110994   6.605   2.183   5.274
 3365SOL    HW210995   6.476   2.219   5.180
 3366SOL     OW10996   5.860   6.530   4.782
 3366SOL    HW110997   5.897   6.458   4.840
 3366SOL    HW210998   5.761   6.537   4.797
 3367SOL     OW10999   3.735   2.793   1.685
 3367SOL    HW111000   3.671   2.817   1.613
 3367SOL    HW211001   3.700   2.824   1.773
 3368SOL     OW11002   0.672   4.860   5.846
 3368SOL    HW111003   0.746   4.927   5.848
 3368SOL    HW211004   0.584   4.907   5.842
 3369SOL     OW11005   3.819   2.507   6.623
 3369SOL    HW111006   3.776   2.510   6.713
 3369SOL    HW211007   3.917   2.523   6.632
 3370SOL     OW11008   0.050   5.681   6.644
 3370SOL    HW111009   6.991   5.685   6.590
 3370SOL    HW211010   0.076   5.773   6.672
 3371SOL     OW11011   2.182   2.953   2.126
 3371SOL    HW111012   2.141   3.033   2.169
 3371SOL    HW211013   2.143   2.939   2.035
 3372SOL     OW11014   0.649   1.988   1.056
 3372SOL    HW111015   0.601   1.918   1.108
 3372SOL    HW211016   0.739   1.954   1.029
 3373SOL     OW11017   6.866   1.745   3.142
 3373SOL    HW111018   6.861   1.845   3.143
 3373SOL    HW211019   6.930   1.714   3.212
 3374SOL     OW11020   1.342   6.350   4.821
 3374SOL    HW111021   1.405   6.409   4.872
 3374SOL    HW211022   1.367   6.348   4.725
 3375SOL     OW11023   0.044   5.229   6.445
 3375SOL    HW111024   0.071   5.319   6.479
 3375SOL    HW211025   0.058   5.161   6.517
 3376SOL     OW11026   3.988   3.093   3.498
 3376SOL    HW111027   3.976   3.117   3.595
 3376SOL    HW211028   4.084   3.069   3.482
 3377SOL     OW11029   6.657   6.367   6.060
 3377SOL    HW111030   6.741   6.383   6.112
 3377SOL    HW211031   6.642   6.443   5.997
 3378SOL     OW11032   0.584   1.352   0.197
 3378SOL    HW111033   0.673   1.396   0.210
 3378SOL    HW211034   0.595   1.253   0.194
 3379SOL     OW11035   6.363   6.812   6.303
 3379SOL    HW111036   6.278   6.850   6.266
 3379SOL    HW211037   6.356   6.804   6.402
 3380SOL     OW11038   5.862   6.800   5.226
 3380SOL    HW111039   5.962   6.798   5.234
 3380SOL    HW211040   5.827   6.888   5.258
 3381SOL     OW11041   0.929   2.720   1.409
 3381SOL    HW111042   0.884   2.637   1.442
 3381SOL    HW211043   0.954   2.709   1.313
 3382SOL     OW11044   0.465   2.451   0.900
 3382SOL    HW111045   0.449   2.356   0.929
 3382SOL    HW211046   0.547   2.486   0.944
 3383SOL     OW11047   4.567   5.648   1.571
 3383SOL    HW111048   4.508   5.590   1.516
 3383SOL    HW211049   4.662   5.638   1.540
 3384SOL     OW11050   2.589   3.479   6.196
 3384SOL    HW111051   2.647   3.442   6.124
 3384SOL    HW211052   2.612   3.575   6.212
 3385SOL     OW11053   6.481   3.301   4.091
 3385SOL    HW111054   6.425   3.289   4.009
 3385SOL    HW211055   6.446   3.377   4.145
 3386SOL     OW11056   5.590   4.603   6.854
 3386SOL    HW111057   5.564   4.582   6.948
 3386SOL    HW211058   5.631   4.522   6.812
 3387SOL     OW11059   3.379   0.556   3.072
 3387SOL    HW111060   3.341   0.639   3.112
 3387SOL    HW211061   3.328   0.476   3.104
 3388SOL     OW11062   5.147   3.118   1.785
 3388SOL    HW111063   5.189   3.209   1.779
 3388SOL    HW211064   5.062   3.124   1.838
 3389SOL     OW11065   5.507   5.181   6.246
 3389SOL    HW111066   5.588   5.142   6.202
 3389SOL    HW211067   5.499   5.277   6.222
 3390SOL     OW11068   5.007   5.988   6.562
 3390SOL    HW111069   5.106   5.994   6.577
 3390SOL    HW211070   4.989   5.952   6.471
 3391SOL     OW11071   4.908   3.155   5.289
 3391SOL    HW111072   4.831   3.208   5.325
 3391SOL    HW211073   4.979   3.218   5.257
 3392SOL     OW11074   2.731   6.963   3.548
 3392SOL    HW111075   2.798   6.992   3.479
 3392SOL    HW211076   2.641   6.954   3.505
 3393SOL     OW11077   0.014   6.349   6.911
 3393SOL    HW111078   0.010   6.249   6.910
 3393SOL    HW211079   6.949   6.386   6.930
 3394SOL     OW11080   5.265   3.739   1.859
 3394SOL    HW111081   5.166   3.740   1.872
 3394SOL    HW211082   5.287   3.698   1.770
 3395SOL     OW11083   5.273   3.049   3.105
 3395SOL    HW111084   5.361   3.010   3.079
 3395SOL    HW211085   5.267   3.055   3.204
 3396SOL     OW11086   4.531   1.859   3.666
 3396SOL    HW111087   4.525   1.833   3.763
 3396SOL    HW211088   4.511   1.780   3.609
 3397SOL     OW11089   2.719   0.402   5.678
 3397SOL    HW111090   2.726   0.472   5.607
 3397SOL    HW211091   2.739   0.442   5.767
 3398SOL     OW11092   0.802   6.607   4.835
 3398SOL    HW111093   0.879   6.620   4.898
 3398SOL    HW211094   0.720   6.651   4.873
 3399SOL     OW11095   5.813   4.243   3.661
 3399SOL    HW111096   5.908   4.231   3.690
 3399SOL    HW211097   5.752   4.188   3.719
 3400SOL     OW11098   4.425   3.263   5.819
 3400SOL    HW111099   4.331   3.229   5.818
 3400SOL    HW211100   4.433   3.342   5.759
 3401SOL     OW11101   0.029   3.006   1.035
 3401SOL    HW111102   0.031   3.090   0.981
 3401SOL    HW211103   0.001   3.027   1.129
 3402SOL     OW11104   4.191   5.895   6.818
 3402SOL    HW111105   4.094   5.913   6.803
 3402SOL    HW211106   4.208   5.887   6.916
 3403SOL     OW11107   3.747   5.677   4.884
 3403SOL    HW111108   3.823   5.660   4.946
 3403SOL    HW211109   3.770   5.643   4.793
 3404SOL     OW11110   4.992   1.243   0.048
 3404SOL    HW111111   4.987   1.232   6.974
 3404SOL    HW211112   4.902   1.269   0.083
 3405SOL     OW11113   6.733   3.901   4.617
 3405SOL    HW111114   6.768   3.968   4.683
 3405SOL    HW211115   6.701   3.949   4.535
 3406SOL     OW11116   0.897   4.421   1.466
 3406SOL    HW111117   0.988   4.384   1.449
 3406SOL    HW211118   0.886   4.508   1.418
 3407SOL     OW11119   1.612   5.039   6.082
 3407SOL    HW111120   1.671   5.034   6.002
 3407SOL    HW211121   1.635   4.965   6.145
 3408SOL     OW11122   4.843   3.837   5.208
 3408SOL    HW111123   4.871   3.911   5.147
 3408SOL    HW211124   4.821   3.755   5.155
 3409SOL     OW11125   3.433   6.708   6.662
 3409SOL    HW111126   3.475   6.621   6.688
 3409SOL    HW211127   3.349   6.691   6.611
 3410SOL     OW11128   6.583   6.417   0.972
 3410SOL    HW111129   6.666   6.361   0.967
 3410SOL    HW211130   6.596   6.501   0.920
 3411SOL     OW11131   0.563   2.908   1.983
 3411SOL    HW111132   0.631   2.962   1.933
 3411SOL    HW211133   0.472   2.925   1.944
 3412SOL     OW11134   4.518   2.681   0.407
 3412SOL    HW111135   4.581   2.644   0.476
 3412SOL    HW211136   4.424   2.675   0.442
 3413SOL     OW11137   5.828   1.346   0.894
 3413SOL    HW111138   5.859   1.418   0.957
 3413SOL    HW211139   5.735   1.319   0.919
 3414SOL     OW11140   3.403   0.951   5.617
 3414SOL    HW111141   3.441   0.934   5.708
 3414SOL    HW211142   3.478   0.957   5.551
 3415SOL     OW11143   1.975   3.770   4.614
 3415SOL    HW111144   1.995   3.675   4.587
 3415SOL    HW211145   2.060   3.815   4.640
 3416SOL     OW11146   6.923   5.727   0.929
 3416SOL    HW111147   6.932   5.758   0.834
 3416SOL    HW211148   7.011   5.738   0.975
 3417SOL     OW11149   0.722   6.404   2.843
 3417SOL    HW111150   0.785   6.417   2.920
 3417SOL    HW211151   0.710   6.490   2.794
 3418SOL     OW11152   3.709   0.259   3.820
 3418SOL    HW111153   3.780   0.243   3.751
 3418SOL    HW211154   3.667   0.172   3.844
 3419SOL     OW11155   2.688   5.951   4.988
 3419SOL    HW111156   2.788   5.957   4.989
 3419SOL    HW211157   2.660   5.856   5.000
 3420SOL     OW11158   5.599   3.229   4.467
 3420SOL    HW111159   5.559   3.254   4.555
 3420SOL    HW211160   5.601   3.309   4.407
 3421SOL     OW11161   5.344   1.067   5.128
 3421SOL    HW111162   5.431   1.113   5.148
 3421SOL    HW211163   5.340   0.981   5.180
 3422SOL     OW11164   2.028   0.530   0.740
 3422SOL    HW111165   2.014   0.514   0.838
 3422SOL    HW211166   2.058   0.445   0.696
 3423SOL     OW11167   0.417   4.560   6.702
 3423SOL    HW111168   0.384   4.466   6.705
 3423SOL    HW211169   0.353   4.620   6.750
 3424SOL     OW11170   2.971   6.612   1.337
 3424SOL    HW111171   2.942   6.664   1.417
 3424SOL    HW211172   2.913   6.636   1.259
 3425SOL     OW11173   5.750   4.830   2.824
 3425SOL    HW111174   5.686   4.763   2.860
 3425SOL    HW211175   5.792   4.881   2.899
 3426SOL     OW11176   3.991   2.981   0.584
 3426SOL    HW111177   3.891   2.987   0.588
 3426SOL    HW211178   4.022   3.012   0.494
 3427SOL     OW11179   6.778   0.268   0.292
 3427SOL    HW111180   6.742   0.284   0.200
 3427SOL    HW211181   6.702   0.248   0.354
 3428SOL     OW11182   2.216   5.066   0.010
 3428SOL    HW111183   2.250   5.032   6.948
 3428SOL    HW211184   2.273   5.031   0.084
 3429SOL     OW11185   0.636   1.940   0.452
 3429SOL    HW111186   0.651   2.020   0.394
 3429SOL    HW211187   0.538   1.926   0.465
 3430SOL     OW11188   1.324   6.916   5.119
 3430SOL    HW111189   1.294   6.999   5.166
 3430SOL    HW211190   1.415   6.931   5.080
 3431SOL     OW11191   0.876   6.843   1.129
 3431SOL    HW111192   0.893   6.752   1.168
 3431SOL    HW211193   0.800   6.886   1.177
 3432SOL     OW11194   1.740   2.651   6.864
 3432SOL    HW111195   1.800   2.718   6.820
 3432SOL    HW211196   1.715   2.684   6.955
 3433SOL     OW11197   1.151   0.384   5.661
 3433SOL    HW111198   1.108   0.298   5.635
 3433SOL    HW211199   1.242   0.389   5.620
 3434SOL     OW11200   4.388   1.335   1.181
 3434SOL    HW111201   4.462   1.305   1.120
 3434SOL    HW211202   4.352   1.423   1.149
 3435SOL     OW11203   0.241   1.434   0.650
 3435SOL    HW111204   0.225   1.348   0.601
 3435SOL    HW211205   0.305   1.418   0.725
 3436SOL     OW11206   3.846   6.253   6.373
 3436SOL    HW111207   3.776   6.240   6.443
 3436SOL    HW211208   3.920   6.310   6.409
 3437SOL     OW11209   2.357   0.757   5.881
 3437SOL    HW111210   2.445   0.751   5.835
 3437SOL    HW211211   2.293   0.807   5.824
 3438SOL     OW11212   1.179   2.786   0.179
 3438SOL    HW111213   1.133   2.722   0.118
 3438SOL    HW211214   1.130   2.790   0.266
 3439SOL     OW11215   2.084   6.229   4.941
 3439SOL    HW111216   2.058   6.202   5.034
 3439SOL    HW211217   2.183   6.229   4.933
 3440SOL     OW11218   3.188   3.583   1.170
 3440SOL    HW111219   3.185   3.519   1.246
 3440SOL    HW211220   3.220   3.536   1.088
 3441SOL     OW11221   5.105   6.635   5.023
 3441SOL    HW111222   5.100   6.731   5.049
 3441SOL    HW211223   5.035   6.583   5.071
 3442SOL     OW11224   2.418   4.782   1.926
 3442SOL    HW111225   2.458   4.873   1.924
 3442SOL    HW211226   2.327   4.787   1.967
 3443SOL     OW11227   5.252   6.273   1.569
 3443SOL    HW111228   5.349   6.252   1.557
 3443SOL    HW211229   5.233   6.288   1.666
 3444SOL     OW11230   4.548   5.204   0.305
 3444SOL    HW111231   4.486   5.272   0.266
 3444SOL    HW211232   4.512   5.172   0.393
 3445SOL     OW11233   6.604   5.381   3.453
 3445SOL    HW111234   6.654   5.297   3.431
 3445SOL    HW211235   6.655   5.460   3.420
 3446SOL     OW11236   5.864   1.195   2.607
 3446SOL    HW111237   5.943   1.201   2.546
 3446SOL    HW211238   5.800   1.126   2.574
 3447SOL     OW11239   6.053   5.367   0.794
 3447SOL    HW111240   5.989   5.321   0.732
 3447SOL    HW211241   6.118   5.421   0.742
 3448SOL     OW11242   3.537   0.597   0.678
 3448SOL    HW111243   3.570   0.555   0.594
 3448SOL    HW211244   3.527   0.526   0.748
 3449SOL     OW11245   5.954   6.481   4.053
 3449SOL    HW111246   5.991   6.478   3.960
 3449SOL    HW211247   5.905   6.567   4.067
 3450SOL     OW11248   6.817   2.597   6.446
 3450SOL    HW111249   6.804   2.623   6.350
 3450SOL    HW211250   6.798   2.676   6.505
 3451SOL     OW11251   2.111   5.720   1.061
 3451SOL    HW111252   2.146   5.630   1.088
 3451SOL    HW211253   2.056   5.711   0.978
 3452SOL     OW11254   6.422   0.722   6.119
 3452SOL    HW111255   6.475   0.666   6.182
 3452SOL    HW211256   6.408   0.673   6.033
 3453SOL     OW11257   6.817   5.756   6.519
 3453SOL    HW111258   6.791   5.779   6.426
 3453SOL    HW211259   6.762   5.808   6.584
 3454SOL     OW11260   0.888   2.070   5.770
 3454SOL    HW111261   0.919   1.985   5.726
 3454SOL    HW211262   0.906   2.066   5.868
 3455SOL     OW11263   2.853   2.223   4.745
 3455SOL    HW111264   2.806   2.136   4.760
 3455SOL    HW211265   2.786   2.295   4.730
 3456SOL     OW11266   5.678   5.749   2.778
 3456SOL    HW111267   5.715   5.838   2.804
 3456SOL    HW211268   5.685   5.738   2.679
 3457SOL     OW11269   2.648   4.764   3.226
 3457SOL    HW111270   2.729   4.768   3.285
 3457SOL    HW211271   2.654   4.836   3.157
 3458SOL     OW11272   4.955   0.445   2.043
 3458SOL    HW111273   5.019   0.484   1.977
 3458SOL    HW211274   4.865   0.433   2.000
 3459SOL     OW11275   5.361   3.399   3.139
 3459SOL    HW111276   5.382   3.306   3.109
 3459SOL    HW211277   5.408   3.464   3.080
 3460SOL     OW11278   2.441   3.366   6.954
 3460SOL    HW111279   2.363   3.423   6.927
 3460SOL    HW211280   2.453   3.293   6.887
 3461SOL     OW11281   4.517   5.489   4.934
 3461SOL    HW111282   4.495   5.463   4.840
 3461SOL    HW211283   4.455   5.561   4.965
 3462SOL     OW11284   0.090   3.705   2.811
 3462SOL    HW111285   0.091   3.775   2.882
 3462SOL    HW211286   0.003   3.708   2.762
 3463SOL     OW11287   0.779   3.650   2.360
 3463SOL    HW111288   0.793   3.723   2.294
 3463SOL    HW211289   0.695   3.667   2.412
 3464SOL     OW11290   6.084   3.928   6.482
 3464SOL    HW111291   6.172   3.950   6.441
 3464SOL    HW211292   6.040   4.012   6.515
 3465SOL     OW11293   1.518   2.149   2.387
 3465SOL    HW111294   1.610   2.110   2.387
 3465SOL    HW211295   1.514   2.224   2.321
 3466SOL     OW11296   0.518   4.658   0.466
 3466SOL    HW111297   0.585   4.621   0.530
 3466SOL    HW211298   0.556   4.738   0.420
 3467SOL     OW11299   1.885   2.832   0.525
 3467SOL    HW111300   1.924   2.883   0.602
 3467SOL    HW211301   1.881   2.735   0.547
 3468SOL     OW11302   4.895   6.723   3.024
 3468SOL    HW111303   4.963   6.657   2.994
 3468SOL    HW211304   4.807   6.702   2.982
 3469SOL     OW11305   5.183   0.427   2.507
 3469SOL    HW111306   5.228   0.515   2.526
 3469SOL    HW211307   5.230   0.355   2.559
 3470SOL     OW11308   5.976   3.413   1.493
 3470SOL    HW111309   5.968   3.434   1.590
 3470SOL    HW211310   6.067   3.376   1.474
 3471SOL     OW11311   4.094   5.176   4.230
 3471SOL    HW111312   4.041   5.224   4.160
 3471SOL    HW211313   4.187   5.212   4.231
 3472SOL     OW11314   2.713   0.731   2.736
 3472SOL    HW111315   2.619   0.699   2.727
 3472SOL    HW211316   2.768   0.661   2.782
 3473SOL     OW11317   0.193   2.005   1.533
 3473SOL    HW111318   0.150   2.063   1.602
 3473SOL    HW211319   0.164   2.033   1.442
 3474SOL     OW11320   1.157   4.311   1.472
 3474SOL    HW111321   1.200   4.303   1.382
 3474SOL    HW211322   1.132   4.220   1.505
 3475SOL     OW11323   1.295   4.683   4.411
 3475SOL    HW111324   1.294   4.593   4.454
 3475SOL    HW211325   1.285   4.753   4.482
 3476SOL     OW11326   2.965   1.388   3.417
 3476SOL    HW111327   3.023   1.414   3.494
 3476SOL    HW211328   3.003   1.426   3.332
 3477SOL     OW11329   2.141   5.145   0.651
 3477SOL    HW111330   2.200   5.112   0.725
 3477SOL    HW211331   2.161   5.094   0.568
 3478SOL     OW11332   2.762   5.402   5.353
 3478SOL    HW111333   2.715   5.490   5.358
 3478SOL    HW211334   2.725   5.341   5.423
 3479SOL     OW11335   1.476   0.511   3.290
 3479SOL    HW111336   1.407   0.439   3.273
 3479SOL    HW211337   1.433   0.588   3.336
 3480SOL     OW11338   0.769   6.774   5.175
 3480SOL    HW111339   0.744   6.691   5.125
 3480SOL    HW211340   0.780   6.849   5.110
 3481SOL     OW11341   4.586   0.261   0.172
 3481SOL    HW111342   4.535   0.342   0.198
 3481SOL    HW211343   4.582   0.193   0.245
 3482SOL     OW11344   5.364   1.206   1.724
 3482SOL    HW111345   5.310   1.280   1.682
 3482SOL    HW211346   5.406   1.239   1.808
 3483SOL     OW11347   4.975   2.112   1.429
 3483SOL    HW111348   4.951   2.171   1.351
 3483SOL    HW211349   4.894   2.059   1.456
 3484SOL     OW11350   0.965   3.373   6.884
 3484SOL    HW111351   0.895   3.372   6.812
 3484SOL    HW211352   1.047   3.418   6.849
 3485SOL     OW11353   1.828   1.302   4.505
 3485SOL    HW111354   1.748   1.246   4.526
 3485SOL    HW211355   1.834   1.377   4.571
 3486SOL     OW11356   2.961   0.705   3.032
 3486SOL    HW111357   2.928   0.633   2.971
 3486SOL    HW211358   2.896   0.717   3.107
 3487SOL     OW11359   5.438   2.766   5.421
 3487SOL    HW111360   5.489   2.768   5.507
 3487SOL    HW211361   5.340   2.765   5.441
 3488SOL     OW11362   5.914   1.903   4.284
 3488SOL    HW111363   5.952   1.871   4.198
 3488SOL    HW211364   5.858   1.831   4.325
 3489SOL     OW11365   3.863   6.914   1.229
 3489SOL    HW111366   3.960   6.901   1.247
 3489SOL    HW211367   3.850   6.967   1.146
 3490SOL     OW11368   4.359   4.248   0.430
 3490SOL    HW111369   4.331   4.221   0.337
 3490SOL    HW211370   4.449   4.209   0.449
 3491SOL     OW11371   4.617   2.678   4.746
 3491SOL    HW111372   4.599   2.718   4.656
 3491SOL    HW211373   4.657   2.748   4.806
 3492SOL     OW11374   0.391   5.362   1.340
 3492SOL    HW111375   0.424   5.312   1.420
 3492SOL    HW211376   0.468   5.406   1.293
 3493SOL     OW11377   5.676   4.355   6.716
 3493SOL    HW111378   5.639   4.427   6.657
 3493SOL    HW211379   5.630   4.268   6.696
 3494SOL     OW11380   3.792   0.507   1.254
 3494SOL    HW111381   3.788   0.438   1.327
 3494SOL    HW211382   3.885   0.512   1.218
 3495SOL     OW11383   5.248   5.265   2.520
 3495SOL    HW111384   5.230   5.351   2.473
 3495SOL    HW211385   5.306   5.283   2.600
 3496SOL     OW11386   6.472   4.271   0.389
 3496SOL    HW111387   6.553   4.297   0.336
 3496SOL    HW211388   6.415   4.351   0.406
 3497SOL     OW11389   3.687   0.938   3.854
 3497SOL    HW111390   3.734   1.025   3.867
 3497SOL    HW211391   3.599   0.954   3.810
 3498SOL     OW11392   2.777   2.413   0.541
 3498SOL    HW111393   2.687   2.450   0.566
 3498SOL    HW211394   2.830   2.483   0.493
 3499SOL     OW11395   4.916   3.323   4.292
 3499SOL    HW111396   4.969   3.308   4.375
 3499SOL    HW211397   4.893   3.235   4.251
 3500SOL     OW11398   1.914   3.519   4.783
 3500SOL    HW111399   1.956   3.603   4.748
 3500SOL    HW211400   1.877   3.466   4.707
 3501SOL     OW11401   1.980   5.880   4.887
 3501SOL    HW111402   2.018   5.936   4.814
 3501SOL    HW211403   1.987   5.783   4.862
 3502SOL     OW11404   6.403   2.756   2.665
 3502SOL    HW111405   6.379   2.807   2.748
 3502SOL    HW211406   6.375   2.809   2.584
 3503SOL     OW11407   6.507   6.415   4.435
 3503SOL    HW111408   6.437   6.486   4.433
 3503SOL    HW211409   6.474   6.334   4.387
 3504SOL     OW11410   1.841   1.831   1.470
 3504SOL    HW111411   1.753   1.878   1.480
 3504SOL    HW211412   1.880   1.814   1.561
 3505SOL     OW11413   5.424   4.843   5.114
 3505SOL    HW111414   5.340   4.878   5.154
 3505SOL    HW211415   5.414   4.745   5.097
 3506SOL     OW11416   5.047   5.397   5.768
 3506SOL    HW111417   5.074   5.492   5.784
 3506SOL    HW211418   4.963   5.378   5.819
 3507SOL     OW11419   1.798   1.237   6.950
 3507SOL    HW111420   1.731   1.302   6.984
 3507SOL    HW211421   1.753   1.150   6.930
 3508SOL     OW11422   3.138   2.318   6.094
 3508SOL    HW111423   3.148   2.348   5.999
 3508SOL    HW211424   3.047   2.342   6.127
 3509SOL     OW11425   6.368   0.448   5.789
 3509SOL    HW111426   6.283   0.500   5.776
 3509SOL    HW211427   6.432   0.502   5.844
 3510SOL     OW11428   1.732   2.917   1.814
 3510SOL    HW111429   1.785   2.841   1.776
 3510SOL    HW211430   1.646   2.882   1.851
 3511SOL     OW11431   2.912   5.380   0.406
 3511SOL    HW111432   2.946   5.385   0.500
 3511SOL    HW211433   2.953   5.302   0.359
 3512SOL     OW11434   0.521   4.981   0.675
 3512SOL    HW111435   0.609   4.964   0.630
 3512SOL    HW211436   0.535   4.998   0.772
 3513SOL     OW11437   6.231   3.042   0.504
 3513SOL    HW111438   6.318   3.038   0.454
 3513SOL    HW211439   6.183   2.955   0.494
 3514SOL     OW11440   1.207   1.405   1.962
 3514SOL    HW111441   1.216   1.504   1.974
 3514SOL    HW211442   1.175   1.364   2.047
 3515SOL     OW11443   4.926   5.991   3.540
 3515SOL    HW111444   4.903   6.089   3.538
 3515SOL    HW211445   5.004   5.977   3.601
 3516SOL     OW11446   4.787   0.005   0.988
 3516SOL    HW111447   4.819   0.089   1.032
 3516SOL    HW211448   4.864   6.970   0.970
 3517SOL     OW11449   1.165   1.901   0.826
 3517SOL    HW111450   1.109   1.953   0.890
 3517SOL    HW211451   1.151   1.803   0.841
 3518SOL     OW11452   5.415   3.432   4.557
 3518SOL    HW111453   5.412   3.458   4.460
 3518SOL    HW211454   5.463   3.502   4.609
 3519SOL     OW11455   1.298   0.870   6.014
 3519SOL    HW111456   1.314   0.824   5.926
 3519SOL    HW211457   1.312   0.969   6.002
 3520SOL     OW11458   3.346   4.915   6.128
 3520SOL    HW111459   3.348   5.007   6.166
 3520SOL    HW211460   3.291   4.914   6.045
 3521SOL     OW11461   4.957   3.088   6.681
 3521SOL    HW111462   4.965   3.066   6.584
 3521SOL    HW211463   4.867   3.060   6.715
 3522SOL     OW11464   6.884   4.393   1.983
 3522SOL    HW111465   6.802   4.355   1.940
 3522SOL    HW211466   6.965   4.346   1.949
 3523SOL     OW11467   2.895   5.126   6.283
 3523SOL    HW111468   2.980   5.165   6.248
 3523SOL    HW211469   2.819   5.189   6.264
 3524SOL     OW11470   3.741   1.210   1.280
 3524SOL    HW111471   3.839   1.227   1.274
 3524SOL    HW211472   3.693   1.298   1.281
 3525SOL     OW11473   0.860   3.936   2.432
 3525SOL    HW111474   0.830   4.032   2.438
 3525SOL    HW211475   0.869   3.910   2.336
 3526SOL     OW11476   2.286   6.226   3.978
 3526SOL    HW111477   2.376   6.269   3.969
 3526SOL    HW211478   2.272   6.161   3.902
 3527SOL     OW11479   5.952   2.674   6.054
 3527SOL    HW111480   6.003   2.643   6.135
 3527SOL    HW211481   6.016   2.719   5.991
 3528SOL     OW11482   0.336   4.834   3.982
 3528SOL    HW111483   0.263   4.771   3.953
 3528SOL    HW211484   0.399   4.849   3.906
 3529SOL     OW11485   4.127   0.345   0.181
 3529SOL    HW111486   4.183   0.427   0.195
 3529SOL    HW211487   4.185   0.270   0.151
 3530SOL     OW11488   1.803   5.152   3.468
 3530SOL    HW111489   1.732   5.199   3.521
 3530SOL    HW211490   1.848   5.084   3.525
 3531SOL     OW11491   4.833   3.331   0.507
 3531SOL    HW111492   4.898   3.289   0.571
 3531SOL    HW211493   4.763   3.380   0.559
 3532SOL     OW11494   2.931   0.699   1.175
 3532SOL    HW111495   2.947   0.782   1.229
 3532SOL    HW211496   2.893   0.724   1.086
 3533SOL     OW11497   1.737   1.416   2.378
 3533SOL    HW111498   1.760   1.485   2.309
 3533SOL    HW211499   1.638   1.403   2.381
 3534SOL     OW11500   5.824   1.094   5.405
 3534SOL    HW111501   5.900   1.090   5.469
 3534SOL    HW211502   5.857   1.073   5.313
 3535SOL     OW11503   0.971   5.288   0.373
 3535SOL    HW111504   0.967   5.330   0.282
 3535SOL    HW211505   0.981   5.189   0.363
 3536SOL     OW11506   2.389   2.085   3.847
 3536SOL    HW111507   2.332   2.017   3.894
 3536SOL    HW211508   2.405   2.055   3.753
 3537SOL     OW11509   2.881   5.175   1.041
 3537SOL    HW111510   2.833   5.119   0.973
 3537SOL    HW211511   2.814   5.233   1.089
 3538SOL     OW11512   1.471   0.501   5.841
 3538SOL    HW111513   1.514   0.514   5.930
 3538SOL    HW211514   1.408   0.576   5.822
 3539SOL     OW11515   5.969   3.759   6.169
 3539SOL    HW111516   5.987   3.845   6.216
 3539SOL    HW211517   5.980   3.772   6.071
 3540SOL     OW11518   1.676   2.801   6.244
 3540SOL    HW111519   1.689   2.760   6.154
 3540SOL    HW211520   1.727   2.749   6.312
 3541SOL     OW11521   1.780   3.051   6.715
 3541SOL    HW111522   1.688   3.019   6.737
 3541SOL    HW211523   1.844   2.974   6.719
 3542SOL     OW11524   1.267   4.457   1.669
 3542SOL    HW111525   1.233   4.545   1.703
 3542SOL    HW211526   1.226   4.438   1.579
 3543SOL     OW11527   1.058   3.292   5.299
 3543SOL    HW111528   1.017   3.277   5.209
 3543SOL    HW211529   1.013   3.370   5.342
 3544SOL     OW11530   2.962   4.527   6.776
 3544SOL    HW111531   2.891   4.468   6.814
 3544SOL    HW211532   2.947   4.621   6.805
 3545SOL     OW11533   4.105   5.095   6.910
 3545SOL    HW111534   4.058   5.008   6.920
 3545SOL    HW211535   4.199   5.087   6.944
 3546SOL     OW11536   0.593   4.771   2.927
 3546SOL    HW111537   0.599   4.831   2.847
 3546SOL    HW211538   0.501   4.730   2.931
 3547SOL     OW11539   6.468   5.167   5.200
 3547SOL    HW111540   6.502   5.195   5.110
 3547SOL    HW211541   6.509   5.079   5.225
 3548SOL     OW11542   5.404   0.538   5.906
 3548SOL    HW111543   5.413   0.465   5.973
 3548SOL    HW211544   5.485   0.597   5.909
 3549SOL     OW11545   0.093   5.246   5.884
 3549SOL    HW111546   0.145   5.321   5.843
 3549SOL    HW211547   7.021   5.259   5.864
 3550SOL     OW11548   5.831   2.777   3.581
 3550SOL    HW111549   5.781   2.713   3.639
 3550SOL    HW211550   5.808   2.871   3.607
 3551SOL     OW11551   3.305   2.033   3.159
 3551SOL    HW111552   3.250   2.101   3.109
 3551SOL    HW211553   3.275   2.029   3.254
 3552SOL     OW11554   6.346   6.579   1.644
 3552SOL    HW111555   6.280   6.650   1.672
 3552SOL    HW211556   6.389   6.540   1.726
 3553SOL     OW11557   4.268   5.384   0.758
 3553SOL    HW111558   4.214   5.322   0.815
 3553SOL    HW211559   4.259   5.357   0.662
 3554SOL     OW11560   4.312   1.611   1.075
 3554SOL    HW111561   4.382   1.652   1.134
 3554SOL    HW211562   4.299   1.669   0.995
 3555SOL     OW11563   0.575   4.136   4.294
 3555SOL    HW111564   0.639   4.195   4.245
 3555SOL    HW211565   0.580   4.155   4.392
 3556SOL     OW11566   4.179   1.310   4.632
 3556SOL    HW111567   4.197   1.392   4.579
 3556SOL    HW211568   4.265   1.273   4.668
 3557SOL     OW11569   0.864   1.170   4.352
 3557SOL    HW111570   0.773   1.131   4.339
 3557SOL    HW211571   0.927   1.099   4.384
 3558SOL     OW11572   1.759   6.043   2.292
 3558SOL    HW111573   1.750   5.958   2.240
 3558SOL    HW211574   1.808   6.025   2.377
 3559SOL     OW11575   0.498   6.712   5.335
 3559SOL    HW111576   0.499   6.614   5.318
 3559SOL    HW211577   0.564   6.758   5.275
 3560SOL     OW11578   1.699   5.355   2.520
 3560SOL    HW111579   1.705   5.435   2.460
 3560SOL    HW211580   1.776   5.357   2.584
 3561SOL     OW11581   4.594   4.609   5.155
 3561SOL    HW111582   4.501   4.581   5.132
 3561SOL    HW211583   4.619   4.691   5.102
 3562SOL     OW11584   3.544   1.394   2.799
 3562SOL    HW111585   3.492   1.445   2.731
 3562SOL    HW211586   3.523   1.429   2.891
 3563SOL     OW11587   6.162   2.121   0.823
 3563SOL    HW111588   6.205   2.070   0.897
 3563SOL    HW211589   6.232   2.151   0.758
 3564SOL     OW11590   1.224   4.404   2.876
 3564SOL    HW111591   1.278   4.358   2.947
 3564SOL    HW211592   1.196   4.495   2.909
 3565SOL     OW11593   3.187   6.398   5.093
 3565SOL    HW111594   3.226   6.437   5.176
 3565SOL    HW211595   3.142   6.470   5.040
 3566SOL     OW11596   6.481   3.736   6.229
 3566SOL    HW111597   6.471   3.672   6.305
 3566SOL    HW211598   6.453   3.691   6.144
 3567SOL     OW11599   0.121   2.199   6.088
 3567SOL    HW111600   0.063   2.189   6.169
 3567SOL    HW211601   0.118   2.293   6.056
 3568SOL     OW11602   4.681   4.481   3.521
 3568SOL    HW111603   4.655   4.492   3.425
 3568SOL    HW211604   4.631   4.547   3.577
 3569SOL     OW11605   2.858   1.539   6.145
 3569SOL    HW111606   2.851   1.628   6.100
 3569SOL    HW211607   2.817   1.468   6.088
 3570SOL     OW11608   5.717   0.951   5.644
 3570SOL    HW111609   5.683   0.858   5.628
 3570SOL    HW211610   5.716   1.001   5.558
 3571SOL     OW11611   0.747   5.324   4.500
 3571SOL    HW111612   0.771   5.230   4.525
 3571SOL    HW211613   0.687   5.363   4.570
 3572SOL     OW11614   5.793   3.505   3.028
 3572SOL    HW111615   5.781   3.450   2.944
 3572SOL    HW211616   5.756   3.597   3.013
 3573SOL     OW11617   0.552   5.703   3.125
 3573SOL    HW111618   0.459   5.715   3.160
 3573SOL    HW211619   0.616   5.692   3.202
 3574SOL     OW11620   0.741   3.431   0.329
 3574SOL    HW111621   0.789   3.416   0.243
 3574SOL    HW211622   0.646   3.404   0.320
 3575SOL     OW11623   5.411   5.183   2.069
 3575SOL    HW111624   5.363   5.259   2.025
 3575SOL    HW211625   5.404   5.101   2.012
 3576SOL     OW11626   6.901   1.954   6.441
 3576SOL    HW111627   6.807   1.935   6.413
 3576SOL    HW211628   6.964   1.921   6.371
 3577SOL     OW11629   1.563   1.748   6.047
 3577SOL    HW111630   1.498   1.708   6.111
 3577SOL    HW211631   1.617   1.675   6.005
 3578SOL     OW11632   3.752   2.289   0.405
 3578SOL    HW111633   3.776   2.343   0.486
 3578SOL    HW211634   3.830   2.232   0.378
 3579SOL     OW11635   6.286   2.493   3.882
 3579SOL    HW111636   6.327   2.406   3.852
 3579SOL    HW211637   6.189   2.493   3.858
 3580SOL     OW11638   5.524   3.194   1.710
 3580SOL    HW111639   5.599   3.223   1.769
 3580SOL    HW211640   5.555   3.120   1.650
 3581SOL     OW11641   1.566   5.664   3.568
 3581SOL    HW111642   1.488   5.706   3.615
 3581SOL    HW211643   1.619   5.611   3.634
 3582SOL     OW11644   0.385   3.758   6.289
 3582SOL    HW111645   0.319   3.761   6.364
 3582SOL    HW211646   0.361   3.685   6.226
 3583SOL     OW11647   0.715   4.160   6.300
 3583SOL    HW111648   0.618   4.182   6.310
 3583SOL    HW211649   0.727   4.061   6.297
 3584SOL     OW11650   5.536   5.542   6.662
 3584SOL    HW111651   5.464   5.572   6.600
 3584SOL    HW211652   5.508   5.557   6.756
 3585SOL     OW11653   3.299   0.582   4.570
 3585SOL    HW111654   3.275   0.663   4.516
 3585SOL    HW211655   3.250   0.502   4.534
 3586SOL     OW11656   6.748   2.344   4.966
 3586SOL    HW111657   6.722   2.261   5.015
 3586SOL    HW211658   6.847   2.345   4.950
 3587SOL     OW11659   2.396   4.515   6.011
 3587SOL    HW111660   2.470   4.497   5.946
 3587SOL    HW211661   2.351   4.428   6.033
 3588SOL     OW11662   1.022   2.491   5.925
 3588SOL    HW111663   1.111   2.502   5.969
 3588SOL    HW211664   1.035   2.470   5.828
 3589SOL     OW11665   4.655   1.394   4.620
 3589SOL    HW111666   4.728   1.447   4.576
 3589SOL    HW211667   4.610   1.451   4.689
 3590SOL     OW11668   0.679   2.656   0.500
 3590SOL    HW111669   0.657   2.558   0.499
 3590SOL    HW211670   0.740   2.677   0.423
 3591SOL     OW11671   5.169   3.939   6.727
 3591SOL    HW111672   5.081   3.892   6.737
 3591SOL    HW211673   5.243   3.871   6.723
 3592SOL     OW11674   0.495   5.114   1.979
 3592SOL    HW111675   0.567   5.072   1.924
 3592SOL    HW211676   0.513   5.212   1.988
 3593SOL     OW11677   0.526   5.611   4.821
 3593SOL    HW111678   0.430   5.639   4.821
 3593SOL    HW211679   0.585   5.692   4.825
 3594SOL     OW11680   4.503   6.429   3.458
 3594SOL    HW111681   4.543   6.420   3.550
 3594SOL    HW211682   4.409   6.461   3.466
 3595SOL     OW11683   3.794   5.815   6.702
 3595SOL    HW111684   3.831   5.883   6.766
 3595SOL    HW211685   3.860   5.800   6.628
 3596SOL     OW11686   6.238   3.114   3.182
 3596SOL    HW111687   6.165   3.105   3.114
 3596SOL    HW211688   6.207   3.172   3.257
 3597SOL     OW11689   1.933   2.442   5.466
 3597SOL    HW111690   2.014   2.471   5.415
 3597SOL    HW211691   1.863   2.513   5.462
 3598SOL     OW11692   1.453   5.390   6.326
 3598SOL    HW111693   1.492   5.370   6.236
 3598SOL    HW211694   1.527   5.402   6.392
 3599SOL     OW11695   6.721   2.326   6.617
 3599SOL    HW111696   6.801   2.266   6.619
 3599SOL    HW211697   6.746   2.413   6.576
 3600SOL     OW11698   0.788   3.025   1.345
 3600SOL    HW111699   0.720   2.961   1.382
 3600SOL    HW211700   0.760   3.119   1.367
 3601SOL     OW11701   5.366   3.764   6.682
 3601SOL    HW111702   5.448   3.764   6.740
 3601SOL    HW211703   5.317   3.678   6.696
 3602SOL     OW11704   1.897   2.561   0.588
 3602SOL    HW111705   1.930   2.573   0.681
 3602SOL    HW211706   1.842   2.477   0.582
 3603SOL     OW11707   3.772   1.181   4.128
 3603SOL    HW111708   3.740   1.275   4.124
 3603SOL    HW211709   3.807   1.154   4.038
 3604SOL     OW11710   6.435   5.484   3.001
 3604SOL    HW111711   6.421   5.439   2.913
 3604SOL    HW211712   6.515   5.443   3.046
 3605SOL     OW11713   6.698   3.689   4.819
 3605SOL    HW111714   6.729   3.744   4.741
 3605SOL    HW211715   6.699   3.592   4.795
 3606SOL     OW11716   0.159   0.534   4.703
 3606SOL    HW111717   0.118   0.595   4.635
 3606SOL    HW211718   0.246   0.499   4.667
 3607SOL     OW11719   6.319   4.871   2.033
 3607SOL    HW111720   6.348   4.866   2.129
 3607SOL    HW211721   6.343   4.961   1.996
 3608SOL     OW11722   5.021   2.750   4.094
 3608SOL    HW111723   5.044   2.766   3.998
 3608SOL    HW211724   4.923   2.734   4.103
 3609SOL     OW11725   1.304   6.792   4.223
 3609SOL    HW111726   1.272   6.763   4.133
 3609SOL    HW211727   1.390   6.748   4.244
 3610SOL     OW11728   2.218   0.008   6.312
 3610SOL    HW111729   2.163   0.092   6.316
 3610SOL    HW211730   2.265   0.004   6.224
 3611SOL     OW11731   4.471   5.109   4.750
 3611SOL    HW111732   4.542   5.160   4.798
 3611SOL    HW211733   4.510   5.025   4.712
 3612SOL     OW11734   6.505   6.919   0.480
 3612SOL    HW111735   6.550   6.859   0.545
 3612SOL    HW211736   6.428   6.871   0.438
 3613SOL     OW11737   4.376   4.556   1.864
 3613SOL    HW111738   4.336   4.559   1.773
 3613SOL    HW211739   4.393   4.461   1.890
 3614SOL     OW11740   3.764   3.583   1.494
 3614SOL    HW111741   3.825   3.644   1.442
 3614SOL    HW211742   3.680   3.632   1.516
 3615SOL     OW11743   5.289   4.898   6.568
 3615SOL    HW111744   5.285   4.965   6.494
 3615SOL    HW211745   5.242   4.814   6.539
 3616SOL     OW11746   0.346   1.832   6.862
 3616SOL    HW111747   0.304   1.745   6.888
 3616SOL    HW211748   0.288   1.879   6.796
 3617SOL     OW11749   3.831   1.205   6.704
 3617SOL    HW111750   3.902   1.272   6.725
 3617SOL    HW211751   3.826   1.136   6.776
 3618SOL     OW11752   2.352   2.871   5.485
 3618SOL    HW111753   2.355   2.800   5.414
 3618SOL    HW211754   2.362   2.960   5.441
 3619SOL     OW11755   5.357   2.658   4.759
 3619SOL    HW111756   5.423   2.721   4.800
 3619SOL    HW211757   5.330   2.691   4.669
 3620SOL     OW11758   5.801   6.755   5.795
 3620SOL    HW111759   5.773   6.660   5.779
 3620SOL    HW211760   5.901   6.759   5.806
 3621SOL     OW11761   3.250   2.730   5.583
 3621SOL    HW111762   3.159   2.704   5.614
 3621SOL    HW211763   3.297   2.780   5.655
 3622SOL     OW11764   1.002   1.243   5.567
 3622SOL    HW111765   0.963   1.248   5.475
 3622SOL    HW211766   1.003   1.335   5.607
 3623SOL     OW11767   6.914   6.374   4.394
 3623SOL    HW111768   6.925   6.352   4.297
 3623SOL    HW211769   6.900   6.290   4.446
 3624SOL     OW11770   1.518   6.639   2.656
 3624SOL    HW111771   1.535   6.704   2.731
 3624SOL    HW211772   1.529   6.686   2.569
 3625SOL     OW11773   6.818   2.797   6.655
 3625SOL    HW111774   6.781   2.882   6.619
 3625SOL    HW211775   6.770   2.774   6.740
 3626SOL     OW11776   1.390   1.879   5.857
 3626SOL    HW111777   1.410   1.976   5.845
 3626SOL    HW211778   1.474   1.830   5.879
 3627SOL     OW11779   3.235   3.479   2.402
 3627SOL    HW111780   3.260   3.474   2.305
 3627SOL    HW211781   3.253   3.391   2.445
 3628SOL     OW11782   1.865   1.004   2.049
 3628SOL    HW111783   1.783   1.054   2.076
 3628SOL    HW211784   1.853   0.906   2.069
 3629SOL     OW11785   6.615   0.807   5.522
 3629SOL    HW111786   6.550   0.881   5.509
 3629SOL    HW211787   6.654   0.811   5.614
 3630SOL     OW11788   4.904   2.336   4.012
 3630SOL    HW111789   4.872   2.389   4.091
 3630SOL    HW211790   5.004   2.335   4.011
 3631SOL     OW11791   2.625   1.594   3.079
 3631SOL    HW111792   2.671   1.517   3.124
 3631SOL    HW211793   2.538   1.562   3.041
 3632SOL     OW11794   5.385   5.027   1.630
 3632SOL    HW111795   5.339   5.002   1.715
 3632SOL    HW211796   5.358   5.120   1.604
 3633SOL     OW11797   4.361   2.027   5.462
 3633SOL    HW111798   4.274   2.077   5.464
 3633SOL    HW211799   4.366   1.967   5.542
 3634SOL     OW11800   1.690   5.164   5.194
 3634SOL    HW111801   1.747   5.238   5.158
 3634SOL    HW211802   1.730   5.127   5.278
 3635SOL     OW11803   3.244   7.024   0.613
 3635SOL    HW111804   3.326   0.008   0.557
 3635SOL    HW211805   3.246   0.066   0.687
 3636SOL     OW11806   0.336   5.561   0.688
 3636SOL    HW111807   0.335   5.552   0.588
 3636SOL    HW211808   0.294   5.648   0.714
 3637SOL     OW11809   0.129   2.108   2.251
 3637SOL    HW111810   0.041   2.119   2.299
 3637SOL    HW211811   0.182   2.192   2.261
 3638SOL     OW11812   0.697   4.791   3.174
 3638SOL    HW111813   0.648   4.828   3.096
 3638SOL    HW211814   0.676   4.693   3.184
 3639SOL     OW11815   3.842   5.374   0.717
 3639SOL    HW111816   3.839   5.342   0.622
 3639SOL    HW211817   3.807   5.303   0.777
 3640SOL     OW11818   4.185   0.729   0.233
 3640SOL    HW111819   4.215   0.763   0.144
 3640SOL    HW211820   4.087   0.747   0.245
 3641SOL     OW11821   5.580   3.521   2.139
 3641SOL    HW111822   5.578   3.578   2.221
 3641SOL    HW211823   5.662   3.465   2.139
 3642SOL     OW11824   5.091   2.011   0.453
 3642SOL    HW111825   5.075   2.109   0.461
 3642SOL    HW211826   5.043   1.975   0.374
 3643SOL     OW11827   3.374   5.638   4.069
 3643SOL    HW111828   3.372   5.539   4.086
 3643SOL    HW211829   3.464   5.664   4.033
 3644SOL     OW11830   0.424   1.028   1.857
 3644SOL    HW111831   0.427   1.109   1.798
 3644SOL    HW211832   0.492   0.962   1.826
 3645SOL     OW11833   1.240   2.670   4.235
 3645SOL    HW111834   1.324   2.719   4.210
 3645SOL    HW211835   1.161   2.728   4.215
 3646SOL     OW11836   1.535   4.209   6.423
 3646SOL    HW111837   1.559   4.113   6.437
 3646SOL    HW211838   1.559   4.261   6.505
 3647SOL     OW11839   2.396   6.303   6.633
 3647SOL    HW111840   2.410   6.244   6.713
 3647SOL    HW211841   2.319   6.268   6.579
 3648SOL     OW11842   4.304   5.345   1.744
 3648SOL    HW111843   4.394   5.365   1.782
 3648SOL    HW211844   4.236   5.346   1.817
 3649SOL     OW11845   6.211   2.820   1.238
 3649SOL    HW111846   6.265   2.853   1.161
 3649SOL    HW211847   6.118   2.857   1.232
 3650SOL     OW11848   6.668   6.091   1.886
 3650SOL    HW111849   6.704   6.156   1.819
 3650SOL    HW211850   6.625   6.014   1.839
 3651SOL     OW11851   0.404   0.053   4.434
 3651SOL    HW111852   0.325   0.108   4.460
 3651SOL    HW211853   0.460   0.035   4.514
 3652SOL     OW11854   6.238   0.328   3.362
 3652SOL    HW111855   6.322   0.351   3.313
 3652SOL    HW211856   6.177   0.407   3.362
 3653SOL     OW11857   0.959   1.596   3.672
 3653SOL    HW111858   0.962   1.630   3.766
 3653SOL    HW211859   1.008   1.509   3.667
 3654SOL     OW11860   3.665   4.445   0.469
 3654SOL    HW111861   3.704   4.356   0.493
 3654SOL    HW211862   3.652   4.499   0.552
 3655SOL     OW11863   3.398   6.878   3.935
 3655SOL    HW111864   3.315   6.840   3.894
 3655SOL    HW211865   3.385   6.975   3.953
 3656SOL     OW11866   0.575   4.612   1.350
 3656SOL    HW111867   0.523   4.655   1.276
 3656SOL    HW211868   0.577   4.513   1.336
 3657SOL     OW11869   5.460   5.966   5.616
 3657SOL    HW111870   5.361   5.955   5.608
 3657SOL    HW211871   5.493   6.025   5.542
 3658SOL     OW11872   2.029   4.710   6.553
 3658SOL    HW111873   1.965   4.635   6.572
 3658SOL    HW211874   2.025   4.732   6.455
 3659SOL     OW11875   2.045   3.156   5.501
 3659SOL    HW111876   2.001   3.191   5.583
 3659SOL    HW211877   1.981   3.098   5.450
 3660SOL     OW11878   5.740   5.808   3.962
 3660SOL    HW111879   5.706   5.772   4.049
 3660SOL    HW211880   5.810   5.747   3.926
 3661SOL     OW11881   6.581   0.664   5.300
 3661SOL    HW111882   6.593   0.714   5.386
 3661SOL    HW211883   6.487   0.633   5.293
 3662SOL     OW11884   4.061   1.085   4.206
 3662SOL    HW111885   3.982   1.128   4.251
 3662SOL    HW211886   4.044   1.078   4.108
 3663SOL     OW11887   2.171   2.059   0.419
 3663SOL    HW111888   2.162   2.096   0.512
 3663SOL    HW211889   2.175   1.959   0.424
 3664SOL     OW11890   4.599   2.250   1.281
 3664SOL    HW111891   4.699   2.245   1.270
 3664SOL    HW211892   4.554   2.215   1.199
 3665SOL     OW11893   0.928   6.404   5.099
 3665SOL    HW111894   0.853   6.449   5.051
 3665SOL    HW211895   0.996   6.373   5.034
 3666SOL     OW11896   0.862   3.351   2.947
 3666SOL    HW111897   0.838   3.434   2.896
 3666SOL    HW211898   0.892   3.281   2.883
 3667SOL     OW11899   0.469   1.501   3.858
 3667SOL    HW111900   0.401   1.449   3.908
 3667SOL    HW211901   0.474   1.594   3.894
 3668SOL     OW11902   1.583   1.417   0.846
 3668SOL    HW111903   1.603   1.387   0.752
 3668SOL    HW211904   1.668   1.434   0.895
 3669SOL     OW11905   5.468   1.461   3.882
 3669SOL    HW111906   5.471   1.384   3.819
 3669SOL    HW211907   5.374   1.492   3.892
 3670SOL     OW11908   1.665   5.736   6.598
 3670SOL    HW111909   1.719   5.675   6.656
 3670SOL    HW211910   1.590   5.776   6.652
 3671SOL     OW11911   0.050   1.828   4.117
 3671SOL    HW111912   0.057   1.899   4.187
 3671SOL    HW211913   0.129   1.767   4.124
 3672SOL     OW11914   4.600   2.109   2.053
 3672SOL    HW111915   4.698   2.097   2.036
 3672SOL    HW211916   4.547   2.060   1.984
 3673SOL     OW11917   4.185   6.234   0.095
 3673SOL    HW111918   4.248   6.273   0.028
 3673SOL    HW211919   4.207   6.137   0.109
 3674SOL     OW11920   1.556   5.967   5.429
 3674SOL    HW111921   1.470   6.015   5.443
 3674SOL    HW211922   1.614   5.978   5.510
 3675SOL     OW11923   2.228   2.927   3.867
 3675SOL    HW111924   2.247   2.955   3.772
 3675SOL    HW211925   2.265   2.835   3.882
 3676SOL     OW11926   6.251   4.233   2.719
 3676SOL    HW111927   6.273   4.255   2.814
 3676SOL    HW211928   6.203   4.145   2.716
 3677SOL     OW11929   2.935   6.383   4.211
 3677SOL    HW111930   3.000   6.320   4.253
 3677SOL    HW211931   2.917   6.459   4.273
 3678SOL     OW11932   0.425   1.260   4.286
 3678SOL    HW111933   0.465   1.320   4.217
 3678SOL    HW211934   0.489   1.185   4.306
 3679SOL     OW11935   6.904   0.271   3.492
 3679SOL    HW111936   6.865   0.252   3.581
 3679SOL    HW211937   6.844   0.334   3.442
 3680SOL     OW11938   5.033   3.134   4.063
 3680SOL    HW111939   5.123   3.152   4.104
 3680SOL    HW211940   4.975   3.086   4.128
 3681SOL     OW11941   0.053   0.677   6.134
 3681SOL    HW111942   0.122   0.607   6.113
 3681SOL    HW211943   0.092   0.744   6.198
 3682SOL     OW11944   5.168   2.926   0.179
 3682SOL    HW111945   5.197   2.857   0.246
 3682SOL    HW211946   5.084   2.895   0.133
 3683SOL     OW11947   6.658   1.799   4.371
 3683SOL    HW111948   6.639   1.706   4.338
 3683SOL    HW211949   6.726   1.842   4.312
 3684SOL     OW11950   1.233   5.060   0.091
 3684SOL    HW111951   1.293   5.074   0.170
 3684SOL    HW211952   1.140   5.041   0.124
 3685SOL     OW11953   1.573   6.109   6.590
 3685SOL    HW111954   1.630   6.047   6.537
 3685SOL    HW211955   1.614   6.200   6.590
 3686SOL     OW11956   6.201   5.491   4.897
 3686SOL    HW111957   6.190   5.448   4.987
 3686SOL    HW211958   6.116   5.538   4.872
 3687SOL     OW11959   3.798   6.609   3.774
 3687SOL    HW111960   3.809   6.539   3.845
 3687SOL    HW211961   3.832   6.697   3.808
 3688SOL     OW11962   0.660   3.136   6.772
 3688SOL    HW111963   0.563   3.155   6.790
 3688SOL    HW211964   0.709   3.223   6.765
 3689SOL     OW11965   2.365   0.343   5.859
 3689SOL    HW111966   2.290   0.276   5.849
 3689SOL    HW211967   2.364   0.380   5.952
 3690SOL     OW11968   4.325   5.808   0.047
 3690SOL    HW111969   4.412   5.773   0.012
 3690SOL    HW211970   4.264   5.732   0.068
 3691SOL     OW11971   2.554   1.726   6.718
 3691SOL    HW111972   2.563   1.748   6.621
 3691SOL    HW211973   2.500   1.642   6.729
 3692SOL     OW11974   6.363   5.228   5.554
 3692SOL    HW111975   6.433   5.181   5.608
 3692SOL    HW211976   6.402   5.310   5.513
 3693SOL     OW11977   1.919   3.899   3.126
 3693SOL    HW111978   1.891   3.976   3.069
 3693SOL    HW211979   1.985   3.931   3.194
 3694SOL     OW11980   0.574   6.358   1.930
 3694SOL    HW111981   0.484   6.323   1.954
 3694SOL    HW211982   0.566   6.452   1.897
 3695SOL     OW11983   5.320   2.931   1.879
 3695SOL    HW111984   5.350   2.875   1.802
 3695SOL    HW211985   5.239   2.983   1.853
 3696SOL     OW11986   4.044   0.002   4.029
 3696SOL    HW111987   4.135   6.995   4.005
 3696SOL    HW211988   4.040   0.101   4.018
 3697SOL     OW11989   0.371   6.457   2.703
 3697SOL    HW111990   0.324   6.505   2.628
 3697SOL    HW211991   0.309   6.390   2.743
 3698SOL     OW11992   2.726   0.975   4.302
 3698SOL    HW111993   2.647   1.035   4.319
 3698SOL    HW211994   2.800   1.028   4.261
 3699SOL     OW11995   1.230   2.013   4.523
 3699SOL    HW111996   1.291   2.075   4.474
 3699SOL    HW211997   1.205   1.937   4.463
 3700SOL     OW11998   1.263   5.540   4.914
 3700SOL    HW111999   1.352   5.497   4.901
 3700SOL    HW212000   1.232   5.578   4.826
 3701SOL     OW12001   1.367   0.859   4.116
 3701SOL    HW112002   1.448   0.848   4.059
 3701SOL    HW212003   1.358   0.781   4.178
 3702SOL     OW12004   5.587   6.709   3.102
 3702SOL    HW112005   5.640   6.791   3.082
 3702SOL    HW212006   5.555   6.668   3.016
 3703SOL     OW12007   6.356   0.143   6.322
 3703SOL    HW112008   6.328   0.226   6.370
 3703SOL    HW212009   6.389   0.166   6.231
 3704SOL     OW12010   3.606   1.966   0.961
 3704SOL    HW112011   3.550   1.884   0.947
 3704SOL    HW212012   3.604   2.022   0.879
 3705SOL     OW12013   5.239   4.031   4.768
 3705SOL    HW112014   5.169   4.103   4.762
 3705SOL    HW212015   5.194   3.942   4.772
 3706SOL     OW12016   1.382   3.834   0.081
 3706SOL    HW112017   1.419   3.827   0.173
 3706SOL    HW212018   1.341   3.747   0.054
 3707SOL     OW12019   5.295   4.841   4.329
 3707SOL    HW112020   5.261   4.748   4.343
 3707SOL    HW212021   5.361   4.842   4.254
 3708SOL     OW12022   6.350   1.261   0.401
 3708SOL    HW112023   6.271   1.252   0.341
 3708SOL    HW212024   6.324   1.313   0.483
 3709SOL     OW12025   3.365   0.923   1.184
 3709SOL    HW112026   3.460   0.953   1.175
 3709SOL    HW212027   3.304   0.999   1.160
 3710SOL     OW12028   6.571   5.334   4.978
 3710SOL    HW112029   6.670   5.316   4.975
 3710SOL    HW212030   6.555   5.432   4.988
 3711SOL     OW12031   1.028   5.955   4.634
 3711SOL    HW112032   1.072   5.944   4.723
 3711SOL    HW212033   1.070   5.893   4.568
 3712SOL     OW12034   1.124   5.315   6.256
 3712SOL    HW112035   1.215   5.300   6.216
 3712SOL    HW212036   1.127   5.395   6.317
 3713SOL     OW12037   0.450   6.936   5.191
 3713SOL    HW112038   0.434   6.868   5.263
 3713SOL    HW212039   0.393   7.016   5.208
 3714SOL     OW12040   5.448   5.699   6.086
 3714SOL    HW112041   5.430   5.797   6.091
 3714SOL    HW212042   5.546   5.683   6.077
 3715SOL     OW12043   0.627   3.944   2.805
 3715SOL    HW112044   0.682   3.969   2.885
 3715SOL    HW212045   0.634   4.016   2.737
 3716SOL     OW12046   6.056   6.596   3.532
 3716SOL    HW112047   6.130   6.626   3.592
 3716SOL    HW212048   5.988   6.545   3.586
 3717SOL     OW12049   6.112   6.508   6.487
 3717SOL    HW112050   6.134   6.429   6.544
 3717SOL    HW212051   6.175   6.583   6.507
 3718SOL     OW12052   0.682   1.091   0.176
 3718SOL    HW112053   0.734   1.015   0.137
 3718SOL    HW212054   0.612   1.056   0.238
 3719SOL     OW12055   5.158   3.879   1.252
 3719SOL    HW112056   5.080   3.849   1.197
 3719SOL    HW212057   5.241   3.873   1.198
 3720SOL     OW12058   5.748   3.277   0.165
 3720SOL    HW112059   5.686   3.253   0.090
 3720SOL    HW212060   5.783   3.194   0.207
 3721SOL     OW12061   6.845   5.090   2.032
 3721SOL    HW112062   6.939   5.068   2.058
 3721SOL    HW212063   6.819   5.036   1.952
 3722SOL     OW12064   5.795   6.132   1.043
 3722SOL    HW112065   5.851   6.136   0.960
 3722SOL    HW212066   5.750   6.221   1.057
 3723SOL     OW12067   5.857   4.812   1.117
 3723SOL    HW112068   5.790   4.738   1.103
 3723SOL    HW212069   5.846   4.881   1.046
 3724SOL     OW12070   1.715   4.963   4.995
 3724SOL    HW112071   1.675   4.875   5.022
 3724SOL    HW212072   1.716   5.025   5.073
 3725SOL     OW12073   0.166   5.278   0.145
 3725SOL    HW112074   0.107   5.205   0.181
 3725SOL    HW212075   0.234   5.239   0.083
 3726SOL     OW12076   6.159   3.325   6.792
 3726SOL    HW112077   6.137   3.296   6.885
 3726SOL    HW212078   6.125   3.257   6.727
 3727SOL     OW12079   6.497   1.655   5.652
 3727SOL    HW112080   6.476   1.581   5.588
 3727SOL    HW212081   6.411   1.700   5.680
 3728SOL     OW12082   1.039   3.182   6.381
 3728SOL    HW112083   0.967   3.202   6.315
 3728SOL    HW212084   1.106   3.257   6.380
 3729SOL     OW12085   1.839   1.801   4.298
 3729SOL    HW112086   1.845   1.750   4.384
 3729SOL    HW212087   1.922   1.784   4.244
 3730SOL     OW12088   3.431   5.907   5.579
 3730SOL    HW112089   3.449   5.815   5.615
 3730SOL    HW212090   3.514   5.944   5.538
 3731SOL     OW12091   6.923   1.473   1.017
 3731SOL    HW112092   6.906   1.534   1.095
 3731SOL    HW212093   6.949   1.527   0.938
 3732SOL     OW12094   2.705   1.883   6.852
 3732SOL    HW112095   2.655   1.823   6.790
 3732SOL    HW212096   2.788   1.916   6.807
 3733SOL     OW12097   1.611   3.232   2.946
 3733SOL    HW112098   1.654   3.323   2.941
 3733SOL    HW212099   1.518   3.241   2.982
 3734SOL     OW12100   5.410   0.415   1.345
 3734SOL    HW112101   5.464   0.363   1.412
 3734SOL    HW212102   5.342   0.470   1.393
 3735SOL     OW12103   2.874   1.142   2.986
 3735SOL    HW112104   2.844   1.098   2.901
 3735SOL    HW212105   2.938   1.083   3.034
 3736SOL     OW12106   6.897   1.722   1.323
 3736SOL    HW112107   6.997   1.720   1.326
 3736SOL    HW212108   6.866   1.810   1.285
 3737SOL     OW12109   5.456   0.905   4.211
 3737SOL    HW112110   5.550   0.902   4.246
 3737SOL    HW212111   5.398   0.846   4.268
 3738SOL     OW12112   6.624   0.317   1.901
 3738SOL    HW112113   6.661   0.254   1.832
 3738SOL    HW212114   6.627   0.411   1.866
 3739SOL     OW12115   2.490   5.260   0.741
 3739SOL    HW112116   2.525   5.179   0.693
 3739SOL    HW212117   2.432   5.313   0.680
 3740SOL     OW12118   6.801   0.319   0.951
 3740SOL    HW112119   6.861   0.239   0.951
 3740SOL    HW212120   6.857   0.402   0.959
 3741SOL     OW12121   5.563   2.763   5.920
 3741SOL    HW112122   5.533   2.671   5.943
 3741SOL    HW212123   5.517   2.794   5.837
 3742SOL     OW12124   3.108   1.632   6.651
 3742SOL    HW112125   3.010   1.642   6.667
 3742SOL    HW212126   3.132   1.673   6.563
 3743SOL     OW12127   5.894   3.087   0.561
 3743SOL    HW112128   5.982   3.102   0.606
 3743SOL    HW212129   5.833   3.163   0.582
 3744SOL     OW12130   1.873   6.027   1.406
 3744SOL    HW112131   1.928   5.988   1.332
 3744SOL    HW212132   1.793   6.073   1.368
 3745SOL     OW12133   4.768   4.431   2.710
 3745SOL    HW112134   4.807   4.397   2.624
 3745SOL    HW212135   4.749   4.529   2.701
 3746SOL     OW12136   6.220   0.884   3.836
 3746SOL    HW112137   6.160   0.964   3.827
 3746SOL    HW212138   6.291   0.888   3.766
 3747SOL     OW12139   3.042   6.176   5.181
 3747SOL    HW112140   3.081   6.265   5.159
 3747SOL    HW212141   3.000   6.180   5.272
 3748SOL     OW12142   5.938   0.775   1.901
 3748SOL    HW112143   5.980   0.741   1.985
 3748SOL    HW212144   5.863   0.714   1.875
 3749SOL     OW12145   1.744   5.388   3.070
 3749SOL    HW112146   1.684   5.308   3.067
 3749SOL    HW212147   1.819   5.372   3.134
 3750SOL     OW12148   6.708   5.391   1.483
 3750SOL    HW112149   6.680   5.424   1.392
 3750SOL    HW212150   6.794   5.434   1.509
 3751SOL     OW12151   6.937   3.409   1.626
 3751SOL    HW112152   6.839   3.428   1.638
 3751SOL    HW212153   6.958   3.406   1.528
 3752SOL     OW12154   6.589   6.616   0.778
 3752SOL    HW112155   6.500   6.615   0.731
 3752SOL    HW212156   6.606   6.707   0.814
 3753SOL     OW12157   6.793   0.806   4.322
 3753SOL    HW112158   6.745   0.813   4.234
 3753SOL    HW212159   6.891   0.820   4.307
 3754SOL     OW12160   4.320   6.650   1.036
 3754SOL    HW112161   4.255   6.576   1.019
 3754SOL    HW212162   4.375   6.629   1.117
 3755SOL     OW12163   5.428   5.765   4.302
 3755SOL    HW112164   5.353   5.829   4.291
 3755SOL    HW212165   5.458   5.764   4.398
 3756SOL     OW12166   1.996   5.565   6.513
 3756SOL    HW112167   1.924   5.588   6.578
 3756SOL    HW212168   1.958   5.558   6.421
 3757SOL     OW12169   4.434   6.478   6.229
 3757SOL    HW112170   4.355   6.457   6.287
 3757SOL    HW212171   4.513   6.499   6.287
 3758SOL     OW12172   2.182   1.360   5.527
 3758SOL    HW112173   2.269   1.399   5.556
 3758SOL    HW212174   2.180   1.354   5.427
 3759SOL     OW12175   4.567   5.661   6.217
 3759SOL    HW112176   4.584   5.687   6.122
 3759SOL    HW212177   4.493   5.595   6.221
 3760SOL     OW12178   1.844   1.545   5.162
 3760SOL    HW112179   1.872   1.517   5.253
 3760SOL    HW212180   1.835   1.645   5.159
 3761SOL     OW12181   1.191   0.965   4.686
 3761SOL    HW112182   1.214   1.045   4.741
 3761SOL    HW212183   1.274   0.912   4.670
 3762SOL     OW12184   1.472   3.532   0.302
 3762SOL    HW112185   1.502   3.438   0.318
 3762SOL    HW212186   1.381   3.531   0.259
 3763SOL     OW12187   6.857   4.346   1.597
 3763SOL    HW112188   6.783   4.280   1.611
 3763SOL    HW212189   6.863   4.369   1.500
 3764SOL     OW12190   1.617   6.516   3.719
 3764SOL    HW112191   1.598   6.436   3.662
 3764SOL    HW212192   1.559   6.513   3.800
 3765SOL     OW12193   4.467   0.894   1.178
 3765SOL    HW112194   4.409   0.843   1.115
 3765SOL    HW212195   4.553   0.918   1.132
 3766SOL     OW12196   1.307   1.035   3.753
 3766SOL    HW112197   1.365   1.108   3.789
 3766SOL    HW212198   1.238   1.011   3.822
 3767SOL     OW12199   2.259   4.276   0.238
 3767SOL    HW112200   2.282   4.203   0.303
 3767SOL    HW212201   2.226   4.356   0.289
 3768SOL     OW12202   1.788   6.268   4.898
 3768SOL    HW112203   1.821   6.321   4.977
 3768SOL    HW212204   1.846   6.188   4.886
 3769SOL     OW12205   6.251   6.592   5.483
 3769SOL    HW112206   6.323   6.523   5.487
 3769SOL    HW212207   6.262   6.656   5.559
 3770SOL     OW12208   2.183   0.337   6.818
 3770SOL    HW112209   2.265   0.384   6.850
 3770SOL    HW212210   2.122   0.319   6.896
 3771SOL     OW12211   5.841   3.381   6.818
 3771SOL    HW112212   5.883   3.455   6.765
 3771SOL    HW212213   5.898   3.360   6.897
 3772SOL     OW12214   6.737   0.790   6.810
 3772SOL    HW112215   6.653   0.829   6.848
 3772SOL    HW212216   6.794   0.754   6.884
 3773SOL     OW12217   6.148   2.803   6.387
 3773SOL    HW112218   6.097   2.726   6.350
 3773SOL    HW212219   6.159   2.873   6.316
 3774SOL     OW12220   0.328   6.181   0.392
 3774SOL    HW112221   0.346   6.122   0.314
 3774SOL    HW212222   0.285   6.266   0.360
 3775SOL     OW12223   4.898   5.278   2.294
 3775SOL    HW112224   4.975   5.219   2.270
 3775SOL    HW212225   4.931   5.360   2.341
 3776SOL     OW12226   3.961   1.079   0.595
 3776SOL    HW112227   3.892   1.143   0.627
 3776SOL    HW212228   3.927   0.985   0.601
 3777SOL     OW12229   3.408   5.436   3.812
 3777SOL    HW112230   3.313   5.453   3.836
 3777SOL    HW212231   3.461   5.421   3.896
 3778SOL     OW12232   3.582   4.862   2.388
 3778SOL    HW112233   3.648   4.870   2.313
 3778SOL    HW212234   3.493   4.835   2.350
 3779SOL     OW12235   1.841   4.603   1.009
 3779SOL    HW112236   1.847   4.532   0.939
 3779SOL    HW212237   1.932   4.620   1.047
 3780SOL     OW12238   5.804   6.210   5.207
 3780SOL    HW112239   5.860   6.166   5.137
 3780SOL    HW212240   5.863   6.238   5.283
 3781SOL     OW12241   0.428   6.691   4.519
 3781SOL    HW112242   0.359   6.752   4.480
 3781SOL    HW212243   0.499   6.674   4.450
 3782SOL     OW12244   2.956   0.818   3.965
 3782SOL    HW112245   2.990   0.789   3.876
 3782SOL    HW212246   2.866   0.861   3.954
 3783SOL     OW12247   5.855   5.393   3.928
 3783SOL    HW112248   5.879   5.487   3.905
 3783SOL    HW212249   5.794   5.393   4.008
 3784SOL     OW12250   4.715   2.733   2.077
 3784SOL    HW112251   4.716   2.828   2.045
 3784SOL    HW212252   4.775   2.678   2.020
 3785SOL     OW12253   1.965   2.034   6.080
 3785SOL    HW112254   1.908   1.974   6.136
 3785SOL    HW212255   1.920   2.051   5.993
 3786SOL     OW12256   2.324   6.004   2.945
 3786SOL    HW112257   2.339   5.906   2.962
 3786SOL    HW212258   2.225   6.021   2.942
 3787SOL     OW12259   5.982   0.872   2.538
 3787SOL    HW112260   6.078   0.864   2.511
 3787SOL    HW212261   5.924   0.870   2.456
 3788SOL     OW12262   0.481   4.248   4.625
 3788SOL    HW112263   0.406   4.232   4.690
 3788SOL    HW212264   0.539   4.167   4.620
 3789SOL     OW12265   0.474   2.395   5.092
 3789SOL    HW112266   0.527   2.464   5.141
 3789SOL    HW212267   0.451   2.428   5.001
 3790SOL     OW12268   1.211   5.008   5.020
 3790SOL    HW112269   1.209   4.909   5.035
 3790SOL    HW212270   1.281   5.049   5.079
 3791SOL     OW12271   5.317   0.724   0.244
 3791SOL    HW112272   5.323   0.633   0.202
 3791SOL    HW212273   5.382   0.730   0.320
 3792SOL     OW12274   1.097   1.873   5.234
 3792SOL    HW112275   1.042   1.947   5.195
 3792SOL    HW212276   1.190   1.879   5.199
 3793SOL     OW12277   4.781   6.474   2.664
 3793SOL    HW112278   4.844   6.536   2.711
 3793SOL    HW212279   4.753   6.515   2.577
 3794SOL     OW12280   2.365   3.801   0.447
 3794SOL    HW112281   2.291   3.830   0.507
 3794SOL    HW212282   2.331   3.733   0.382
 3795SOL     OW12283   4.395   6.556   6.687
 3795SOL    HW112284   4.328   6.576   6.759
 3795SOL    HW212285   4.468   6.623   6.690
 3796SOL     OW12286   2.958   1.789   2.194
 3796SOL    HW112287   2.967   1.711   2.131
 3796SOL    HW212288   3.025   1.859   2.169
 3797SOL     OW12289   6.821   3.874   1.617
 3797SOL    HW112290   6.789   3.859   1.524
 3797SOL    HW212291   6.880   3.799   1.645
 3798SOL     OW12292   2.537   5.588   2.709
 3798SOL    HW112293   2.587   5.601   2.623
 3798SOL    HW212294   2.513   5.677   2.748
 3799SOL     OW12295   0.634   2.391   4.473
 3799SOL    HW112296   0.630   2.387   4.373
 3799SOL    HW212297   0.712   2.337   4.505
 3800SOL     OW12298   5.411   3.449   3.891
 3800SOL    HW112299   5.416   3.356   3.852
 3800SOL    HW212300   5.492   3.465   3.948
 3801SOL     OW12301   6.268   6.866   2.917
 3801SOL    HW112302   6.305   6.905   2.833
 3801SOL    HW212303   6.196   6.801   2.895
 3802SOL     OW12304   1.211   2.060   3.044
 3802SOL    HW112305   1.207   2.150   3.000
 3802SOL    HW212306   1.282   2.062   3.115
 3803SOL     OW12307   3.325   2.528   1.651
 3803SOL    HW112308   3.299   2.432   1.665
 3803SOL    HW212309   3.417   2.543   1.687
 3804SOL     OW12310   4.916   1.028   3.932
 3804SOL    HW112311   4.877   0.953   3.985
 3804SOL    HW212312   4.841   1.083   3.894
 3805SOL     OW12313   2.681   2.894   1.666
 3805SOL    HW112314   2.772   2.906   1.626
 3805SOL    HW212315   2.634   2.983   1.668
 3806SOL     OW12316   3.950   3.973   6.519
 3806SOL    HW112317   3.938   4.071   6.534
 3806SOL    HW212318   3.955   3.955   6.421
 3807SOL     OW12319   1.984   5.557   2.811
 3807SOL    HW112320   2.047   5.574   2.886
 3807SOL    HW212321   1.988   5.461   2.785
 3808SOL     OW12322   4.082   0.513   0.810
 3808SOL    HW112323   4.068   0.591   0.750
 3808SOL    HW212324   4.177   0.484   0.806
 3809SOL     OW12325   5.452   3.100   1.056
 3809SOL    HW112326   5.457   3.185   1.002
 3809SOL    HW212327   5.511   3.031   1.015
 3810SOL     OW12328   4.327   2.425   4.323
 3810SOL    HW112329   4.397   2.355   4.338
 3810SOL    HW212330   4.275   2.438   4.407
 3811SOL     OW12331   1.429   4.071   4.309
 3811SOL    HW112332   1.397   4.059   4.215
 3811SOL    HW212333   1.526   4.051   4.314
 3812SOL     OW12334   5.222   6.958   4.614
 3812SOL    HW112335   5.152   6.918   4.673
 3812SOL    HW212336   5.181   6.981   4.525
 3813SOL     OW12337   4.707   4.814   0.560
 3813SOL    HW112338   4.762   4.896   0.543
 3813SOL    HW212339   4.760   4.733   0.538
 3814SOL     OW12340   0.150   6.710   7.002
 3814SOL    HW112341   0.198   6.623   6.994
 3814SOL    HW212342   0.193   6.778   6.944
 3815SOL     OW12343   4.661   2.891   0.285
 3815SOL    HW112344   4.604   2.847   0.354
 3815SOL    HW212345   4.614   2.890   0.197
 3816SOL     OW12346   0.858   6.118   6.567
 3816SOL    HW112347   0.950   6.078   6.570
 3816SOL    HW212348   0.791   6.045   6.552
 3817SOL     OW12349   4.810   4.080   2.582
 3817SOL    HW112350   4.781   4.156   2.524
 3817SOL    HW212351   4.903   4.097   2.614
 3818SOL     OW12352   6.087   0.845   0.563
 3818SOL    HW112353   6.187   0.849   0.567
 3818SOL    HW212354   6.054   0.908   0.492
 3819SOL     OW12355   5.871   5.376   1.899
 3819SOL    HW112356   5.880   5.459   1.954
 3819SOL    HW212357   5.953   5.362   1.844
 3820SOL     OW12358   5.436   6.814   3.294
 3820SOL    HW112359   5.501   6.766   3.234
 3820SOL    HW212360   5.483   6.889   3.341
 3821SOL     OW12361   2.214   1.583   0.928
 3821SOL    HW112362   2.193   1.580   0.830
 3821SOL    HW212363   2.279   1.512   0.951
 3822SOL     OW12364   1.498   6.752   2.401
 3822SOL    HW112365   1.564   6.820   2.370
 3822SOL    HW212366   1.406   6.787   2.388
 3823SOL     OW12367   2.989   2.711   5.695
 3823SOL    HW112368   2.904   2.673   5.732
 3823SOL    HW212369   2.973   2.804   5.662
 3824SOL     OW12370   6.154   2.427   0.592
 3824SOL    HW112371   6.190   2.480   0.668
 3824SOL    HW212372   6.190   2.334   0.595
 3825SOL     OW12373   1.258   6.158   0.260
 3825SOL    HW112374   1.272   6.077   0.317
 3825SOL    HW212375   1.178   6.209   0.292
 3826SOL     OW12376   1.151   2.785   6.736
 3826SOL    HW112377   1.230   2.835   6.770
 3826SOL    HW212378   1.122   2.716   6.803
 3827SOL     OW12379   2.608   2.267   1.006
 3827SOL    HW112380   2.649   2.337   1.065
 3827SOL    HW212381   2.558   2.201   1.061
 3828SOL     OW12382   3.915   2.579   1.743
 3828SOL    HW112383   3.857   2.518   1.797
 3828SOL    HW212384   3.858   2.643   1.692
 3829SOL     OW12385   1.655   4.973   4.442
 3829SOL    HW112386   1.581   5.017   4.391
 3829SOL    HW212387   1.695   4.900   4.386
 3830SOL     OW12388   0.847   0.574   3.986
 3830SOL    HW112389   0.795   0.502   3.940
 3830SOL    HW212390   0.930   0.534   4.026
 3831SOL     OW12391   4.486   2.445   2.437
 3831SOL    HW112392   4.519   2.501   2.361
 3831SOL    HW212393   4.498   2.348   2.415
 3832SOL     OW12394   5.772   0.715   2.944
 3832SOL    HW112395   5.799   0.777   2.871
 3832SOL    HW212396   5.673   0.719   2.956
 3833SOL     OW12397   1.070   6.593   5.251
 3833SOL    HW112398   1.046   6.596   5.349
 3833SOL    HW212399   1.009   6.529   5.204
 3834SOL     OW12400   4.585   3.422   1.705
 3834SOL    HW112401   4.596   3.520   1.695
 3834SOL    HW212402   4.670   3.382   1.740
 3835SOL     OW12403   2.946   5.441   5.164
 3835SOL    HW112404   2.978   5.535   5.162
 3835SOL    HW212405   2.898   5.424   5.250
 3836SOL     OW12406   1.880   4.246   5.298
 3836SOL    HW112407   1.894   4.214   5.204
 3836SOL    HW212408   1.911   4.176   5.362
 3837SOL     OW12409   4.795   4.343   0.068
 3837SOL    HW112410   4.876   4.344   0.009
 3837SOL    HW212411   4.732   4.273   0.036
 3838SOL     OW12412   6.609   3.637   4.545
 3838SOL    HW112413   6.510   3.648   4.554
 3838SOL    HW212414   6.654   3.722   4.571
 3839SOL     OW12415   4.227   0.912   3.941
 3839SOL    HW112416   4.287   0.842   3.980
 3839SOL    HW212417   4.136   0.873   3.927
 3840SOL     OW12418   1.625   1.402   5.547
 3840SOL    HW112419   1.610   1.422   5.644
 3840SOL    HW212420   1.723   1.393   5.530
 3841SOL     OW12421   0.228   3.418   5.712
 3841SOL    HW112422   0.265   3.473   5.787
 3841SOL    HW212423   0.186   3.335   5.748
 3842SOL     OW12424   1.327   3.838   6.462
 3842SOL    HW112425   1.404   3.803   6.515
 3842SOL    HW212426   1.361   3.885   6.380
 3843SOL     OW12427   6.885   3.940   2.803
 3843SOL    HW112428   6.830   4.004   2.856
 3843SOL    HW212429   6.888   3.969   2.708
 3844SOL     OW12430   0.399   2.974   6.542
 3844SOL    HW112431   0.377   3.041   6.613
 3844SOL    HW212432   0.346   2.891   6.558
 3845SOL     OW12433   3.695   2.917   3.090
 3845SOL    HW112434   3.606   2.909   3.136
 3845SOL    HW212435   3.767   2.924   3.159
 3846SOL     OW12436   1.041   4.932   3.892
 3846SOL    HW112437   1.067   4.966   3.801
 3846SOL    HW212438   1.083   4.990   3.962
 3847SOL     OW12439   6.110   0.774   4.684
 3847SOL    HW112440   6.197   0.808   4.649
 3847SOL    HW212441   6.089   0.686   4.642
 3848SOL     OW12442   3.275   5.620   2.747
 3848SOL    HW112443   3.304   5.529   2.719
 3848SOL    HW212444   3.175   5.624   2.748
 3849SOL     OW12445   0.484   1.734   5.199
 3849SOL    HW112446   0.506   1.681   5.280
 3849SOL    HW212447   0.569   1.760   5.152
 3850SOL     OW12448   2.894   3.164   1.386
 3850SOL    HW112449   2.911   3.244   1.442
 3850SOL    HW212450   2.800   3.166   1.353
 3851SOL     OW12451   1.813   4.659   2.759
 3851SOL    HW112452   1.787   4.579   2.812
 3851SOL    HW212453   1.752   4.669   2.681
 3852SOL     OW12454   4.841   6.857   4.116
 3852SOL    HW112455   4.752   6.901   4.109
 3852SOL    HW212456   4.913   6.926   4.107
 3853SOL     OW12457   1.159   2.863   3.019
 3853SOL    HW112458   1.249   2.877   2.977
 3853SOL    HW212459   1.152   2.769   3.053
 3854SOL     OW12460   0.973   3.138   2.457
 3854SOL    HW112461   1.045   3.188   2.408
 3854SOL    HW212462   0.884   3.165   2.421
 3855SOL     OW12463   4.926   5.967   6.891
 3855SOL    HW112464   4.893   6.020   6.813
 3855SOL    HW212465   5.015   6.002   6.920
 3856SOL     OW12466   6.351   6.247   5.671
 3856SOL    HW112467   6.431   6.267   5.615
 3856SOL    HW212468   6.374   6.258   5.768
 3857SOL     OW12469   0.712   5.956   5.686
 3857SOL    HW112470   0.750   5.958   5.593
 3857SOL    HW212471   0.664   5.870   5.700
 3858SOL     OW12472   1.514   6.377   5.507
 3858SOL    HW112473   1.483   6.471   5.501
 3858SOL    HW212474   1.440   6.320   5.545
 3859SOL     OW12475   6.583   2.312   3.055
 3859SOL    HW112476   6.613   2.257   3.132
 3859SOL    HW212477   6.487   2.338   3.068
 3860SOL     OW12478   1.861   0.317   5.548
 3860SOL    HW112479   1.833   0.347   5.639
 3860SOL    HW212480   1.946   0.363   5.523
 3861SOL     OW12481   5.033   4.845   2.336
 3861SOL    HW112482   5.052   4.805   2.246
 3861SOL    HW212483   5.064   4.783   2.408
 3862SOL     OW12484   0.524   0.261   4.941
 3862SOL    HW112485   0.568   0.171   4.946
 3862SOL    HW212486   0.519   0.301   5.033
 3863SOL     OW12487   4.847   2.851   6.303
 3863SOL    HW112488   4.810   2.786   6.369
 3863SOL    HW212489   4.939   2.823   6.276
 3864SOL     OW12490   3.096   1.347   5.535
 3864SOL    HW112491   3.157   1.278   5.574
 3864SOL    HW212492   3.088   1.332   5.437
 3865SOL     OW12493   3.693   0.023   0.702
 3865SOL    HW112494   3.728   0.117   0.699
 3865SOL    HW212495   3.636   0.011   0.783
 3866SOL     OW12496   4.071   0.850   0.989
 3866SOL    HW112497   4.100   0.892   1.075
 3866SOL    HW212498   3.978   0.814   0.999
 3867SOL     OW12499   1.308   3.672   4.045
 3867SOL    HW112500   1.389   3.624   4.011
 3867SOL    HW212501   1.252   3.702   3.967
 3868SOL     OW12502   2.557   6.940   1.010
 3868SOL    HW112503   2.581   6.986   1.096
 3868SOL    HW212504   2.461   6.912   1.012
 3869SOL     OW12505   6.680   3.371   4.353
 3869SOL    HW112506   6.592   3.388   4.396
 3869SOL    HW212507   6.674   3.288   4.297
 3870SOL     OW12508   4.528   5.371   1.080
 3870SOL    HW112509   4.463   5.298   1.058
 3870SOL    HW212510   4.574   5.401   0.997
 3871SOL     OW12511   4.307   0.335   2.069
 3871SOL    HW112512   4.395   0.353   2.112
 3871SOL    HW212513   4.238   0.320   2.139
 3872SOL     OW12514   3.974   3.056   2.133
 3872SOL    HW112515   4.020   3.144   2.121
 3872SOL    HW212516   3.967   3.035   2.231
 3873SOL     OW12517   6.975   5.040   1.347
 3873SOL    HW112518   0.027   5.001   1.398
 3873SOL    HW212519   6.962   5.135   1.374
 3874SOL     OW12520   3.973   6.057   6.859
 3874SOL    HW112521   3.974   5.993   6.936
 3874SOL    HW212522   3.929   6.142   6.887
 3875SOL     OW12523   1.011   2.909   2.326
 3875SOL    HW112524   1.005   2.978   2.398
 3875SOL    HW212525   0.934   2.846   2.333
 3876SOL     OW12526   5.771   5.102   6.593
 3876SOL    HW112527   5.825   5.112   6.510
 3876SOL    HW212528   5.738   5.007   6.600
 3877SOL     OW12529   0.013   2.684   0.088
 3877SOL    HW112530   0.088   2.658   0.027
 3877SOL    HW212531   0.032   2.774   0.128
 3878SOL     OW12532   2.572   6.657   5.413
 3878SOL    HW112533   2.606   6.565   5.399
 3878SOL    HW212534   2.521   6.660   5.499
 3879SOL     OW12535   5.380   6.629   1.234
 3879SOL    HW112536   5.339   6.586   1.315
 3879SOL    HW212537   5.439   6.704   1.262
 3880SOL     OW12538   6.259   4.262   3.316
 3880SOL    HW112539   6.230   4.180   3.366
 3880SOL    HW212540   6.290   4.331   3.382
 3881SOL     OW12541   1.592   5.477   0.210
 3881SOL    HW112542   1.524   5.410   0.179
 3881SOL    HW212543   1.663   5.431   0.263
 3882SOL     OW12544   6.009   1.806   4.683
 3882SOL    HW112545   6.088   1.762   4.641
 3882SOL    HW212546   5.992   1.894   4.639
 3883SOL     OW12547   4.740   1.004   3.215
 3883SOL    HW112548   4.836   1.014   3.192
 3883SOL    HW212549   4.700   1.093   3.235
 3884SOL     OW12550   1.716   5.729   4.123
 3884SOL    HW112551   1.764   5.645   4.099
 3884SOL    HW212552   1.656   5.713   4.201
 3885SOL     OW12553   6.360   1.346   4.235
 3885SOL    HW112554   6.270   1.315   4.206
 3885SOL    HW212555   6.358   1.370   4.332
 3886SOL     OW12556   6.732   0.116   5.140
 3886SOL    HW112557   6.672   0.065   5.201
 3886SOL    HW212558   6.823   0.075   5.140
 3887SOL     OW12559   5.452   2.015   5.548
 3887SOL    HW112560   5.411   1.963   5.622
 3887SOL    HW212561   5.384   2.028   5.475
 3888SOL     OW12562   0.899   0.218   6.592
 3888SOL    HW112563   0.809   0.197   6.554
 3888SOL    HW212564   0.902   0.192   6.688
 3889SOL     OW12565   6.949   2.780   6.250
 3889SOL    HW112566   6.915   2.871   6.224
 3889SOL    HW212567   0.009   2.789   6.300
 3890SOL     OW12568   5.798   6.055   2.701
 3890SOL    HW112569   5.830   5.986   2.636
 3890SOL    HW212570   5.743   6.123   2.654
 3891SOL     OW12571   5.431   4.670   4.602
 3891SOL    HW112572   5.517   4.696   4.560
 3891SOL    HW212573   5.448   4.605   4.676
 3892SOL     OW12574   0.403   1.145   2.546
 3892SOL    HW112575   0.346   1.064   2.555
 3892SOL    HW212576   0.480   1.139   2.609
 3893SOL     OW12577   2.700   5.371   2.040
 3893SOL    HW112578   2.704   5.470   2.049
 3893SOL    HW212579   2.774   5.340   1.981
 3894SOL     OW12580   3.007   1.902   0.171
 3894SOL    HW112581   2.942   1.885   0.097
 3894SOL    HW212582   3.014   2.000   0.187
 3895SOL     OW12583   1.482   1.247   5.216
 3895SOL    HW112584   1.393   1.202   5.205
 3895SOL    HW212585   1.470   1.345   5.227
 3896SOL     OW12586   0.303   2.361   5.910
 3896SOL    HW112587   0.288   2.266   5.884
 3896SOL    HW212588   0.304   2.419   5.828
 3897SOL     OW12589   3.414   6.415   1.952
 3897SOL    HW112590   3.472   6.420   2.033
 3897SOL    HW212591   3.346   6.488   1.955
 3898SOL     OW12592   3.198   3.003   3.295
 3898SOL    HW112593   3.164   3.020   3.202
 3898SOL    HW212594   3.280   3.059   3.311
 3899SOL     OW12595   4.903   1.215   4.368
 3899SOL    HW112596   4.879   1.238   4.273
 3899SOL    HW212597   4.990   1.168   4.370
 3900SOL     OW12598   5.077   3.413   3.202
 3900SOL    HW112599   5.069   3.444   3.296
 3900SOL    HW212600   5.171   3.423   3.171
 3901SOL     OW12601   2.672   6.230   5.621
 3901SOL    HW112602   2.757   6.267   5.583
 3901SOL    HW212603   2.694   6.169   5.696
 3902SOL     OW12604   4.918   4.137   2.214
 3902SOL    HW112605   4.995   4.101   2.267
 3902SOL    HW212606   4.876   4.213   2.264
 3903SOL     OW12607   4.194   3.481   6.695
 3903SOL    HW112608   4.119   3.416   6.705
 3903SOL    HW212609   4.184   3.555   6.763
 3904SOL     OW12610   1.509   1.030   6.357
 3904SOL    HW112611   1.571   1.062   6.285
 3904SOL    HW212612   1.562   1.012   6.440
 3905SOL     OW12613   5.941   6.247   5.836
 3905SOL    HW112614   6.014   6.315   5.831
 3905SOL    HW212615   5.867   6.272   5.773
 3906SOL     OW12616   1.615   5.132   5.714
 3906SOL    HW112617   1.666   5.206   5.756
 3906SOL    HW212618   1.538   5.170   5.662
 3907SOL     OW12619   0.373   0.842   4.432
 3907SOL    HW112620   0.303   0.881   4.493
 3907SOL    HW212621   0.452   0.814   4.486
 3908SOL     OW12622   1.073   1.256   6.436
 3908SOL    HW112623   1.104   1.326   6.499
 3908SOL    HW212624   1.146   1.189   6.420
 3909SOL     OW12625   6.122   4.359   6.580
 3909SOL    HW112626   6.194   4.328   6.643
 3909SOL    HW212627   6.042   4.300   6.590
 3910SOL     OW12628   3.682   4.072   2.227
 3910SOL    HW112629   3.689   4.163   2.187
 3910SOL    HW212630   3.735   4.069   2.312
 3911SOL     OW12631   5.028   1.316   0.773
 3911SOL    HW112632   5.104   1.301   0.709
 3911SOL    HW212633   5.016   1.235   0.830
 3912SOL     OW12634   3.717   0.893   6.177
 3912SOL    HW112635   3.648   0.875   6.247
 3912SOL    HW212636   3.699   0.983   6.135
 3913SOL     OW12637   3.732   5.817   7.021
 3913SOL    HW112638   3.724   5.906   6.977
 3913SOL    HW212639   3.645   5.792   0.037
 3914SOL     OW12640   5.042   0.927   1.263
 3914SOL    HW112641   4.989   1.012   1.261
 3914SOL    HW212642   5.012   0.868   1.188
 3915SOL     OW12643   4.266   6.670   6.918
 3915SOL    HW112644   4.177   6.691   6.957
 3915SOL    HW212645   4.303   6.588   6.962
 3916SOL     OW12646   2.822   0.060   3.009
 3916SOL    HW112647   2.866   0.010   2.934
 3916SOL    HW212648   2.800   7.021   3.082
 3917SOL     OW12649   2.485   4.804   0.724
 3917SOL    HW112650   2.546   4.759   0.659
 3917SOL    HW212651   2.390   4.778   0.704
 3918SOL     OW12652   4.158   0.302   0.562
 3918SOL    HW112653   4.178   0.396   0.536
 3918SOL    HW212654   4.061   0.283   0.551
 3919SOL     OW12655   3.930   0.779   6.827
 3919SOL    HW112656   3.956   0.721   6.904
 3919SOL    HW212657   3.911   0.872   6.859
 3920SOL     OW12658   2.184   0.553   0.360
 3920SOL    HW112659   2.192   0.455   0.340
 3920SOL    HW212660   2.240   0.605   0.296
 3921SOL     OW12661   0.029   2.440   6.509
 3921SOL    HW112662   7.012   2.364   6.558
 3921SOL    HW212663   6.984   2.492   6.460
 3922SOL     OW12664   4.747   5.057   1.420
 3922SOL    HW112665   4.702   4.981   1.467
 3922SOL    HW212666   4.706   5.069   1.329
 3923SOL     OW12667   5.611   2.208   0.884
 3923SOL    HW112668   5.601   2.291   0.940
 3923SOL    HW212669   5.572   2.224   0.794
 3924SOL     OW12670   0.685   4.535   3.214
 3924SOL    HW112671   0.685   4.479   3.297
 3924SOL    HW212672   0.607   4.509   3.157
 3925SOL     OW12673   5.027   4.781   1.563
 3925SOL    HW112674   5.092   4.786   1.638
 3925SOL    HW212675   4.955   4.715   1.585
 3926SOL     OW12676   0.628   0.147   5.276
 3926SOL    HW112677   0.689   0.209   5.226
 3926SOL    HW212678   0.674   0.060   5.291
 3927SOL     OW12679   0.704   3.025   4.166
 3927SOL    HW112680   0.676   2.957   4.234
 3927SOL    HW212681   0.800   3.050   4.182
 3928SOL     OW12682   2.789   6.263   2.185
 3928SOL    HW112683   2.826   6.240   2.095
 3928SOL    HW212684   2.693   6.290   2.175
 3929SOL     OW12685   0.140   1.081   0.218
 3929SOL    HW112686   0.207   1.109   0.287
 3929SOL    HW212687   0.129   1.154   0.151
 3930SOL     OW12688   0.850   2.081   3.691
 3930SOL    HW112689   0.937   2.046   3.655
 3930SOL    HW212690   0.850   2.181   3.687
 3931SOL     OW12691   1.706   2.020   1.810
 3931SOL    HW112692   1.714   2.062   1.900
 3931SOL    HW212693   1.688   1.922   1.819
 3932SOL     OW12694   2.752   5.394   4.310
 3932SOL    HW112695   2.733   5.453   4.388
 3932SOL    HW212696   2.767   5.300   4.342
 3933SOL     OW12697   1.731   6.653   0.042
 3933SOL    HW112698   1.707   6.679   6.974
 3933SOL    HW212699   1.713   6.729   0.104
 3934SOL     OW12700   0.196   1.261   3.645
 3934SOL    HW112701   0.131   1.185   3.642
 3934SOL    HW212702   0.191   1.312   3.559
 3935SOL     OW12703   6.828   2.132   5.793
 3935SOL    HW112704   6.829   2.056   5.859
 3935SOL    HW212705   6.737   2.174   5.792
 3936SOL     OW12706   6.871   6.254   5.539
 3936SOL    HW112707   6.831   6.248   5.447
 3936SOL    HW212708   6.955   6.308   5.535
 3937SOL     OW12709   0.647   6.097   3.313
 3937SOL    HW112710   0.744   6.080   3.297
 3937SOL    HW212711   0.603   6.121   3.227
 3938SOL     OW12712   6.752   3.513   4.083
 3938SOL    HW112713   6.791   3.572   4.154
 3938SOL    HW212714   6.707   3.435   4.126
 3939SOL     OW12715   2.602   1.802   3.796
 3939SOL    HW112716   2.582   1.881   3.738
 3939SOL    HW212717   2.556   1.814   3.884
 3940SOL     OW12718   2.975   4.791   1.872
 3940SOL    HW112719   2.931   4.726   1.934
 3940SOL    HW212720   3.074   4.777   1.874
 3941SOL     OW12721   5.684   6.922   4.182
 3941SOL    HW112722   5.737   7.005   4.196
 3941SOL    HW212723   5.650   6.888   4.270
 3942SOL     OW12724   0.861   6.283   5.361
 3942SOL    HW112725   0.814   6.334   5.432
 3942SOL    HW212726   0.894   6.346   5.290
 3943SOL     OW12727   0.948   3.264   1.587
 3943SOL    HW112728   0.898   3.343   1.625
 3943SOL    HW212729   0.974   3.284   1.493
 3944SOL     OW12730   5.698   3.657   5.495
 3944SOL    HW112731   5.671   3.702   5.580
 3944SOL    HW212732   5.644   3.573   5.483
 3945SOL     OW12733   1.052   2.355   3.453
 3945SOL    HW112734   0.961   2.371   3.493
 3945SOL    HW212735   1.100   2.442   3.444
 3946SOL     OW12736   0.551   3.835   0.063
 3946SOL    HW112737   0.638   3.873   0.094
 3946SOL    HW212738   0.482   3.907   0.061
 3947SOL     OW12739   6.153   5.070   0.199
 3947SOL    HW112740   6.217   5.018   0.255
 3947SOL    HW212741   6.102   5.008   0.140
 3948SOL     OW12742   1.219   3.638   0.005
 3948SOL    HW112743   1.137   3.693   7.019
 3948SOL    HW212744   1.199   3.559   0.062
 3949SOL     OW12745   6.520   6.994   3.565
 3949SOL    HW112746   6.450   7.025   3.501
 3949SOL    HW212747   6.607   6.985   3.517
 3950SOL     OW12748   4.045   4.065   1.769
 3950SOL    HW112749   4.107   3.995   1.734
 3950SOL    HW212750   4.027   4.049   1.866
 3951SOL     OW12751   6.820   1.666   6.991
 3951SOL    HW112752   6.874   1.735   6.944
 3951SOL    HW212753   6.848   1.575   6.960
 3952SOL     OW12754   5.929   3.313   4.493
 3952SOL    HW112755   5.837   3.352   4.494
 3952SOL    HW212756   5.970   3.327   4.402
 3953SOL     OW12757   3.286   4.626   5.775
 3953SOL    HW112758   3.376   4.622   5.819
 3953SOL    HW212759   3.272   4.542   5.723
 3954SOL     OW12760   5.996   4.793   5.677
 3954SOL    HW112761   5.963   4.878   5.720
 3954SOL    HW212762   6.074   4.758   5.728
 3955SOL     OW12763   4.772   6.300   0.053
 3955SOL    HW112764   4.817   6.271   6.994
 3955SOL    HW212765   4.711   6.227   0.085
 3956SOL     OW12766   0.617   2.627   5.176
 3956SOL    HW112767   0.711   2.646   5.204
 3956SOL    HW212768   0.588   2.695   5.109
 3957SOL     OW12769   3.194   5.932   3.758
 3957SOL    HW112770   3.287   5.942   3.795
 3957SOL    HW212771   3.134   5.892   3.827
 3958SOL     OW12772   5.682   6.674   0.171
 3958SOL    HW112773   5.597   6.688   0.121
 3958SOL    HW212774   5.723   6.587   0.144
 3959SOL     OW12775   3.356   6.145   0.953
 3959SOL    HW112776   3.432   6.123   1.014
 3959SOL    HW212777   3.355   6.080   0.876
 3960SOL     OW12778   5.226   2.639   5.956
 3960SOL    HW112779   5.197   2.723   5.910
 3960SOL    HW212780   5.160   2.566   5.939
 3961SOL     OW12781   5.354   1.965   1.841
 3961SOL    HW112782   5.316   2.043   1.891
 3961SOL    HW212783   5.436   1.993   1.792
 3962SOL     OW12784   0.457   5.947   6.854
 3962SOL    HW112785   0.549   5.922   6.884
 3962SOL    HW212786   0.408   5.865   6.825
 3963SOL     OW12787   6.120   5.651   3.273
 3963SOL    HW112788   6.081   5.662   3.182
 3963SOL    HW212789   6.189   5.578   3.271
 3964SOL     OW12790   4.907   5.490   5.185
 3964SOL    HW112791   4.943   5.438   5.263
 3964SOL    HW212792   4.938   5.448   5.100
 3965SOL     OW12793   3.501   4.985   5.778
 3965SOL    HW112794   3.430   4.999   5.708
 3965SOL    HW212795   3.586   4.956   5.734
 3966SOL     OW12796   6.430   4.886   6.552
 3966SOL    HW112797   6.348   4.937   6.524
 3966SOL    HW212798   6.455   4.911   6.645
 3967SOL     OW12799   1.179   4.956   3.205
 3967SOL    HW112800   1.130   4.870   3.221
 3967SOL    HW212801   1.117   5.024   3.166
 3968SOL     OW12802   5.219   0.495   2.210
 3968SOL    HW112803   5.135   0.458   2.171
 3968SOL    HW212804   5.209   0.505   2.309
 3969SOL     OW12805   0.788   4.588   2.718
 3969SOL    HW112806   0.854   4.659   2.694
 3969SOL    HW212807   0.774   4.587   2.817
 3970SOL     OW12808   5.017   5.521   3.612
 3970SOL    HW112809   4.980   5.589   3.675
 3970SOL    HW212810   5.101   5.483   3.649
 3971SOL     OW12811   2.999   5.330   2.537
 3971SOL    HW112812   3.065   5.257   2.558
 3971SOL    HW212813   2.945   5.303   2.458
 3972SOL     OW12814   0.424   5.862   0.567
 3972SOL    HW112815   0.484   5.820   0.499
 3972SOL    HW212816   0.380   5.791   0.621
 3973SOL     OW12817   3.450   3.433   4.945
 3973SOL    HW112818   3.524   3.492   4.912
 3973SOL    HW212819   3.453   3.430   5.045
 3974SOL     OW12820   0.444   0.737   6.348
 3974SOL    HW112821   0.529   0.789   6.351
 3974SOL    HW212822   0.376   0.780   6.406
 3975SOL     OW12823   6.952   0.224   5.851
 3975SOL    HW112824   0.006   0.250   5.797
 3975SOL    HW212825   6.933   0.126   5.837
 3976SOL     OW12826   1.116   4.981   1.138
 3976SOL    HW112827   1.174   4.933   1.072
 3976SOL    HW212828   1.169   5.004   1.219
 3977SOL     OW12829   3.107   5.149   5.812
 3977SOL    HW112830   3.036   5.147   5.882
 3977SOL    HW212831   3.188   5.196   5.848
 3978SOL     OW12832   5.187   0.883   4.826
 3978SOL    HW112833   5.281   0.889   4.794
 3978SOL    HW212834   5.125   0.899   4.749
 3979SOL     OW12835   2.195   6.176   1.892
 3979SOL    HW112836   2.118   6.224   1.934
 3979SOL    HW212837   2.264   6.157   1.961
 3980SOL     OW12838   6.592   3.798   5.445
 3980SOL    HW112839   6.671   3.744   5.475
 3980SOL    HW212840   6.562   3.857   5.520
 3981SOL     OW12841   0.293   1.545   6.243
 3981SOL    HW112842   0.286   1.487   6.161
 3981SOL    HW212843   0.203   1.579   6.268
 3982SOL     OW12844   2.743   0.533   4.408
 3982SOL    HW112845   2.739   0.607   4.342
 3982SOL    HW212846   2.819   0.472   4.387
 3983SOL     OW12847   2.982   5.902   4.573
 3983SOL    HW112848   3.008   5.848   4.653
 3983SOL    HW212849   2.910   5.966   4.598
 3984SOL     OW12850   1.967   0.019   1.519
 3984SOL    HW112851   1.888   0.046   1.464
 3984SOL    HW212852   1.974   0.079   1.599
 3985SOL     OW12853   1.938   3.819   6.706
 3985SOL    HW112854   1.979   3.898   6.752
 3985SOL    HW212855   1.974   3.814   6.612
 3986SOL     OW12856   0.300   1.579   3.200
 3986SOL    HW112857   0.292   1.531   3.112
 3986SOL    HW212858   0.393   1.614   3.211
 3987SOL     OW12859   1.552   5.418   4.931
 3987SOL    HW112860   1.536   5.401   5.028
 3987SOL    HW212861   1.599   5.339   4.890
 3988SOL     OW12862   3.717   1.655   5.835
 3988SOL    HW112863   3.808   1.641   5.875
 3988SOL    HW212864   3.725   1.655   5.735
 3989SOL     OW12865   6.102   0.539   5.781
 3989SOL    HW112866   6.024   0.550   5.720
 3989SOL    HW212867   6.093   0.454   5.832
 3990SOL     OW12868   5.358   2.218   4.266
 3990SOL    HW112869   5.415   2.159   4.323
 3990SOL    HW212870   5.325   2.167   4.187
 3991SOL     OW12871   6.548   2.430   3.347
 3991SOL    HW112872   6.621   2.494   3.323
 3991SOL    HW212873   6.574   2.337   3.319
 3992SOL     OW12874   4.704   3.007   6.732
 3992SOL    HW112875   4.620   3.022   6.784
 3992SOL    HW212876   4.686   2.943   6.657
 3993SOL     OW12877   2.431   2.052   3.367
 3993SOL    HW112878   2.428   2.152   3.360
 3993SOL    HW212879   2.367   2.013   3.301
 3994SOL     OW12880   2.144   2.518   5.061
 3994SOL    HW112881   2.235   2.513   5.019
 3994SOL    HW212882   2.074   2.518   4.989
 3995SOL     OW12883   2.489   4.846   4.205
 3995SOL    HW112884   2.465   4.860   4.109
 3995SOL    HW212885   2.548   4.766   4.213
 3996SOL     OW12886   2.076   1.208   5.032
 3996SOL    HW112887   1.995   1.240   4.981
 3996SOL    HW212888   2.094   1.113   5.010
 3997SOL     OW12889   4.916   3.854   3.494
 3997SOL    HW112890   5.003   3.904   3.495
 3997SOL    HW212891   4.904   3.812   3.404
 3998SOL     OW12892   5.565   2.138   2.331
 3998SOL    HW112893   5.596   2.225   2.291
 3998SOL    HW212894   5.637   2.069   2.321
 3999SOL     OW12895   6.146   4.053   3.469
 3999SOL    HW112896   6.207   3.979   3.442
 3999SOL    HW212897   6.052   4.021   3.468
 4000SOL     OW12898   3.356   5.367   2.714
 4000SOL    HW112899   3.445   5.375   2.759
 4000SOL    HW212900   3.326   5.271   2.717
 4001SOL     OW12901   2.245   3.586   5.328
 4001SOL    HW112902   2.340   3.555   5.336
 4001SOL    HW212903   2.245   3.684   5.305
 4002SOL     OW12904   3.711   3.805   5.117
 4002SOL    HW112905   3.743   3.716   5.149
 4002SOL    HW212906   3.730   3.874   5.187
 4003SOL     OW12907   2.226   1.176   6.287
 4003SOL    HW112908   2.301   1.164   6.351
 4003SOL    HW212909   2.252   1.138   6.197
 4004SOL     OW12910   6.088   3.002   4.868
 4004SOL    HW112911   6.114   3.063   4.793
 4004SOL    HW212912   6.152   2.925   4.870
 4005SOL     OW12913   5.309   4.750   1.218
 4005SOL    HW112914   5.315   4.657   1.252
 4005SOL    HW212915   5.240   4.801   1.270
 4006SOL     OW12916   5.649   4.727   2.209
 4006SOL    HW112917   5.744   4.757   2.195
 4006SOL    HW212918   5.609   4.777   2.286
 4007SOL     OW12919   0.538   2.318   3.038
 4007SOL    HW112920   0.562   2.225   3.014
 4007SOL    HW212921   0.613   2.380   3.015
 4008SOL     OW12922   3.303   1.146   6.054
 4008SOL    HW112923   3.387   1.132   6.106
 4008SOL    HW212924   3.291   1.244   6.036
 4009SOL     OW12925   4.052   1.945   1.016
 4009SOL    HW112926   3.971   1.890   0.996
 4009SOL    HW212927   4.034   2.041   0.992
 4010SOL     OW12928   2.897   3.412   1.512
 4010SOL    HW112929   2.854   3.391   1.600
 4010SOL    HW212930   2.967   3.482   1.524
 4011SOL     OW12931   0.247   6.658   1.747
 4011SOL    HW112932   0.169   6.718   1.733
 4011SOL    HW212933   0.216   6.563   1.753
 4012SOL     OW12934   4.371   6.438   2.077
 4012SOL    HW112935   4.402   6.509   2.141
 4012SOL    HW212936   4.331   6.362   2.129
 4013SOL     OW12937   2.304   0.349   1.454
 4013SOL    HW112938   2.391   0.370   1.409
 4013SOL    HW212939   2.243   0.303   1.389
 4014SOL     OW12940   3.596   5.850   3.682
 4014SOL    HW112941   3.554   5.877   3.769
 4014SOL    HW212942   3.613   5.751   3.683
 4015SOL     OW12943   4.452   4.395   6.961
 4015SOL    HW112944   4.528   4.417   6.900
 4015SOL    HW212945   4.387   4.471   6.962
 4016SOL     OW12946   2.247   5.596   0.090
 4016SOL    HW112947   2.311   5.619   0.017
 4016SOL    HW212948   2.202   5.509   0.070
 4017SOL     OW12949   0.725   6.385   6.003
 4017SOL    HW112950   0.823   6.376   6.020
 4017SOL    HW212951   0.680   6.424   6.084
 4018SOL     OW12952   5.063   6.527   1.179
 4018SOL    HW112953   5.024   6.560   1.265
 4018SOL    HW212954   5.092   6.606   1.125
 4019SOL     OW12955   5.951   4.151   2.808
 4019SOL    HW112956   5.878   4.171   2.873
 4019SOL    HW212957   6.037   4.190   2.841
 4020SOL     OW12958   6.731   3.299   5.798
 4020SOL    HW112959   6.816   3.323   5.751
 4020SOL    HW212960   6.676   3.239   5.739
 4021SOL     OW12961   3.323   4.087   5.239
 4021SOL    HW112962   3.307   3.993   5.208
 4021SOL    HW212963   3.417   4.114   5.216
 4022SOL     OW12964   4.484   6.866   6.882
 4022SOL    HW112965   4.413   6.797   6.892
 4022SOL    HW212966   4.443   6.957   6.889
 4023SOL     OW12967   0.423   0.626   4.893
 4023SOL    HW112968   0.475   0.585   4.967
 4023SOL    HW212969   0.330   0.589   4.894
 4024SOL     OW12970   2.663   5.479   4.540
 4024SOL    HW112971   2.678   5.392   4.586
 4024SOL    HW212972   2.708   5.552   4.591
 4025SOL     OW12973   1.043   5.991   3.877
 4025SOL    HW112974   0.996   5.961   3.795
 4025SOL    HW212975   0.979   5.991   3.954
 4026SOL     OW12976   5.968   6.603   3.254
 4026SOL    HW112977   5.869   6.588   3.253
 4026SOL    HW212978   5.999   6.617   3.348
 4027SOL     OW12979   2.897   2.444   0.098
 4027SOL    HW112980   2.878   2.530   0.147
 4027SOL    HW212981   2.814   2.413   0.051
 4028SOL     OW12982   3.869   1.748   3.413
 4028SOL    HW112983   3.943   1.811   3.389
 4028SOL    HW212984   3.782   1.797   3.414
 4029SOL     OW12985   2.845   4.559   5.800
 4029SOL    HW112986   2.892   4.515   5.722
 4029SOL    HW212987   2.833   4.656   5.781
 4030SOL     OW12988   0.439   1.842   1.981
 4030SOL    HW112989   0.386   1.780   2.039
 4030SOL    HW212990   0.386   1.864   1.899
 4031SOL     OW12991   5.434   6.036   3.638
 4031SOL    HW112992   5.492   5.957   3.658
 4031SOL    HW212993   5.393   6.025   3.547
 4032SOL     OW12994   6.780   0.420   2.112
 4032SOL    HW112995   6.841   0.478   2.058
 4032SOL    HW212996   6.740   0.350   2.054
 4033SOL     OW12997   2.243   3.254   1.502
 4033SOL    HW112998   2.181   3.333   1.508
 4033SOL    HW212999   2.293   3.245   1.589
 4034SOL     OW13000   6.320   1.881   4.740
 4034SOL    HW113001   6.359   1.842   4.657
 4034SOL    HW213002   6.330   1.981   4.737
 4035SOL     OW13003   6.411   2.016   1.287
 4035SOL    HW113004   6.506   2.018   1.255
 4035SOL    HW213005   6.392   1.928   1.330
 4036SOL     OW13006   4.334   5.519   2.044
 4036SOL    HW113007   4.258   5.488   1.987
 4036SOL    HW213008   4.400   5.569   1.988
 4037SOL     OW13009   2.163   1.455   0.074
 4037SOL    HW113010   2.225   1.413   0.141
 4037SOL    HW213011   2.073   1.468   0.116
 4038SOL     OW13012   4.584   2.874   1.456
 4038SOL    HW113013   4.618   2.942   1.521
 4038SOL    HW213014   4.573   2.916   1.366
 4039SOL     OW13015   6.082   5.209   1.389
 4039SOL    HW113016   6.128   5.189   1.302
 4039SOL    HW213017   6.111   5.143   1.458
 4040SOL     OW13018   3.679   0.355   5.927
 4040SOL    HW113019   3.674   0.406   6.012
 4040SOL    HW213020   3.705   0.416   5.852
 4041SOL     OW13021   0.885   5.230   1.382
 4041SOL    HW113022   0.810   5.268   1.436
 4041SOL    HW213023   0.864   5.135   1.359
 4042SOL     OW13024   6.053   5.577   2.996
 4042SOL    HW113025   6.106   5.643   2.943
 4042SOL    HW213026   6.100   5.489   2.997
 4043SOL     OW13027   6.230   2.511   4.871
 4043SOL    HW113028   6.161   2.493   4.800
 4043SOL    HW213029   6.305   2.446   4.861
 4044SOL     OW13030   4.438   6.992   3.300
 4044SOL    HW113031   4.399   6.996   3.392
 4044SOL    HW213032   4.375   0.009   3.235
 4045SOL     OW13033   3.882   6.061   5.221
 4045SOL    HW113034   3.852   6.015   5.137
 4045SOL    HW213035   3.804   6.072   5.283
 4046SOL     OW13036   1.331   1.878   4.138
 4046SOL    HW113037   1.383   1.960   4.115
 4046SOL    HW213038   1.393   1.810   4.177
 4047SOL     OW13039   1.855   2.322   0.465
 4047SOL    HW113040   1.815   2.232   0.481
 4047SOL    HW213041   1.955   2.316   0.467
 4048SOL     OW13042   4.981   2.104   1.718
 4048SOL    HW113043   5.064   2.140   1.676
 4048SOL    HW213044   4.902   2.157   1.687
 4049SOL     OW13045   5.924   5.064   6.365
 4049SOL    HW113046   5.849   5.092   6.305
 4049SOL    HW213047   5.949   4.969   6.345
 4050SOL     OW13048   1.432   6.856   1.471
 4050SOL    HW113049   1.521   6.846   1.515
 4050SOL    HW213050   1.360   6.852   1.540
 4051SOL     OW13051   4.318   1.901   6.958
 4051SOL    HW113052   4.240   1.936   6.905
 4051SOL    HW213053   4.294   1.813   6.998
 4052SOL     OW13054   6.588   1.314   2.872
 4052SOL    HW113055   6.593   1.406   2.910
 4052SOL    HW213056   6.586   1.319   2.772
 4053SOL     OW13057   3.082   5.645   3.714
 4053SOL    HW113058   3.053   5.708   3.787
 4053SOL    HW213059   3.120   5.562   3.755
 4054SOL     OW13060   6.368   4.013   1.626
 4054SOL    HW113061   6.342   3.930   1.578
 4054SOL    HW213062   6.291   4.077   1.625
 4055SOL     OW13063   3.134   3.084   0.188
 4055SOL    HW113064   3.045   3.129   0.185
 4055SOL    HW213065   3.138   3.023   0.266
 4056SOL     OW13066   3.972   4.100   0.385
 4056SOL    HW113067   4.018   4.074   0.300
 4056SOL    HW213068   4.016   4.182   0.423
 4057SOL     OW13069   6.269   3.079   1.423
 4057SOL    HW113070   6.264   3.178   1.415
 4057SOL    HW213071   6.350   3.045   1.374
 4058SOL     OW13072   1.730   0.262   4.559
 4058SOL    HW113073   1.691   0.341   4.513
 4058SOL    HW213074   1.782   0.292   4.639
 4059SOL     OW13075   1.648   1.848   3.168
 4059SOL    HW113076   1.638   1.853   3.268
 4059SOL    HW213077   1.619   1.934   3.127
 4060SOL     OW13078   5.667   5.863   4.993
 4060SOL    HW113079   5.687   5.868   5.091
 4060SOL    HW213080   5.668   5.767   4.965
 4061SOL     OW13081   2.829   4.782   2.197
 4061SOL    HW113082   2.816   4.729   2.112
 4061SOL    HW213083   2.927   4.794   2.213
 4062SOL     OW13084   1.818   2.164   2.255
 4062SOL    HW113085   1.873   2.247   2.241
 4062SOL    HW213086   1.879   2.085   2.264
 4063SOL     OW13087   6.167   6.312   6.664
 4063SOL    HW113088   6.076   6.322   6.704
 4063SOL    HW213089   6.206   6.224   6.691
 4064SOL     OW13090   2.895   0.187   4.079
 4064SOL    HW113091   2.916   0.134   3.997
 4064SOL    HW213092   2.873   0.281   4.054
 4065SOL     OW13093   0.686   0.228   0.914
 4065SOL    HW113094   0.656   0.293   0.983
 4065SOL    HW213095   0.782   0.204   0.929
 4066SOL     OW13096   5.470   5.333   3.833
 4066SOL    HW113097   5.505   5.347   3.740
 4066SOL    HW213098   5.538   5.362   3.900
 4067SOL     OW13099   6.145   3.275   2.903
 4067SOL    HW113100   6.240   3.253   2.880
 4067SOL    HW213101   6.097   3.192   2.931
 4068SOL     OW13102   2.139   1.449   4.520
 4068SOL    HW113103   2.203   1.448   4.444
 4068SOL    HW213104   2.121   1.356   4.551
 4069SOL     OW13105   2.481   5.090   6.358
 4069SOL    HW113106   2.498   5.029   6.281
 4069SOL    HW213107   2.390   5.130   6.350
 4070SOL     OW13108   0.268   3.743   2.285
 4070SOL    HW113109   0.313   3.814   2.340
 4070SOL    HW213110   0.173   3.733   2.315
 4071SOL     OW13111   1.699   0.838   5.497
 4071SOL    HW113112   1.669   0.823   5.402
 4071SOL    HW213113   1.799   0.830   5.502
 4072SOL     OW13114   0.120   5.404   4.411
 4072SOL    HW113115   0.189   5.472   4.438
 4072SOL    HW213116   0.136   5.377   4.316
 4073SOL     OW13117   2.633   6.189   6.527
 4073SOL    HW113118   2.563   6.244   6.573
 4073SOL    HW213119   2.679   6.244   6.458
 4074SOL     OW13120   6.888   3.445   2.082
 4074SOL    HW113121   6.905   3.431   2.179
 4074SOL    HW213122   6.890   3.356   2.035
 4075SOL     OW13123   3.687   1.990   1.894
 4075SOL    HW113124   3.688   2.088   1.913
 4075SOL    HW213125   3.753   1.969   1.821
 4076SOL     OW13126   2.668   2.837   5.551
 4076SOL    HW113127   2.602   2.799   5.616
 4076SOL    HW213128   2.698   2.927   5.581
 4077SOL     OW13129   2.850   0.635   0.451
 4077SOL    HW113130   2.900   0.609   0.368
 4077SOL    HW213131   2.758   0.664   0.427
 4078SOL     OW13132   0.133   5.868   1.896
 4078SOL    HW113133   0.117   5.905   1.987
 4078SOL    HW213134   0.099   5.933   1.827
 4079SOL     OW13135   1.197   1.915   3.690
 4079SOL    HW113136   1.171   1.996   3.637
 4079SOL    HW213137   1.180   1.932   3.787
 4080SOL     OW13138   3.684   4.427   6.678
 4080SOL    HW113139   3.693   4.335   6.719
 4080SOL    HW213140   3.734   4.429   6.592
 4081SOL     OW13141   1.621   2.882   4.893
 4081SOL    HW113142   1.551   2.818   4.862
 4081SOL    HW213143   1.712   2.841   4.877
 4082SOL     OW13144   1.412   3.065   0.865
 4082SOL    HW113145   1.379   3.148   0.912
 4082SOL    HW213146   1.460   3.092   0.782
 4083SOL     OW13147   6.926   4.782   1.872
 4083SOL    HW113148   6.844   4.743   1.914
 4083SOL    HW213149   6.929   4.756   1.775
 4084SOL     OW13150   4.826   2.203   3.608
 4084SOL    HW113151   4.820   2.288   3.661
 4084SOL    HW213152   4.843   2.225   3.512
 4085SOL     OW13153   1.845   6.022   0.948
 4085SOL    HW113154   1.752   6.055   0.933
 4085SOL    HW213155   1.904   6.055   0.874
 4086SOL     OW13156   0.831   5.254   1.788
 4086SOL    HW113157   0.833   5.296   1.879
 4086SOL    HW213158   0.915   5.277   1.739
 4087SOL     OW13159   2.086   1.304   3.361
 4087SOL    HW113160   2.028   1.360   3.302
 4087SOL    HW213161   2.174   1.288   3.315
 4088SOL     OW13162   6.371   0.642   6.569
 4088SOL    HW113163   6.302   0.674   6.505
 4088SOL    HW213164   6.339   0.656   6.663
 4089SOL     OW13165   5.870   5.046   4.271
 4089SOL    HW113166   5.848   5.056   4.174
 4089SOL    HW213167   5.957   5.092   4.291
 4090SOL     OW13168   1.458   5.709   5.305
 4090SOL    HW113169   1.397   5.727   5.228
 4090SOL    HW213170   1.492   5.796   5.342
 4091SOL     OW13171   6.525   6.614   6.510
 4091SOL    HW113172   6.550   6.658   6.424
 4091SOL    HW213173   6.447   6.661   6.551
 4092SOL     OW13174   5.515   2.466   4.652
 4092SOL    HW113175   5.436   2.497   4.705
 4092SOL    HW213176   5.531   2.369   4.670
 4093SOL     OW13177   4.341   5.825   2.202
 4093SOL    HW113178   4.402   5.788   2.132
 4093SOL    HW213179   4.247   5.803   2.179
 4094SOL     OW13180   1.814   5.583   5.722
 4094SOL    HW113181   1.893   5.522   5.719
 4094SOL    HW213182   1.803   5.628   5.633
 4095SOL     OW13183   1.044   3.445   0.477
 4095SOL    HW113184   1.122   3.383   0.489
 4095SOL    HW213185   0.967   3.394   0.438
 4096SOL     OW13186   4.546   6.730   6.302
 4096SOL    HW113187   4.561   6.738   6.204
 4096SOL    HW213188   4.450   6.749   6.323
 4097SOL     OW13189   4.101   4.867   4.929
 4097SOL    HW113190   4.189   4.834   4.897
 4097SOL    HW213191   4.054   4.915   4.855
 4098SOL     OW13192   6.802   2.544   1.692
 4098SOL    HW113193   6.810   2.519   1.789
 4098SOL    HW213194   6.843   2.471   1.637
 4099SOL     OW13195   3.315   4.841   1.045
 4099SOL    HW113196   3.247   4.914   1.049
 4099SOL    HW213197   3.286   4.773   0.979
 4100SOL     OW13198   0.156   0.116   4.531
 4100SOL    HW113199   0.181   0.042   4.593
 4100SOL    HW213200   0.086   0.173   4.574
 4101SOL     OW13201   6.019   0.961   6.620
 4101SOL    HW113202   6.024   0.987   6.524
 4101SOL    HW213203   5.923   0.957   6.648
 4102SOL     OW13204   0.525   0.924   0.327
 4102SOL    HW113205   0.561   0.898   0.417
 4102SOL    HW213206   0.471   0.849   0.290
 4103SOL     OW13207   6.863   6.965   0.110
 4103SOL    HW113208   6.922   6.971   0.190
 4103SOL    HW213209   6.772   7.000   0.133
 4104SOL     OW13210   6.992   4.726   2.619
 4104SOL    HW113211   7.008   4.784   2.699
 4104SOL    HW213212   0.002   4.634   2.637
 4105SOL     OW13213   5.367   6.814   1.621
 4105SOL    HW113214   5.463   6.796   1.644
 4105SOL    HW213215   5.319   6.727   1.610
 4106SOL     OW13216   6.408   3.206   2.871
 4106SOL    HW113217   6.448   3.207   2.779
 4106SOL    HW213218   6.478   3.232   2.938
 4107SOL     OW13219   0.965   5.203   1.051
 4107SOL    HW113220   1.018   5.124   1.083
 4107SOL    HW213221   1.027   5.281   1.037
 4108SOL     OW13222   5.927   4.837   5.415
 4108SOL    HW113223   6.006   4.790   5.376
 4108SOL    HW213224   5.920   4.815   5.512
 4109SOL     OW13225   6.211   6.776   4.585
 4109SOL    HW113226   6.205   6.872   4.560
 4109SOL    HW213227   6.148   6.757   4.660
 4110SOL     OW13228   4.490   3.667   6.147
 4110SOL    HW113229   4.504   3.717   6.062
 4110SOL    HW213230   4.446   3.579   6.128
 4111SOL     OW13231   5.276   4.074   0.273
 4111SOL    HW113232   5.335   4.145   0.311
 4111SOL    HW213233   5.226   4.111   0.195
 4112SOL     OW13234   4.914   6.267   4.812
 4112SOL    HW113235   4.832   6.307   4.854
 4112SOL    HW213236   4.892   6.239   4.718
 4113SOL     OW13237   4.934   6.173   5.092
 4113SOL    HW113238   4.956   6.242   5.161
 4113SOL    HW213239   4.937   6.215   5.001
 4114SOL     OW13240   3.470   2.111   4.520
 4114SOL    HW113241   3.377   2.083   4.495
 4114SOL    HW213242   3.521   2.134   4.437
 4115SOL     OW13243   3.404   5.433   1.729
 4115SOL    HW113244   3.444   5.355   1.681
 4115SOL    HW213245   3.322   5.462   1.680
 4116SOL     OW13246   3.289   0.984   2.401
 4116SOL    HW113247   3.371   1.000   2.345
 4116SOL    HW213248   3.267   1.067   2.453
 4117SOL     OW13249   1.567   3.760   2.295
 4117SOL    HW113250   1.549   3.787   2.201
 4117SOL    HW213251   1.658   3.792   2.322
 4118SOL     OW13252   4.222   5.982   0.213
 4118SOL    HW113253   4.279   5.926   0.152
 4118SOL    HW213254   4.135   5.936   0.229
 4119SOL     OW13255   3.082   1.974   3.723
 4119SOL    HW113256   3.050   2.040   3.654
 4119SOL    HW213257   3.013   1.903   3.735
 4120SOL     OW13258   3.528   1.243   6.548
 4120SOL    HW113259   3.512   1.265   6.452
 4120SOL    HW213260   3.443   1.252   6.600
 4121SOL     OW13261   5.812   0.943   4.658
 4121SOL    HW113262   5.894   0.939   4.600
 4121SOL    HW213263   5.790   1.038   4.677
 4122SOL     OW13264   1.160   5.755   4.459
 4122SOL    HW113265   1.246   5.794   4.426
 4122SOL    HW213266   1.103   5.730   4.381
 4123SOL     OW13267   4.111   4.628   5.442
 4123SOL    HW113268   4.035   4.691   5.458
 4123SOL    HW213269   4.149   4.598   5.529
 4124SOL     OW13270   0.035   6.193   0.218
 4124SOL    HW113271   6.963   6.205   0.241
 4124SOL    HW213272   0.083   6.279   0.235
 4125SOL     OW13273   5.099   1.548   2.110
 4125SOL    HW113274   5.127   1.586   2.022
 4125SOL    HW213275   5.154   1.588   2.183
 4126SOL     OW13276   1.488   3.404   4.335
 4126SOL    HW113277   1.454   3.474   4.272
 4126SOL    HW213278   1.421   3.390   4.408
 4127SOL     OW13279   5.148   4.876   5.115
 4127SOL    HW113280   5.059   4.831   5.100
 4127SOL    HW213281   5.133   4.971   5.140
 4128SOL     OW13282   1.002   2.554   1.737
 4128SOL    HW113283   1.061   2.629   1.765
 4128SOL    HW213284   0.906   2.578   1.753
 4129SOL     OW13285   4.140   1.273   5.855
 4129SOL    HW113286   4.044   1.244   5.857
 4129SOL    HW213287   4.160   1.326   5.938
 4130SOL     OW13288   6.633   3.509   6.940
 4130SOL    HW113289   6.651   3.483   6.845
 4130SOL    HW213290   6.560   3.577   6.943
 4131SOL     OW13291   0.621   1.053   3.714
 4131SOL    HW113292   0.647   1.002   3.795
 4131SOL    HW213293   0.551   1.120   3.738
 4132SOL     OW13294   5.205   4.395   3.600
 4132SOL    HW113295   5.302   4.372   3.605
 4132SOL    HW213296   5.155   4.343   3.670
 4133SOL     OW13297   2.988   5.598   0.581
 4133SOL    HW113298   2.938   5.533   0.637
 4133SOL    HW213299   3.082   5.607   0.615
 4134SOL     OW13300   2.371   3.289   1.094
 4134SOL    HW113301   2.451   3.326   1.046
 4134SOL    HW213302   2.315   3.236   1.030
 4135SOL     OW13303   1.119   1.623   2.852
 4135SOL    HW113304   1.205   1.669   2.875
 4135SOL    HW213305   1.137   1.528   2.826
 4136SOL     OW13306   1.336   2.639   3.914
 4136SOL    HW113307   1.243   2.666   3.939
 4136SOL    HW213308   1.389   2.720   3.889
 4137SOL     OW13309   1.240   4.356   1.175
 4137SOL    HW113310   1.320   4.310   1.137
 4137SOL    HW213311   1.264   4.451   1.198
 4138SOL     OW13312   5.005   5.467   2.770
 4138SOL    HW113313   4.924   5.518   2.739
 4138SOL    HW213314   5.085   5.496   2.718
 4139SOL     OW13315   2.098   1.912   5.740
 4139SOL    HW113316   2.106   1.985   5.808
 4139SOL    HW213317   2.097   1.953   5.648
 4140SOL     OW13318   3.540   0.203   5.396
 4140SOL    HW113319   3.553   0.106   5.375
 4140SOL    HW213320   3.443   0.227   5.385
 4141SOL     OW13321   5.798   6.429   0.783
 4141SOL    HW113322   5.716   6.375   0.762
 4141SOL    HW213323   5.849   6.446   0.699
 4142SOL     OW13324   6.609   4.913   1.272
 4142SOL    HW113325   6.643   5.007   1.272
 4142SOL    HW213326   6.644   4.865   1.353
 4143SOL     OW13327   5.891   1.645   0.646
 4143SOL    HW113328   5.862   1.580   0.576
 4143SOL    HW213329   5.884   1.601   0.736
 4144SOL     OW13330   4.928   3.095   0.066
 4144SOL    HW113331   4.904   3.096   0.163
 4144SOL    HW213332   4.958   3.187   0.039
 4145SOL     OW13333   0.070   6.400   1.447
 4145SOL    HW113334   0.145   6.381   1.384
 4145SOL    HW213335   0.026   6.487   1.423
 4146SOL     OW13336   6.724   0.446   3.370
 4146SOL    HW113337   6.643   0.435   3.428
 4146SOL    HW213338   6.697   0.448   3.274
 4147SOL     OW13339   5.027   4.003   6.445
 4147SOL    HW113340   5.070   3.943   6.513
 4147SOL    HW213341   4.945   3.960   6.410
 4148SOL     OW13342   1.529   0.425   5.288
 4148SOL    HW113343   1.494   0.495   5.226
 4148SOL    HW213344   1.628   0.436   5.299
 4149SOL     OW13345   0.397   3.418   0.591
 4149SOL    HW113346   0.388   3.517   0.590
 4149SOL    HW213347   0.345   3.381   0.668
 4150SOL     OW13348   1.268   0.710   5.775
 4150SOL    HW113349   1.296   0.782   5.711
 4150SOL    HW213350   1.184   0.667   5.742
 4151SOL     OW13351   2.533   6.044   6.014
 4151SOL    HW113352   2.452   5.985   6.016
 4151SOL    HW213353   2.556   6.066   5.919
 4152SOL     OW13354   4.525   5.715   0.634
 4152SOL    HW113355   4.562   5.750   0.548
 4152SOL    HW213356   4.452   5.776   0.666
 4153SOL     OW13357   4.586   5.525   7.002
 4153SOL    HW113358   4.602   5.623   6.990
 4153SOL    HW213359   4.518   5.494   6.934
 4154SOL     OW13360   7.003   5.199   3.253
 4154SOL    HW113361   0.077   5.198   3.256
 4154SOL    HW213362   6.973   5.261   3.180
 4155SOL     OW13363   1.334   0.939   2.991
 4155SOL    HW113364   1.427   0.971   2.972
 4155SOL    HW213365   1.306   0.973   3.081
 4156SOL     OW13366   5.379   6.119   5.188
 4156SOL    HW113367   5.344   6.026   5.197
 4156SOL    HW213368   5.347   6.158   5.102
 4157SOL     OW13369   4.492   5.353   4.069
 4157SOL    HW113370   4.592   5.349   4.066
 4157SOL    HW213371   4.460   5.428   4.011
 4158SOL     OW13372   0.596   3.862   1.872
 4158SOL    HW113373   0.685   3.906   1.876
 4158SOL    HW213374   0.608   3.763   1.873
 4159SOL     OW13375   1.529   3.573   3.878
 4159SOL    HW113376   1.585   3.506   3.925
 4159SOL    HW213377   1.454   3.527   3.832
 4160SOL     OW13378   6.131   1.104   0.899
 4160SOL    HW113379   6.135   1.202   0.920
 4160SOL    HW213380   6.155   1.051   0.980
 4161SOL     OW13381   1.033   1.312   0.807
 4161SOL    HW113382   0.947   1.362   0.797
 4161SOL    HW213383   1.015   1.226   0.856
 4162SOL     OW13384   6.917   6.170   6.542
 4162SOL    HW113385   6.852   6.218   6.483
 4162SOL    HW213386   6.959   6.095   6.492
 4163SOL     OW13387   4.994   6.830   3.261
 4163SOL    HW113388   5.001   6.773   3.343
 4163SOL    HW213389   4.964   6.775   3.184
 4164SOL     OW13390   1.637   6.710   6.119
 4164SOL    HW113391   1.737   6.707   6.117
 4164SOL    HW213392   1.604   6.654   6.195
 4165SOL     OW13393   4.062   6.954   6.257
 4165SOL    HW113394   4.074   6.856   6.245
 4165SOL    HW213395   4.090   7.002   6.174
 4166SOL     OW13396   6.129   2.808   0.785
 4166SOL    HW113397   6.050   2.860   0.753
 4166SOL    HW213398   6.130   2.718   0.741
 4167SOL     OW13399   1.526   3.832   1.133
 4167SOL    HW113400   1.519   3.930   1.114
 4167SOL    HW213401   1.436   3.790   1.122
 4168SOL     OW13402   6.527   4.373   1.510
 4168SOL    HW113403   6.428   4.383   1.520
 4168SOL    HW213404   6.574   4.447   1.559
 4169SOL     OW13405   5.929   4.201   4.344
 4169SOL    HW113406   5.882   4.182   4.258
 4169SOL    HW213407   5.999   4.271   4.329
 4170SOL     OW13408   4.559   4.268   5.562
 4170SOL    HW113409   4.629   4.308   5.502
 4170SOL    HW213410   4.522   4.185   5.519
 4171SOL     OW13411   6.772   5.452   0.419
 4171SOL    HW113412   6.808   5.496   0.337
 4171SOL    HW213413   6.672   5.457   0.418
 4172SOL     OW13414   0.715   1.543   5.873
 4172SOL    HW113415   0.704   1.642   5.883
 4172SOL    HW213416   0.626   1.499   5.887
 4173SOL     OW13417   5.149   4.121   5.506
 4173SOL    HW113418   5.233   4.066   5.499
 4173SOL    HW213419   5.161   4.191   5.576
 4174SOL     OW13420   5.434   0.708   3.240
 4174SOL    HW113421   5.529   0.719   3.268
 4174SOL    HW213422   5.399   0.620   3.274
 4175SOL     OW13423   2.439   6.097   4.380
 4175SOL    HW113424   2.493   6.122   4.461
 4175SOL    HW213425   2.452   6.167   4.310
 4176SOL     OW13426   3.194   6.256   2.133
 4176SOL    HW113427   3.114   6.226   2.081
 4176SOL    HW213428   3.256   6.307   2.072
 4177SOL     OW13429   6.159   4.247   5.299
 4177SOL    HW113430   6.227   4.309   5.261
 4177SOL    HW213431   6.106   4.205   5.225
 4178SOL     OW13432   5.061   0.831   4.231
 4178SOL    HW113433   5.126   0.772   4.281
 4178SOL    HW213434   5.001   0.773   4.175
 4179SOL     OW13435   4.662   2.692   3.538
 4179SOL    HW113436   4.661   2.740   3.626
 4179SOL    HW213437   4.612   2.606   3.546
 4180SOL     OW13438   5.611   4.477   0.909
 4180SOL    HW113439   5.607   4.564   0.862
 4180SOL    HW213440   5.518   4.443   0.926
 4181SOL     OW13441   2.397   1.428   1.064
 4181SOL    HW113442   2.422   1.408   0.970
 4181SOL    HW213443   2.476   1.464   1.113
 4182SOL     OW13444   0.760   6.829   3.269
 4182SOL    HW113445   0.747   6.802   3.174
 4182SOL    HW213446   0.734   6.925   3.280
 4183SOL     OW13447   4.175   1.221   6.996
 4183SOL    HW113448   4.129   1.306   6.970
 4183SOL    HW213449   4.155   1.201   0.067
 4184SOL     OW13450   4.955   5.146   1.579
 4184SOL    HW113451   5.012   5.095   1.643
 4184SOL    HW213452   4.887   5.084   1.538
 4185SOL     OW13453   0.521   5.508   2.471
 4185SOL    HW113454   0.429   5.538   2.445
 4185SOL    HW213455   0.530   5.508   2.570
 4186SOL     OW13456   2.198   4.856   0.191
 4186SOL    HW113457   2.264   4.792   0.228
 4186SOL    HW213458   2.157   4.817   0.108
 4187SOL     OW13459   3.548   3.170   5.562
 4187SOL    HW113460   3.640   3.199   5.535
 4187SOL    HW213461   3.492   3.251   5.580
 4188SOL     OW13462   4.722   0.253   4.396
 4188SOL    HW113463   4.803   0.230   4.450
 4188SOL    HW213464   4.746   0.257   4.299
 4189SOL     OW13465   3.988   6.379   5.202
 4189SOL    HW113466   3.897   6.340   5.215
 4189SOL    HW213467   4.048   6.347   5.275
 4190SOL     OW13468   0.870   0.766   6.793
 4190SOL    HW113469   0.945   0.700   6.801
 4190SOL    HW213470   0.799   0.729   6.733
 4191SOL     OW13471   5.128   4.018   2.981
 4191SOL    HW113472   5.084   4.104   2.958
 4191SOL    HW213473   5.061   3.955   3.020
 4192SOL     OW13474   0.592   1.313   4.052
 4192SOL    HW113475   0.575   1.362   3.967
 4192SOL    HW213476   0.663   1.244   4.037
 4193SOL     OW13477   1.385   0.498   2.008
 4193SOL    HW113478   1.294   0.534   1.989
 4193SOL    HW213479   1.379   0.400   2.026
 4194SOL     OW13480   5.574   0.752   5.044
 4194SOL    HW113481   5.614   0.742   5.135
 4194SOL    HW213482   5.620   0.825   4.994
 4195SOL     OW13483   4.059   6.399   1.909
 4195SOL    HW113484   4.003   6.481   1.905
 4195SOL    HW213485   4.111   6.398   1.995
 4196SOL     OW13486   5.302   1.981   3.466
 4196SOL    HW113487   5.317   2.006   3.371
 4196SOL    HW213488   5.269   1.887   3.471
 4197SOL     OW13489   5.010   5.943   5.903
 4197SOL    HW113490   4.976   5.919   5.812
 4197SOL    HW213491   5.104   5.977   5.895
 4198SOL     OW13492   5.660   3.481   0.375
 4198SOL    HW113493   5.601   3.417   0.325
 4198SOL    HW213494   5.710   3.538   0.310
 4199SOL     OW13495   2.175   2.925   6.268
 4199SOL    HW113496   2.148   2.953   6.175
 4199SOL    HW213497   2.226   2.839   6.263
 4200SOL     OW13498   3.338   6.803   6.199
 4200SOL    HW113499   3.267   6.874   6.195
 4200SOL    HW213500   3.303   6.718   6.160
 4201SOL     OW13501   6.293   6.351   3.530
 4201SOL    HW113502   6.357   6.278   3.552
 4201SOL    HW213503   6.216   6.314   3.478
 4202SOL     OW13504   4.020   5.014   5.779
 4202SOL    HW113505   3.994   5.060   5.694
 4202SOL    HW213506   4.113   4.978   5.770
 4203SOL     OW13507   5.031   4.779   0.539
 4203SOL    HW113508   4.968   4.831   0.481
 4203SOL    HW213509   5.119   4.827   0.544
 4204SOL     OW13510   4.057   3.254   2.529
 4204SOL    HW113511   4.081   3.341   2.485
 4204SOL    HW213512   4.039   3.269   2.626
 4205SOL     OW13513   4.303   5.753   3.221
 4205SOL    HW113514   4.263   5.679   3.274
 4205SOL    HW213515   4.245   5.834   3.227
 4206SOL     OW13516   0.149   0.447   5.903
 4206SOL    HW113517   0.065   0.460   5.850
 4206SOL    HW213518   0.202   0.532   5.903
 4207SOL     OW13519   1.521   0.870   1.597
 4207SOL    HW113520   1.509   0.969   1.599
 4207SOL    HW213521   1.506   0.832   1.688
 4208SOL     OW13522   0.877   3.731   6.310
 4208SOL    HW113523   0.875   3.692   6.218
 4208SOL    HW213524   0.953   3.796   6.318
 4209SOL     OW13525   0.545   1.190   5.666
 4209SOL    HW113526   0.505   1.100   5.649
 4209SOL    HW213527   0.645   1.183   5.662
 4210SOL     OW13528   2.852   3.496   2.307
 4210SOL    HW113529   2.857   3.523   2.211
 4210SOL    HW213530   2.894   3.405   2.318
 4211SOL     OW13531   4.058   5.481   5.560
 4211SOL    HW113532   4.045   5.572   5.521
 4211SOL    HW213533   4.045   5.411   5.490
 4212SOL     OW13534   6.066   2.463   2.862
 4212SOL    HW113535   6.074   2.525   2.940
 4212SOL    HW213536   6.028   2.376   2.892
 4213SOL     OW13537   2.249   0.954   1.738
 4213SOL    HW113538   2.335   1.004   1.742
 4213SOL    HW213539   2.187   0.986   1.810
 4214SOL     OW13540   1.650   4.820   5.325
 4214SOL    HW113541   1.698   4.792   5.242
 4214SOL    HW213542   1.642   4.741   5.387
 4215SOL     OW13543   7.009   6.531   4.778
 4215SOL    HW113544   0.051   6.490   4.840
 4215SOL    HW213545   0.016   6.522   4.684
 4216SOL     OW13546   1.254   1.622   3.414
 4216SOL    HW113547   1.231   1.528   3.439
 4216SOL    HW213548   1.307   1.664   3.488
 4217SOL     OW13549   6.918   0.446   3.025
 4217SOL    HW113550   6.969   0.361   3.026
 4217SOL    HW213551   6.979   0.523   3.045
 4218SOL     OW13552   4.673   0.835   1.700
 4218SOL    HW113553   4.636   0.857   1.610
 4218SOL    HW213554   4.715   0.917   1.740
 4219SOL     OW13555   2.740   5.158   3.371
 4219SOL    HW113556   2.796   5.079   3.394
 4219SOL    HW213557   2.650   5.148   3.413
 4220SOL     OW13558   5.582   2.617   3.377
 4220SOL    HW113559   5.507   2.677   3.349
 4220SOL    HW213560   5.560   2.576   3.466
 4221SOL     OW13561   6.099   5.261   6.511
 4221SOL    HW113562   6.072   5.182   6.457
 4221SOL    HW213563   6.083   5.243   6.608
 4222SOL     OW13564   6.082   2.246   3.233
 4222SOL    HW113565   6.089   2.152   3.267
 4222SOL    HW213566   5.986   2.270   3.220
 4223SOL     OW13567   3.115   3.501   5.594
 4223SOL    HW113568   3.179   3.571   5.625
 4223SOL    HW213569   3.052   3.478   5.668
 4224SOL     OW13570   4.982   3.150   3.095
 4224SOL    HW113571   5.077   3.150   3.066
 4224SOL    HW213572   4.935   3.230   3.058
 4225SOL     OW13573   4.101   0.659   5.527
 4225SOL    HW113574   4.100   0.578   5.468
 4225SOL    HW213575   4.095   0.741   5.470
 4226SOL     OW13576   0.720   1.001   2.548
 4226SOL    HW113577   0.802   0.957   2.512
 4226SOL    HW213578   0.641   0.941   2.536
 4227SOL     OW13579   3.925   5.011   6.665
 4227SOL    HW113580   3.927   5.050   6.756
 4227SOL    HW213581   3.849   5.050   6.613
 4228SOL     OW13582   0.826   3.604   4.397
 4228SOL    HW113583   0.751   3.639   4.453
 4228SOL    HW213584   0.797   3.519   4.352
 4229SOL     OW13585   4.775   5.168   5.292
 4229SOL    HW113586   4.870   5.169   5.261
 4229SOL    HW213587   4.720   5.230   5.235
 4230SOL     OW13588   1.949   0.600   4.064
 4230SOL    HW113589   1.914   0.690   4.089
 4230SOL    HW213590   1.886   0.556   3.999
 4231SOL     OW13591   5.594   6.565   4.924
 4231SOL    HW113592   5.514   6.625   4.925
 4231SOL    HW213593   5.577   6.487   4.864
 4232SOL     OW13594   0.381   4.627   2.502
 4232SOL    HW113595   0.363   4.712   2.551
 4232SOL    HW213596   0.468   4.588   2.532
 4233SOL     OW13597   0.087   0.415   0.362
 4233SOL    HW113598   0.147   0.412   0.441
 4233SOL    HW213599   0.085   0.325   0.318
 4234SOL     OW13600   1.707   0.185   6.092
 4234SOL    HW113601   1.662   0.207   6.006
 4234SOL    HW213602   1.638   0.155   6.159
 4235SOL     OW13603   5.333   4.204   5.721
 4235SOL    HW113604   5.430   4.224   5.712
 4235SOL    HW213605   5.303   4.229   5.813
 4236SOL     OW13606   0.394   3.560   3.028
 4236SOL    HW113607   0.303   3.527   3.052
 4236SOL    HW213608   0.417   3.532   2.935
 4237SOL     OW13609   6.666   5.405   3.124
 4237SOL    HW113610   6.759   5.405   3.087
 4237SOL    HW213611   6.664   5.358   3.212
 4238SOL     OW13612   3.105   4.874   2.584
 4238SOL    HW113613   3.019   4.875   2.534
 4238SOL    HW213614   3.096   4.815   2.664
 4239SOL     OW13615   5.412   1.708   3.630
 4239SOL    HW113616   5.323   1.702   3.584
 4239SOL    HW213617   5.403   1.763   3.712
 4240SOL     OW13618   2.697   0.022   0.130
 4240SOL    HW113619   2.665   0.056   0.042
 4240SOL    HW213620   2.777   0.074   0.159
 4241SOL     OW13621   6.329   0.493   1.363
 4241SOL    HW113622   6.314   0.571   1.424
 4241SOL    HW213623   6.397   0.517   1.294
 4242SOL     OW13624   2.313   0.499   3.246
 4242SOL    HW113625   2.338   0.425   3.184
 4242SOL    HW213626   2.220   0.484   3.280
 4243SOL     OW13627   6.700   4.115   3.513
 4243SOL    HW113628   6.685   4.032   3.459
 4243SOL    HW213629   6.703   4.194   3.452
 4244SOL     OW13630   5.373   5.054   1.236
 4244SOL    HW113631   5.300   5.023   1.297
 4244SOL    HW213632   5.458   5.008   1.260
 4245SOL     OW13633   6.007   1.087   6.294
 4245SOL    HW113634   6.064   1.156   6.249
 4245SOL    HW213635   6.048   0.997   6.282
 4246SOL     OW13636   5.845   3.114   3.325
 4246SOL    HW113637   5.860   3.092   3.421
 4246SOL    HW213638   5.841   3.214   3.314
 4247SOL     OW13639   2.207   4.974   3.360
 4247SOL    HW113640   2.152   4.959   3.278
 4247SOL    HW213641   2.295   4.926   3.350
 4248SOL     OW13642   1.716   1.453   3.861
 4248SOL    HW113643   1.808   1.431   3.831
 4248SOL    HW213644   1.693   1.546   3.831
 4249SOL     OW13645   5.034   1.295   4.018
 4249SOL    HW113646   4.948   1.326   4.060
 4249SOL    HW213647   5.034   1.196   4.011
 4250SOL     OW13648   6.205   6.237   4.417
 4250SOL    HW113649   6.228   6.289   4.499
 4250SOL    HW213650   6.209   6.298   4.338
 4251SOL     OW13651   5.827   3.309   0.990
 4251SOL    HW113652   5.891   3.234   1.007
 4251SOL    HW213653   5.874   3.396   1.002
 4252SOL     OW13654   5.757   6.086   6.399
 4252SOL    HW113655   5.672   6.136   6.413
 4252SOL    HW213656   5.766   6.061   6.302
 4253SOL     OW13657   3.488   6.678   1.201
 4253SOL    HW113658   3.500   6.750   1.132
 4253SOL    HW213659   3.415   6.616   1.171
 4254SOL     OW13660   1.728   3.624   2.014
 4254SOL    HW113661   1.676   3.708   1.998
 4254SOL    HW213662   1.691   3.578   2.095
 4255SOL     OW13663   6.864   4.202   3.711
 4255SOL    HW113664   6.791   4.177   3.647
 4255SOL    HW213665   6.849   4.295   3.743
 4256SOL     OW13666   1.142   5.880   1.020
 4256SOL    HW113667   1.237   5.848   1.013
 4256SOL    HW213668   1.141   5.979   1.033
 4257SOL     OW13669   3.787   1.176   4.841
 4257SOL    HW113670   3.776   1.261   4.893
 4257SOL    HW213671   3.837   1.195   4.756
 4258SOL     OW13672   3.284   6.020   0.699
 4258SOL    HW113673   3.219   5.972   0.758
 4258SOL    HW213674   3.250   6.112   0.680
 4259SOL     OW13675   1.347   6.956   0.950
 4259SOL    HW113676   1.438   6.914   0.952
 4259SOL    HW213677   1.349   0.016   1.000
 4260SOL     OW13678   5.961   0.262   3.284
 4260SOL    HW113679   6.053   0.287   3.255
 4260SOL    HW213680   5.908   0.345   3.301
 4261SOL     OW13681   2.142   0.565   2.777
 4261SOL    HW113682   2.089   0.605   2.852
 4261SOL    HW213683   2.099   0.588   2.689
 4262SOL     OW13684   0.649   3.878   6.288
 4262SOL    HW113685   0.723   3.814   6.305
 4262SOL    HW213686   0.561   3.832   6.299
 4263SOL     OW13687   2.602   0.224   2.994
 4263SOL    HW113688   2.677   0.159   3.007
 4263SOL    HW213689   2.569   0.219   2.899
 4264SOL     OW13690   0.001   2.413   4.944
 4264SOL    HW113691   0.048   2.348   4.884
 4264SOL    HW213692   0.011   2.383   5.039
 4265SOL     OW13693   3.734   1.187   0.713
 4265SOL    HW113694   3.639   1.157   0.725
 4265SOL    HW213695   3.736   1.286   0.702
 4266SOL     OW13696   1.832   6.480   6.276
 4266SOL    HW113697   1.849   6.477   6.178
 4266SOL    HW213698   1.855   6.391   6.317
 4267SOL     OW13699   2.180   3.735   4.365
 4267SOL    HW113700   2.277   3.738   4.391
 4267SOL    HW213701   2.136   3.657   4.411
 4268SOL     OW13702   1.032   5.870   6.483
 4268SOL    HW113703   1.072   5.945   6.535
 4268SOL    HW213704   1.072   5.783   6.513
 4269SOL     OW13705   2.881   0.022   2.723
 4269SOL    HW113706   2.951   6.977   2.718
 4269SOL    HW213707   2.924   0.112   2.723
 4270SOL     OW13708   4.179   3.447   2.349
 4270SOL    HW113709   4.271   3.412   2.332
 4270SOL    HW213710   4.119   3.423   2.272
 4271SOL     OW13711   0.067   0.488   0.644
 4271SOL    HW113712   0.040   0.495   0.740
 4271SOL    HW213713   0.006   0.424   0.597
 4272SOL     OW13714   6.546   2.701   4.383
 4272SOL    HW113715   6.575   2.652   4.466
 4272SOL    HW213716   6.471   2.652   4.340
 4273SOL     OW13717   4.543   6.654   4.338
 4273SOL    HW113718   4.500   6.581   4.391
 4273SOL    HW213719   4.626   6.619   4.294
 4274SOL     OW13720   1.718   6.818   1.861
 4274SOL    HW113721   1.769   6.808   1.947
 4274SOL    HW213722   1.709   6.728   1.817
 4275SOL     OW13723   6.569   2.175   4.027
 4275SOL    HW113724   6.524   2.264   4.040
 4275SOL    HW213725   6.531   2.108   4.091
 4276SOL     OW13726   2.773   5.149   3.980
 4276SOL    HW113727   2.859   5.102   3.999
 4276SOL    HW213728   2.792   5.240   3.942
 4277SOL     OW13729   6.391   4.696   2.927
 4277SOL    HW113730   6.396   4.778   2.983
 4277SOL    HW213731   6.455   4.703   2.851
 4278SOL     OW13732   0.300   6.812   4.953
 4278SOL    HW113733   0.350   6.896   4.973
 4278SOL    HW213734   0.220   6.833   4.897
 4279SOL     OW13735   2.659   1.350   3.332
 4279SOL    HW113736   2.749   1.318   3.361
 4279SOL    HW213737   2.605   1.274   3.297
 4280SOL     OW13738   5.923   6.997   5.657
 4280SOL    HW113739   5.869   0.052   5.684
 4280SOL    HW213740   5.877   6.914   5.688
 4281SOL     OW13741   6.286   5.060   3.365
 4281SOL    HW113742   6.194   5.065   3.404
 4281SOL    HW213743   6.352   5.100   3.429
 4282SOL     OW13744   3.130   4.426   0.279
 4282SOL    HW113745   3.077   4.495   0.329
 4282SOL    HW213746   3.223   4.461   0.264
 4283SOL     OW13747   2.498   0.681   3.342
 4283SOL    HW113748   2.592   0.651   3.360
 4283SOL    HW213749   2.441   0.602   3.321
 4284SOL     OW13750   3.495   4.071   1.211
 4284SOL    HW113751   3.515   3.975   1.231
 4284SOL    HW213752   3.414   4.100   1.262
 4285SOL     OW13753   2.635   0.691   5.796
 4285SOL    HW113754   2.667   0.688   5.701
 4285SOL    HW213755   2.692   0.633   5.852
 4286SOL     OW13756   5.642   6.928   5.927
 4286SOL    HW113757   5.592   6.878   5.998
 4286SOL    HW213758   5.708   6.867   5.884
 4287SOL     OW13759   4.939   0.490   6.328
 4287SOL    HW113760   5.029   0.492   6.371
 4287SOL    HW213761   4.877   0.437   6.385
 4288SOL     OW13762   0.986   5.524   3.692
 4288SOL    HW113763   0.987   5.480   3.782
 4288SOL    HW213764   0.906   5.584   3.684
 4289SOL     OW13765   0.397   2.571   5.500
 4289SOL    HW113766   0.316   2.513   5.503
 4289SOL    HW213767   0.479   2.513   5.497
 4290SOL     OW13768   1.258   6.021   4.323
 4290SOL    HW113769   1.323   5.945   4.321
 4290SOL    HW213770   1.252   6.062   4.232
 4291SOL     OW13771   4.875   3.689   0.071
 4291SOL    HW113772   4.874   3.639   0.158
 4291SOL    HW213773   4.802   3.654   0.012
 4292SOL     OW13774   6.565   3.280   0.103
 4292SOL    HW113775   6.624   3.277   0.184
 4292SOL    HW213776   6.576   3.368   0.058
 4293SOL     OW13777   3.226   4.137   0.383
 4293SOL    HW113778   3.210   4.186   0.298
 4293SOL    HW213779   3.321   4.147   0.410
 4294SOL     OW13780   1.979   1.592   6.638
 4294SOL    HW113781   1.919   1.524   6.681
 4294SOL    HW213782   2.005   1.560   6.546
 4295SOL     OW13783   5.147   5.853   4.149
 4295SOL    HW113784   5.150   5.818   4.242
 4295SOL    HW213785   5.168   5.778   4.085
 4296SOL     OW13786   3.219   7.010   0.111
 4296SOL    HW113787   3.274   6.944   0.162
 4296SOL    HW213788   3.205   0.066   0.167
 4297SOL     OW13789   5.781   0.312   1.776
 4297SOL    HW113790   5.729   0.364   1.708
 4297SOL    HW213791   5.720   0.248   1.822
 4298SOL     OW13792   3.558   5.776   1.214
 4298SOL    HW113793   3.538   5.683   1.244
 4298SOL    HW213794   3.488   5.838   1.249
 4299SOL     OW13795   1.789   2.400   6.974
 4299SOL    HW113796   1.797   2.438   0.040
 4299SOL    HW213797   1.763   2.472   6.909
 4300SOL     OW13798   2.495   7.010   0.537
 4300SOL    HW113799   2.517   0.024   0.448
 4300SOL    HW213800   2.396   7.015   0.552
 4301SOL     OW13801   4.861   7.014   1.351
 4301SOL    HW113802   4.816   6.925   1.348
 4301SOL    HW213803   4.957   7.003   1.324
 4302SOL     OW13804   6.983   6.975   6.193
 4302SOL    HW113805   6.900   7.001   6.145
 4302SOL    HW213806   6.959   6.918   6.272
 4303SOL     OW13807   0.167   4.366   4.288
 4303SOL    HW113808   0.184   4.280   4.240
 4303SOL    HW213809   0.090   4.413   4.246
 4304SOL     OW13810   3.031   3.250   2.295
 4304SOL    HW113811   3.079   3.163   2.306
 4304SOL    HW213812   3.082   3.322   2.343
 4305SOL     OW13813   1.093   0.042   5.743
 4305SOL    HW113814   1.013   0.095   5.717
 4305SOL    HW213815   1.176   0.088   5.710
 4306SOL     OW13816   4.602   5.210   4.439
 4306SOL    HW113817   4.579   5.114   4.423
 4306SOL    HW213818   4.566   5.238   4.528
 4307SOL     OW13819   6.324   4.365   5.072
 4307SOL    HW113820   6.363   4.456   5.088
 4307SOL    HW213821   6.397   4.297   5.074
 4308SOL     OW13822   6.278   5.703   1.455
 4308SOL    HW113823   6.267   5.605   1.439
 4308SOL    HW213824   6.326   5.718   1.541
 4309SOL     OW13825   1.101   1.060   1.159
 4309SOL    HW113826   1.078   0.998   1.234
 4309SOL    HW213827   1.057   1.028   1.075
 4310SOL     OW13828   1.161   2.475   1.537
 4310SOL    HW113829   1.124   2.490   1.629
 4310SOL    HW213830   1.207   2.387   1.533
 4311SOL     OW13831   0.554   6.254   2.661
 4311SOL    HW113832   0.475   6.309   2.686
 4311SOL    HW213833   0.631   6.278   2.720
 4312SOL     OW13834   1.452   5.595   2.111
 4312SOL    HW113835   1.474   5.689   2.083
 4312SOL    HW213836   1.359   5.573   2.082
 4313SOL     OW13837   5.134   2.281   0.957
 4313SOL    HW113838   5.173   2.241   0.874
 4313SOL    HW213839   5.035   2.287   0.948
 4314SOL     OW13840   5.360   1.830   4.981
 4314SOL    HW113841   5.420   1.771   4.927
 4314SOL    HW213842   5.374   1.811   5.078
 4315SOL     OW13843   2.527   0.930   3.804
 4315SOL    HW113844   2.431   0.955   3.816
 4315SOL    HW213845   2.534   0.833   3.784
 4316SOL     OW13846   5.069   0.565   1.841
 4316SOL    HW113847   5.143   0.632   1.833
 4316SOL    HW213848   4.989   0.597   1.790
 4317SOL     OW13849   5.516   2.272   5.455
 4317SOL    HW113850   5.504   2.180   5.494
 4317SOL    HW213851   5.532   2.264   5.357
 4318SOL     OW13852   1.140   1.768   4.886
 4318SOL    HW113853   1.188   1.711   4.820
 4318SOL    HW213854   1.083   1.711   4.944
 4319SOL     OW13855   2.086   1.987   0.903
 4319SOL    HW113856   2.091   2.035   0.991
 4319SOL    HW213857   2.169   2.005   0.850
 4320SOL     OW13858   3.784   5.183   0.912
 4320SOL    HW113859   3.830   5.182   1.001
 4320SOL    HW213860   3.702   5.126   0.916
 4321SOL     OW13861   7.011   4.685   4.707
 4321SOL    HW113862   6.976   4.695   4.800
 4321SOL    HW213863   0.020   4.592   4.694
 4322SOL     OW13864   6.294   3.261   0.091
 4322SOL    HW113865   6.392   3.244   0.103
 4322SOL    HW213866   6.255   3.189   0.033
 4323SOL     OW13867   4.360   4.352   0.949
 4323SOL    HW113868   4.291   4.412   0.908
 4323SOL    HW213869   4.390   4.285   0.880
 4324SOL     OW13870   5.531   4.722   5.785
 4324SOL    HW113871   5.510   4.812   5.821
 4324SOL    HW213872   5.517   4.721   5.686
 4325SOL     OW13873   2.856   1.241   1.914
 4325SOL    HW113874   2.942   1.288   1.937
 4325SOL    HW213875   2.854   1.224   1.815
 4326SOL     OW13876   4.621   4.729   2.057
 4326SOL    HW113877   4.545   4.694   2.002
 4326SOL    HW213878   4.706   4.724   2.004
 4327SOL     OW13879   5.530   5.732   1.503
 4327SOL    HW113880   5.587   5.697   1.576
 4327SOL    HW213881   5.435   5.738   1.533
 4328SOL     OW13882   5.184   4.520   5.650
 4328SOL    HW113883   5.257   4.536   5.583
 4328SOL    HW213884   5.114   4.462   5.610
 4329SOL     OW13885   4.498   2.812   6.177
 4329SOL    HW113886   4.407   2.851   6.168
 4329SOL    HW213887   4.496   2.715   6.155
 4330SOL     OW13888   2.011   6.315   4.651
 4330SOL    HW113889   1.976   6.258   4.577
 4330SOL    HW213890   2.014   6.263   4.736
 4331SOL     OW13891   5.787   0.935   2.310
 4331SOL    HW113892   5.816   0.982   2.227
 4331SOL    HW213893   5.722   0.862   2.286
 4332SOL     OW13894   5.197   3.078   2.382
 4332SOL    HW113895   5.107   3.102   2.419
 4332SOL    HW213896   5.252   3.035   2.453
 4333SOL     OW13897   4.501   1.738   5.540
 4333SOL    HW113898   4.597   1.764   5.533
 4333SOL    HW213899   4.472   1.739   5.635
 4334SOL     OW13900   2.160   2.632   2.621
 4334SOL    HW113901   2.179   2.711   2.679
 4334SOL    HW213902   2.239   2.571   2.621
 4335SOL     OW13903   3.702   3.377   1.961
 4335SOL    HW113904   3.703   3.327   2.048
 4335SOL    HW213905   3.616   3.427   1.953
 4336SOL     OW13906   2.565   6.604   6.118
 4336SOL    HW113907   2.501   6.611   6.194
 4336SOL    HW213908   2.536   6.666   6.044
 4337SOL     OW13909   1.914   4.364   1.166
 4337SOL    HW113910   1.827   4.316   1.163
 4337SOL    HW213911   1.898   4.463   1.165
 4338SOL     OW13912   6.055   6.769   5.835
 4338SOL    HW113913   6.140   6.746   5.788
 4338SOL    HW213914   6.057   6.732   5.928
 4339SOL     OW13915   4.188   2.816   6.373
 4339SOL    HW113916   4.259   2.864   6.425
 4339SOL    HW213917   4.134   2.882   6.321
 4340SOL     OW13918   6.651   3.477   1.687
 4340SOL    HW113919   6.562   3.435   1.669
 4340SOL    HW213920   6.638   3.570   1.721
 4341SOL     OW13921   1.064   5.320   1.647
 4341SOL    HW113922   1.143   5.381   1.636
 4341SOL    HW213923   1.028   5.295   1.557
 4342SOL     OW13924   5.511   4.148   2.822
 4342SOL    HW113925   5.439   4.132   2.755
 4342SOL    HW213926   5.542   4.061   2.859
 4343SOL     OW13927   2.959   5.965   5.023
 4343SOL    HW113928   2.982   6.056   5.059
 4343SOL    HW213929   3.029   5.937   4.957
 4344SOL     OW13930   0.944   3.959   2.924
 4344SOL    HW113931   0.973   3.946   2.829
 4344SOL    HW213932   0.960   4.054   2.952
 4345SOL     OW13933   3.999   3.894   4.419
 4345SOL    HW113934   3.909   3.934   4.434
 4345SOL    HW213935   4.067   3.967   4.409
 4346SOL     OW13936   2.133   3.460   2.776
 4346SOL    HW113937   2.083   3.514   2.709
 4346SOL    HW213938   2.207   3.410   2.731
 4347SOL     OW13939   5.237   6.897   2.926
 4347SOL    HW113940   5.272   6.982   2.964
 4347SOL    HW213941   5.198   6.841   2.999
 4348SOL     OW13942   0.172   5.366   4.102
 4348SOL    HW113943   0.101   5.296   4.113
 4348SOL    HW213944   0.262   5.324   4.106
 4349SOL     OW13945   6.315   2.366   3.100
 4349SOL    HW113946   6.259   2.299   3.149
 4349SOL    HW213947   6.299   2.457   3.140
 4350SOL     OW13948   3.798   1.822   4.136
 4350SOL    HW113949   3.787   1.810   4.235
 4350SOL    HW213950   3.886   1.865   4.117
 4351SOL     OW13951   1.069   6.125   1.408
 4351SOL    HW113952   1.139   6.102   1.476
 4351SOL    HW213953   1.113   6.164   1.327
 4352SOL     OW13954   6.094   4.251   2.360
 4352SOL    HW113955   6.039   4.286   2.435
 4352SOL    HW213956   6.155   4.179   2.394
 4353SOL     OW13957   3.585   3.022   6.461
 4353SOL    HW113958   3.640   3.086   6.515
 4353SOL    HW213959   3.627   2.931   6.467
 4354SOL     OW13960   2.170   1.313   6.538
 4354SOL    HW113961   2.091   1.315   6.477
 4354SOL    HW213962   2.230   1.390   6.517
 4355SOL     OW13963   2.312   6.914   2.563
 4355SOL    HW113964   2.367   6.962   2.494
 4355SOL    HW213965   2.315   6.966   2.649
 4356SOL     OW13966   4.829   3.412   6.478
 4356SOL    HW113967   4.826   3.316   6.450
 4356SOL    HW213968   4.813   3.470   6.398
 4357SOL     OW13969   6.995   1.035   1.574
 4357SOL    HW113970   6.961   1.119   1.617
 4357SOL    HW213971   7.001   0.962   1.643
 4358SOL     OW13972   6.523   0.964   1.040
 4358SOL    HW113973   6.425   0.976   1.022
 4358SOL    HW213974   6.554   0.876   1.004
 4359SOL     OW13975   1.299   1.352   6.902
 4359SOL    HW113976   1.266   1.310   6.987
 4359SOL    HW213977   1.361   1.428   6.925
 4360SOL     OW13978   0.695   3.388   3.677
 4360SOL    HW113979   0.761   3.362   3.606
 4360SOL    HW213980   0.744   3.410   3.761
 4361SOL     OW13981   2.133   3.818   1.561
 4361SOL    HW113982   2.175   3.730   1.581
 4361SOL    HW213983   2.071   3.843   1.635
 4362SOL     OW13984   6.774   5.520   3.745
 4362SOL    HW113985   6.802   5.428   3.775
 4362SOL    HW213986   6.837   5.588   3.783
 4363SOL     OW13987   4.290   2.096   0.725
 4363SOL    HW113988   4.267   2.029   0.796
 4363SOL    HW213989   4.385   2.125   0.735
 4364SOL     OW13990   3.205   4.060   3.425
 4364SOL    HW113991   3.182   4.115   3.344
 4364SOL    HW213992   3.172   3.967   3.413
 4365SOL     OW13993   2.644   0.553   2.164
 4365SOL    HW113994   2.612   0.633   2.216
 4365SOL    HW213995   2.687   0.488   2.226
 4366SOL     OW13996   6.050   0.108   6.329
 4366SOL    HW113997   5.998   0.023   6.323
 4366SOL    HW213998   6.146   0.091   6.306
 4367SOL     OW13999   2.819   4.748   4.145
 4367SOL    HW114000   2.740   4.688   4.160
 4367SOL    HW214001   2.858   4.774   4.234
 4368SOL     OW14002   3.666   5.643   1.528
 4368SOL    HW114003   3.624   5.669   1.616
 4368SOL    HW214004   3.703   5.725   1.484
 4369SOL     OW14005   4.680   4.744   3.018
 4369SOL    HW114006   4.721   4.827   2.980
 4369SOL    HW214007   4.585   4.735   2.985
 4370SOL     OW14008   3.659   4.669   1.448
 4370SOL    HW114009   3.642   4.699   1.354
 4370SOL    HW214010   3.639   4.745   1.510
 4371SOL     OW14011   1.858   1.874   2.369
 4371SOL    HW114012   1.808   1.889   2.455
 4371SOL    HW214013   1.824   1.791   2.325
 4372SOL     OW14014   2.404   2.327   4.383
 4372SOL    HW114015   2.449   2.369   4.305
 4372SOL    HW214016   2.379   2.233   4.360
 4373SOL     OW14017   4.180   1.217   0.485
 4373SOL    HW114018   4.259   1.167   0.518
 4373SOL    HW214019   4.096   1.169   0.511
 4374SOL     OW14020   1.034   1.540   1.173
 4374SOL    HW114021   1.055   1.603   1.248
 4374SOL    HW214022   1.028   1.447   1.209
 4375SOL     OW14023   4.404   6.051   3.140
 4375SOL    HW114024   4.453   5.993   3.204
 4375SOL    HW214025   4.467   6.116   3.098
 4376SOL     OW14026   6.128   0.150   2.839
 4376SOL    HW114027   6.085   0.142   2.929
 4376SOL    HW214028   6.197   0.078   2.828
 4377SOL     OW14029   5.792   5.628   0.097
 4377SOL    HW114030   5.822   5.676   0.180
 4377SOL    HW214031   5.788   5.530   0.115
 4378SOL     OW14032   1.685   3.136   2.689
 4378SOL    HW114033   1.673   3.162   2.785
 4378SOL    HW214034   1.772   3.171   2.656
 4379SOL     OW14035   2.683   1.594   2.194
 4379SOL    HW114036   2.773   1.633   2.213
 4379SOL    HW214037   2.687   1.542   2.108
 4380SOL     OW14038   1.799   6.512   3.996
 4380SOL    HW114039   1.838   6.501   3.905
 4380SOL    HW214040   1.701   6.531   3.988
 4381SOL     OW14041   2.256   4.345   5.062
 4381SOL    HW114042   2.303   4.256   5.058
 4381SOL    HW214043   2.303   4.404   5.128
 4382SOL     OW14044   6.027   3.365   6.216
 4382SOL    HW114045   5.995   3.292   6.156
 4382SOL    HW214046   6.090   3.424   6.165
 4383SOL     OW14047   0.931   2.990   5.731
 4383SOL    HW114048   1.002   3.037   5.679
 4383SOL    HW214049   0.850   2.978   5.673
 4384SOL     OW14050   5.363   1.503   6.621
 4384SOL    HW114051   5.271   1.468   6.602
 4384SOL    HW214052   5.385   1.575   6.555
 4385SOL     OW14053   6.587   3.071   4.983
 4385SOL    HW114054   6.571   3.006   5.057
 4385SOL    HW214055   6.549   3.160   5.009
 4386SOL     OW14056   1.695   4.002   6.495
 4386SOL    HW114057   1.729   4.059   6.570
 4386SOL    HW214058   1.765   3.937   6.468
 4387SOL     OW14059   0.247   0.961   2.048
 4387SOL    HW114060   0.269   1.037   2.110
 4387SOL    HW214061   0.311   0.961   1.971
 4388SOL     OW14062   5.014   0.943   6.493
 4388SOL    HW114063   4.920   0.922   6.521
 4388SOL    HW214064   5.013   1.021   6.431
 4389SOL     OW14065   5.982   2.432   1.041
 4389SOL    HW114066   5.972   2.367   0.965
 4389SOL    HW214067   6.064   2.487   1.027
 4390SOL     OW14068   4.008   1.458   2.103
 4390SOL    HW114069   4.108   1.454   2.105
 4390SOL    HW214070   3.976   1.437   2.010
 4391SOL     OW14071   1.464   5.654   6.078
 4391SOL    HW114072   1.386   5.686   6.131
 4391SOL    HW214073   1.526   5.602   6.137
 4392SOL     OW14074   6.554   3.538   5.769
 4392SOL    HW114075   6.607   3.459   5.738
 4392SOL    HW214076   6.492   3.567   5.696
 4393SOL     OW14077   5.523   0.053   2.602
 4393SOL    HW114078   5.584   0.060   2.523
 4393SOL    HW214079   5.474   6.991   2.597
 4394SOL     OW14080   5.778   5.638   3.027
 4394SOL    HW114081   5.758   5.666   2.933
 4394SOL    HW214082   5.877   5.642   3.042
 4395SOL     OW14083   4.081   0.712   1.703
 4395SOL    HW114084   4.027   0.669   1.776
 4395SOL    HW214085   4.019   0.760   1.641
 4396SOL     OW14086   2.565   2.379   4.166
 4396SOL    HW114087   2.654   2.350   4.200
 4396SOL    HW214088   2.548   2.338   4.077
 4397SOL     OW14089   0.187   1.266   4.635
 4397SOL    HW114090   0.256   1.301   4.699
 4397SOL    HW214091   0.102   1.249   4.685
 4398SOL     OW14092   0.880   4.599   4.758
 4398SOL    HW114093   0.859   4.581   4.854
 4398SOL    HW214094   0.798   4.631   4.711
 4399SOL     OW14095   1.796   1.109   1.792
 4399SOL    HW114096   1.837   1.071   1.875
 4399SOL    HW214097   1.776   1.036   1.727
 4400SOL     OW14098   2.845   0.051   5.019
 4400SOL    HW114099   2.901   0.002   5.086
 4400SOL    HW214100   2.897   0.064   4.935
 4401SOL     OW14101   4.929   0.184   6.632
 4401SOL    HW114102   4.932   0.159   6.536
 4401SOL    HW214103   4.845   0.236   6.651
 4402SOL     OW14104   2.443   6.518   1.340
 4402SOL    HW114105   2.425   6.517   1.241
 4402SOL    HW214106   2.438   6.613   1.373
 4403SOL     OW14107   0.833   6.728   3.678
 4403SOL    HW114108   0.792   6.816   3.652
 4403SOL    HW214109   0.897   6.699   3.607
 4404SOL     OW14110   0.179   4.296   5.878
 4404SOL    HW114111   0.124   4.224   5.835
 4404SOL    HW214112   0.275   4.266   5.881
 4405SOL     OW14113   2.561   4.774   1.012
 4405SOL    HW114114   2.517   4.750   0.925
 4405SOL    HW214115   2.624   4.700   1.039
 4406SOL     OW14116   6.745   4.244   0.608
 4406SOL    HW114117   6.778   4.299   0.531
 4406SOL    HW214118   6.654   4.209   0.587
 4407SOL     OW14119   0.376   4.219   0.730
 4407SOL    HW114120   0.384   4.244   0.633
 4407SOL    HW214121   0.299   4.157   0.742
 4408SOL     OW14122   3.727   1.166   1.538
 4408SOL    HW114123   3.737   1.195   1.443
 4408SOL    HW214124   3.705   1.068   1.541
 4409SOL     OW14125   4.262   6.714   1.349
 4409SOL    HW114126   4.180   6.659   1.335
 4409SOL    HW214127   4.235   6.810   1.357
 4410SOL     OW14128   1.389   5.666   0.116
 4410SOL    HW114129   1.476   5.655   0.068
 4410SOL    HW214130   1.384   5.600   0.192
 4411SOL     OW14131   3.097   3.150   3.527
 4411SOL    HW114132   3.120   3.094   3.447
 4411SOL    HW214133   3.153   3.121   3.605
 4412SOL     OW14134   3.614   0.364   4.588
 4412SOL    HW114135   3.632   0.462   4.591
 4412SOL    HW214136   3.624   0.330   4.495
 4413SOL     OW14137   5.389   5.901   4.984
 4413SOL    HW114138   5.333   5.834   4.935
 4413SOL    HW214139   5.483   5.870   4.988
 4414SOL     OW14140   3.825   5.001   1.571
 4414SOL    HW114141   3.828   4.925   1.506
 4414SOL    HW214142   3.766   5.073   1.536
 4415SOL     OW14143   3.885   3.466   6.381
 4415SOL    HW114144   3.866   3.475   6.479
 4415SOL    HW214145   3.981   3.490   6.364
 4416SOL     OW14146   2.699   0.086   4.498
 4416SOL    HW114147   2.662   7.022   4.470
 4416SOL    HW214148   2.624   0.143   4.532
 4417SOL     OW14149   5.949   4.218   3.257
 4417SOL    HW114150   6.038   4.263   3.263
 4417SOL    HW214151   5.933   4.187   3.163
 4418SOL     OW14152   5.502   0.734   2.979
 4418SOL    HW114153   5.472   0.758   3.071
 4418SOL    HW214154   5.469   0.803   2.914
 4419SOL     OW14155   5.432   5.678   0.542
 4419SOL    HW114156   5.337   5.686   0.513
 4419SOL    HW214157   5.439   5.700   0.640
 4420SOL     OW14158   5.206   1.425   1.411
 4420SOL    HW114159   5.232   1.519   1.387
 4420SOL    HW214160   5.192   1.372   1.328
 4421SOL     OW14161   1.943   1.432   4.286
 4421SOL    HW114162   1.859   1.421   4.232
 4421SOL    HW214163   1.925   1.404   4.380
 4422SOL     OW14164   3.067   4.252   5.875
 4422SOL    HW114165   3.047   4.156   5.857
 4422SOL    HW214166   3.025   4.279   5.961
 4423SOL     OW14167   1.174   2.606   5.722
 4423SOL    HW114168   1.251   2.545   5.706
 4423SOL    HW214169   1.140   2.641   5.634
 4424SOL     OW14170   5.344   0.371   4.405
 4424SOL    HW114171   5.440   0.402   4.410
 4424SOL    HW214172   5.341   0.273   4.390
 4425SOL     OW14173   3.422   5.745   6.459
 4425SOL    HW114174   3.436   5.750   6.558
 4425SOL    HW214175   3.325   5.733   6.440
 4426SOL     OW14176   0.553   1.829   4.897
 4426SOL    HW114177   0.546   1.740   4.853
 4426SOL    HW214178   0.462   1.863   4.919
 4427SOL     OW14179   0.078   5.981   2.565
 4427SOL    HW114180   0.177   5.989   2.555
 4427SOL    HW214181   0.055   5.893   2.606
 4428SOL     OW14182   3.239   5.744   1.801
 4428SOL    HW114183   3.282   5.740   1.891
 4428SOL    HW214184   3.222   5.840   1.777
 4429SOL     OW14185   3.033   0.270   2.957
 4429SOL    HW114186   3.024   0.362   2.919
 4429SOL    HW214187   2.944   0.240   2.992
 4430SOL     OW14188   5.035   3.521   4.985
 4430SOL    HW114189   5.110   3.560   5.038
 4430SOL    HW214190   4.948   3.547   5.027
 4431SOL     OW14191   1.991   0.734   1.820
 4431SOL    HW114192   1.946   0.731   1.910
 4431SOL    HW214193   1.995   0.829   1.789
 4432SOL     OW14194   3.905   3.986   4.037
 4432SOL    HW114195   3.865   3.958   3.949
 4432SOL    HW214196   3.836   4.034   4.091
 4433SOL     OW14197   5.593   0.505   4.742
 4433SOL    HW114198   5.666   0.565   4.711
 4433SOL    HW214199   5.505   0.538   4.707
 4434SOL     OW14200   3.763   2.031   3.885
 4434SOL    HW114201   3.845   2.087   3.878
 4434SOL    HW214202   3.774   1.966   3.960
 4435SOL     OW14203   4.130   3.935   1.289
 4435SOL    HW114204   4.229   3.930   1.295
 4435SOL    HW214205   4.103   3.954   1.195
 4436SOL     OW14206   3.835   1.799   1.023
 4436SOL    HW114207   3.820   1.774   1.119
 4436SOL    HW214208   3.768   1.869   0.997
 4437SOL     OW14209   5.897   1.506   3.959
 4437SOL    HW114210   5.806   1.523   3.996
 4437SOL    HW214211   5.959   1.578   3.990
 4438SOL     OW14212   4.892   0.754   0.526
 4438SOL    HW114213   4.980   0.777   0.483
 4438SOL    HW214214   4.872   0.820   0.598
 4439SOL     OW14215   0.588   5.908   1.361
 4439SOL    HW114216   0.629   5.820   1.336
 4439SOL    HW214217   0.489   5.901   1.360
 4440SOL     OW14218   2.224   4.977   0.439
 4440SOL    HW114219   2.322   4.995   0.436
 4440SOL    HW214220   2.191   4.955   0.347
 4441SOL     OW14221   6.824   2.022   3.082
 4441SOL    HW114222   6.734   2.023   3.040
 4441SOL    HW214223   6.885   2.085   3.033
 4442SOL     OW14224   2.726   5.719   5.345
 4442SOL    HW114225   2.627   5.709   5.354
 4442SOL    HW214226   2.747   5.804   5.295
 4443SOL     OW14227   6.893   2.639   1.151
 4443SOL    HW114228   6.827   2.564   1.155
 4443SOL    HW214229   6.969   2.620   1.212
 4444SOL     OW14230   3.982   5.148   6.063
 4444SOL    HW114231   4.041   5.112   5.991
 4444SOL    HW214232   3.972   5.246   6.053
 4445SOL     OW14233   6.546   0.664   1.215
 4445SOL    HW114234   6.509   0.722   1.142
 4445SOL    HW214235   6.629   0.706   1.253
 4446SOL     OW14236   5.717   1.276   1.964
 4446SOL    HW114237   5.761   1.330   1.892
 4446SOL    HW214238   5.624   1.254   1.937
 4447SOL     OW14239   5.681   4.038   6.447
 4447SOL    HW114240   5.666   4.057   6.350
 4447SOL    HW214241   5.598   4.061   6.498
 4448SOL     OW14242   2.871   3.887   1.180
 4448SOL    HW114243   2.814   3.805   1.173
 4448SOL    HW214244   2.813   3.966   1.200
 4449SOL     OW14245   5.204   0.524   5.722
 4449SOL    HW114246   5.268   0.517   5.798
 4449SOL    HW214247   5.175   0.619   5.712
 4450SOL     OW14248   3.738   3.196   4.258
 4450SOL    HW114249   3.680   3.276   4.270
 4450SOL    HW214250   3.834   3.223   4.263
 4451SOL     OW14251   5.997   3.884   4.164
 4451SOL    HW114252   6.083   3.926   4.192
 4451SOL    HW214253   5.970   3.920   4.074
 4452SOL     OW14254   5.559   6.468   3.828
 4452SOL    HW114255   5.487   6.484   3.896
 4452SOL    HW214256   5.588   6.373   3.833
 4453SOL     OW14257   0.307   2.954   1.261
 4453SOL    HW114258   0.223   2.901   1.261
 4453SOL    HW214259   0.290   3.044   1.221
 4454SOL     OW14260   6.983   1.870   6.904
 4454SOL    HW114261   6.961   1.965   6.925
 4454SOL    HW214262   0.009   1.866   6.818
 4455SOL     OW14263   3.467   6.515   6.290
 4455SOL    HW114264   3.379   6.469   6.293
 4455SOL    HW214265   3.455   6.612   6.313
 4456SOL     OW14266   3.060   5.479   1.988
 4456SOL    HW114267   3.100   5.433   2.067
 4456SOL    HW214268   3.105   5.567   1.974
 4457SOL     OW14269   4.149   2.280   1.258
 4457SOL    HW114270   4.245   2.302   1.239
 4457SOL    HW214271   4.090   2.338   1.201
 4458SOL     OW14272   1.248   3.574   6.545
 4458SOL    HW114273   1.285   3.664   6.524
 4458SOL    HW214274   1.283   3.543   6.633
 4459SOL     OW14275   4.979   0.766   3.619
 4459SOL    HW114276   4.926   0.851   3.621
 4459SOL    HW214277   4.918   0.689   3.636
 4460SOL     OW14278   2.942   2.980   5.652
 4460SOL    HW114279   2.911   3.072   5.678
 4460SOL    HW214280   3.017   2.988   5.586
 4461SOL     OW14281   1.551   0.673   2.116
 4461SOL    HW114282   1.516   0.687   2.208
 4461SOL    HW214283   1.512   0.591   2.076
 4462SOL     OW14284   6.298   4.088   2.101
 4462SOL    HW114285   6.360   4.035   2.042
 4462SOL    HW214286   6.347   4.116   2.184
 4463SOL     OW14287   4.974   2.787   6.631
 4463SOL    HW114288   5.001   2.865   6.687
 4463SOL    HW214289   4.881   2.800   6.597
 4464SOL     OW14290   7.007   5.069   0.618
 4464SOL    HW114291   6.955   5.151   0.643
 4464SOL    HW214292   0.073   5.074   0.658
 4465SOL     OW14293   2.408   5.657   2.232
 4465SOL    HW114294   2.390   5.673   2.135
 4465SOL    HW214295   2.443   5.565   2.245
 4466SOL     OW14296   2.369   1.408   3.391
 4466SOL    HW114297   2.324   1.482   3.339
 4466SOL    HW214298   2.468   1.415   3.379
 4467SOL     OW14299   1.932   6.939   2.900
 4467SOL    HW114300   2.019   6.895   2.878
 4467SOL    HW214301   1.860   6.901   2.842
 4468SOL     OW14302   1.800   2.957   1.546
 4468SOL    HW114303   1.712   2.951   1.594
 4468SOL    HW214304   1.796   2.901   1.463
 4469SOL     OW14305   4.159   6.967   1.257
 4469SOL    HW114306   4.175   0.040   1.261
 4469SOL    HW214307   4.199   6.930   1.173
 4470SOL     OW14308   5.941   2.690   1.890
 4470SOL    HW114309   5.933   2.670   1.988
 4470SOL    HW214310   5.859   2.739   1.859
 4471SOL     OW14311   0.074   1.656   6.383
 4471SOL    HW114312   0.132   1.618   6.456
 4471SOL    HW214313   7.003   1.643   6.406
 4472SOL     OW14314   1.733   2.943   4.018
 4472SOL    HW114315   1.731   2.865   4.081
 4472SOL    HW214316   1.775   2.914   3.932
 4473SOL     OW14317   6.631   2.602   4.098
 4473SOL    HW114318   6.722   2.588   4.060
 4473SOL    HW214319   6.638   2.620   4.196
 4474SOL     OW14320   3.361   0.678   1.835
 4474SOL    HW114321   3.359   0.609   1.907
 4474SOL    HW214322   3.338   0.767   1.874
 4475SOL     OW14323   1.744   3.806   2.777
 4475SOL    HW114324   1.844   3.796   2.775
 4475SOL    HW214325   1.718   3.861   2.856
 4476SOL     OW14326   4.341   6.826   4.242
 4476SOL    HW114327   4.272   6.755   4.237
 4476SOL    HW214328   4.431   6.785   4.256
 4477SOL     OW14329   1.437   0.383   5.552
 4477SOL    HW114330   1.480   0.399   5.463
 4477SOL    HW214331   1.491   0.428   5.623
 4478SOL     OW14332   3.382   6.745   2.750
 4478SOL    HW114333   3.362   6.740   2.848
 4478SOL    HW214334   3.475   6.712   2.734
 4479SOL     OW14335   1.235   0.478   1.505
 4479SOL    HW114336   1.223   0.396   1.449
 4479SOL    HW214337   1.300   0.460   1.578
 4480SOL     OW14338   2.480   3.308   5.897
 4480SOL    HW114339   2.579   3.306   5.914
 4480SOL    HW214340   2.463   3.317   5.799
 4481SOL     OW14341   2.592   6.516   5.683
 4481SOL    HW114342   2.682   6.531   5.643
 4481SOL    HW214343   2.600   6.457   5.763
 4482SOL     OW14344   0.979   4.515   4.355
 4482SOL    HW114345   0.886   4.547   4.375
 4482SOL    HW214346   0.985   4.490   4.259
 4483SOL     OW14347   4.884   3.626   2.101
 4483SOL    HW114348   4.794   3.659   2.072
 4483SOL    HW214349   4.920   3.686   2.171
 4484SOL     OW14350   3.300   3.035   5.710
 4484SOL    HW114351   3.262   3.109   5.654
 4484SOL    HW214352   3.364   2.981   5.656
 4485SOL     OW14353   4.766   2.054   5.130
 4485SOL    HW114354   4.706   2.085   5.203
 4485SOL    HW214355   4.859   2.085   5.147
 4486SOL     OW14356   5.119   4.848   4.715
 4486SOL    HW114357   5.099   4.774   4.651
 4486SOL    HW214358   5.215   4.875   4.706
 4487SOL     OW14359   2.550   2.599   6.255
 4487SOL    HW114360   2.533   2.544   6.337
 4487SOL    HW214361   2.468   2.652   6.234
 4488SOL     OW14362   6.449   3.492   6.025
 4488SOL    HW114363   6.351   3.512   6.038
 4488SOL    HW214364   6.473   3.503   5.929
 4489SOL     OW14365   5.980   5.682   4.836
 4489SOL    HW114366   5.909   5.614   4.855
 4489SOL    HW214367   5.936   5.770   4.813
 4490SOL     OW14368   6.210   2.779   3.097
 4490SOL    HW114369   6.181   2.694   3.140
 4490SOL    HW214370   6.177   2.857   3.151
 4491SOL     OW14371   6.947   2.624   4.592
 4491SOL    HW114372   6.943   2.724   4.584
 4491SOL    HW214373   6.854   2.589   4.605
 4492SOL     OW14374   5.426   4.462   1.853
 4492SOL    HW114375   5.484   4.382   1.869
 4492SOL    HW214376   5.330   4.438   1.866
 4493SOL     OW14377   5.054   6.543   5.474
 4493SOL    HW114378   4.962   6.558   5.510
 4493SOL    HW214379   5.106   6.628   5.476
 4494SOL     OW14380   6.782   1.664   5.634
 4494SOL    HW114381   6.792   1.565   5.644
 4494SOL    HW214382   6.688   1.687   5.610
 4495SOL     OW14383   4.183   6.121   4.500
 4495SOL    HW114384   4.196   6.146   4.597
 4495SOL    HW214385   4.272   6.104   4.459
 4496SOL     OW14386   5.684   5.351   1.140
 4496SOL    HW114387   5.618   5.337   1.067
 4496SOL    HW214388   5.649   5.309   1.224
 4497SOL     OW14389   4.721   0.933   6.823
 4497SOL    HW114390   4.737   0.849   6.876
 4497SOL    HW214391   4.625   0.960   6.832
 4498SOL     OW14392   6.753   3.521   6.472
 4498SOL    HW114393   6.655   3.539   6.463
 4498SOL    HW214394   6.798   3.601   6.511
 4499SOL     OW14395   6.947   3.340   3.853
 4499SOL    HW114396   6.849   3.356   3.868
 4499SOL    HW214397   6.962   3.308   3.760
 4500SOL     OW14398   3.069   3.891   3.832
 4500SOL    HW114399   3.101   3.796   3.826
 4500SOL    HW214400   3.005   3.900   3.908
 4501SOL     OW14401   0.209   3.074   5.120
 4501SOL    HW114402   0.150   3.002   5.156
 4501SOL    HW214403   0.253   3.042   5.035
 4502SOL     OW14404   0.986   2.380   6.729
 4502SOL    HW114405   1.063   2.327   6.764
 4502SOL    HW214406   1.002   2.402   6.633
 4503SOL     OW14407   3.371   6.765   2.069
 4503SOL    HW114408   3.399   6.782   2.164
 4503SOL    HW214409   3.294   6.701   2.068
 4504SOL     OW14410   6.663   1.775   4.831
 4504SOL    HW114411   6.652   1.855   4.890
 4504SOL    HW214412   6.748   1.783   4.780
 4505SOL     OW14413   5.958   5.535   2.618
 4505SOL    HW114414   5.864   5.568   2.607
 4505SOL    HW214415   5.989   5.495   2.532
 4506SOL     OW14416   4.039   2.168   3.840
 4506SOL    HW114417   4.053   2.069   3.832
 4506SOL    HW214418   4.089   2.215   3.768
 4507SOL     OW14419   5.905   5.227   2.260
 4507SOL    HW114420   5.827   5.218   2.199
 4507SOL    HW214421   5.969   5.152   2.244
 4508SOL     OW14422   1.075   4.610   5.827
 4508SOL    HW114423   0.986   4.568   5.812
 4508SOL    HW214424   1.063   4.701   5.867
 4509SOL     OW14425   5.060   2.569   2.173
 4509SOL    HW114426   5.086   2.604   2.263
 4509SOL    HW214427   4.969   2.527   2.179
 4510SOL     OW14428   4.836   0.707   4.473
 4510SOL    HW114429   4.824   0.734   4.377
 4510SOL    HW214430   4.760   0.742   4.528
 4511SOL     OW14431   6.949   3.332   6.882
 4511SOL    HW114432   6.891   3.387   6.941
 4511SOL    HW214433   6.908   3.242   6.870
 4512SOL     OW14434   2.451   0.113   5.602
 4512SOL    HW114435   2.501   0.136   5.686
 4512SOL    HW214436   2.398   0.030   5.617
 4513SOL     OW14437   5.652   5.867   0.457
 4513SOL    HW114438   5.701   5.849   0.543
 4513SOL    HW214439   5.572   5.808   0.451
 4514SOL     OW14440   4.601   1.403   6.191
 4514SOL    HW114441   4.609   1.333   6.120
 4514SOL    HW214442   4.683   1.402   6.248
 4515SOL     OW14443   0.236   2.668   5.695
 4515SOL    HW114444   0.185   2.720   5.627
 4515SOL    HW214445   0.324   2.641   5.657
 4516SOL     OW14446   1.362   0.409   0.066
 4516SOL    HW114447   1.328   0.494   0.108
 4516SOL    HW214448   1.458   0.397   0.089
 4517SOL     OW14449   3.086   1.191   0.048
 4517SOL    HW114450   3.179   1.209   0.019
 4517SOL    HW214451   3.075   1.094   0.069
 4518SOL     OW14452   6.948   0.801   3.164
 4518SOL    HW114453   6.953   0.738   3.241
 4518SOL    HW214454   6.950   0.895   3.197
 4519SOL     OW14455   5.507   0.362   1.572
 4519SOL    HW114456   5.478   0.436   1.632
 4519SOL    HW214457   5.535   0.283   1.628
 4520SOL     OW14458   4.764   6.085   4.065
 4520SOL    HW114459   4.836   6.125   4.007
 4520SOL    HW214460   4.781   5.987   4.077
 4521SOL     OW14461   5.960   2.222   3.888
 4521SOL    HW114462   5.942   2.319   3.908
 4521SOL    HW214463   6.058   2.205   3.890
 4522SOL     OW14464   6.349   0.061   3.363
 4522SOL    HW114465   6.312   0.153   3.382
 4522SOL    HW214466   6.346   0.045   3.264
 4523SOL     OW14467   1.639   4.753   0.414
 4523SOL    HW114468   1.729   4.794   0.429
 4523SOL    HW214469   1.615   4.760   0.317
 4524SOL     OW14470   5.768   2.557   3.788
 4524SOL    HW114471   5.757   2.460   3.810
 4524SOL    HW214472   5.749   2.612   3.869
 4525SOL     OW14473   5.244   1.330   3.264
 4525SOL    HW114474   5.178   1.308   3.193
 4525SOL    HW214475   5.262   1.428   3.264
 4526SOL     OW14476   5.937   0.284   1.366
 4526SOL    HW114477   5.989   0.323   1.290
 4526SOL    HW214478   5.841   0.310   1.357
 4527SOL     OW14479   4.166   1.413   3.549
 4527SOL    HW114480   4.258   1.431   3.514
 4527SOL    HW214481   4.157   1.455   3.639
 4528SOL     OW14482   4.473   6.920   0.148
 4528SOL    HW114483   4.501   6.899   0.054
 4528SOL    HW214484   4.433   6.838   0.189
 4529SOL     OW14485   3.434   1.554   5.142
 4529SOL    HW114486   3.427   1.454   5.133
 4529SOL    HW214487   3.496   1.576   5.217
 4530SOL     OW14488   1.227   3.375   6.334
 4530SOL    HW114489   1.245   3.440   6.408
 4530SOL    HW214490   1.259   3.413   6.248
 4531SOL     OW14491   0.315   3.534   4.127
 4531SOL    HW114492   0.245   3.518   4.057
 4531SOL    HW214493   0.348   3.628   4.119
 4532SOL     OW14494   5.769   2.246   3.566
 4532SOL    HW114495   5.676   2.212   3.555
 4532SOL    HW214496   5.807   2.212   3.652
 4533SOL     OW14497   1.833   0.391   1.957
 4533SOL    HW114498   1.847   0.414   2.053
 4533SOL    HW214499   1.922   0.391   1.910
 4534SOL     OW14500   4.587   4.463   4.721
 4534SOL    HW114501   4.524   4.533   4.687
 4534SOL    HW214502   4.578   4.454   4.820
 4535SOL     OW14503   4.818   1.627   2.413
 4535SOL    HW114504   4.884   1.552   2.414
 4535SOL    HW214505   4.855   1.705   2.464
 4536SOL     OW14506   4.102   1.569   3.764
 4536SOL    HW114507   4.014   1.610   3.787
 4536SOL    HW214508   4.150   1.544   3.848
 4537SOL     OW14509   3.880   2.936   5.709
 4537SOL    HW114510   3.872   2.844   5.747
 4537SOL    HW214511   3.924   2.996   5.777
 4538SOL     OW14512   2.624   0.175   4.198
 4538SOL    HW114513   2.717   0.196   4.170
 4538SOL    HW214514   2.626   0.132   4.289
 4539SOL     OW14515   2.267   0.966   4.689
 4539SOL    HW114516   2.186   0.920   4.725
 4539SOL    HW214517   2.279   0.942   4.592
 4540SOL     OW14518   2.962   3.119   5.210
 4540SOL    HW114519   2.871   3.099   5.245
 4540SOL    HW214520   2.966   3.215   5.182
 4541SOL     OW14521   5.955   1.606   1.001
 4541SOL    HW114522   5.937   1.656   1.086
 4541SOL    HW214523   5.975   1.672   0.928
 4542SOL     OW14524   6.596   1.038   2.996
 4542SOL    HW114525   6.534   1.003   2.925
 4542SOL    HW214526   6.621   1.132   2.975
 4543SOL     OW14527   4.653   1.676   1.478
 4543SOL    HW114528   4.556   1.698   1.485
 4543SOL    HW214529   4.682   1.627   1.560
 4544SOL     OW14530   3.079   6.483   6.118
 4544SOL    HW114531   3.111   6.471   6.212
 4544SOL    HW214532   3.065   6.580   6.099
 4545SOL     OW14533   4.935   4.020   4.997
 4545SOL    HW114534   4.944   3.934   4.948
 4545SOL    HW214535   5.013   4.031   5.059
 4546SOL     OW14536   2.326   1.513   6.474
 4546SOL    HW114537   2.289   1.600   6.442
 4546SOL    HW214538   2.359   1.460   6.396
 4547SOL     OW14539   5.844   2.689   3.281
 4547SOL    HW114540   5.765   2.661   3.336
 4547SOL    HW214541   5.813   2.710   3.188
 4548SOL     OW14542   0.958   4.118   4.875
 4548SOL    HW114543   1.038   4.060   4.889
 4548SOL    HW214544   0.987   4.206   4.836
 4549SOL     OW14545   5.674   4.416   2.169
 4549SOL    HW114546   5.748   4.415   2.236
 4549SOL    HW214547   5.625   4.503   2.175
 4550SOL     OW14548   1.672   5.675   3.295
 4550SOL    HW114549   1.627   5.655   3.383
 4550SOL    HW214550   1.618   5.742   3.245
 4551SOL     OW14551   6.492   2.093   5.668
 4551SOL    HW114552   6.536   2.021   5.721
 4551SOL    HW214553   6.394   2.097   5.691
 4552SOL     OW14554   6.312   2.886   0.979
 4552SOL    HW114555   6.406   2.856   0.961
 4552SOL    HW214556   6.250   2.845   0.913
 4553SOL     OW14557   3.932   4.225   6.550
 4553SOL    HW114558   3.945   4.282   6.631
 4553SOL    HW214559   3.982   4.265   6.473
 4554SOL     OW14560   4.798   0.223   1.187
 4554SOL    HW114561   4.819   0.143   1.244
 4554SOL    HW214562   4.726   0.277   1.231
 4555SOL     OW14563   3.383   1.241   5.662
 4555SOL    HW114564   3.431   1.177   5.602
 4555SOL    HW214565   3.303   1.195   5.702
 4556SOL     OW14566   4.560   2.596   3.924
 4556SOL    HW114567   4.505   2.522   3.886
 4556SOL    HW214568   4.538   2.608   4.021
 4557SOL     OW14569   4.809   6.897   4.866
 4557SOL    HW114570   4.836   6.893   4.770
 4557SOL    HW214571   4.887   6.927   4.921
 4558SOL     OW14572   0.449   3.767   5.457
 4558SOL    HW114573   0.487   3.860   5.459
 4558SOL    HW214574   0.349   3.772   5.461
 4559SOL     OW14575   1.024   3.846   1.799
 4559SOL    HW114576   0.975   3.883   1.720
 4559SOL    HW214577   1.026   3.746   1.793
 4560SOL     OW14578   5.670   5.010   2.628
 4560SOL    HW114579   5.750   5.063   2.602
 4560SOL    HW214580   5.696   4.942   2.697
 4561SOL     OW14581   2.553   0.670   1.614
 4561SOL    HW114582   2.642   0.712   1.633
 4561SOL    HW214583   2.514   0.710   1.531
 4562SOL     OW14584   3.352   6.273   4.913
 4562SOL    HW114585   3.289   6.345   4.944
 4562SOL    HW214586   3.365   6.206   4.986
 4563SOL     OW14587   0.810   3.895   0.895
 4563SOL    HW114588   0.762   3.903   0.982
 4563SOL    HW214589   0.789   3.975   0.838
 4564SOL     OW14590   6.652   6.896   0.764
 4564SOL    HW114591   6.730   6.874   0.705
 4564SOL    HW214592   6.675   6.876   0.859
 4565SOL     OW14593   0.242   0.999   5.469
 4565SOL    HW114594   0.250   0.966   5.375
 4565SOL    HW214595   0.186   1.082   5.471
 4566SOL     OW14596   6.745   1.964   0.499
 4566SOL    HW114597   6.676   2.037   0.491
 4566SOL    HW214598   6.760   1.922   0.410
 4567SOL     OW14599   0.183   0.787   0.139
 4567SOL    HW114600   0.171   0.885   0.156
 4567SOL    HW214601   0.278   0.761   0.157
 4568SOL     OW14602   1.419   4.103   5.309
 4568SOL    HW114603   1.342   4.101   5.373
 4568SOL    HW214604   1.492   4.043   5.343
 4569SOL     OW14605   2.275   1.039   3.737
 4569SOL    HW114606   2.271   1.135   3.709
 4569SOL    HW214607   2.187   1.013   3.776
 4570SOL     OW14608   0.939   6.351   3.003
 4570SOL    HW114609   1.001   6.419   2.963
 4570SOL    HW214610   0.977   6.259   2.989
 4571SOL     OW14611   4.009   2.988   6.247
 4571SOL    HW114612   3.970   3.051   6.181
 4571SOL    HW214613   3.948   2.910   6.259
 4572SOL     OW14614   1.381   6.580   0.101
 4572SOL    HW114615   1.388   6.490   0.058
 4572SOL    HW214616   1.297   6.625   0.071
 4573SOL     OW14617   6.357   6.617   0.584
 4573SOL    HW114618   6.301   6.697   0.559
 4573SOL    HW214619   6.317   6.573   0.665
 4574SOL     OW14620   6.691   3.886   1.383
 4574SOL    HW114621   6.639   3.970   1.371
 4574SOL    HW214622   6.628   3.809   1.396
 4575SOL     OW14623   5.881   1.727   6.439
 4575SOL    HW114624   5.904   1.635   6.472
 4575SOL    HW214625   5.909   1.735   6.344
 4576SOL     OW14626   2.229   6.150   6.458
 4576SOL    HW114627   2.153   6.093   6.492
 4576SOL    HW214628   2.218   6.165   6.360
 4577SOL     OW14629   0.961   1.749   4.593
 4577SOL    HW114630   0.982   1.780   4.500
 4577SOL    HW214631   0.922   1.825   4.645
 4578SOL     OW14632   0.845   3.740   4.758
 4578SOL    HW114633   0.899   3.672   4.808
 4578SOL    HW214634   0.782   3.694   4.696
 4579SOL     OW14635   4.861   2.329   3.367
 4579SOL    HW114636   4.888   2.422   3.340
 4579SOL    HW214637   4.798   2.292   3.299
 4580SOL     OW14638   4.725   4.812   0.031
 4580SOL    HW114639   4.669   4.894   0.017
 4580SOL    HW214640   4.671   4.743   0.078
 4581SOL     OW14641   2.952   4.889   3.095
 4581SOL    HW114642   2.961   4.881   3.195
 4581SOL    HW214643   3.024   4.948   3.060
 4582SOL     OW14644   5.958   6.505   4.500
 4582SOL    HW114645   5.939   6.597   4.466
 4582SOL    HW214646   5.940   6.501   4.599
 4583SOL     OW14647   2.598   1.777   5.512
 4583SOL    HW114648   2.653   1.850   5.553
 4583SOL    HW214649   2.575   1.801   5.418
 4584SOL     OW14650   0.266   5.420   5.767
 4584SOL    HW114651   0.249   5.379   5.677
 4584SOL    HW214652   0.292   5.516   5.755
 4585SOL     OW14653   2.525   6.928   3.361
 4585SOL    HW114654   2.472   7.011   3.343
 4585SOL    HW214655   2.511   6.863   3.286
 4586SOL     OW14656   3.394   4.578   0.411
 4586SOL    HW114657   3.488   4.546   0.395
 4586SOL    HW214658   3.383   4.603   0.507
 4587SOL     OW14659   4.048   3.869   1.987
 4587SOL    HW114660   4.068   3.876   2.085
 4587SOL    HW214661   4.106   3.798   1.946
 4588SOL     OW14662   3.586   4.134   5.156
 4588SOL    HW114663   3.594   4.043   5.116
 4588SOL    HW214664   3.669   4.187   5.136
 4589SOL     OW14665   5.670   1.009   2.569
 4589SOL    HW114666   5.708   0.971   2.484
 4589SOL    HW214667   5.570   1.006   2.565
 4590SOL     OW14668   4.692   5.640   0.304
 4590SOL    HW114669   4.679   5.730   0.344
 4590SOL    HW214670   4.711   5.650   0.206
 4591SOL     OW14671   0.662   6.205   4.537
 4591SOL    HW114672   0.687   6.112   4.563
 4591SOL    HW214673   0.704   6.270   4.600
 4592SOL     OW14674   3.350   1.490   1.824
 4592SOL    HW114675   3.317   1.567   1.878
 4592SOL    HW214676   3.400   1.524   1.744
 4593SOL     OW14677   4.233   5.814   3.818
 4593SOL    HW114678   4.214   5.763   3.901
 4593SOL    HW214679   4.266   5.906   3.842
 4594SOL     OW14680   3.237   0.549   1.557
 4594SOL    HW114681   3.263   0.597   1.641
 4594SOL    HW214682   3.240   0.612   1.480
 4595SOL     OW14683   4.013   2.166   6.355
 4595SOL    HW114684   4.089   2.159   6.290
 4595SOL    HW214685   3.927   2.164   6.305
 4596SOL     OW14686   5.851   6.943   2.765
 4596SOL    HW114687   5.807   0.006   2.776
 4596SOL    HW214688   5.781   6.872   2.756
 4597SOL     OW14689   4.643   4.195   6.852
 4597SOL    HW114690   4.666   4.277   6.801
 4597SOL    HW214691   4.665   4.114   6.797
 4598SOL     OW14692   1.883   5.462   0.023
 4598SOL    HW114693   1.868   5.382   0.081
 4598SOL    HW214694   1.914   5.539   0.079
 4599SOL     OW14695   1.042   5.333   0.094
 4599SOL    HW114696   1.110   5.343   0.021
 4599SOL    HW214697   0.994   5.245   0.082
 4600SOL     OW14698   0.900   4.472   5.246
 4600SOL    HW114699   0.956   4.401   5.290
 4600SOL    HW214700   0.904   4.556   5.300
 4601SOL     OW14701   1.780   7.020   5.881
 4601SOL    HW114702   1.870   6.977   5.879
 4601SOL    HW214703   1.785   0.080   5.934
 4602SOL     OW14704   1.123   5.743   1.509
 4602SOL    HW114705   1.034   5.781   1.484
 4602SOL    HW214706   1.127   5.729   1.608
 4603SOL     OW14707   2.938   6.133   0.993
 4603SOL    HW114708   2.879   6.145   0.913
 4603SOL    HW214709   2.993   6.216   1.007
 4604SOL     OW14710   4.804   0.383   1.572
 4604SOL    HW114711   4.817   0.316   1.645
 4604SOL    HW214712   4.741   0.346   1.503
 4605SOL     OW14713   3.422   0.810   3.322
 4605SOL    HW114714   3.400   0.760   3.406
 4605SOL    HW214715   3.341   0.817   3.265
 4606SOL     OW14716   0.874   0.360   1.602
 4606SOL    HW114717   0.943   0.288   1.613
 4606SOL    HW214718   0.796   0.324   1.551
 4607SOL     OW14719   2.606   2.570   0.679
 4607SOL    HW114720   2.643   2.650   0.632
 4607SOL    HW214721   2.599   2.590   0.777
 4608SOL     OW14722   0.886   6.032   3.627
 4608SOL    HW114723   0.884   6.117   3.574
 4608SOL    HW214724   0.813   5.972   3.595
 4609SOL     OW14725   4.598   4.965   6.133
 4609SOL    HW114726   4.543   5.017   6.067
 4609SOL    HW214727   4.631   4.881   6.089
 4610SOL     OW14728   5.021   2.671   0.877
 4610SOL    HW114729   5.070   2.753   0.845
 4610SOL    HW214730   5.034   2.597   0.811
 4611SOL     OW14731   0.245   6.017   5.554
 4611SOL    HW114732   0.166   5.971   5.594
 4611SOL    HW214733   0.329   5.979   5.594
 4612SOL     OW14734   1.241   5.722   6.916
 4612SOL    HW114735   1.284   5.707   7.005
 4612SOL    HW214736   1.226   5.820   6.903
 4613SOL     OW14737   2.332   5.889   2.382
 4613SOL    HW114738   2.401   5.960   2.394
 4613SOL    HW214739   2.377   5.803   2.359
 4614SOL     OW14740   6.817   3.678   4.323
 4614SOL    HW114741   6.725   3.650   4.351
 4614SOL    HW214742   6.884   3.646   4.391
 4615SOL     OW14743   1.913   0.617   0.323
 4615SOL    HW114744   2.011   0.633   0.336
 4615SOL    HW214745   1.875   0.571   0.403
 4616SOL     OW14746   6.397   0.882   5.805
 4616SOL    HW114747   6.468   0.952   5.802
 4616SOL    HW214748   6.308   0.925   5.820
 4617SOL     OW14749   0.493   2.716   2.324
 4617SOL    HW114750   0.404   2.692   2.285
 4617SOL    HW214751   0.564   2.656   2.286
 4618SOL     OW14752   1.947   2.834   5.003
 4618SOL    HW114753   2.017   2.901   5.026
 4618SOL    HW214754   1.936   2.831   4.903
 4619SOL     OW14755   3.170   6.421   2.866
 4619SOL    HW114756   3.251   6.424   2.924
 4619SOL    HW214757   3.192   6.378   2.779
 4620SOL     OW14758   2.683   4.749   0.372
 4620SOL    HW114759   2.705   4.659   0.333
 4620SOL    HW214760   2.745   4.818   0.334
 4621SOL     OW14761   5.000   1.094   2.437
 4621SOL    HW114762   4.901   1.078   2.438
 4621SOL    HW214763   5.027   1.139   2.352
 4622SOL     OW14764   2.319   4.097   0.444
 4622SOL    HW114765   2.292   4.005   0.474
 4622SOL    HW214766   2.417   4.108   0.457
 4623SOL     OW14767   6.058   6.319   0.360
 4623SOL    HW114768   6.139   6.351   0.311
 4623SOL    HW214769   6.047   6.372   0.445
 4624SOL     OW14770   5.664   0.175   3.190
 4624SOL    HW114771   5.748   0.230   3.195
 4624SOL    HW214772   5.677   0.102   3.123
 4625SOL     OW14773   1.562   3.972   0.325
 4625SOL    HW114774   1.658   3.949   0.342
 4625SOL    HW214775   1.505   3.938   0.400
 4626SOL     OW14776   5.433   5.594   2.069
 4626SOL    HW114777   5.415   5.679   2.019
 4626SOL    HW214778   5.383   5.519   2.027
 4627SOL     OW14779   2.973   4.940   4.029
 4627SOL    HW114780   3.058   4.943   4.083
 4627SOL    HW214781   2.907   4.881   4.076
 4628SOL     OW14782   5.762   4.146   4.109
 4628SOL    HW114783   5.703   4.066   4.121
 4628SOL    HW214784   5.845   4.119   4.059
 4629SOL     OW14785   2.221   5.230   5.965
 4629SOL    HW114786   2.209   5.145   6.017
 4629SOL    HW214787   2.226   5.209   5.868
 4630SOL     OW14788   3.765   5.392   2.166
 4630SOL    HW114789   3.716   5.458   2.223
 4630SOL    HW214790   3.849   5.363   2.213
 4631SOL     OW14791   2.244   6.443   3.171
 4631SOL    HW114792   2.334   6.400   3.175
 4631SOL    HW214793   2.173   6.373   3.168
 4632SOL     OW14794   3.648   5.212   2.547
 4632SOL    HW114795   3.709   5.197   2.469
 4632SOL    HW214796   3.606   5.303   2.538
 4633SOL     OW14797   5.203   1.515   3.936
 4633SOL    HW114798   5.167   1.440   3.992
 4633SOL    HW214799   5.141   1.532   3.859
 4634SOL     OW14800   2.876   5.038   5.933
 4634SOL    HW114801   2.898   5.024   6.030
 4634SOL    HW214802   2.777   5.045   5.922
 4635SOL     OW14803   5.649   3.773   1.499
 4635SOL    HW114804   5.557   3.751   1.533
 4635SOL    HW214805   5.677   3.862   1.535
 4636SOL     OW14806   2.876   4.906   0.225
 4636SOL    HW114807   2.868   4.993   0.274
 4636SOL    HW214808   2.958   4.907   0.168
 4637SOL     OW14809   0.951   0.208   6.893
 4637SOL    HW114810   0.909   0.132   6.942
 4637SOL    HW214811   1.049   0.190   6.880
 4638SOL     OW14812   5.036   2.911   6.912
 4638SOL    HW114813   5.060   2.838   6.976
 4638SOL    HW214814   4.992   2.986   6.961
 4639SOL     OW14815   2.344   4.439   5.304
 4639SOL    HW114816   2.437   4.449   5.341
 4639SOL    HW214817   2.313   4.527   5.267
 4640SOL     OW14818   5.069   4.853   3.446
 4640SOL    HW114819   5.132   4.875   3.371
 4640SOL    HW214820   4.976   4.847   3.410
 4641SOL     OW14821   2.372   6.598   5.064
 4641SOL    HW114822   2.282   6.589   5.106
 4641SOL    HW214823   2.402   6.693   5.069
 4642SOL     OW14824   0.077   5.366   3.713
 4642SOL    HW114825   7.015   5.319   3.722
 4642SOL    HW214826   0.067   5.445   3.653
 4643SOL     OW14827   5.658   3.213   1.419
 4643SOL    HW114828   5.719   3.293   1.423
 4643SOL    HW214829   5.596   3.222   1.341
 4644SOL     OW14830   0.479   4.817   4.949
 4644SOL    HW114831   0.538   4.753   4.900
 4644SOL    HW214832   0.494   4.808   5.048
 4645SOL     OW14833   0.686   1.676   4.448
 4645SOL    HW114834   0.639   1.600   4.495
 4645SOL    HW214835   0.772   1.642   4.409
 4646SOL     OW14836   2.275   5.391   3.824
 4646SOL    HW114837   2.182   5.429   3.823
 4646SOL    HW214838   2.313   5.397   3.916
 4647SOL     OW14839   1.508   1.210   3.846
 4647SOL    HW114840   1.526   1.187   3.751
 4647SOL    HW214841   1.513   1.309   3.858
 4648SOL     OW14842   4.564   1.211   2.190
 4648SOL    HW114843   4.470   1.180   2.172
 4648SOL    HW214844   4.625   1.132   2.192
 4649SOL     OW14845   5.497   0.065   6.175
 4649SOL    HW114846   5.523   7.004   6.217
 4649SOL    HW214847   5.569   0.133   6.192
 4650SOL     OW14848   4.725   5.772   3.620
 4650SOL    HW114849   4.749   5.766   3.523
 4650SOL    HW214850   4.800   5.734   3.675
 4651SOL     OW14851   6.711   1.787   0.715
 4651SOL    HW114852   6.750   1.707   0.669
 4651SOL    HW214853   6.727   1.868   0.659
 4652SOL     OW14854   6.967   0.300   4.265
 4652SOL    HW114855   6.906   0.350   4.326
 4652SOL    HW214856   6.918   0.274   4.182
 4653SOL     OW14857   5.730   5.378   0.191
 4653SOL    HW114858   5.659   5.427   0.242
 4653SOL    HW214859   5.688   5.305   0.138
 4654SOL     OW14860   0.786   6.299   0.257
 4654SOL    HW114861   0.751   6.265   0.170
 4654SOL    HW214862   0.804   6.397   0.249
 4655SOL     OW14863   6.290   4.553   1.866
 4655SOL    HW114864   6.272   4.455   1.856
 4655SOL    HW214865   6.348   4.568   1.946
 4656SOL     OW14866   1.118   0.226   3.758
 4656SOL    HW114867   1.164   0.137   3.757
 4656SOL    HW214868   1.039   0.221   3.819
 4657SOL     OW14869   5.512   6.242   1.530
 4657SOL    HW114870   5.562   6.245   1.616
 4657SOL    HW214871   5.502   6.146   1.501
 4658SOL     OW14872   4.106   1.201   2.568
 4658SOL    HW114873   4.093   1.149   2.652
 4658SOL    HW214874   4.139   1.141   2.495
 4659SOL     OW14875   3.052   4.355   5.353
 4659SOL    HW114876   3.044   4.421   5.278
 4659SOL    HW214877   3.013   4.268   5.325
 4660SOL     OW14878   0.842   4.135   5.441
 4660SOL    HW114879   0.918   4.198   5.430
 4660SOL    HW214880   0.876   4.041   5.447
 4661SOL     OW14881   3.462   3.834   5.860
 4661SOL    HW114882   3.544   3.777   5.853
 4661SOL    HW214883   3.482   3.925   5.825
 4662SOL     OW14884   3.747   6.887   4.952
 4662SOL    HW114885   3.717   6.814   4.892
 4662SOL    HW214886   3.847   6.887   4.957
 4663SOL     OW14887   0.917   1.481   2.624
 4663SOL    HW114888   0.865   1.516   2.546
 4663SOL    HW214889   0.871   1.506   2.709
 4664SOL     OW14890   1.366   1.418   0.550
 4664SOL    HW114891   1.366   1.513   0.519
 4664SOL    HW214892   1.420   1.410   0.634
 4665SOL     OW14893   3.926   7.010   0.138
 4665SOL    HW114894   3.897   6.917   0.161
 4665SOL    HW214895   3.865   0.022   0.069
 4666SOL     OW14896   1.443   1.895   0.923
 4666SOL    HW114897   1.478   1.983   0.891
 4666SOL    HW214898   1.365   1.868   0.866
 4667SOL     OW14899   6.137   3.781   2.096
 4667SOL    HW114900   6.071   3.835   2.044
 4667SOL    HW214901   6.220   3.768   2.040
 4668SOL     OW14902   4.761   1.832   2.965
 4668SOL    HW114903   4.746   1.734   2.956
 4668SOL    HW214904   4.689   1.872   3.022
 4669SOL     OW14905   4.393   6.304   6.568
 4669SOL    HW114906   4.424   6.387   6.614
 4669SOL    HW214907   4.383   6.231   6.635
 4670SOL     OW14908   2.978   2.213   5.220
 4670SOL    HW114909   3.060   2.233   5.166
 4670SOL    HW214910   2.965   2.284   5.289
 4671SOL     OW14911   6.857   2.779   2.376
 4671SOL    HW114912   6.858   2.859   2.316
 4671SOL    HW214913   6.868   2.696   2.320
 4672SOL     OW14914   2.909   4.522   6.466
 4672SOL    HW114915   2.941   4.610   6.431
 4672SOL    HW214916   2.931   4.515   6.564
 4673SOL     OW14917   4.978   6.645   1.431
 4673SOL    HW114918   4.895   6.678   1.387
 4673SOL    HW214919   4.956   6.608   1.521
 4674SOL     OW14920   4.936   0.096   6.372
 4674SOL    HW114921   4.943   0.158   6.294
 4674SOL    HW214922   4.875   0.020   6.350
 4675SOL     OW14923   0.550   1.171   6.359
 4675SOL    HW114924   0.460   1.130   6.350
 4675SOL    HW214925   0.543   1.258   6.407
 4676SOL     OW14926   6.919   6.231   3.493
 4676SOL    HW114927   6.930   6.319   3.446
 4676SOL    HW214928   6.823   6.205   3.492
 4677SOL     OW14929   2.833   0.962   0.333
 4677SOL    HW114930   2.765   1.031   0.312
 4677SOL    HW214931   2.899   1.000   0.399
 4678SOL     OW14932   1.803   4.654   3.312
 4678SOL    HW114933   1.892   4.610   3.321
 4678SOL    HW214934   1.800   4.708   3.228
 4679SOL     OW14935   3.514   0.419   0.905
 4679SOL    HW114936   3.469   0.464   0.982
 4679SOL    HW214937   3.462   0.337   0.880
 4680SOL     OW14938   3.254   1.755   6.871
 4680SOL    HW114939   3.249   1.722   6.777
 4680SOL    HW214940   3.246   1.678   6.934
 4681SOL     OW14941   5.090   5.174   6.886
 4681SOL    HW114942   5.046   5.084   6.884
 4681SOL    HW214943   5.157   5.180   6.811
 4682SOL     OW14944   4.938   4.684   5.064
 4682SOL    HW114945   4.994   4.636   4.996
 4682SOL    HW214946   4.937   4.632   5.149
 4683SOL     OW14947   5.121   5.110   2.296
 4683SOL    HW114948   5.093   5.018   2.324
 4683SOL    HW214949   5.146   5.163   2.377
 4684SOL     OW14950   5.965   0.690   5.361
 4684SOL    HW114951   5.993   0.606   5.315
 4684SOL    HW214952   6.034   0.760   5.347
 4685SOL     OW14953   1.358   5.142   5.591
 4685SOL    HW114954   1.296   5.089   5.534
 4685SOL    HW214955   1.311   5.225   5.621
 4686SOL     OW14956   4.331   5.060   0.028
 4686SOL    HW114957   4.424   5.048   7.020
 4686SOL    HW214958   4.332   5.072   0.127
 4687SOL     OW14959   5.238   3.443   4.159
 4687SOL    HW114960   5.258   3.439   4.061
 4687SOL    HW214961   5.175   3.517   4.178
 4688SOL     OW14962   5.858   4.367   5.316
 4688SOL    HW114963   5.884   4.328   5.404
 4688SOL    HW214964   5.834   4.294   5.252
 4689SOL     OW14965   4.762   0.860   0.146
 4689SOL    HW114966   4.735   0.935   0.208
 4689SOL    HW214967   4.855   0.877   0.113
 4690SOL     OW14968   1.207   0.109   6.911
 4690SOL    HW114969   1.221   0.076   7.004
 4690SOL    HW214970   1.209   0.032   6.847
 4691SOL     OW14971   3.122   4.563   1.164
 4691SOL    HW114972   3.133   4.464   1.176
 4691SOL    HW214973   3.113   4.606   1.254
 4692SOL     OW14974   5.638   5.480   2.217
 4692SOL    HW114975   5.576   5.504   2.143
 4692SOL    HW214976   5.730   5.515   2.198
 4693SOL     OW14977   1.581   1.859   3.452
 4693SOL    HW114978   1.606   1.951   3.482
 4693SOL    HW214979   1.539   1.809   3.528
 4694SOL     OW14980   1.850   1.010   0.294
 4694SOL    HW114981   1.900   0.925   0.279
 4694SOL    HW214982   1.868   1.074   0.219
 4695SOL     OW14983   0.898   4.376   2.579
 4695SOL    HW114984   0.877   4.436   2.656
 4695SOL    HW214985   0.938   4.430   2.505
 4696SOL     OW14986   0.248   4.052   0.436
 4696SOL    HW114987   0.158   4.017   0.411
 4696SOL    HW214988   0.305   3.977   0.470
 4697SOL     OW14989   1.496   3.269   1.132
 4697SOL    HW114990   1.585   3.259   1.088
 4697SOL    HW214991   1.484   3.198   1.201
 4698SOL     OW14992   4.370   5.671   2.443
 4698SOL    HW114993   4.372   5.745   2.376
 4698SOL    HW214994   4.280   5.667   2.485
 4699SOL     OW14995   1.235   6.735   2.200
 4699SOL    HW114996   1.209   6.694   2.112
 4699SOL    HW214997   1.249   6.662   2.267
 4700SOL     OW14998   6.915   1.128   3.014
 4700SOL    HW114999   6.821   1.138   2.981
 4700SOL    HW215000   6.966   1.068   2.952
 4701SOL     OW15001   2.621   2.102   0.255
 4701SOL    HW115002   2.621   2.007   0.221
 4701SOL    HW215003   2.690   2.111   0.327
 4702SOL     OW15004   5.003   4.946   0.198
 4702SOL    HW115005   4.970   4.862   0.242
 4702SOL    HW215006   4.935   4.978   0.132
 4703SOL     OW15007   0.120   1.705   2.778
 4703SOL    HW115008   0.180   1.756   2.839
 4703SOL    HW215009   0.028   1.701   2.817
 4704SOL     OW15010   6.503   6.351   6.451
 4704SOL    HW115011   6.523   6.445   6.476
 4704SOL    HW215012   6.448   6.350   6.367
 4705SOL     OW15013   4.031   2.915   1.484
 4705SOL    HW115014   4.014   2.925   1.582
 4705SOL    HW215015   4.126   2.888   1.469
 4706SOL     OW15016   2.221   6.986   0.577
 4706SOL    HW115017   2.169   7.021   0.655
 4706SOL    HW215018   2.180   7.018   0.492
 4707SOL     OW15019   0.866   6.574   0.274
 4707SOL    HW115020   0.825   6.635   0.342
 4707SOL    HW215021   0.824   6.589   0.185
 4708SOL     OW15022   1.414   2.246   6.159
 4708SOL    HW115023   1.457   2.318   6.214
 4708SOL    HW215024   1.471   2.227   6.079
 4709SOL     OW15025   4.679   5.697   5.243
 4709SOL    HW115026   4.719   5.621   5.190
 4709SOL    HW215027   4.635   5.761   5.180
 4710SOL     OW15028   4.700   0.184   5.880
 4710SOL    HW115029   4.663   0.273   5.904
 4710SOL    HW215030   4.797   0.180   5.903
 4711SOL     OW15031   5.833   1.198   1.423
 4711SOL    HW115032   5.865   1.164   1.511
 4711SOL    HW215033   5.908   1.245   1.377
 4712SOL     OW15034   3.329   4.725   6.828
 4712SOL    HW115035   3.367   4.668   6.755
 4712SOL    HW215036   3.318   4.819   6.794
 4713SOL     OW15037   3.440   4.126   0.779
 4713SOL    HW115038   3.531   4.144   0.817
 4713SOL    HW215039   3.448   4.106   0.681
 4714SOL     OW15040   0.691   1.850   6.174
 4714SOL    HW115041   0.736   1.809   6.253
 4714SOL    HW215042   0.595   1.821   6.172
 4715SOL     OW15043   6.134   3.224   2.178
 4715SOL    HW115044   6.196   3.226   2.257
 4715SOL    HW215045   6.055   3.167   2.200
 4716SOL     OW15046   4.274   6.642   6.072
 4716SOL    HW115047   4.188   6.641   6.123
 4716SOL    HW215048   4.339   6.579   6.114
 4717SOL     OW15049   0.318   6.054   3.890
 4717SOL    HW115050   0.317   6.112   3.972
 4717SOL    HW215051   0.280   5.964   3.911
 4718SOL     OW15052   6.076   2.310   1.546
 4718SOL    HW115053   6.124   2.379   1.602
 4718SOL    HW215054   6.012   2.356   1.485
 4719SOL     OW15055   4.726   3.086   1.658
 4719SOL    HW115056   4.683   3.062   1.744
 4719SOL    HW215057   4.779   3.170   1.669
 4720SOL     OW15058   2.196   5.067   6.399
 4720SOL    HW115059   2.203   5.090   6.496
 4720SOL    HW215060   2.121   5.002   6.386
 4721SOL     OW15061   6.553   1.810   2.604
 4721SOL    HW115062   6.499   1.857   2.674
 4721SOL    HW215063   6.632   1.765   2.646
 4722SOL     OW15064   1.297   6.312   6.685
 4722SOL    HW115065   1.371   6.267   6.637
 4722SOL    HW215066   1.334   6.370   6.758
 4723SOL     OW15067   3.130   3.080   5.945
 4723SOL    HW115068   3.083   2.992   5.952
 4723SOL    HW215069   3.180   3.084   5.859
 4724SOL     OW15070   6.141   6.912   3.469
 4724SOL    HW115071   6.185   6.830   3.503
 4724SOL    HW215072   6.195   6.951   3.394
 4725SOL     OW15073   6.797   5.158   0.963
 4725SOL    HW115074   6.895   5.163   0.941
 4725SOL    HW215075   6.762   5.069   0.935
 4726SOL     OW15076   0.809   3.226   6.218
 4726SOL    HW115077   0.814   3.213   6.119
 4726SOL    HW215078   0.752   3.155   6.258
 4727SOL     OW15079   1.166   6.333   1.206
 4727SOL    HW115080   1.183   6.421   1.161
 4727SOL    HW215081   1.069   6.324   1.225
 4728SOL     OW15082   5.803   1.587   1.451
 4728SOL    HW115083   5.754   1.663   1.407
 4728SOL    HW215084   5.737   1.528   1.498
 4729SOL     OW15085   4.092   1.735   0.622
 4729SOL    HW115086   4.073   1.823   0.579
 4729SOL    HW215087   4.097   1.664   0.551
 4730SOL     OW15088   3.647   5.802   5.730
 4730SOL    HW115089   3.674   5.707   5.717
 4730SOL    HW215090   3.633   5.821   5.827
 4731SOL     OW15091   3.120   0.523   0.028
 4731SOL    HW115092   3.063   0.542   6.973
 4731SOL    HW215093   3.216   0.522   0.001
 4732SOL     OW15094   1.688   4.438   5.207
 4732SOL    HW115095   1.594   4.405   5.199
 4732SOL    HW215096   1.744   4.370   5.255
 4733SOL     OW15097   1.700   4.463   3.697
 4733SOL    HW115098   1.767   4.404   3.652
 4733SOL    HW215099   1.623   4.480   3.635
 4734SOL     OW15100   4.336   3.633   0.058
 4734SOL    HW115101   4.245   3.656   0.024
 4734SOL    HW215102   4.399   3.707   0.035
 4735SOL     OW15103   0.416   5.283   4.466
 4735SOL    HW115104   0.448   5.189   4.453
 4735SOL    HW215105   0.437   5.313   4.559
 4736SOL     OW15106   6.137   1.782   5.790
 4736SOL    HW115107   6.071   1.856   5.791
 4736SOL    HW215108   6.158   1.757   5.695
 4737SOL     OW15109   2.916   4.262   1.709
 4737SOL    HW115110   2.895   4.352   1.749
 4737SOL    HW215111   2.832   4.220   1.677
 4738SOL     OW15112   1.754   6.027   3.235
 4738SOL    HW115113   1.694   5.994   3.308
 4738SOL    HW215114   1.734   5.979   3.150
 4739SOL     OW15115   4.637   1.588   2.920
 4739SOL    HW115116   4.722   1.535   2.913
 4739SOL    HW215117   4.588   1.584   2.833
 4740SOL     OW15118   0.344   1.861   0.785
 4740SOL    HW115119   0.398   1.939   0.817
 4740SOL    HW215120   0.307   1.812   0.864
 4741SOL     OW15121   5.689   3.719   0.741
 4741SOL    HW115122   5.672   3.751   0.648
 4741SOL    HW215123   5.781   3.680   0.747
 4742SOL     OW15124   3.120   6.843   6.808
 4742SOL    HW115125   3.188   6.904   6.768
 4742SOL    HW215126   3.152   6.810   6.897
 4743SOL     OW15127   2.139   3.645   5.051
 4743SOL    HW115128   2.153   3.562   4.997
 4743SOL    HW215129   2.194   3.641   5.134
 4744SOL     OW15130   2.414   4.085   6.250
 4744SOL    HW115131   2.318   4.065   6.230
 4744SOL    HW215132   2.458   4.119   6.167
 4745SOL     OW15133   3.338   5.289   5.908
 4745SOL    HW115134   3.417   5.251   5.957
 4745SOL    HW215135   3.359   5.295   5.811
 4746SOL     OW15136   5.391   6.235   2.392
 4746SOL    HW115137   5.419   6.145   2.427
 4746SOL    HW215138   5.304   6.261   2.432
 4747SOL     OW15139   1.618   3.997   6.053
 4747SOL    HW115140   1.555   3.966   6.124
 4747SOL    HW215141   1.601   3.946   5.968
 4748SOL     OW15142   0.955   4.701   0.795
 4748SOL    HW115143   0.912   4.790   0.810
 4748SOL    HW215144   0.926   4.637   0.866
 4749SOL     OW15145   2.919   6.289   5.401
 4749SOL    HW115146   2.899   6.372   5.347
 4749SOL    HW215147   2.955   6.315   5.490
 4750SOL     OW15148   0.406   4.021   3.472
 4750SOL    HW115149   0.404   3.923   3.455
 4750SOL    HW215150   0.357   4.069   3.399
 4751SOL     OW15151   3.431   1.979   1.212
 4751SOL    HW115152   3.470   2.011   1.126
 4751SOL    HW215153   3.385   2.055   1.258
 4752SOL     OW15154   3.692   0.753   6.686
 4752SOL    HW115155   3.779   0.737   6.733
 4752SOL    HW215156   3.638   0.819   6.739
 4753SOL     OW15157   5.396   0.045   3.888
 4753SOL    HW115158   5.363   7.000   3.825
 4753SOL    HW215159   5.448   0.002   3.962
 4754SOL     OW15160   5.873   0.061   4.649
 4754SOL    HW115161   5.889   0.137   4.586
 4754SOL    HW215162   5.892   0.092   4.743
 4755SOL     OW15163   1.977   0.511   1.035
 4755SOL    HW115164   1.960   0.420   0.997
 4755SOL    HW215165   1.913   0.527   1.110
 4756SOL     OW15166   6.032   3.056   1.091
 4756SOL    HW115167   6.119   3.104   1.075
 4756SOL    HW215168   6.009   3.060   1.188
 4757SOL     OW15169   2.371   1.911   0.750
 4757SOL    HW115170   2.438   1.947   0.684
 4757SOL    HW215171   2.419   1.881   0.833
 4758SOL     OW15172   2.565   6.855   4.456
 4758SOL    HW115173   2.549   6.756   4.450
 4758SOL    HW215174   2.512   6.902   4.386
 4759SOL     OW15175   5.584   4.989   4.754
 4759SOL    HW115176   5.623   5.062   4.811
 4759SOL    HW215177   5.615   5.000   4.660
 4760SOL     OW15178   2.534   2.000   0.571
 4760SOL    HW115179   2.543   2.033   0.477
 4760SOL    HW215180   2.613   2.028   0.624
 4761SOL     OW15181   0.403   6.074   0.153
 4761SOL    HW115182   0.338   6.136   0.108
 4761SOL    HW215183   0.497   6.102   0.130
 4762SOL     OW15184   1.144   6.023   2.361
 4762SOL    HW115185   1.130   5.940   2.415
 4762SOL    HW215186   1.170   6.098   2.421
 4763SOL     OW15187   6.472   6.517   3.359
 4763SOL    HW115188   6.400   6.477   3.416
 4763SOL    HW215189   6.468   6.478   3.268
 4764SOL     OW15190   4.901   3.793   4.870
 4764SOL    HW115191   4.839   3.835   4.804
 4764SOL    HW215192   4.852   3.725   4.923
 4765SOL     OW15193   4.689   0.789   3.866
 4765SOL    HW115194   4.700   0.825   3.773
 4765SOL    HW215195   4.621   0.843   3.915
 4766SOL     OW15196   5.357   5.537   4.177
 4766SOL    HW115197   5.321   5.571   4.091
 4766SOL    HW215198   5.370   5.613   4.241
 4767SOL     OW15199   3.620   5.462   5.783
 4767SOL    HW115200   3.535   5.503   5.749
 4767SOL    HW215201   3.618   5.364   5.765
 4768SOL     OW15202   4.395   1.658   5.784
 4768SOL    HW115203   4.323   1.727   5.791
 4768SOL    HW215204   4.401   1.608   5.871
 4769SOL     OW15205   5.126   4.163   0.051
 4769SOL    HW115206   5.081   4.217   7.006
 4769SOL    HW215207   5.104   4.067   0.039
 4770SOL     OW15208   1.147   0.606   4.392
 4770SOL    HW115209   1.112   0.516   4.419
 4770SOL    HW215210   1.071   0.670   4.383
 4771SOL     OW15211   3.670   5.925   5.031
 4771SOL    HW115212   3.604   5.923   5.106
 4771SOL    HW215213   3.678   5.834   4.991
 4772SOL     OW15214   3.355   4.666   1.359
 4772SOL    HW115215   3.256   4.677   1.357
 4772SOL    HW215216   3.397   4.723   1.289
 4773SOL     OW15217   6.918   5.311   4.158
 4773SOL    HW115218   6.881   5.274   4.244
 4773SOL    HW215219   6.855   5.380   4.122
 4774SOL     OW15220   1.288   2.925   2.370
 4774SOL    HW115221   1.192   2.925   2.341
 4774SOL    HW215222   1.332   2.840   2.340
 4775SOL     OW15223   4.785   6.005   2.698
 4775SOL    HW115224   4.691   5.979   2.722
 4775SOL    HW215225   4.792   6.019   2.600
 4776SOL     OW15226   1.415   6.630   5.508
 4776SOL    HW115227   1.427   6.695   5.583
 4776SOL    HW215228   1.434   6.675   5.421
 4777SOL     OW15229   2.270   5.013   0.851
 4777SOL    HW115230   2.307   4.941   0.792
 4777SOL    HW215231   2.337   5.037   0.921
 4778SOL     OW15232   6.779   2.593   3.314
 4778SOL    HW115233   6.733   2.682   3.319
 4778SOL    HW215234   6.798   2.560   3.406
 4779SOL     OW15235   6.262   6.224   2.860
 4779SOL    HW115236   6.357   6.196   2.870
 4779SOL    HW215237   6.253   6.321   2.880
 4780SOL     OW15238   5.453   0.921   0.111
 4780SOL    HW115239   5.413   0.843   0.159
 4780SOL    HW215240   5.552   0.912   0.111
 4781SOL     OW15241   2.645   5.848   1.851
 4781SOL    HW115242   2.645   5.869   1.753
 4781SOL    HW215243   2.551   5.845   1.884
 4782SOL     OW15244   4.311   5.495   0.376
 4782SOL    HW115245   4.335   5.584   0.413
 4782SOL    HW215246   4.359   5.480   0.290
 4783SOL     OW15247   4.617   4.173   0.429
 4783SOL    HW115248   4.701   4.224   0.410
 4783SOL    HW215249   4.621   4.084   0.384
 4784SOL     OW15250   5.991   4.058   0.000
 4784SOL    HW115251   6.050   4.139   7.021
 4784SOL    HW215252   5.897   4.084   7.004
 4785SOL     OW15253   0.425   6.485   2.171
 4785SOL    HW115254   0.458   6.500   2.078
 4785SOL    HW215255   0.445   6.565   2.227
 4786SOL     OW15256   2.643   1.791   0.202
 4786SOL    HW115257   2.694   1.771   0.286
 4786SOL    HW215258   2.637   1.709   0.147
 4787SOL     OW15259   4.002   1.562   2.486
 4787SOL    HW115260   3.904   1.546   2.487
 4787SOL    HW215261   4.047   1.493   2.429
 4788SOL     OW15262   0.560   5.781   5.209
 4788SOL    HW115263   0.532   5.686   5.192
 4788SOL    HW215264   0.658   5.790   5.193
 4789SOL     OW15265   5.099   1.601   0.699
 4789SOL    HW115266   5.109   1.642   0.609
 4789SOL    HW215267   5.071   1.506   0.690
 4790SOL     OW15268   6.232   2.244   5.187
 4790SOL    HW115269   6.179   2.322   5.219
 4790SOL    HW215270   6.209   2.163   5.241
 4791SOL     OW15271   6.613   2.707   1.590
 4791SOL    HW115272   6.562   2.764   1.655
 4791SOL    HW215273   6.682   2.654   1.640
 4792SOL     OW15274   1.861   4.132   3.040
 4792SOL    HW115275   1.792   4.170   3.101
 4792SOL    HW215276   1.922   4.205   3.009
 4793SOL     OW15277   1.729   2.882   5.670
 4793SOL    HW115278   1.730   2.969   5.719
 4793SOL    HW215279   1.814   2.871   5.618
 4794SOL     OW15280   4.235   0.563   3.258
 4794SOL    HW115281   4.258   0.632   3.189
 4794SOL    HW215282   4.154   0.512   3.229
 4795SOL     OW15283   5.625   2.672   3.997
 4795SOL    HW115284   5.573   2.748   4.035
 4795SOL    HW215285   5.594   2.586   4.040
 4796SOL     OW15286   5.051   1.697   5.126
 4796SOL    HW115287   5.130   1.656   5.080
 4796SOL    HW215288   5.013   1.631   5.191
 4797SOL     OW15289   1.097   6.242   5.532
 4797SOL    HW115290   1.010   6.275   5.496
 4797SOL    HW215291   1.141   6.316   5.584
 4798SOL     OW15292   0.031   3.647   4.548
 4798SOL    HW115293   0.056   3.593   4.629
 4798SOL    HW215294   0.080   3.613   4.468
 4799SOL     OW15295   5.007   2.199   0.029
 4799SOL    HW115296   4.970   2.141   6.981
 4799SOL    HW215297   5.104   2.179   0.040
 4800SOL     OW15298   3.340   2.836   6.208
 4800SOL    HW115299   3.343   2.837   6.108
 4800SOL    HW215300   3.314   2.927   6.241
 4801SOL     OW15301   2.780   2.351   6.390
 4801SOL    HW115302   2.683   2.348   6.364
 4801SOL    HW215303   2.788   2.332   6.488
 4802SOL     OW15304   1.151   6.548   1.990
 4802SOL    HW115305   1.155   6.482   2.066
 4802SOL    HW215306   1.137   6.498   1.905
 4803SOL     OW15307   0.708   5.248   1.059
 4803SOL    HW115308   0.693   5.279   0.965
 4803SOL    HW215309   0.806   5.238   1.076
 4804SOL     OW15310   5.206   5.984   0.422
 4804SOL    HW115311   5.280   5.997   0.356
 4804SOL    HW215312   5.164   6.073   0.443
 4805SOL     OW15313   5.311   1.723   2.609
 4805SOL    HW115314   5.352   1.648   2.660
 4805SOL    HW215315   5.382   1.789   2.584
 4806SOL     OW15316   1.554   4.549   3.106
 4806SOL    HW115317   1.537   4.596   3.019
 4806SOL    HW215318   1.549   4.615   3.181
 4807SOL     OW15319   0.772   5.031   0.566
 4807SOL    HW115320   0.768   5.128   0.588
 4807SOL    HW215321   0.839   5.016   0.494
 4808SOL     OW15322   5.621   4.300   0.027
 4808SOL    HW115323   5.693   4.326   0.091
 4808SOL    HW215324   5.638   4.344   6.964
 4809SOL     OW15325   3.710   4.146   0.071
 4809SOL    HW115326   3.695   4.066   0.129
 4809SOL    HW215327   3.674   4.227   0.116
 4810SOL     OW15328   1.648   4.661   2.535
 4810SOL    HW115329   1.592   4.594   2.582
 4810SOL    HW215330   1.591   4.739   2.508
 4811SOL     OW15331   2.550   3.742   1.511
 4811SOL    HW115332   2.603   3.707   1.433
 4811SOL    HW215333   2.568   3.686   1.592
 4812SOL     OW15334   6.719   5.185   3.318
 4812SOL    HW115335   6.677   5.103   3.279
 4812SOL    HW215336   6.817   5.184   3.299
 4813SOL     OW15337   5.339   2.551   1.419
 4813SOL    HW115338   5.354   2.645   1.450
 4813SOL    HW215339   5.315   2.551   1.322
 4814SOL     OW15340   6.961   3.927   0.864
 4814SOL    HW115341   6.942   3.876   0.947
 4814SOL    HW215342   6.914   3.884   0.787
 4815SOL     OW15343   5.633   4.403   2.857
 4815SOL    HW115344   5.574   4.325   2.838
 4815SOL    HW215345   5.728   4.376   2.848
 4816SOL     OW15346   1.964   4.626   0.655
 4816SOL    HW115347   1.933   4.593   0.744
 4816SOL    HW215348   1.973   4.548   0.592
 4817SOL     OW15349   0.333   2.062   6.206
 4817SOL    HW115350   0.407   2.060   6.138
 4817SOL    HW215351   0.263   2.127   6.176
 4818SOL     OW15352   1.415   6.288   3.841
 4818SOL    HW115353   1.474   6.217   3.802
 4818SOL    HW215354   1.321   6.275   3.810
 4819SOL     OW15355   1.778   1.744   0.484
 4819SOL    HW115356   1.717   1.721   0.408
 4819SOL    HW215357   1.871   1.755   0.450
 4820SOL     OW15358   5.997   2.217   2.484
 4820SOL    HW115359   6.019   2.162   2.564
 4820SOL    HW215360   5.953   2.301   2.513
 4821SOL     OW15361   1.285   6.543   2.378
 4821SOL    HW115362   1.384   6.553   2.387
 4821SOL    HW215363   1.244   6.537   2.469
 4822SOL     OW15364   2.169   2.519   5.343
 4822SOL    HW115365   2.243   2.452   5.339
 4822SOL    HW215366   2.141   2.544   5.250
 4823SOL     OW15367   1.574   0.931   4.575
 4823SOL    HW115368   1.490   0.876   4.571
 4823SOL    HW215369   1.588   0.977   4.487
 4824SOL     OW15370   4.720   2.067   4.834
 4824SOL    HW115371   4.725   2.065   4.934
 4824SOL    HW215372   4.624   2.063   4.806
 4825SOL     OW15373   1.897   3.138   4.981
 4825SOL    HW115374   1.836   3.157   5.059
 4825SOL    HW215375   1.985   3.104   5.015
 4826SOL     OW15376   5.450   1.543   6.918
 4826SOL    HW115377   5.413   1.491   6.995
 4826SOL    HW215378   5.430   1.496   6.832
 4827SOL     OW15379   6.377   1.708   0.931
 4827SOL    HW115380   6.312   1.782   0.911
 4827SOL    HW215381   6.399   1.660   0.847
 4828SOL     OW15382   4.981   2.704   1.209
 4828SOL    HW115383   4.917   2.735   1.139
 4828SOL    HW215384   5.074   2.733   1.185
 4829SOL     OW15385   3.749   6.407   5.874
 4829SOL    HW115386   3.761   6.312   5.904
 4829SOL    HW215387   3.651   6.427   5.865
 4830SOL     OW15388   4.170   6.605   4.534
 4830SOL    HW115389   4.252   6.622   4.588
 4830SOL    HW215390   4.192   6.618   4.437
 4831SOL     OW15391   0.907   4.373   6.263
 4831SOL    HW115392   0.848   4.296   6.287
 4831SOL    HW215393   0.950   4.356   6.174
 4832SOL     OW15394   4.000   3.135   4.055
 4832SOL    HW115395   3.951   3.222   4.054
 4832SOL    HW215396   4.077   3.141   4.118
 4833SOL     OW15397   4.692   2.247   2.785
 4833SOL    HW115398   4.660   2.158   2.752
 4833SOL    HW215399   4.638   2.320   2.742
 4834SOL     OW15400   3.324   6.532   0.688
 4834SOL    HW115401   3.305   6.630   0.686
 4834SOL    HW215402   3.258   6.484   0.630
 4835SOL     OW15403   5.669   2.035   0.044
 4835SOL    HW115404   5.651   2.047   0.142
 4835SOL    HW215405   5.583   2.018   7.021
 4836SOL     OW15406   4.899   2.299   4.768
 4836SOL    HW115407   4.993   2.287   4.801
 4836SOL    HW215408   4.854   2.210   4.761
 4837SOL     OW15409   6.935   3.767   3.022
 4837SOL    HW115410   6.887   3.798   3.104
 4837SOL    HW215411   6.894   3.809   2.941
 4838SOL     OW15412   1.146   5.485   0.462
 4838SOL    HW115413   1.159   5.545   0.382
 4838SOL    HW215414   1.069   5.424   0.444
 4839SOL     OW15415   1.990   3.497   0.535
 4839SOL    HW115416   1.899   3.457   0.548
 4839SOL    HW215417   1.980   3.589   0.496
 4840SOL     OW15418   6.420   4.437   6.462
 4840SOL    HW115419   6.333   4.477   6.494
 4840SOL    HW215420   6.412   4.414   6.365
 4841SOL     OW15421   2.194   5.221   2.078
 4841SOL    HW115422   2.211   5.251   2.172
 4841SOL    HW215423   2.269   5.252   2.019
 4842SOL     OW15424   3.470   5.425   1.993
 4842SOL    HW115425   3.431   5.427   1.901
 4842SOL    HW215426   3.566   5.395   1.988
 4843SOL     OW15427   6.778   3.262   1.851
 4843SOL    HW115428   6.856   3.229   1.905
 4843SOL    HW215429   6.772   3.362   1.861
 4844SOL     OW15430   0.798   3.374   6.680
 4844SOL    HW115431   0.712   3.422   6.691
 4844SOL    HW215432   0.845   3.407   6.598
 4845SOL     OW15433   4.832   5.522   6.616
 4845SOL    HW115434   4.888   5.469   6.552
 4845SOL    HW215435   4.775   5.586   6.565
 4846SOL     OW15436   6.520   2.646   3.808
 4846SOL    HW115437   6.432   2.600   3.819
 4846SOL    HW215438   6.572   2.638   3.893
 4847SOL     OW15439   2.622   0.096   6.497
 4847SOL    HW115440   2.651   0.057   6.584
 4847SOL    HW215441   2.538   0.052   6.466
 4848SOL     OW15442   1.610   1.203   4.688
 4848SOL    HW115443   1.603   1.164   4.780
 4848SOL    HW215444   1.575   1.137   4.621
 4849SOL     OW15445   0.514   6.108   6.616
 4849SOL    HW115446   0.545   6.199   6.642
 4849SOL    HW215447   0.523   6.046   6.694
 4850SOL     OW15448   3.960   0.976   1.916
 4850SOL    HW115449   3.972   1.041   1.991
 4850SOL    HW215450   3.989   1.020   1.830
 4851SOL     OW15451   3.398   6.748   5.766
 4851SOL    HW115452   3.367   6.805   5.842
 4851SOL    HW215453   3.349   6.773   5.683
 4852SOL     OW15454   2.299   5.859   5.220
 4852SOL    HW115455   2.375   5.817   5.270
 4852SOL    HW215456   2.316   5.852   5.122
 4853SOL     OW15457   3.262   1.194   3.293
 4853SOL    HW115458   3.339   1.148   3.338
 4853SOL    HW215459   3.176   1.157   3.327
 4854SOL     OW15460   4.836   6.252   1.410
 4854SOL    HW115461   4.741   6.243   1.439
 4854SOL    HW215462   4.884   6.165   1.421
 4855SOL     OW15463   5.904   2.456   4.064
 4855SOL    HW115464   5.860   2.511   4.134
 4855SOL    HW215465   6.004   2.463   4.073
 4856SOL     OW15466   1.595   3.413   3.382
 4856SOL    HW115467   1.509   3.427   3.333
 4856SOL    HW215468   1.579   3.354   3.461
 4857SOL     OW15469   3.276   2.147   3.882
 4857SOL    HW115470   3.203   2.200   3.925
 4857SOL    HW215471   3.246   2.052   3.871
 4858SOL     OW15472   0.161   0.562   4.964
 4858SOL    HW115473   0.142   0.561   4.866
 4858SOL    HW215474   0.076   0.546   5.015
 4859SOL     OW15475   0.977   5.796   3.143
 4859SOL    HW115476   0.955   5.794   3.045
 4859SOL    HW215477   0.976   5.702   3.179
 4860SOL     OW15478   4.254   4.851   0.749
 4860SOL    HW115479   4.274   4.774   0.688
 4860SOL    HW215480   4.330   4.916   0.746
 4861SOL     OW15481   5.622   5.216   7.023
 4861SOL    HW115482   5.527   5.217   0.029
 4861SOL    HW215483   5.626   5.245   6.927
 4862SOL     OW15484   2.009   4.427   4.959
 4862SOL    HW115485   2.104   4.399   4.974
 4862SOL    HW215486   1.947   4.362   5.004
 4863SOL     OW15487   5.008   3.868   1.677
 4863SOL    HW115488   4.937   3.932   1.706
 4863SOL    HW215489   4.967   3.779   1.658
 4864SOL     OW15490   3.643   1.782   2.048
 4864SOL    HW115491   3.655   1.878   2.024
 4864SOL    HW215492   3.633   1.727   1.965
 4865SOL     OW15493   2.232   6.615   4.759
 4865SOL    HW115494   2.304   6.684   4.749
 4865SOL    HW215495   2.271   6.533   4.801
 4866SOL     OW15496   6.498   4.303   1.043
 4866SOL    HW115497   6.432   4.333   0.974
 4866SOL    HW215498   6.531   4.211   1.020
 4867SOL     OW15499   4.883   5.523   2.443
 4867SOL    HW115500   4.851   5.551   2.533
 4867SOL    HW215501   4.850   5.587   2.374
 4868SOL     OW15502   0.377   5.053   2.230
 4868SOL    HW115503   0.337   4.962   2.223
 4868SOL    HW215504   0.435   5.071   2.151
 4869SOL     OW15505   0.244   1.908   1.802
 4869SOL    HW115506   0.175   1.927   1.873
 4869SOL    HW215507   0.199   1.897   1.714
 4870SOL     OW15508   0.082   5.981   1.640
 4870SOL    HW115509   0.182   5.983   1.640
 4870SOL    HW215510   0.050   5.891   1.610
 4871SOL     OW15511   0.470   1.595   4.712
 4871SOL    HW115512   0.384   1.569   4.756
 4871SOL    HW215513   0.478   1.546   4.625
 4872SOL     OW15514   6.893   5.728   4.273
 4872SOL    HW115515   6.850   5.814   4.245
 4872SOL    HW215516   6.826   5.654   4.264
 4873SOL     OW15517   6.742   4.735   3.849
 4873SOL    HW115518   6.723   4.826   3.812
 4873SOL    HW215519   6.841   4.718   3.847
 4874SOL     OW15520   5.877   3.403   3.299
 4874SOL    HW115521   5.866   3.455   3.214
 4874SOL    HW215522   5.840   3.455   3.375
 4875SOL     OW15523   5.540   3.450   1.596
 4875SOL    HW115524   5.581   3.456   1.504
 4875SOL    HW215525   5.498   3.360   1.607
 4876SOL     OW15526   5.524   1.162   3.929
 4876SOL    HW115527   5.438   1.126   3.965
 4876SOL    HW215528   5.558   1.236   3.987
 4877SOL     OW15529   0.265   1.915   0.278
 4877SOL    HW115530   0.285   1.817   0.279
 4877SOL    HW215531   0.298   1.956   0.363
 4878SOL     OW15532   6.018   0.772   3.002
 4878SOL    HW115533   6.034   0.859   2.955
 4878SOL    HW215534   5.924   0.742   2.984
 4879SOL     OW15535   4.398   5.876   3.597
 4879SOL    HW115536   4.342   5.825   3.662
 4879SOL    HW215537   4.475   5.918   3.645
 4880SOL     OW15538   6.018   3.111   6.711
 4880SOL    HW115539   5.993   3.061   6.795
 4880SOL    HW215540   5.934   3.144   6.667
 4881SOL     OW15541   2.036   6.894   6.882
 4881SOL    HW115542   1.947   6.886   6.928
 4881SOL    HW215543   2.078   6.804   6.874
 4882SOL     OW15544   5.401   1.350   4.169
 4882SOL    HW115545   5.388   1.263   4.216
 4882SOL    HW215546   5.339   1.355   4.090
 4883SOL     OW15547   4.848   4.976   2.530
 4883SOL    HW115548   4.897   4.915   2.467
 4883SOL    HW215549   4.889   4.972   2.620
 4884SOL     OW15550   4.052   0.223   0.866
 4884SOL    HW115551   4.060   0.288   0.790
 4884SOL    HW215552   4.140   0.216   0.913
 4885SOL     OW15553   2.061   5.932   2.347
 4885SOL    HW115554   2.159   5.922   2.359
 4885SOL    HW215555   2.020   5.844   2.325
 4886SOL     OW15556   6.982   6.044   0.453
 4886SOL    HW115557   0.032   6.090   0.406
 4886SOL    HW215558   6.915   6.013   0.386
 4887SOL     OW15559   0.143   0.332   3.464
 4887SOL    HW115560   0.183   0.253   3.417
 4887SOL    HW215561   0.045   0.317   3.476
 4888SOL     OW15562   2.108   6.547   4.455
 4888SOL    HW115563   2.085   6.476   4.522
 4888SOL    HW215564   2.159   6.620   4.501
 4889SOL     OW15565   6.381   0.655   0.109
 4889SOL    HW115566   6.460   0.623   0.160
 4889SOL    HW215567   6.347   0.740   0.150
 4890SOL     OW15568   0.488   1.406   5.877
 4890SOL    HW115569   0.403   1.441   5.917
 4890SOL    HW215570   0.473   1.314   5.841
 4891SOL     OW15571   1.590   5.696   0.412
 4891SOL    HW115572   1.607   5.625   0.343
 4891SOL    HW215573   1.635   5.781   0.383
 4892SOL     OW15574   2.712   6.142   1.446
 4892SOL    HW115575   2.731   6.157   1.349
 4892SOL    HW215576   2.660   6.220   1.482
 4893SOL     OW15577   0.232   4.584   1.102
 4893SOL    HW115578   0.227   4.499   1.155
 4893SOL    HW215579   0.149   4.594   1.047
 4894SOL     OW15580   2.286   2.172   2.441
 4894SOL    HW115581   2.323   2.173   2.534
 4894SOL    HW215582   2.207   2.233   2.435
 4895SOL     OW15583   0.873   5.432   2.716
 4895SOL    HW115584   0.853   5.521   2.674
 4895SOL    HW215585   0.968   5.430   2.746
 4896SOL     OW15586   2.086   5.031   1.811
 4896SOL    HW115587   2.059   5.120   1.848
 4896SOL    HW215588   2.070   4.960   1.880
 4897SOL     OW15589   2.080   4.829   5.707
 4897SOL    HW115590   2.141   4.762   5.751
 4897SOL    HW215591   2.007   4.853   5.770
 4898SOL     OW15592   4.316   0.966   4.593
 4898SOL    HW115593   4.298   1.016   4.678
 4898SOL    HW215594   4.236   0.911   4.570
 4899SOL     OW15595   6.045   5.133   3.144
 4899SOL    HW115596   6.136   5.097   3.163
 4899SOL    HW215597   6.036   5.225   3.184
 4900SOL     OW15598   2.441   5.657   5.395
 4900SOL    HW115599   2.437   5.570   5.346
 4900SOL    HW215600   2.384   5.653   5.477
 4901SOL     OW15601   3.271   6.843   5.536
 4901SOL    HW115602   3.205   6.918   5.530
 4901SOL    HW215603   3.295   6.813   5.443
 4902SOL     OW15604   2.340   2.753   4.558
 4902SOL    HW115605   2.381   2.765   4.648
 4902SOL    HW215606   2.256   2.806   4.552
 4903SOL     OW15607   2.849   6.303   7.018
 4903SOL    HW115608   2.773   6.239   0.007
 4903SOL    HW215609   2.931   6.269   0.039
 4904SOL     OW15610   1.461   0.488   4.018
 4904SOL    HW115611   1.542   0.539   3.990
 4904SOL    HW215612   1.411   0.540   4.087
 4905SOL     OW15613   4.287   1.130   2.111
 4905SOL    HW115614   4.193   1.098   2.124
 4905SOL    HW215615   4.322   1.097   2.023
 4906SOL     OW15616   4.329   1.479   6.779
 4906SOL    HW115617   4.415   1.428   6.782
 4906SOL    HW215618   4.342   1.565   6.730
 4907SOL     OW15619   5.014   6.085   1.007
 4907SOL    HW115620   4.935   6.065   1.065
 4907SOL    HW215621   5.063   6.164   1.045
 4908SOL     OW15622   4.816   4.945   6.569
 4908SOL    HW115623   4.783   4.896   6.649
 4908SOL    HW215624   4.740   4.963   6.506
 4909SOL     OW15625   0.020   0.203   4.980
 4909SOL    HW115626   0.119   0.198   4.972
 4909SOL    HW215627   7.013   0.128   5.038
 4910SOL     OW15628   5.389   6.431   4.471
 4910SOL    HW115629   5.352   6.513   4.514
 4910SOL    HW215630   5.342   6.350   4.506
 4911SOL     OW15631   7.017   2.911   5.232
 4911SOL    HW115632   0.035   2.823   5.254
 4911SOL    HW215633   6.922   2.895   5.204
 4912SOL     OW15634   5.246   2.779   1.172
 4912SOL    HW115635   5.292   2.711   1.114
 4912SOL    HW215636   5.293   2.786   1.259
 4913SOL     OW15637   3.476   3.442   3.919
 4913SOL    HW115638   3.500   3.346   3.904
 4913SOL    HW215639   3.430   3.478   3.838
 4914SOL     OW15640   3.346   6.916   4.999
 4914SOL    HW115641   3.357   6.890   4.903
 4914SOL    HW215642   3.318   7.012   5.005
 4915SOL     OW15643   4.545   0.634   4.244
 4915SOL    HW115644   4.495   0.592   4.319
 4915SOL    HW215645   4.480   0.661   4.172
 4916SOL     OW15646   2.022   1.654   4.145
 4916SOL    HW115647   2.056   1.622   4.057
 4916SOL    HW215648   1.986   1.576   4.197
 4917SOL     OW15649   1.880   4.840   0.519
 4917SOL    HW115650   1.898   4.925   0.569
 4917SOL    HW215651   1.913   4.762   0.572
 4918SOL     OW15652   3.189   6.663   2.284
 4918SOL    HW115653   3.178   6.758   2.254
 4918SOL    HW215654   3.205   6.662   2.383
 4919SOL     OW15655   2.045   2.010   6.791
 4919SOL    HW115656   1.970   1.944   6.784
 4919SOL    HW215657   2.132   1.965   6.770
 4920SOL     OW15658   5.188   0.791   5.657
 4920SOL    HW115659   5.093   0.810   5.632
 4920SOL    HW215660   5.249   0.851   5.605
 4921SOL     OW15661   2.039   4.156   0.561
 4921SOL    HW115662   2.010   4.169   0.466
 4921SOL    HW215663   2.137   4.173   0.568
 4922SOL     OW15664   1.806   3.158   4.723
 4922SOL    HW115665   1.834   3.166   4.819
 4922SOL    HW215666   1.885   3.175   4.663
 4923SOL     OW15667   3.367   1.442   0.601
 4923SOL    HW115668   3.412   1.478   0.683
 4923SOL    HW215669   3.276   1.482   0.593
 4924SOL     OW15670   1.949   2.620   5.849
 4924SOL    HW115671   1.979   2.529   5.819
 4924SOL    HW215672   1.975   2.688   5.781
 4925SOL     OW15673   5.706   6.924   1.904
 4925SOL    HW115674   5.760   6.997   1.946
 4925SOL    HW215675   5.610   6.934   1.930
 4926SOL     OW15676   5.531   2.653   0.288
 4926SOL    HW115677   5.611   2.655   0.348
 4926SOL    HW215678   5.521   2.562   0.248
 4927SOL     OW15679   3.720   3.673   4.261
 4927SOL    HW115680   3.718   3.711   4.354
 4927SOL    HW215681   3.792   3.718   4.208
 4928SOL     OW15682   6.945   0.369   6.350
 4928SOL    HW115683   6.845   0.372   6.352
 4928SOL    HW215684   6.976   0.340   6.259
 4929SOL     OW15685   1.390   5.103   4.766
 4929SOL    HW115686   1.338   5.188   4.763
 4929SOL    HW215687   1.394   5.070   4.861
 4930SOL     OW15688   5.030   0.933   1.812
 4930SOL    HW115689   5.020   0.901   1.718
 4930SOL    HW215690   5.066   1.027   1.811
 4931SOL     OW15691   6.371   6.911   1.461
 4931SOL    HW115692   6.336   7.004   1.449
 4931SOL    HW215693   6.465   6.916   1.495
 4932SOL     OW15694   2.243   2.647   1.756
 4932SOL    HW115695   2.246   2.553   1.791
 4932SOL    HW215696   2.316   2.700   1.799
 4933SOL     OW15697   2.209   0.059   3.529
 4933SOL    HW115698   2.248   0.100   3.611
 4933SOL    HW215699   2.190   6.988   3.545
 4934SOL     OW15700   1.775   4.776   3.050
 4934SOL    HW115701   1.815   4.867   3.035
 4934SOL    HW215702   1.809   4.713   2.980
 4935SOL     OW15703   1.237   1.391   6.641
 4935SOL    HW115704   1.245   1.379   6.740
 4935SOL    HW215705   1.327   1.376   6.599
 4936SOL     OW15706   2.180   4.906   1.465
 4936SOL    HW115707   2.178   4.885   1.563
 4936SOL    HW215708   2.210   5.000   1.452
 4937SOL     OW15709   6.707   3.400   6.061
 4937SOL    HW115710   6.620   3.448   6.073
 4937SOL    HW215711   6.707   3.353   5.973
 4938SOL     OW15712   2.180   5.487   6.855
 4938SOL    HW115713   2.195   5.470   6.757
 4938SOL    HW215714   2.125   5.413   6.893
 4939SOL     OW15715   0.281   1.691   4.117
 4939SOL    HW115716   0.341   1.683   4.197
 4939SOL    HW215717   0.323   1.752   4.050
 4940SOL     OW15718   0.280   1.345   5.593
 4940SOL    HW115719   0.264   1.442   5.614
 4940SOL    HW215720   0.368   1.317   5.631
 4941SOL     OW15721   4.450   2.633   5.158
 4941SOL    HW115722   4.355   2.616   5.182
 4941SOL    HW215723   4.459   2.727   5.124
 4942SOL     OW15724   5.198   2.930   5.577
 4942SOL    HW115725   5.150   2.942   5.490
 4942SOL    HW215726   5.145   2.971   5.651
 4943SOL     OW15727   5.154   4.156   6.038
 4943SOL    HW115728   5.093   4.187   6.111
 4943SOL    HW215729   5.228   4.221   6.026
 4944SOL     OW15730   2.639   4.229   1.637
 4944SOL    HW115731   2.609   4.322   1.657
 4944SOL    HW215732   2.587   4.164   1.693
 4945SOL     OW15733   1.246   6.874   4.497
 4945SOL    HW115734   1.207   6.793   4.540
 4945SOL    HW215735   1.273   6.853   4.403
 4946SOL     OW15736   0.970   5.475   6.642
 4946SOL    HW115737   1.040   5.544   6.662
 4946SOL    HW215738   1.008   5.384   6.659
 4947SOL     OW15739   2.097   0.104   0.790
 4947SOL    HW115740   2.094   0.173   0.717
 4947SOL    HW215741   2.041   0.135   0.867
 4948SOL     OW15742   2.141   2.578   3.275
 4948SOL    HW115743   2.110   2.548   3.185
 4948SOL    HW215744   2.171   2.673   3.270
 4949SOL     OW15745   6.233   4.773   5.485
 4949SOL    HW115746   6.279   4.839   5.425
 4949SOL    HW215747   6.208   4.818   5.571
 4950SOL     OW15748   2.177   4.698   4.934
 4950SOL    HW115749   2.189   4.619   4.873
 4950SOL    HW215750   2.120   4.766   4.888
 4951SOL     OW15751   5.898   1.241   3.988
 4951SOL    HW115752   5.912   1.336   3.960
 4951SOL    HW215753   5.801   1.226   4.008
 4952SOL     OW15754   6.657   0.005   6.299
 4952SOL    HW115755   6.565   0.041   6.308
 4952SOL    HW215756   6.717   0.050   6.365
 4953SOL     OW15757   1.725   0.055   3.350
 4953SOL    HW115758   1.702   0.004   3.433
 4953SOL    HW215759   1.745   7.016   3.276
 4954SOL     OW15760   2.952   3.399   7.017
 4954SOL    HW115761   2.886   3.330   6.987
 4954SOL    HW215762   2.905   3.487   0.003
 4955SOL     OW15763   3.547   6.788   0.090
 4955SOL    HW115764   3.536   6.815   0.186
 4955SOL    HW215765   3.631   6.735   0.079
 4956SOL     OW15766   2.636   6.830   5.656
 4956SOL    HW115767   2.647   6.929   5.654
 4956SOL    HW215768   2.541   6.807   5.675
 4957SOL     OW15769   6.002   2.343   2.184
 4957SOL    HW115770   6.076   2.321   2.121
 4957SOL    HW215771   6.029   2.318   2.277
 4958SOL     OW15772   1.029   4.885   5.647
 4958SOL    HW115773   0.983   4.797   5.635
 4958SOL    HW215774   0.979   4.940   5.714
 4959SOL     OW15775   6.276   1.996   1.031
 4959SOL    HW115776   6.190   1.953   1.058
 4959SOL    HW215777   6.338   1.998   1.109
 4960SOL     OW15778   3.737   4.878   3.589
 4960SOL    HW115779   3.746   4.971   3.626
 4960SOL    HW215780   3.644   4.863   3.557
 4961SOL     OW15781   4.168   0.881   5.355
 4961SOL    HW115782   4.102   0.950   5.327
 4961SOL    HW215783   4.241   0.925   5.408
 4962SOL     OW15784   5.831   3.036   0.283
 4962SOL    HW115785   5.838   3.025   0.382
 4962SOL    HW215786   5.916   3.076   0.247
 4963SOL     OW15787   0.505   6.489   0.448
 4963SOL    HW115788   0.536   6.504   0.354
 4963SOL    HW215789   0.579   6.514   0.511
 4964SOL     OW15790   2.624   6.695   4.820
 4964SOL    HW115791   2.630   6.596   4.805
 4964SOL    HW215792   2.660   6.717   4.910
 4965SOL     OW15793   0.556   0.528   2.074
 4965SOL    HW115794   0.614   0.447   2.082
 4965SOL    HW215795   0.465   0.508   2.110
 4966SOL     OW15796   2.862   6.517   5.288
 4966SOL    HW115797   2.789   6.515   5.219
 4966SOL    HW215798   2.927   6.590   5.265
 4967SOL     OW15799   3.768   4.831   5.276
 4967SOL    HW115800   3.728   4.843   5.367
 4967SOL    HW215801   3.700   4.851   5.206
 4968SOL     OW15802   0.577   1.276   3.455
 4968SOL    HW115803   0.504   1.315   3.512
 4968SOL    HW215804   0.544   1.192   3.412
 4969SOL     OW15805   1.962   5.325   2.701
 4969SOL    HW115806   2.049   5.283   2.675
 4969SOL    HW215807   1.919   5.269   2.771
 4970SOL     OW15808   2.546   2.256   1.974
 4970SOL    HW115809   2.467   2.242   2.034
 4970SOL    HW215810   2.624   2.204   2.009
 4971SOL     OW15811   5.450   5.526   3.204
 4971SOL    HW115812   5.520   5.532   3.275
 4971SOL    HW215813   5.486   5.566   3.119
 4972SOL     OW15814   0.853   3.603   1.445
 4972SOL    HW115815   0.847   3.542   1.366
 4972SOL    HW215816   0.886   3.693   1.415
 4973SOL     OW15817   0.925   6.730   2.009
 4973SOL    HW115818   0.976   6.686   1.935
 4973SOL    HW215819   0.967   6.818   2.031
 4974SOL     OW15820   0.154   4.387   1.293
 4974SOL    HW115821   0.073   4.426   1.338
 4974SOL    HW215822   0.134   4.292   1.266
 4975SOL     OW15823   6.073   4.344   6.034
 4975SOL    HW115824   6.163   4.373   6.068
 4975SOL    HW215825   6.004   4.411   6.063
 4976SOL     OW15826   2.320   1.888   4.164
 4976SOL    HW115827   2.237   1.856   4.118
 4976SOL    HW215828   2.400   1.851   4.117
 4977SOL     OW15829   4.366   4.218   0.129
 4977SOL    HW115830   4.388   4.308   0.091
 4977SOL    HW215831   4.449   4.163   0.136
 4978SOL     OW15832   6.443   4.598   5.136
 4978SOL    HW115833   6.381   4.651   5.193
 4978SOL    HW215834   6.469   4.653   5.055
 4979SOL     OW15835   6.736   6.944   6.060
 4979SOL    HW115836   6.692   6.967   6.147
 4979SOL    HW215837   6.729   7.022   5.998
 4980SOL     OW15838   5.325   6.003   3.142
 4980SOL    HW115839   5.405   5.957   3.105
 4980SOL    HW215840   5.324   6.098   3.112
 4981SOL     OW15841   3.822   4.798   0.768
 4981SOL    HW115842   3.904   4.825   0.717
 4981SOL    HW215843   3.824   4.842   0.858
 4982SOL     OW15844   2.818   1.079   5.293
 4982SOL    HW115845   2.878   1.140   5.242
 4982SOL    HW215846   2.855   0.986   5.291
 4983SOL     OW15847   6.045   3.814   5.878
 4983SOL    HW115848   6.099   3.764   5.810
 4983SOL    HW215849   6.010   3.898   5.838
 4984SOL     OW15850   5.478   4.640   2.978
 4984SOL    HW115851   5.380   4.626   2.993
 4984SOL    HW215852   5.521   4.552   2.953
 4985SOL     OW15853   5.440   0.399   3.231
 4985SOL    HW115854   5.490   0.430   3.150
 4985SOL    HW215855   5.429   0.300   3.228
 4986SOL     OW15856   0.135   4.994   1.562
 4986SOL    HW115857   0.119   4.930   1.637
 4986SOL    HW215858   0.231   5.021   1.562
 4987SOL     OW15859   0.706   0.007   2.577
 4987SOL    HW115860   0.726   0.105   2.584
 4987SOL    HW215861   0.645   7.005   2.651
 4988SOL     OW15862   5.299   0.779   2.310
 4988SOL    HW115863   5.223   0.797   2.374
 4988SOL    HW215864   5.267   0.720   2.236
 4989SOL     OW15865   5.342   6.692   2.118
 4989SOL    HW115866   5.258   6.741   2.095
 4989SOL    HW215867   5.320   6.608   2.167
 4990SOL     OW15868   2.626   2.351   5.634
 4990SOL    HW115869   2.550   2.286   5.623
 4990SOL    HW215870   2.599   2.440   5.599
 4991SOL     OW15871   6.451   5.921   3.313
 4991SOL    HW115872   6.367   5.888   3.355
 4991SOL    HW215873   6.459   5.884   3.220
 4992SOL     OW15874   4.833   1.051   1.968
 4992SOL    HW115875   4.915   1.001   1.940
 4992SOL    HW215876   4.856   1.149   1.977
 4993SOL     OW15877   3.292   5.706   4.934
 4993SOL    HW115878   3.340   5.622   4.908
 4993SOL    HW215879   3.355   5.783   4.928
 4994SOL     OW15880   2.141   0.366   3.973
 4994SOL    HW115881   2.084   0.448   3.982
 4994SOL    HW215882   2.084   0.284   3.983
 4995SOL     OW15883   0.413   2.187   5.285
 4995SOL    HW115884   0.318   2.192   5.316
 4995SOL    HW215885   0.426   2.251   5.209
 4996SOL     OW15886   0.416   1.046   3.025
 4996SOL    HW115887   0.325   1.012   3.005
 4996SOL    HW215888   0.485   0.987   2.981
 4997SOL     OW15889   4.805   2.455   2.223
 4997SOL    HW115890   4.808   2.467   2.322
 4997SOL    HW215891   4.716   2.485   2.188
 4998SOL     OW15892   2.139   4.112   4.807
 4998SOL    HW115893   2.044   4.143   4.798
 4998SOL    HW215894   2.150   4.063   4.894
 4999SOL     OW15895   6.830   3.989   6.968
 4999SOL    HW115896   6.832   4.089   6.966
 4999SOL    HW215897   6.777   3.955   6.890
 5000SOL     OW15898   3.803   6.424   3.182
 5000SOL    HW115899   3.736   6.394   3.114
 5000SOL    HW215900   3.766   6.411   3.274
 5001SOL     OW15901   0.360   4.105   1.776
 5001SOL    HW115902   0.364   4.033   1.846
 5001SOL    HW215903   0.265   4.137   1.767
 5002SOL     OW15904   0.320   2.983   1.875
 5002SOL    HW115905   0.264   2.951   1.798
 5002SOL    HW215906   0.278   3.065   1.914
 5003SOL     OW15907   2.970   5.602   2.618
 5003SOL    HW115908   2.897   5.572   2.678
 5003SOL    HW215909   2.999   5.526   2.559
 5004SOL     OW15910   2.387   4.926   5.774
 5004SOL    HW115911   2.352   4.904   5.865
 5004SOL    HW215912   2.417   5.021   5.772
 5005SOL     OW15913   3.246   2.933   0.825
 5005SOL    HW115914   3.147   2.916   0.826
 5005SOL    HW215915   3.267   3.002   0.756
 5006SOL     OW15916   4.983   0.414   1.167
 5006SOL    HW115917   5.000   0.421   1.068
 5006SOL    HW215918   4.926   0.334   1.185
 5007SOL     OW15919   0.758   6.747   0.449
 5007SOL    HW115920   0.690   6.737   0.521
 5007SOL    HW215921   0.841   6.786   0.487
 5008SOL     OW15922   5.551   6.444   1.949
 5008SOL    HW115923   5.457   6.448   1.984
 5008SOL    HW215924   5.565   6.358   1.900
 5009SOL     OW15925   0.779   0.774   0.800
 5009SOL    HW115926   0.878   0.763   0.793
 5009SOL    HW215927   0.744   0.815   0.715
 5010SOL     OW15928   3.982   3.016   2.433
 5010SOL    HW115929   3.986   3.107   2.476
 5010SOL    HW215930   4.064   2.964   2.457
 5011SOL     OW15931   1.667   3.911   2.517
 5011SOL    HW115932   1.692   3.879   2.609
 5011SOL    HW215933   1.746   3.954   2.474
 5012SOL     OW15934   5.759   4.495   6.216
 5012SOL    HW115935   5.665   4.526   6.196
 5012SOL    HW215936   5.816   4.507   6.134
 5013SOL     OW15937   4.947   1.246   0.380
 5013SOL    HW115938   5.024   1.186   0.402
 5013SOL    HW215939   4.868   1.219   0.434
 5014SOL     OW15940   6.705   4.670   0.578
 5014SOL    HW115941   6.728   4.612   0.500
 5014SOL    HW215942   6.787   4.690   0.631
 5015SOL     OW15943   4.675   1.858   4.477
 5015SOL    HW115944   4.654   1.782   4.416
 5015SOL    HW215945   4.598   1.921   4.480
 5016SOL     OW15946   1.836   3.325   0.128
 5016SOL    HW115947   1.823   3.329   0.029
 5016SOL    HW215948   1.864   3.233   0.154
 5017SOL     OW15949   1.966   2.830   0.969
 5017SOL    HW115950   1.869   2.845   0.947
 5017SOL    HW215951   1.978   2.831   1.068
 5018SOL     OW15952   0.836   4.001   1.905
 5018SOL    HW115953   0.865   4.097   1.899
 5018SOL    HW215954   0.911   3.942   1.874
 5019SOL     OW15955   1.127   4.858   5.967
 5019SOL    HW115956   1.226   4.844   5.972
 5019SOL    HW215957   1.105   4.950   5.999
 5020SOL     OW15958   5.521   0.357   6.777
 5020SOL    HW115959   5.446   0.364   6.844
 5020SOL    HW215960   5.577   0.439   6.782
 5021SOL     OW15961   0.822   1.491   0.227
 5021SOL    HW115962   0.852   1.587   0.222
 5021SOL    HW215963   0.867   1.447   0.304
 5022SOL     OW15964   1.211   1.209   0.303
 5022SOL    HW115965   1.303   1.208   0.341
 5022SOL    HW215966   1.180   1.304   0.292
 5023SOL     OW15967   6.854   2.904   1.199
 5023SOL    HW115968   6.864   2.921   1.297
 5023SOL    HW215969   6.873   2.808   1.180
 5024SOL     OW15970   6.248   5.438   1.465
 5024SOL    HW115971   6.336   5.396   1.486
 5024SOL    HW215972   6.189   5.371   1.421
 5025SOL     OW15973   3.239   1.727   1.990
 5025SOL    HW115974   3.220   1.795   1.919
 5025SOL    HW215975   3.152   1.687   2.021
 5026SOL     OW15976   6.196   6.000   5.691
 5026SOL    HW115977   6.185   6.024   5.595
 5026SOL    HW215978   6.258   6.065   5.735
 5027SOL     OW15979   6.918   6.598   1.919
 5027SOL    HW115980   6.962   6.511   1.943
 5027SOL    HW215981   6.971   6.674   1.955
 5028SOL     OW15982   0.504   2.017   2.608
 5028SOL    HW115983   0.500   2.068   2.522
 5028SOL    HW215984   0.447   1.935   2.602
 5029SOL     OW15985   6.553   2.339   1.732
 5029SOL    HW115986   6.572   2.372   1.640
 5029SOL    HW215987   6.476   2.276   1.729
 5030SOL     OW15988   0.295   6.719   0.499
 5030SOL    HW115989   0.300   6.735   0.598
 5030SOL    HW215990   0.351   6.640   0.475
 5031SOL     OW15991   6.029   0.344   5.518
 5031SOL    HW115992   5.976   0.260   5.511
 5031SOL    HW215993   6.121   0.323   5.549
 5032SOL     OW15994   2.143   2.178   0.666
 5032SOL    HW115995   2.053   2.191   0.708
 5032SOL    HW215996   2.212   2.230   0.717
 5033SOL     OW15997   1.832   0.038   5.486
 5033SOL    HW115998   1.844   0.126   5.530
 5033SOL    HW215999   1.918   7.013   5.488
 5034SOL     OW16000   6.071   0.582   3.451
 5034SOL    HW116001   6.002   0.652   3.432
 5034SOL    HW216002   6.068   0.557   3.547
 5035SOL     OW16003   1.366   3.908   0.523
 5035SOL    HW116004   1.421   3.913   0.606
 5035SOL    HW216005   1.301   3.833   0.531
 5036SOL     OW16006   0.685   4.508   6.800
 5036SOL    HW116007   0.623   4.569   6.751
 5036SOL    HW216008   0.682   4.417   6.757
 5037SOL     OW16009   5.007   4.378   2.488
 5037SOL    HW116010   5.048   4.289   2.506
 5037SOL    HW216011   5.076   4.438   2.447
 5038SOL     OW16012   3.324   4.059   6.071
 5038SOL    HW116013   3.272   3.987   6.024
 5038SOL    HW216014   3.324   4.142   6.015
 5039SOL     OW16015   2.973   4.437   5.590
 5039SOL    HW116016   2.979   4.412   5.493
 5039SOL    HW216017   3.065   4.447   5.628
 5040SOL     OW16018   1.842   5.754   5.918
 5040SOL    HW116019   1.775   5.826   5.901
 5040SOL    HW216020   1.830   5.681   5.851
 5041SOL     OW16021   1.936   1.432   2.578
 5041SOL    HW116022   1.974   1.524   2.585
 5041SOL    HW216023   1.857   1.433   2.516
 5042SOL     OW16024   6.695   2.975   0.207
 5042SOL    HW116025   6.747   3.059   0.225
 5042SOL    HW216026   6.720   2.905   0.274
 5043SOL     OW16027   3.324   0.305   6.067
 5043SOL    HW116028   3.262   0.228   6.055
 5043SOL    HW216029   3.385   0.287   6.144
 5044SOL     OW16030   0.606   6.509   6.965
 5044SOL    HW116031   0.540   6.465   6.904
 5044SOL    HW216032   0.698   6.476   6.943
 5045SOL     OW16033   5.078   0.668   6.756
 5045SOL    HW116034   4.992   0.670   6.706
 5045SOL    HW216035   5.135   0.593   6.721
 5046SOL     OW16036   3.283   4.141   2.933
 5046SOL    HW116037   3.369   4.189   2.913
 5046SOL    HW216038   3.261   4.080   2.858
 5047SOL     OW16039   0.551   4.128   2.332
 5047SOL    HW116040   0.565   4.054   2.266
 5047SOL    HW216041   0.459   4.166   2.320
 5048SOL     OW16042   0.578   1.527   2.145
 5048SOL    HW116043   0.610   1.512   2.051
 5048SOL    HW216044   0.610   1.453   2.203
 5049SOL     OW16045   5.678   2.336   6.090
 5049SOL    HW116046   5.742   2.337   6.014
 5049SOL    HW216047   5.673   2.428   6.130
 5050SOL     OW16048   1.355   1.510   1.226
 5050SOL    HW116049   1.450   1.487   1.248
 5050SOL    HW216050   1.330   1.468   1.139
 5051SOL     OW16051   4.957   5.027   1.106
 5051SOL    HW116052   5.003   5.017   1.194
 5051SOL    HW216053   4.862   5.054   1.121
 5052SOL     OW16054   2.486   0.874   6.325
 5052SOL    HW116055   2.417   0.882   6.398
 5052SOL    HW216056   2.460   0.799   6.264
 5053SOL     OW16057   2.343   4.311   2.913
 5053SOL    HW116058   2.312   4.220   2.889
 5053SOL    HW216059   2.282   4.379   2.872
 5054SOL     OW16060   3.747   5.359   5.475
 5054SOL    HW116061   3.711   5.451   5.488
 5054SOL    HW216062   3.676   5.301   5.436
 5055SOL     OW16063   1.456   1.710   5.576
 5055SOL    HW116064   1.541   1.740   5.618
 5055SOL    HW216065   1.475   1.669   5.487
 5056SOL     OW16066   6.602   4.104   6.655
 5056SOL    HW116067   6.642   4.066   6.738
 5056SOL    HW216068   6.674   4.142   6.597
 5057SOL     OW16069   0.288   6.156   4.146
 5057SOL    HW116070   0.237   6.241   4.161
 5057SOL    HW216071   0.234   6.079   4.182
 5058SOL     OW16072   2.820   3.250   5.680
 5058SOL    HW116073   2.781   3.283   5.594
 5058SOL    HW216074   2.864   3.326   5.728
 5059SOL     OW16075   5.880   1.429   3.668
 5059SOL    HW116076   5.806   1.364   3.688
 5059SOL    HW216077   5.876   1.505   3.732
 5060SOL     OW16078   0.539   1.598   5.637
 5060SOL    HW116079   0.580   1.540   5.707
 5060SOL    HW216080   0.443   1.616   5.661
 5061SOL     OW16081   3.947   3.033   1.831
 5061SOL    HW116082   3.951   3.035   1.930
 5061SOL    HW216083   4.002   2.957   1.796
 5062SOL     OW16084   5.092   1.124   2.872
 5062SOL    HW116085   5.154   1.149   2.798
 5062SOL    HW216086   5.029   1.053   2.841
 5063SOL     OW16087   1.020   6.986   2.366
 5063SOL    HW116088   1.060   6.908   2.414
 5063SOL    HW216089   0.928   6.961   2.334
 5064SOL     OW16090   5.107   4.043   1.930
 5064SOL    HW116091   5.172   3.979   1.972
 5064SOL    HW216092   5.148   4.084   1.849
 5065SOL     OW16093   2.022   1.296   3.756
 5065SOL    HW116094   2.117   1.290   3.725
 5065SOL    HW216095   1.962   1.299   3.676
 5066SOL     OW16096   4.340   4.838   1.869
 5066SOL    HW116097   4.347   4.739   1.866
 5066SOL    HW216098   4.249   4.864   1.900
 5067SOL     OW16099   4.809   1.063   1.499
 5067SOL    HW116100   4.719   1.064   1.543
 5067SOL    HW216101   4.855   1.149   1.517
 5068SOL     OW16102   2.690   4.860   6.890
 5068SOL    HW116103   2.612   4.824   6.839
 5068SOL    HW216104   2.775   4.828   6.849
 5069SOL     OW16105   2.484   3.282   5.643
 5069SOL    HW116106   2.571   3.301   5.597
 5069SOL    HW216107   2.416   3.255   5.575
 5070SOL     OW16108   4.507   4.985   3.529
 5070SOL    HW116109   4.491   4.995   3.431
 5070SOL    HW216110   4.605   4.976   3.547
 5071SOL     OW16111   4.038   2.225   3.215
 5071SOL    HW116112   4.127   2.267   3.198
 5071SOL    HW216113   3.999   2.264   3.299
 5072SOL     OW16114   1.003   0.037   1.755
 5072SOL    HW116115   1.026   0.010   1.848
 5072SOL    HW216116   1.063   0.111   1.725
 5073SOL     OW16117   0.296   5.794   1.558
 5073SOL    HW116118   0.330   5.815   1.466
 5073SOL    HW216119   0.361   5.830   1.625
 5074SOL     OW16120   3.439   2.915   1.124
 5074SOL    HW116121   3.426   2.938   1.027
 5074SOL    HW216122   3.518   2.964   1.160
 5075SOL     OW16123   1.237   1.953   6.652
 5075SOL    HW116124   1.153   1.920   6.607
 5075SOL    HW216125   1.315   1.935   6.593
 5076SOL     OW16126   4.561   0.790   0.504
 5076SOL    HW116127   4.643   0.848   0.506
 5076SOL    HW216128   4.530   0.778   0.410
 5077SOL     OW16129   1.931   4.482   5.497
 5077SOL    HW116130   2.011   4.543   5.494
 5077SOL    HW216131   1.922   4.434   5.410
 5078SOL     OW16132   0.766   1.089   3.997
 5078SOL    HW116133   0.864   1.104   4.013
 5078SOL    HW216134   0.747   0.991   3.997
 5079SOL     OW16135   1.898   2.956   5.359
 5079SOL    HW116136   1.823   2.897   5.330
 5079SOL    HW216137   1.985   2.908   5.346
 5080SOL     OW16138   5.869   6.892   6.354
 5080SOL    HW116139   5.908   6.801   6.336
 5080SOL    HW216140   5.849   6.900   6.452
 5081SOL     OW16141   3.095   3.327   4.555
 5081SOL    HW116142   3.119   3.254   4.491
 5081SOL    HW216143   3.097   3.293   4.648
 5082SOL     OW16144   4.904   5.567   0.460
 5082SOL    HW116145   4.901   5.602   0.553
 5082SOL    HW216146   4.816   5.582   0.415
 5083SOL     OW16147   2.353   6.187   2.112
 5083SOL    HW116148   2.308   6.209   2.198
 5083SOL    HW216149   2.425   6.255   2.094
 5084SOL     OW16150   0.526   4.548   4.086
 5084SOL    HW116151   0.465   4.474   4.059
 5084SOL    HW216152   0.472   4.623   4.126
 5085SOL     OW16153   5.509   3.136   6.635
 5085SOL    HW116154   5.542   3.230   6.636
 5085SOL    HW216155   5.426   3.129   6.692
 5086SOL     OW16156   1.413   5.400   3.013
 5086SOL    HW116157   1.439   5.467   2.943
 5086SOL    HW216158   1.319   5.415   3.040
 5087SOL     OW16159   1.915   5.207   2.396
 5087SOL    HW116160   1.913   5.263   2.478
 5087SOL    HW216161   1.987   5.138   2.404
 5088SOL     OW16162   6.299   1.364   4.847
 5088SOL    HW116163   6.323   1.346   4.942
 5088SOL    HW216164   6.282   1.461   4.834
 5089SOL     OW16165   4.898   4.243   4.355
 5089SOL    HW116166   4.834   4.218   4.282
 5089SOL    HW216167   4.984   4.275   4.315
 5090SOL     OW16168   2.080   4.135   2.684
 5090SOL    HW116169   2.081   4.043   2.645
 5090SOL    HW216170   2.113   4.131   2.778
 5091SOL     OW16171   0.674   0.833   2.203
 5091SOL    HW116172   0.587   0.801   2.240
 5091SOL    HW216173   0.749   0.788   2.252
 5092SOL     OW16174   3.248   3.632   1.820
 5092SOL    HW116175   3.251   3.535   1.842
 5092SOL    HW216176   3.341   3.670   1.825
 5093SOL     OW16177   2.726   1.128   1.387
 5093SOL    HW116178   2.639   1.166   1.418
 5093SOL    HW216179   2.711   1.038   1.346
 5094SOL     OW16180   2.463   5.632   6.090
 5094SOL    HW116181   2.374   5.595   6.067
 5094SOL    HW216182   2.518   5.643   6.007
 5095SOL     OW16183   5.772   2.350   4.766
 5095SOL    HW116184   5.751   2.435   4.719
 5095SOL    HW216185   5.698   2.328   4.830
 5096SOL     OW16186   4.019   4.428   0.257
 5096SOL    HW116187   4.037   4.527   0.250
 5096SOL    HW216188   4.037   4.397   0.350
 5097SOL     OW16189   1.684   0.947   6.584
 5097SOL    HW116190   1.644   0.855   6.583
 5097SOL    HW216191   1.631   1.006   6.645
 5098SOL     OW16192   1.995   0.132   1.774
 5098SOL    HW116193   2.021   0.228   1.784
 5098SOL    HW216194   2.074   0.074   1.792
 5099SOL     OW16195   0.574   6.604   6.588
 5099SOL    HW116196   0.656   6.548   6.575
 5099SOL    HW216197   0.493   6.552   6.563
 5100SOL     OW16198   3.632   5.152   5.087
 5100SOL    HW116199   3.560   5.164   5.156
 5100SOL    HW216200   3.721   5.149   5.133
 5101SOL     OW16201   5.157   6.685   0.016
 5101SOL    HW116202   5.082   6.709   0.079
 5101SOL    HW216203   5.133   6.717   6.949
 5102SOL     OW16204   5.116   0.034   4.337
 5102SOL    HW116205   5.216   0.041   4.339
 5102SOL    HW216206   5.084   0.043   4.242
 5103SOL     OW16207   6.762   1.150   4.331
 5103SOL    HW116208   6.812   1.237   4.326
 5103SOL    HW216209   6.827   1.074   4.324
 5104SOL     OW16210   1.770   6.279   2.898
 5104SOL    HW116211   1.864   6.263   2.929
 5104SOL    HW216212   1.726   6.346   2.958
 5105SOL     OW16213   3.682   2.673   0.395
 5105SOL    HW116214   3.759   2.610   0.407
 5105SOL    HW216215   3.694   2.724   0.309
 5106SOL     OW16216   3.664   1.206   0.392
 5106SOL    HW116217   3.574   1.215   0.437
 5106SOL    HW216218   3.736   1.223   0.459
 5107SOL     OW16219   3.114   0.582   0.338
 5107SOL    HW116220   3.190   0.636   0.374
 5107SOL    HW216221   3.138   0.550   0.246
 5108SOL     OW16222   3.069   3.023   4.982
 5108SOL    HW116223   3.063   3.045   5.079
 5108SOL    HW216224   2.987   2.973   4.954
 5109SOL     OW16225   1.256   0.683   0.483
 5109SOL    HW116226   1.323   0.730   0.541
 5109SOL    HW216227   1.175   0.740   0.472
 5110SOL     OW16228   0.286   0.309   6.335
 5110SOL    HW116229   0.277   0.390   6.277
 5110SOL    HW216230   0.250   0.230   6.286
 5111SOL     OW16231   2.169   0.860   5.263
 5111SOL    HW116232   2.255   0.907   5.248
 5111SOL    HW216233   2.114   0.911   5.330
 5112SOL     OW16234   1.231   0.294   2.636
 5112SOL    HW116235   1.224   0.267   2.732
 5112SOL    HW216236   1.146   0.338   2.607
 5113SOL     OW16237   2.294   6.843   1.065
 5113SOL    HW116238   2.271   6.752   1.030
 5113SOL    HW216239   2.220   6.876   1.123
 5114SOL     OW16240   3.003   1.104   0.506
 5114SOL    HW116241   2.971   1.192   0.539
 5114SOL    HW216242   2.972   1.031   0.567
 5115SOL     OW16243   2.223   4.995   4.601
 5115SOL    HW116244   2.255   4.988   4.695
 5115SOL    HW216245   2.171   4.913   4.577
 5116SOL     OW16246   6.297   7.012   6.550
 5116SOL    HW116247   6.334   0.045   6.477
 5116SOL    HW216248   6.215   0.030   6.588
 5117SOL     OW16249   2.656   4.625   4.597
 5117SOL    HW116250   2.598   4.583   4.666
 5117SOL    HW216251   2.656   4.570   4.514
 5118SOL     OW16252   4.724   0.560   0.203
 5118SOL    HW116253   4.780   0.515   0.133
 5118SOL    HW216254   4.764   0.649   0.226
 5119SOL     OW16255   5.271   0.762   1.734
 5119SOL    HW116256   5.184   0.811   1.724
 5119SOL    HW216257   5.347   0.827   1.727
 5120SOL     OW16258   4.246   1.410   3.972
 5120SOL    HW116259   4.218   1.323   3.932
 5120SOL    HW216260   4.224   1.411   4.070
 5121SOL     OW16261   2.938   1.971   6.776
 5121SOL    HW116262   2.986   2.054   6.805
 5121SOL    HW216263   2.948   1.960   6.677
 5122SOL     OW16264   3.016   6.891   2.527
 5122SOL    HW116265   2.946   6.927   2.466
 5122SOL    HW216266   2.975   6.828   2.593
 5123SOL     OW16267   4.683   1.739   5.216
 5123SOL    HW116268   4.637   1.651   5.222
 5123SOL    HW216269   4.682   1.772   5.122
 5124SOL     OW16270   3.301   4.889   5.044
 5124SOL    HW116271   3.278   4.890   4.947
 5124SOL    HW216272   3.224   4.855   5.097
 5125SOL     OW16273   6.196   3.327   4.079
 5125SOL    HW116274   6.113   3.280   4.108
 5125SOL    HW216275   6.227   3.290   3.992
 5126SOL     OW16276   6.550   5.442   5.523
 5126SOL    HW116277   6.582   5.530   5.488
 5126SOL    HW216278   6.628   5.386   5.549
 5127SOL     OW16279   1.004   3.651   0.236
 5127SOL    HW116280   0.958   3.629   0.322
 5127SOL    HW216281   0.948   3.620   0.160
 5128SOL     OW16282   6.630   0.620   6.317
 5128SOL    HW116283   6.653   0.524   6.327
 5128SOL    HW216284   6.618   0.662   6.407
 5129SOL     OW16285   5.213   0.593   2.943
 5129SOL    HW116286   5.219   0.494   2.956
 5129SOL    HW216287   5.304   0.630   2.923
 5130SOL     OW16288   1.867   5.244   4.021
 5130SOL    HW116289   1.816   5.167   3.982
 5130SOL    HW216290   1.965   5.232   4.000
 5131SOL     OW16291   2.632   5.662   3.629
 5131SOL    HW116292   2.724   5.662   3.589
 5131SOL    HW216293   2.627   5.593   3.701
 5132SOL     OW16294   3.183   2.061   5.983
 5132SOL    HW116295   3.198   1.990   6.051
 5132SOL    HW216296   3.178   2.150   6.028
 5133SOL     OW16297   1.765   5.362   6.634
 5133SOL    HW116298   1.795   5.424   6.707
 5133SOL    HW216299   1.779   5.267   6.664
 5134SOL     OW16300   6.794   0.998   2.008
 5134SOL    HW116301   6.782   1.022   2.104
 5134SOL    HW216302   6.705   1.004   1.961
 5135SOL     OW16303   5.113   3.853   4.530
 5135SOL    HW116304   5.017   3.881   4.537
 5135SOL    HW216305   5.131   3.779   4.595
 5136SOL     OW16306   5.644   0.666   6.974
 5136SOL    HW116307   5.657   0.714   0.035
 5136SOL    HW216308   5.550   0.678   6.943
 5137SOL     OW16309   4.545   3.639   5.558
 5137SOL    HW116310   4.559   3.703   5.482
 5137SOL    HW216311   4.634   3.601   5.586
 5138SOL     OW16312   3.655   2.865   4.673
 5138SOL    HW116313   3.607   2.909   4.749
 5138SOL    HW216314   3.704   2.784   4.707
 5139SOL     OW16315   0.871   0.196   4.006
 5139SOL    HW116316   0.864   0.104   3.967
 5139SOL    HW216317   0.864   0.190   4.106
 5140SOL     OW16318   3.961   1.969   5.279
 5140SOL    HW116319   4.006   1.891   5.321
 5140SOL    HW216320   3.871   1.983   5.321
 5141SOL     OW16321   6.550   3.893   0.748
 5141SOL    HW116322   6.505   3.960   0.689
 5141SOL    HW216323   6.492   3.813   0.759
 5142SOL     OW16324   5.333   6.329   3.632
 5142SOL    HW116325   5.394   6.406   3.614
 5142SOL    HW216326   5.366   6.248   3.583
 5143SOL     OW16327   6.972   4.416   4.134
 5143SOL    HW116328   7.006   4.434   4.041
 5143SOL    HW216329   6.888   4.363   4.129
 5144SOL     OW16330   1.329   4.902   5.315
 5144SOL    HW116331   1.424   4.911   5.284
 5144SOL    HW216332   1.310   4.806   5.335
 5145SOL     OW16333   3.583   6.147   6.516
 5145SOL    HW116334   3.631   6.060   6.529
 5145SOL    HW216335   3.551   6.153   6.422
 5146SOL     OW16336   3.218   3.393   5.322
 5146SOL    HW116337   3.229   3.453   5.400
 5146SOL    HW216338   3.305   3.347   5.302
 5147SOL     OW16339   6.648   5.664   3.547
 5147SOL    HW116340   6.704   5.634   3.624
 5147SOL    HW216341   6.559   5.695   3.581
 5148SOL     OW16342   0.311   1.150   1.632
 5148SOL    HW116343   0.254   1.168   1.712
 5148SOL    HW216344   0.273   1.198   1.553
 5149SOL     OW16345   6.463   5.489   3.839
 5149SOL    HW116346   6.556   5.484   3.803
 5149SOL    HW216347   6.465   5.478   3.939
 5150SOL     OW16348   2.535   5.540   3.349
 5150SOL    HW116349   2.448   5.578   3.318
 5150SOL    HW216350   2.560   5.580   3.437
 5151SOL     OW16351   0.072   3.714   2.482
 5151SOL    HW116352   0.075   3.807   2.517
 5151SOL    HW216353   7.016   3.668   2.517
 5152SOL     OW16354   1.382   5.316   0.081
 5152SOL    HW116355   1.446   5.287   0.010
 5152SOL    HW216356   1.327   5.238   0.110
 5153SOL     OW16357   0.658   2.204   0.365
 5153SOL    HW116358   0.601   2.257   0.427
 5153SOL    HW216359   0.704   2.266   0.301
 5154SOL     OW16360   0.837   2.864   6.127
 5154SOL    HW116361   0.822   2.962   6.112
 5154SOL    HW216362   0.855   2.819   6.040
 5155SOL     OW16363   4.021   6.612   2.205
 5155SOL    HW116364   4.075   6.586   2.284
 5155SOL    HW216365   3.967   6.694   2.225
 5156SOL     OW16366   5.482   4.945   5.893
 5156SOL    HW116367   5.437   4.983   5.974
 5156SOL    HW216368   5.475   5.009   5.817
 5157SOL     OW16369   3.159   1.687   3.332
 5157SOL    HW116370   3.094   1.683   3.407
 5157SOL    HW216371   3.134   1.621   3.261
 5158SOL     OW16372   3.706   2.046   0.572
 5158SOL    HW116373   3.666   2.058   0.663
 5158SOL    HW216374   3.708   2.135   0.526
 5159SOL     OW16375   5.617   3.394   5.937
 5159SOL    HW116376   5.638   3.491   5.951
 5159SOL    HW216377   5.518   3.380   5.937
 5160SOL     OW16378   0.426   5.143   3.074
 5160SOL    HW116379   0.368   5.155   3.154
 5160SOL    HW216380   0.372   5.108   2.998
 5161SOL     OW16381   1.916   3.556   0.222
 5161SOL    HW116382   1.911   3.457   0.209
 5161SOL    HW216383   1.891   3.602   0.137
 5162SOL     OW16384   0.676   5.944   2.717
 5162SOL    HW116385   0.622   5.931   2.800
 5162SOL    HW216386   0.697   6.041   2.706
 5163SOL     OW16387   2.970   6.871   0.860
 5163SOL    HW116388   2.875   6.843   0.871
 5163SOL    HW216389   3.023   6.841   0.939
 5164SOL     OW16390   3.814   2.353   0.128
 5164SOL    HW116391   3.742   2.420   0.112
 5164SOL    HW216392   3.826   2.339   0.226
 5165SOL     OW16393   0.526   4.037   6.078
 5165SOL    HW116394   0.545   4.020   6.175
 5165SOL    HW216395   0.439   3.994   6.053
 5166SOL     OW16396   1.466   5.743   2.517
 5166SOL    HW116397   1.392   5.678   2.530
 5166SOL    HW216398   1.432   5.836   2.534
 5167SOL     OW16399   6.555   5.078   5.702
 5167SOL    HW116400   6.547   5.102   5.799
 5167SOL    HW216401   6.652   5.072   5.677
 5168SOL     OW16402   5.319   3.647   1.608
 5168SOL    HW116403   5.393   3.581   1.601
 5168SOL    HW216404   5.254   3.633   1.533
 5169SOL     OW16405   4.053   1.946   4.064
 5169SOL    HW116406   4.131   1.937   4.003
 5169SOL    HW216407   4.056   2.034   4.111
 5170SOL     OW16408   1.459   3.510   4.746
 5170SOL    HW116409   1.523   3.553   4.682
 5170SOL    HW216410   1.405   3.581   4.792
 5171SOL     OW16411   0.609   4.086   5.665
 5171SOL    HW116412   0.562   4.136   5.739
 5171SOL    HW216413   0.707   4.108   5.667
 5172SOL     OW16414   1.514   3.421   2.418
 5172SOL    HW116415   1.440   3.470   2.464
 5172SOL    HW216416   1.489   3.325   2.410
 5173SOL     OW16417   5.067   5.356   4.664
 5173SOL    HW116418   5.000   5.289   4.632
 5173SOL    HW216419   5.154   5.311   4.683
 5174SOL     OW16420   2.302   4.858   3.620
 5174SOL    HW116421   2.249   4.855   3.705
 5174SOL    HW216422   2.248   4.902   3.549
 5175SOL     OW16423   3.127   3.881   6.704
 5175SOL    HW116424   3.028   3.869   6.698
 5175SOL    HW216425   3.150   3.978   6.698
 5176SOL     OW16426   5.755   3.545   0.113
 5176SOL    HW116427   5.815   3.565   0.035
 5176SOL    HW216428   5.739   3.446   0.118
 5177SOL     OW16429   5.737   6.862   1.076
 5177SOL    HW116430   5.647   6.876   1.116
 5177SOL    HW216431   5.733   6.790   1.007
 5178SOL     OW16432   0.823   3.556   2.685
 5178SOL    HW116433   0.742   3.605   2.654
 5178SOL    HW216434   0.866   3.510   2.606
 5179SOL     OW16435   5.014   4.554   4.202
 5179SOL    HW116436   4.982   4.536   4.109
 5179SOL    HW216437   5.015   4.653   4.219
 5180SOL     OW16438   2.734   1.356   0.972
 5180SOL    HW116439   2.704   1.386   0.881
 5180SOL    HW216440   2.699   1.420   1.041
 5181SOL     OW16441   5.042   1.269   2.234
 5181SOL    HW116442   5.101   1.350   2.231
 5181SOL    HW216443   4.999   1.255   2.144
 5182SOL     OW16444   4.054   4.686   1.869
 5182SOL    HW116445   4.125   4.673   1.800
 5182SOL    HW216446   3.964   4.690   1.824
 5183SOL     OW16447   3.482   1.777   2.599
 5183SOL    HW116448   3.486   1.823   2.688
 5183SOL    HW216449   3.561   1.804   2.544
 5184SOL     OW16450   0.495   2.341   3.634
 5184SOL    HW116451   0.497   2.426   3.686
 5184SOL    HW216452   0.492   2.263   3.697
 5185SOL     OW16453   5.358   0.913   2.767
 5185SOL    HW116454   5.271   0.956   2.792
 5185SOL    HW216455   5.395   0.959   2.686
 5186SOL     OW16456   6.230   1.907   0.206
 5186SOL    HW116457   6.290   1.890   0.128
 5186SOL    HW216458   6.144   1.857   0.194
 5187SOL     OW16459   1.415   6.075   4.549
 5187SOL    HW116460   1.398   6.009   4.622
 5187SOL    HW216461   1.353   6.057   4.473
 5188SOL     OW16462   6.652   5.684   1.481
 5188SOL    HW116463   6.697   5.700   1.394
 5188SOL    HW216464   6.708   5.624   1.537
 5189SOL     OW16465   4.112   5.154   0.882
 5189SOL    HW116466   4.076   5.120   0.795
 5189SOL    HW216467   4.039   5.155   0.951
 5190SOL     OW16468   0.266   2.992   4.466
 5190SOL    HW116469   0.233   2.900   4.484
 5190SOL    HW216470   0.358   3.003   4.504
 5191SOL     OW16471   3.684   6.917   2.235
 5191SOL    HW116472   3.589   6.898   2.261
 5191SOL    HW216473   3.687   6.949   2.140
 5192SOL     OW16474   1.934   5.330   1.207
 5192SOL    HW116475   1.893   5.319   1.117
 5192SOL    HW216476   1.907   5.418   1.245
 5193SOL     OW16477   5.589   5.516   5.368
 5193SOL    HW116478   5.623   5.466   5.289
 5193SOL    HW216479   5.517   5.463   5.413
 5194SOL     OW16480   4.199   2.010   0.195
 5194SOL    HW116481   4.246   1.946   0.134
 5194SOL    HW216482   4.239   2.101   0.185
 5195SOL     OW16483   6.762   0.033   4.118
 5195SOL    HW116484   6.729   0.023   4.025
 5195SOL    HW216485   6.795   6.970   4.152
 5196SOL     OW16486   4.234   6.377   1.619
 5196SOL    HW116487   4.279   6.422   1.695
 5196SOL    HW216488   4.143   6.347   1.646
 5197SOL     OW16489   2.342   3.919   5.939
 5197SOL    HW116490   2.402   3.961   5.872
 5197SOL    HW216491   2.387   3.839   5.978
 5198SOL     OW16492   4.776   5.940   3.306
 5198SOL    HW116493   4.682   5.912   3.322
 5198SOL    HW216494   4.819   5.967   3.392
 5199SOL     OW16495   1.281   6.291   0.013
 5199SOL    HW116496   1.223   6.363   7.002
 5199SOL    HW216497   1.244   6.258   0.099
 5200SOL     OW16498   0.159   3.794   5.373
 5200SOL    HW116499   0.072   3.746   5.365
 5200SOL    HW216500   0.148   3.871   5.437
 5201SOL     OW16501   0.094   0.193   2.973
 5201SOL    HW116502   0.056   0.173   3.064
 5201SOL    HW216503   0.032   0.157   2.903
 5202SOL     OW16504   5.724   2.949   6.307
 5202SOL    HW116505   5.766   2.989   6.388
 5202SOL    HW216506   5.628   2.927   6.326
 5203SOL     OW16507   2.223   2.517   6.838
 5203SOL    HW116508   2.195   2.568   6.919
 5203SOL    HW216509   2.177   2.428   6.836
 5204SOL     OW16510   3.596   4.980   6.484
 5204SOL    HW116511   3.573   5.077   6.477
 5204SOL    HW216512   3.601   4.954   6.581
 5205SOL     OW16513   0.586   6.070   0.666
 5205SOL    HW116514   0.522   5.996   0.648
 5205SOL    HW216515   0.619   6.108   0.580
 5206SOL     OW16516   0.446   4.238   5.879
 5206SOL    HW116517   0.472   4.165   5.943
 5206SOL    HW216518   0.443   4.325   5.928
 5207SOL     OW16519   1.417   5.650   3.840
 5207SOL    HW116520   1.343   5.621   3.780
 5207SOL    HW216521   1.396   5.740   3.879
 5208SOL     OW16522   3.911   2.003   6.033
 5208SOL    HW116523   3.855   1.965   5.959
 5208SOL    HW216524   3.852   2.028   6.110
 5209SOL     OW16525   5.609   5.761   3.405
 5209SOL    HW116526   5.689   5.712   3.371
 5209SOL    HW216527   5.548   5.697   3.452
 5210SOL     OW16528   4.445   2.777   5.737
 5210SOL    HW116529   4.470   2.856   5.793
 5210SOL    HW216530   4.410   2.808   5.649
 5211SOL     OW16531   3.109   2.988   5.395
 5211SOL    HW116532   3.191   2.939   5.366
 5211SOL    HW216533   3.092   3.065   5.333
 5212SOL     OW16534   6.904   2.257   1.058
 5212SOL    HW116535   6.932   2.346   1.021
 5212SOL    HW216536   6.950   2.185   1.006
 5213SOL     OW16537   4.674   3.628   6.936
 5213SOL    HW116538   4.598   3.563   6.926
 5213SOL    HW216539   4.737   3.617   6.859
 5214SOL     OW16540   4.793   1.740   5.749
 5214SOL    HW116541   4.814   1.724   5.652
 5214SOL    HW216542   4.875   1.723   5.804
 5215SOL     OW16543   6.545   4.769   3.281
 5215SOL    HW116544   6.542   4.788   3.380
 5215SOL    HW216545   6.452   4.765   3.245
 5216SOL     OW16546   5.104   5.057   1.770
 5216SOL    HW116547   5.124   4.963   1.797
 5216SOL    HW216548   5.120   5.119   1.847
 5217SOL     OW16549   3.829   5.569   4.648
 5217SOL    HW116550   3.901   5.577   4.580
 5217SOL    HW216551   3.740   5.585   4.604
 5218SOL     OW16552   0.752   0.820   3.923
 5218SOL    HW116553   0.806   0.738   3.943
 5218SOL    HW216554   0.674   0.795   3.866
 5219SOL     OW16555   4.112   1.016   5.651
 5219SOL    HW116556   4.193   0.959   5.639
 5219SOL    HW216557   4.131   1.088   5.718
 5220SOL     OW16558   1.669   5.817   2.713
 5220SOL    HW116559   1.716   5.729   2.714
 5220SOL    HW216560   1.608   5.822   2.634
 5221SOL     OW16561   5.679   2.281   3.929
 5221SOL    HW116562   5.633   2.344   3.991
 5221SOL    HW216563   5.777   2.277   3.951
 5222SOL     OW16564   3.360   5.820   3.408
 5222SOL    HW116565   3.452   5.859   3.409
 5222SOL    HW216566   3.363   5.729   3.449
 5223SOL     OW16567   6.650   2.287   0.936
 5223SOL    HW116568   6.740   2.269   0.977
 5223SOL    HW216569   6.598   2.348   0.995
 5224SOL     OW16570   0.086   2.535   4.109
 5224SOL    HW116571   0.093   2.544   4.010
 5224SOL    HW216572   0.001   2.488   4.132
 5225SOL     OW16573   0.468   0.234   3.438
 5225SOL    HW116574   0.451   0.252   3.341
 5225SOL    HW216575   0.482   0.135   3.451
 5226SOL     OW16576   0.354   6.271   4.580
 5226SOL    HW116577   0.452   6.255   4.588
 5226SOL    HW216578   0.311   6.194   4.534
 5227SOL     OW16579   1.149   3.293   4.227
 5227SOL    HW116580   1.150   3.252   4.318
 5227SOL    HW216581   1.146   3.393   4.235
 5228SOL     OW16582   6.340   2.736   1.489
 5228SOL    HW116583   6.324   2.789   1.406
 5228SOL    HW216584   6.438   2.729   1.506
 5229SOL     OW16585   1.610   5.665   6.980
 5229SOL    HW116586   1.608   5.682   6.882
 5229SOL    HW216587   1.626   5.568   6.998
 5230SOL     OW16588   0.924   6.344   0.926
 5230SOL    HW116589   0.978   6.259   0.919
 5230SOL    HW216590   0.893   6.356   1.020
 5231SOL     OW16591   3.954   3.375   5.835
 5231SOL    HW116592   3.872   3.398   5.783
 5231SOL    HW216593   3.992   3.289   5.802
 5232SOL     OW16594   3.619   2.212   5.922
 5232SOL    HW116595   3.542   2.182   5.867
 5232SOL    HW216596   3.674   2.132   5.949
 5233SOL     OW16597   5.070   0.792   2.456
 5233SOL    HW116598   5.055   0.890   2.456
 5233SOL    HW216599   4.984   0.745   2.474
 5234SOL     OW16600   2.440   0.967   6.966
 5234SOL    HW116601   2.501   0.953   6.888
 5234SOL    HW216602   2.390   0.883   6.985
 5235SOL     OW16603   1.489   2.557   1.186
 5235SOL    HW116604   1.452   2.590   1.273
 5235SOL    HW216605   1.415   2.545   1.120
 5236SOL     OW16606   5.686   3.992   2.475
 5236SOL    HW116607   5.655   3.989   2.570
 5236SOL    HW216608   5.642   3.919   2.423
 5237SOL     OW16609   2.010   1.072   5.363
 5237SOL    HW116610   2.093   1.103   5.316
 5237SOL    HW216611   1.929   1.103   5.313
 5238SOL     OW16612   1.281   4.278   0.715
 5238SOL    HW116613   1.356   4.276   0.649
 5238SOL    HW216614   1.254   4.373   0.732
 5239SOL     OW16615   3.508   3.170   3.866
 5239SOL    HW116616   3.455   3.098   3.911
 5239SOL    HW216617   3.605   3.156   3.884
 5240SOL     OW16618   3.198   1.663   6.131
 5240SOL    HW116619   3.229   1.758   6.140
 5240SOL    HW216620   3.106   1.662   6.092
 5241SOL     OW16621   1.110   5.474   5.164
 5241SOL    HW116622   1.079   5.540   5.231
 5241SOL    HW216623   1.179   5.516   5.105
 5242SOL     OW16624   0.035   5.982   6.341
 5242SOL    HW116625   0.069   5.903   6.290
 5242SOL    HW216626   6.977   6.017   6.298
 5243SOL     OW16627   0.865   5.607   1.806
 5243SOL    HW116628   0.861   5.515   1.768
 5243SOL    HW216629   0.785   5.659   1.776
 5244SOL     OW16630   3.686   4.533   6.373
 5244SOL    HW116631   3.668   4.552   6.277
 5244SOL    HW216632   3.664   4.438   6.394
 5245SOL     OW16633   4.110   4.299   0.507
 5245SOL    HW116634   4.128   4.380   0.564
 5245SOL    HW216635   4.197   4.259   0.479
 5246SOL     OW16636   5.837   4.245   2.563
 5246SOL    HW116637   5.879   4.227   2.652
 5246SOL    HW216638   5.794   4.161   2.529
 5247SOL     OW16639   1.073   0.416   0.043
 5247SOL    HW116640   0.987   0.368   0.025
 5247SOL    HW216641   1.146   0.349   0.057
 5248SOL     OW16642   5.871   0.567   4.332
 5248SOL    HW116643   5.808   0.557   4.255
 5248SOL    HW216644   5.942   0.633   4.308
 5249SOL     OW16645   6.693   4.399   4.940
 5249SOL    HW116646   6.735   4.356   4.860
 5249SOL    HW216647   6.664   4.329   5.005
 5250SOL     OW16648   1.200   0.343   5.296
 5250SOL    HW116649   1.164   0.250   5.303
 5250SOL    HW216650   1.266   0.359   5.369
 5251SOL     OW16651   0.882   3.188   0.690
 5251SOL    HW116652   0.817   3.263   0.688
 5251SOL    HW216653   0.970   3.221   0.724
 5252SOL     OW16654   2.172   5.798   0.225
 5252SOL    HW116655   2.215   5.721   0.178
 5252SOL    HW216656   2.240   5.871   0.239
 5253SOL     OW16657   5.626   3.900   4.414
 5253SOL    HW116658   5.708   3.864   4.458
 5253SOL    HW216659   5.552   3.904   4.480
 5254SOL     OW16660   4.318   1.775   2.793
 5254SOL    HW116661   4.412   1.742   2.802
 5254SOL    HW216662   4.256   1.713   2.841
 5255SOL     OW16663   4.884   0.744   6.153
 5255SOL    HW116664   4.892   0.695   6.066
 5255SOL    HW216665   4.899   0.679   6.228
 5256SOL     OW16666   4.510   0.930   2.979
 5256SOL    HW116667   4.550   0.984   3.053
 5256SOL    HW216668   4.510   0.983   2.894
 5257SOL     OW16669   4.899   6.007   2.389
 5257SOL    HW116670   4.826   5.986   2.324
 5257SOL    HW216671   4.912   5.930   2.452
 5258SOL     OW16672   5.734   3.552   1.753
 5258SOL    HW116673   5.650   3.534   1.701
 5258SOL    HW216674   5.715   3.622   1.822
 5259SOL     OW16675   5.087   6.503   0.435
 5259SOL    HW116676   5.002   6.482   0.386
 5259SOL    HW216677   5.066   6.557   0.517
 5260SOL     OW16678   5.761   3.974   1.024
 5260SOL    HW116679   5.786   3.938   1.113
 5260SOL    HW216680   5.717   3.902   0.970
 5261SOL     OW16681   1.373   3.555   6.805
 5261SOL    HW116682   1.473   3.559   6.800
 5261SOL    HW216683   1.343   3.573   6.899
 5262SOL     OW16684   2.887   0.528   2.833
 5262SOL    HW116685   2.837   0.441   2.835
 5262SOL    HW216686   2.979   0.512   2.796
 5263SOL     OW16687   2.101   1.405   5.226
 5263SOL    HW116688   2.099   1.361   5.136
 5263SOL    HW216689   2.145   1.494   5.218
 5264SOL     OW16690   5.877   1.561   2.482
 5264SOL    HW116691   5.930   1.501   2.542
 5264SOL    HW216692   5.918   1.562   2.391
 5265SOL     OW16693   5.511   4.143   3.811
 5265SOL    HW116694   5.490   4.211   3.881
 5265SOL    HW216695   5.504   4.052   3.850
 5266SOL     OW16696   2.856   6.516   1.637
 5266SOL    HW116697   2.856   6.503   1.736
 5266SOL    HW216698   2.896   6.436   1.593
 5267SOL     OW16699   4.790   4.168   5.183
 5267SOL    HW116700   4.836   4.136   5.101
 5267SOL    HW216701   4.836   4.130   5.264
 5268SOL     OW16702   6.255   0.353   6.456
 5268SOL    HW116703   6.270   0.306   6.543
 5268SOL    HW216704   6.191   0.428   6.470
 5269SOL     OW16705   2.009   0.143   3.934
 5269SOL    HW116706   1.913   0.163   3.919
 5269SOL    HW216707   2.029   0.049   3.907
 5270SOL     OW16708   5.318   1.687   1.378
 5270SOL    HW116709   5.253   1.752   1.338
 5270SOL    HW216710   5.411   1.716   1.355
 5271SOL     OW16711   5.867   5.948   4.814
 5271SOL    HW116712   5.838   5.921   4.906
 5271SOL    HW216713   5.909   6.038   4.817
 5272SOL     OW16714   2.375   5.779   1.926
 5272SOL    HW116715   2.306   5.817   1.987
 5272SOL    HW216716   2.363   5.816   1.834
 5273SOL     OW16717   6.720   3.138   3.477
 5273SOL    HW116718   6.717   3.237   3.463
 5273SOL    HW216719   6.627   3.105   3.497
 5274SOL     OW16720   6.524   6.449   1.849
 5274SOL    HW116721   6.555   6.358   1.820
 5274SOL    HW216722   6.587   6.486   1.917
 5275SOL     OW16723   3.789   1.728   6.642
 5275SOL    HW116724   3.822   1.819   6.616
 5275SOL    HW216725   3.724   1.737   6.717
 5276SOL     OW16726   1.172   0.231   0.691
 5276SOL    HW116727   1.176   0.284   0.606
 5276SOL    HW216728   1.222   0.279   0.763
 5277SOL     OW16729   1.961   2.218   3.301
 5277SOL    HW116730   1.933   2.257   3.388
 5277SOL    HW216731   2.059   2.198   3.303
 5278SOL     OW16732   4.854   0.320   4.179
 5278SOL    HW116733   4.928   0.381   4.207
 5278SOL    HW216734   4.786   0.372   4.128
 5279SOL     OW16735   1.342   5.193   6.473
 5279SOL    HW116736   1.356   5.264   6.404
 5279SOL    HW216737   1.308   5.110   6.428
 5280SOL     OW16738   3.294   6.306   5.495
 5280SOL    HW116739   3.304   6.216   5.452
 5280SOL    HW216740   3.317   6.300   5.592
 5281SOL     OW16741   0.713   1.539   2.789
 5281SOL    HW116742   0.724   1.479   2.868
 5281SOL    HW216743   0.711   1.634   2.820
 5282SOL     OW16744   2.237   1.537   3.177
 5282SOL    HW116745   2.141   1.542   3.203
 5282SOL    HW216746   2.250   1.468   3.106
 5283SOL     OW16747   3.982   6.773   1.619
 5283SOL    HW116748   3.989   6.771   1.719
 5283SOL    HW216749   3.952   6.864   1.590
 5284SOL     OW16750   5.238   3.772   3.278
 5284SOL    HW116751   5.260   3.691   3.331
 5284SOL    HW216752   5.145   3.764   3.241
 5285SOL     OW16753   1.855   4.216   4.009
 5285SOL    HW116754   1.871   4.293   4.070
 5285SOL    HW216755   1.778   4.162   4.043
 5286SOL     OW16756   0.466   3.677   1.354
 5286SOL    HW116757   0.393   3.726   1.402
 5286SOL    HW216758   0.545   3.668   1.415
 5287SOL     OW16759   1.614   5.790   1.695
 5287SOL    HW116760   1.692   5.747   1.650
 5287SOL    HW216761   1.580   5.865   1.639
 5288SOL     OW16762   3.957   0.423   2.006
 5288SOL    HW116763   3.931   0.381   1.918
 5288SOL    HW216764   4.020   0.499   1.989
 5289SOL     OW16765   1.866   5.748   6.220
 5289SOL    HW116766   1.892   5.655   6.245
 5289SOL    HW216767   1.854   5.754   6.121
 5290SOL     OW16768   1.674   4.720   5.717
 5290SOL    HW116769   1.637   4.692   5.628
 5290SOL    HW216770   1.627   4.803   5.748
 5291SOL     OW16771   2.899   4.951   5.387
 5291SOL    HW116772   2.864   4.858   5.376
 5291SOL    HW216773   2.985   4.949   5.438
 5292SOL     OW16774   6.655   4.361   0.193
 5292SOL    HW116775   6.612   4.431   0.136
 5292SOL    HW216776   6.702   4.295   0.134
 5293SOL     OW16777   1.088   0.506   4.131
 5293SOL    HW116778   1.137   0.546   4.053
 5293SOL    HW216779   1.135   0.423   4.161
 5294SOL     OW16780   5.003   2.974   5.042
 5294SOL    HW116781   5.054   2.966   4.956
 5294SOL    HW216782   4.998   3.070   5.069
 5295SOL     OW16783   4.240   0.234   2.548
 5295SOL    HW116784   4.337   0.219   2.566
 5295SOL    HW216785   4.224   0.232   2.450
 5296SOL     OW16786   1.785   5.260   0.295
 5296SOL    HW116787   1.754   5.201   0.370
 5296SOL    HW216788   1.864   5.313   0.324
 5297SOL     OW16789   3.182   1.747   1.228
 5297SOL    HW116790   3.145   1.828   1.275
 5297SOL    HW216791   3.195   1.768   1.131
 5298SOL     OW16792   1.373   5.969   6.175
 5298SOL    HW116793   1.298   6.003   6.119
 5298SOL    HW216794   1.354   5.874   6.201
 5299SOL     OW16795   2.900   2.567   0.962
 5299SOL    HW116796   2.944   2.573   1.052
 5299SOL    HW216797   2.919   2.650   0.909
 5300SOL     OW16798   0.479   6.351   1.665
 5300SOL    HW116799   0.403   6.364   1.729
 5300SOL    HW216800   0.560   6.397   1.700
 5301SOL     OW16801   4.234   2.827   6.790
 5301SOL    HW116802   4.197   2.920   6.794
 5301SOL    HW216803   4.203   2.775   6.870
 5302SOL     OW16804   5.987   5.045   3.461
 5302SOL    HW116805   5.940   5.076   3.544
 5302SOL    HW216806   5.927   5.056   3.382
 5303SOL     OW16807   0.014   5.934   2.886
 5303SOL    HW116808   0.037   5.855   2.829
 5303SOL    HW216809   6.944   5.958   2.872
 5304SOL     OW16810   5.782   1.620   6.868
 5304SOL    HW116811   5.734   1.702   6.839
 5304SOL    HW216812   5.872   1.645   6.905
 5305SOL     OW16813   1.672   5.297   4.205
 5305SOL    HW116814   1.735   5.272   4.131
 5305SOL    HW216815   1.580   5.263   4.183
 5306SOL     OW16816   0.557   5.062   4.906
 5306SOL    HW116817   0.541   5.129   4.978
 5306SOL    HW216818   0.499   4.982   4.920
 5307SOL     OW16819   4.358   0.102   0.546
 5307SOL    HW116820   4.332   0.188   0.501
 5307SOL    HW216821   4.279   0.065   0.594
 5308SOL     OW16822   1.126   6.321   3.515
 5308SOL    HW116823   1.030   6.349   3.519
 5308SOL    HW216824   1.158   6.326   3.420
 5309SOL     OW16825   3.844   4.671   1.697
 5309SOL    HW116826   3.754   4.641   1.728
 5309SOL    HW216827   3.836   4.718   1.609
 5310SOL     OW16828   5.991   3.477   1.753
 5310SOL    HW116829   6.041   3.428   1.824
 5310SOL    HW216830   5.899   3.498   1.786
 5311SOL     OW16831   0.207   6.420   0.275
 5311SOL    HW116832   0.240   6.467   0.194
 5311SOL    HW216833   0.161   6.486   0.335
 5312SOL     OW16834   0.706   4.528   1.661
 5312SOL    HW116835   0.744   4.495   1.748
 5312SOL    HW216836   0.759   4.491   1.585
 5313SOL     OW16837   1.430   4.634   6.696
 5313SOL    HW116838   1.417   4.572   6.618
 5313SOL    HW216839   1.345   4.684   6.713
 5314SOL     OW16840   3.789   6.633   7.018
 5314SOL    HW116841   3.857   6.561   0.004
 5314SOL    HW216842   3.818   6.695   6.945
 5315SOL     OW16843   4.681   3.678   1.668
 5315SOL    HW116844   4.672   3.777   1.679
 5315SOL    HW216845   4.773   3.657   1.633
 5316SOL     OW16846   6.925   4.832   4.990
 5316SOL    HW116847   7.023   4.812   4.982
 5316SOL    HW216848   6.882   4.763   5.048
 5317SOL     OW16849   6.724   0.029   4.394
 5317SOL    HW116850   6.753   0.085   4.472
 5317SOL    HW216851   6.786   0.044   4.317
 5318SOL     OW16852   6.725   2.167   6.129
 5318SOL    HW116853   6.674   2.101   6.184
 5318SOL    HW216854   6.806   2.197   6.180
 5319SOL     OW16855   4.624   6.720   6.573
 5319SOL    HW116856   4.631   6.818   6.591
 5319SOL    HW216857   4.616   6.705   6.475
 5320SOL     OW16858   5.644   4.988   0.326
 5320SOL    HW116859   5.545   4.978   0.325
 5320SOL    HW216860   5.678   4.987   0.232
 5321SOL     OW16861   1.140   4.041   3.134
 5321SOL    HW116862   1.108   3.958   3.180
 5321SOL    HW216863   1.062   4.094   3.101
 5322SOL     OW16864   3.679   6.241   6.167
 5322SOL    HW116865   3.745   6.279   6.231
 5322SOL    HW216866   3.727   6.187   6.098
 5323SOL     OW16867   3.846   3.445   6.927
 5323SOL    HW116868   3.851   3.520   6.992
 5323SOL    HW216869   3.855   3.358   6.975
 5324SOL     OW16870   4.071   2.803   1.734
 5324SOL    HW116871   4.005   2.734   1.764
 5324SOL    HW216872   4.144   2.759   1.683
 5325SOL     OW16873   5.183   0.351   4.080
 5325SOL    HW116874   5.255   0.305   4.028
 5325SOL    HW216875   5.097   0.347   4.028
 5326SOL     OW16876   0.249   5.199   3.277
 5326SOL    HW116877   0.254   5.170   3.372
 5326SOL    HW216878   0.290   5.290   3.267
 5327SOL     OW16879   5.634   4.320   5.021
 5327SOL    HW116880   5.557   4.310   5.084
 5327SOL    HW216881   5.708   4.258   5.048
 5328SOL     OW16882   4.075   3.172   5.725
 5328SOL    HW116883   4.088   3.075   5.706
 5328SOL    HW216884   4.117   3.226   5.652
 5329SOL     OW16885   6.838   4.211   0.886
 5329SOL    HW116886   6.896   4.129   0.890
 5329SOL    HW216887   6.805   4.223   0.792
 5330SOL     OW16888   3.824   3.656   5.978
 5330SOL    HW116889   3.779   3.632   5.892
 5330SOL    HW216890   3.792   3.594   6.050
 5331SOL     OW16891   5.301   0.801   1.278
 5331SOL    HW116892   5.216   0.853   1.269
 5331SOL    HW216893   5.288   0.727   1.344
 5332SOL     OW16894   0.481   3.728   0.787
 5332SOL    HW116895   0.564   3.695   0.833
 5332SOL    HW216896   0.404   3.724   0.850
 5333SOL     OW16897   0.802   0.516   3.645
 5333SOL    HW116898   0.846   0.600   3.677
 5333SOL    HW216899   0.765   0.466   3.723
 5334SOL     OW16900   4.066   6.555   4.914
 5334SOL    HW116901   4.104   6.467   4.941
 5334SOL    HW216902   3.967   6.553   4.923
 5335SOL     OW16903   6.941   5.317   2.781
 5335SOL    HW116904   6.864   5.376   2.757
 5335SOL    HW216905   7.020   5.341   2.725
 5336SOL     OW16906   2.450   1.706   3.376
 5336SOL    HW116907   2.537   1.676   3.336
 5336SOL    HW216908   2.392   1.746   3.305
 5337SOL     OW16909   5.372   4.823   1.856
 5337SOL    HW116910   5.452   4.809   1.797
 5337SOL    HW216911   5.381   4.767   1.938
 5338SOL     OW16912   6.045   0.589   6.055
 5338SOL    HW116913   6.035   0.602   5.956
 5338SOL    HW216914   6.063   0.493   6.074
 5339SOL     OW16915   5.754   1.898   3.283
 5339SOL    HW116916   5.776   1.817   3.228
 5339SOL    HW216917   5.684   1.874   3.351
 5340SOL     OW16918   5.799   3.845   1.262
 5340SOL    HW116919   5.845   3.918   1.311
 5340SOL    HW216920   5.740   3.794   1.324
 5341SOL     OW16921   3.682   5.630   5.426
 5341SOL    HW116922   3.729   5.715   5.450
 5341SOL    HW216923   3.651   5.634   5.331
 5342SOL     OW16924   4.608   0.405   4.770
 5342SOL    HW116925   4.640   0.353   4.849
 5342SOL    HW216926   4.670   0.391   4.693
 5343SOL     OW16927   3.988   3.920   5.066
 5343SOL    HW116928   3.898   3.877   5.060
 5343SOL    HW216929   4.026   3.931   4.974
 5344SOL     OW16930   1.595   1.732   1.085
 5344SOL    HW116931   1.571   1.773   0.997
 5344SOL    HW216932   1.585   1.800   1.158
 5345SOL     OW16933   4.627   6.169   0.633
 5345SOL    HW116934   4.696   6.097   0.631
 5345SOL    HW216935   4.536   6.128   0.625
 5346SOL     OW16936   2.555   5.475   3.819
 5346SOL    HW116937   2.558   5.425   3.906
 5346SOL    HW216938   2.469   5.455   3.772
 5347SOL     OW16939   0.451   2.978   2.707
 5347SOL    HW116940   0.359   3.010   2.730
 5347SOL    HW216941   0.518   3.049   2.729
 5348SOL     OW16942   6.827   1.582   0.568
 5348SOL    HW116943   6.798   1.488   0.550
 5348SOL    HW216944   6.905   1.605   0.509
 5349SOL     OW16945   2.228   3.116   0.361
 5349SOL    HW116946   2.295   3.151   0.426
 5349SOL    HW216947   2.270   3.108   0.270
 5350SOL     OW16948   1.423   0.041   4.631
 5350SOL    HW116949   1.350   7.001   4.653
 5350SOL    HW216950   1.405   0.082   4.542
 5351SOL     OW16951   6.509   5.381   1.904
 5351SOL    HW116952   6.503   5.478   1.926
 5351SOL    HW216953   6.540   5.330   1.984
 5352SOL     OW16954   2.219   5.136   2.922
 5352SOL    HW116955   2.151   5.077   2.966
 5352SOL    HW216956   2.310   5.114   2.958
 5353SOL     OW16957   3.692   5.271   4.628
 5353SOL    HW116958   3.690   5.263   4.529
 5353SOL    HW216959   3.738   5.357   4.654
 5354SOL     OW16960   2.233   4.363   0.670
 5354SOL    HW116961   2.193   4.410   0.748
 5354SOL    HW216962   2.193   4.399   0.585
 5355SOL     OW16963   5.894   4.730   4.771
 5355SOL    HW116964   5.828   4.742   4.845
 5355SOL    HW216965   5.873   4.793   4.697
 5356SOL     OW16966   6.486   3.854   2.254
 5356SOL    HW116967   6.556   3.893   2.314
 5356SOL    HW216968   6.395   3.873   2.292
 5357SOL     OW16969   2.648   5.451   0.308
 5357SOL    HW116970   2.744   5.435   0.330
 5357SOL    HW216971   2.642   5.519   0.234
 5358SOL     OW16972   4.326   1.652   0.763
 5358SOL    HW116973   4.231   1.679   0.747
 5358SOL    HW216974   4.335   1.553   0.752
 5359SOL     OW16975   2.499   1.376   6.026
 5359SOL    HW116976   2.587   1.370   5.978
 5359SOL    HW216977   2.492   1.465   6.071
 5360SOL     OW16978   3.454   6.069   3.124
 5360SOL    HW116979   3.497   5.978   3.123
 5360SOL    HW216980   3.380   6.070   3.191
 5361SOL     OW16981   2.383   0.695   4.742
 5361SOL    HW116982   2.374   0.632   4.664
 5361SOL    HW216983   2.328   0.777   4.725
 5362SOL     OW16984   6.240   6.523   2.644
 5362SOL    HW116985   6.235   6.511   2.545
 5362SOL    HW216986   6.189   6.605   2.670
 5363SOL     OW16987   6.114   6.439   5.808
 5363SOL    HW116988   6.068   6.513   5.759
 5363SOL    HW216989   6.190   6.405   5.754
 5364SOL     OW16990   6.429   0.039   2.282
 5364SOL    HW116991   6.397   6.972   2.262
 5364SOL    HW216992   6.413   0.098   2.203
 5365SOL     OW16993   3.627   3.152   1.468
 5365SOL    HW116994   3.642   3.151   1.567
 5365SOL    HW216995   3.551   3.213   1.446
 5366SOL     OW16996   5.953   6.536   1.021
 5366SOL    HW116997   5.880   6.570   1.080
 5366SOL    HW216998   5.914   6.490   0.941
 5367SOL     OW16999   0.134   0.305   1.549
 5367SOL    HW117000   0.049   0.263   1.581
 5367SOL    HW217001   0.146   0.394   1.594
 5368SOL     OW17002   5.767   0.023   2.279
 5368SOL    HW117003   5.825   0.051   2.202
 5368SOL    HW217004   5.678   7.019   2.243
 5369SOL     OW17005   2.717   6.755   0.906
 5369SOL    HW117006   2.654   6.811   0.959
 5369SOL    HW217007   2.689   6.753   0.810
 5370SOL     OW17008   4.808   3.005   0.743
 5370SOL    HW117009   4.888   3.050   0.705
 5370SOL    HW217010   4.780   3.052   0.827
 5371SOL     OW17011   0.486   4.055   5.398
 5371SOL    HW117012   0.484   4.095   5.490
 5371SOL    HW217013   0.529   4.120   5.335
 5372SOL     OW17014   1.017   5.743   2.854
 5372SOL    HW117015   1.113   5.727   2.832
 5372SOL    HW217016   0.960   5.712   2.778
 5373SOL     OW17017   4.003   6.647   5.252
 5373SOL    HW117018   3.989   6.561   5.203
 5373SOL    HW217019   4.099   6.674   5.245
 5374SOL     OW17020   2.135   3.862   0.579
 5374SOL    HW117021   2.120   3.819   0.490
 5374SOL    HW217022   2.050   3.865   0.631
 5375SOL     OW17023   0.412   6.372   4.832
 5375SOL    HW117024   0.430   6.470   4.837
 5375SOL    HW217025   0.377   6.349   4.742
 5376SOL     OW17026   1.209   2.124   1.332
 5376SOL    HW117027   1.258   2.039   1.353
 5376SOL    HW217028   1.219   2.187   1.409
 5377SOL     OW17029   0.485   0.086   2.077
 5377SOL    HW117030   0.406   0.113   2.021
 5377SOL    HW217031   0.527   0.168   2.116
 5378SOL     OW17032   6.666   0.127   2.660
 5378SOL    HW117033   6.584   0.122   2.602
 5378SOL    HW217034   6.691   0.223   2.673
 5379SOL     OW17035   0.560   4.033   4.881
 5379SOL    HW117036   0.564   4.027   4.781
 5379SOL    HW217037   0.479   3.985   4.914
 5380SOL     OW17038   3.174   0.129   2.317
 5380SOL    HW117039   3.153   0.125   2.415
 5380SOL    HW217040   3.133   0.210   2.277
 5381SOL     OW17041   6.342   5.203   2.208
 5381SOL    HW117042   6.262   5.250   2.170
 5381SOL    HW217043   6.405   5.270   2.246
 5382SOL     OW17044   2.716   1.501   1.945
 5382SOL    HW117045   2.707   1.548   1.858
 5382SOL    HW217046   2.711   1.402   1.930
 5383SOL     OW17047   1.772   2.532   5.097
 5383SOL    HW117048   1.779   2.628   5.125
 5383SOL    HW217049   1.824   2.518   5.012
 5384SOL     OW17050   5.520   0.340   5.145
 5384SOL    HW117051   5.509   0.350   5.047
 5384SOL    HW217052   5.593   0.401   5.177
 5385SOL     OW17053   3.785   3.514   5.141
 5385SOL    HW117054   3.881   3.509   5.170
 5385SOL    HW217055   3.781   3.529   5.042
 5386SOL     OW17056   4.783   1.314   4.097
 5386SOL    HW117057   4.719   1.365   4.155
 5386SOL    HW217058   4.733   1.270   4.023
 5387SOL     OW17059   1.934   6.635   3.406
 5387SOL    HW117060   1.840   6.638   3.440
 5387SOL    HW217061   1.973   6.727   3.408
 5388SOL     OW17062   1.084   1.041   2.894
 5388SOL    HW117063   1.170   0.992   2.906
 5388SOL    HW217064   1.024   1.022   2.971
 5389SOL     OW17065   3.637   1.602   3.356
 5389SOL    HW117066   3.723   1.605   3.408
 5389SOL    HW217067   3.643   1.667   3.280
 5390SOL     OW17068   5.068   4.197   3.763
 5390SOL    HW117069   5.062   4.214   3.862
 5390SOL    HW217070   5.098   4.103   3.747
 5391SOL     OW17071   2.673   1.563   0.658
 5391SOL    HW117072   2.676   1.647   0.713
 5391SOL    HW217073   2.581   1.551   0.622
 5392SOL     OW17074   6.126   3.468   1.186
 5392SOL    HW117075   6.028   3.491   1.187
 5392SOL    HW217076   6.153   3.440   1.095
 5393SOL     OW17077   5.391   0.620   5.498
 5393SOL    HW117078   5.368   0.554   5.427
 5393SOL    HW217079   5.334   0.605   5.578
 5394SOL     OW17080   0.443   5.702   1.119
 5394SOL    HW117081   0.491   5.619   1.091
 5394SOL    HW217082   0.494   5.782   1.086
 5395SOL     OW17083   4.710   0.931   1.036
 5395SOL    HW117084   4.674   1.024   1.027
 5395SOL    HW217085   4.809   0.935   1.052
 5396SOL     OW17086   5.575   4.730   1.243
 5396SOL    HW117087   5.595   4.801   1.311
 5396SOL    HW217088   5.481   4.742   1.209
 5397SOL     OW17089   6.885   2.315   1.511
 5397SOL    HW117090   6.838   2.241   1.559
 5397SOL    HW217091   6.855   2.317   1.415
 5398SOL     OW17092   2.828   2.228   3.637
 5398SOL    HW117093   2.845   2.277   3.723
 5398SOL    HW217094   2.915   2.206   3.593
 5399SOL     OW17095   2.736   6.367   0.289
 5399SOL    HW117096   2.828   6.388   0.322
 5399SOL    HW217097   2.737   6.278   0.243
 5400SOL     OW17098   3.121   3.120   6.553
 5400SOL    HW117099   3.117   3.192   6.622
 5400SOL    HW217100   3.204   3.065   6.568
 5401SOL     OW17101   6.360   4.424   2.565
 5401SOL    HW117102   6.451   4.394   2.536
 5401SOL    HW217103   6.316   4.351   2.618
 5402SOL     OW17104   2.147   5.798   1.511
 5402SOL    HW117105   2.222   5.819   1.573
 5402SOL    HW217106   2.175   5.815   1.417
 5403SOL     OW17107   5.164   3.670   5.656
 5403SOL    HW117108   5.182   3.592   5.716
 5403SOL    HW217109   5.155   3.638   5.562
 5404SOL     OW17110   0.744   0.680   2.653
 5404SOL    HW117111   0.806   0.612   2.615
 5404SOL    HW217112   0.793   0.738   2.718
 5405SOL     OW17113   5.393   5.518   6.918
 5405SOL    HW117114   5.310   5.552   6.876
 5405SOL    HW217115   5.383   5.420   6.937
 5406SOL     OW17116   1.816   0.430   5.304
 5406SOL    HW117117   1.859   0.368   5.238
 5406SOL    HW217118   1.819   0.389   5.395
 5407SOL     OW17119   3.054   1.915   0.979
 5407SOL    HW117120   3.007   2.003   0.978
 5407SOL    HW217121   3.099   1.900   0.890
 5408SOL     OW17122   3.877   0.349   5.538
 5408SOL    HW117123   3.846   0.427   5.593
 5408SOL    HW217124   3.798   0.306   5.494
 5409SOL     OW17125   6.728   1.639   3.517
 5409SOL    HW117126   6.708   1.733   3.543
 5409SOL    HW217127   6.751   1.635   3.420
 5410SOL     OW17128   0.731   2.352   6.377
 5410SOL    HW117129   0.655   2.356   6.313
 5410SOL    HW217130   0.711   2.284   6.448
 5411SOL     OW17131   6.057   5.438   5.904
 5411SOL    HW117132   5.987   5.368   5.888
 5411SOL    HW217133   6.125   5.436   5.830
 5412SOL     OW17134   3.587   1.313   6.854
 5412SOL    HW117135   3.539   1.225   6.853
 5412SOL    HW217136   3.630   1.328   6.765
 5413SOL     OW17137   6.936   0.558   0.883
 5413SOL    HW117138   6.849   0.605   0.901
 5413SOL    HW217139   7.009   0.603   0.934
 5414SOL     OW17140   6.245   4.289   4.680
 5414SOL    HW117141   6.224   4.336   4.766
 5414SOL    HW217142   6.229   4.351   4.604
 5415SOL     OW17143   1.701   6.355   2.029
 5415SOL    HW117144   1.699   6.404   2.116
 5415SOL    HW217145   1.648   6.270   2.037
 5416SOL     OW17146   3.404   5.284   5.653
 5416SOL    HW117147   3.368   5.200   5.612
 5416SOL    HW217148   3.398   5.358   5.586
 5417SOL     OW17149   4.323   6.618   4.739
 5417SOL    HW117150   4.257   6.584   4.806
 5417SOL    HW217151   4.372   6.697   4.777
 5418SOL     OW17152   5.175   0.539   4.543
 5418SOL    HW117153   5.105   0.496   4.600
 5418SOL    HW217154   5.247   0.472   4.523
 5419SOL     OW17155   3.157   5.292   0.298
 5419SOL    HW117156   3.234   5.320   0.240
 5419SOL    HW217157   3.192   5.254   0.383
 5420SOL     OW17158   2.028   2.464   1.577
 5420SOL    HW117159   1.954   2.520   1.613
 5420SOL    HW217160   2.092   2.521   1.526
 5421SOL     OW17161   3.183   5.307   3.033
 5421SOL    HW117162   3.126   5.388   3.040
 5421SOL    HW217163   3.277   5.334   3.011
 5422SOL     OW17164   0.466   5.724   4.337
 5422SOL    HW117165   0.519   5.807   4.317
 5422SOL    HW217166   0.475   5.660   4.261
 5423SOL     OW17167   6.079   4.380   0.383
 5423SOL    HW117168   6.092   4.478   0.401
 5423SOL    HW217169   6.132   4.355   0.302
 5424SOL     OW17170   5.853   3.807   4.567
 5424SOL    HW117171   5.940   3.847   4.540
 5424SOL    HW217172   5.850   3.795   4.666
 5425SOL     OW17173   4.879   2.285   4.493
 5425SOL    HW117174   4.861   2.213   4.426
 5425SOL    HW217175   4.945   2.252   4.560
 5426SOL     OW17176   6.219   5.817   3.460
 5426SOL    HW117177   6.184   5.769   3.380
 5426SOL    HW217178   6.227   5.753   3.536
 5427SOL     OW17179   5.571   3.979   0.605
 5427SOL    HW117180   5.491   3.993   0.663
 5427SOL    HW217181   5.562   3.893   0.556
 5428SOL     OW17182   6.280   6.815   2.499
 5428SOL    HW117183   6.376   6.787   2.493
 5428SOL    HW217184   6.241   6.821   2.407
 5429SOL     OW17185   2.093   1.011   6.006
 5429SOL    HW117186   2.191   0.990   6.017
 5429SOL    HW217187   2.057   1.048   6.092
 5430SOL     OW17188   2.320   2.715   6.166
 5430SOL    HW117189   2.367   2.758   6.089
 5430SOL    HW217190   2.295   2.622   6.141
 5431SOL     OW17191   3.500   4.081   6.552
 5431SOL    HW117192   3.574   4.027   6.592
 5431SOL    HW217193   3.466   4.034   6.471
 5432SOL     OW17194   3.664   5.589   6.702
 5432SOL    HW117195   3.707   5.679   6.699
 5432SOL    HW217196   3.696   5.538   6.782
 5433SOL     OW17197   0.329   0.732   3.110
 5433SOL    HW117198   0.306   0.775   3.197
 5433SOL    HW217199   0.416   0.768   3.077
 5434SOL     OW17200   4.244   0.737   4.422
 5434SOL    HW117201   4.304   0.661   4.449
 5434SOL    HW217202   4.181   0.705   4.351
 5435SOL     OW17203   5.945   2.008   1.272
 5435SOL    HW117204   5.982   1.955   1.348
 5435SOL    HW217205   5.972   2.104   1.282
 5436SOL     OW17206   5.667   4.390   4.146
 5436SOL    HW117207   5.690   4.293   4.137
 5436SOL    HW217208   5.632   4.407   4.238
 5437SOL     OW17209   3.044   5.489   5.830
 5437SOL    HW117210   3.024   5.545   5.750
 5437SOL    HW217211   3.138   5.506   5.860
 5438SOL     OW17212   6.222   3.095   1.939
 5438SOL    HW117213   6.316   3.126   1.921
 5438SOL    HW217214   6.195   3.125   2.031
 5439SOL     OW17215   0.102   2.452   0.223
 5439SOL    HW117216   0.073   2.363   0.189
 5439SOL    HW217217   0.024   2.514   0.227
 5440SOL     OW17218   6.815   6.781   3.556
 5440SOL    HW117219   6.781   6.705   3.612
 5440SOL    HW217220   6.806   6.758   3.459
 5441SOL     OW17221   4.808   2.796   3.322
 5441SOL    HW117222   4.855   2.862   3.381
 5441SOL    HW217223   4.738   2.748   3.374
 5442SOL     OW17224   3.383   6.941   3.022
 5442SOL    HW117225   3.333   6.863   3.057
 5442SOL    HW217226   3.320   7.004   2.976
 5443SOL     OW17227   3.708   5.600   3.680
 5443SOL    HW117228   3.658   5.585   3.595
 5443SOL    HW217229   3.781   5.532   3.688
 5444SOL     OW17230   0.204   0.297   3.724
 5444SOL    HW117231   0.151   0.351   3.790
 5444SOL    HW217232   0.180   0.327   3.631
 5445SOL     OW17233   6.176   3.846   3.913
 5445SOL    HW117234   6.091   3.793   3.918
 5445SOL    HW217235   6.216   3.853   4.004
 5446SOL     OW17236   5.627   5.228   4.965
 5446SOL    HW117237   5.665   5.280   5.042
 5446SOL    HW217238   5.527   5.231   4.969
 5447SOL     OW17239   1.442   1.643   0.772
 5447SOL    HW117240   1.349   1.648   0.809
 5447SOL    HW217241   1.486   1.559   0.805
 5448SOL     OW17242   5.341   4.954   4.635
 5448SOL    HW117243   5.340   4.896   4.553
 5448SOL    HW217244   5.427   4.940   4.684
 5449SOL     OW17245   1.812   1.569   1.036
 5449SOL    HW117246   1.889   1.630   1.016
 5449SOL    HW217247   1.726   1.620   1.026
 5450SOL     OW17248   3.056   0.252   0.881
 5450SOL    HW117249   3.098   0.302   0.956
 5450SOL    HW217250   2.956   0.257   0.888
 5451SOL     OW17251   2.154   6.559   3.710
 5451SOL    HW117252   2.085   6.494   3.741
 5451SOL    HW217253   2.235   6.509   3.680
 5452SOL     OW17254   2.454   4.040   6.657
 5452SOL    HW117255   2.518   4.013   6.585
 5452SOL    HW217256   2.369   4.074   6.616
 5453SOL     OW17257   5.226   4.454   2.264
 5453SOL    HW117258   5.302   4.507   2.302
 5453SOL    HW217259   5.263   4.382   2.205
 5454SOL     OW17260   4.805   5.793   0.071
 5454SOL    HW117261   4.849   5.840   7.020
 5454SOL    HW217262   4.874   5.739   0.120
 5455SOL     OW17263   0.400   2.772   2.976
 5455SOL    HW117264   0.498   2.788   2.961
 5455SOL    HW217265   0.382   2.674   2.984
 5456SOL     OW17266   2.871   0.387   0.078
 5456SOL    HW117267   2.819   0.407   7.021
 5456SOL    HW217268   2.918   0.470   0.108
 5457SOL     OW17269   6.345   1.834   1.702
 5457SOL    HW117270   6.429   1.867   1.661
 5457SOL    HW217271   6.284   1.911   1.720
 5458SOL     OW17272   0.610   5.143   0.347
 5458SOL    HW117273   0.515   5.174   0.340
 5458SOL    HW217274   0.669   5.221   0.369
 5459SOL     OW17275   3.333   3.645   6.022
 5459SOL    HW117276   3.358   3.678   6.113
 5459SOL    HW217277   3.383   3.698   5.953
 5460SOL     OW17278   3.380   6.443   3.031
 5460SOL    HW117279   3.467   6.419   2.989
 5460SOL    HW217280   3.373   6.400   3.121
 5461SOL     OW17281   0.461   0.878   4.951
 5461SOL    HW117282   0.409   0.937   4.889
 5461SOL    HW217283   0.437   0.782   4.933
 5462SOL     OW17284   5.473   6.411   0.021
 5462SOL    HW117285   5.449   6.477   0.093
 5462SOL    HW217286   5.523   6.458   6.974
 5463SOL     OW17287   0.408   1.410   6.990
 5463SOL    HW117288   0.447   1.432   0.053
 5463SOL    HW217289   0.481   1.398   6.923
 5464SOL     OW17290   6.308   0.204   4.943
 5464SOL    HW117291   6.301   0.118   4.992
 5464SOL    HW217292   6.404   0.232   4.939
 5465SOL     OW17293   5.123   1.082   4.375
 5465SOL    HW117294   5.211   1.093   4.421
 5465SOL    HW217295   5.127   1.003   4.314
 5466SOL     OW17296   5.113   2.957   5.325
 5466SOL    HW117297   5.052   3.028   5.290
 5466SOL    HW217298   5.183   2.936   5.256
 5467SOL     OW17299   5.550   3.765   3.645
 5467SOL    HW117300   5.604   3.753   3.562
 5467SOL    HW217301   5.476   3.830   3.628
 5468SOL     OW17302   6.369   2.355   4.569
 5468SOL    HW117303   6.410   2.375   4.658
 5468SOL    HW217304   6.438   2.367   4.498
 5469SOL     OW17305   2.955   6.355   5.669
 5469SOL    HW117306   2.948   6.450   5.698
 5469SOL    HW217307   2.939   6.294   5.747
 5470SOL     OW17308   3.563   5.556   3.444
 5470SOL    HW117309   3.561   5.559   3.345
 5470SOL    HW217310   3.479   5.513   3.478
 5471SOL     OW17311   6.362   0.591   3.456
 5471SOL    HW117312   6.264   0.602   3.467
 5471SOL    HW217313   6.392   0.640   3.374
 5472SOL     OW17314   3.060   3.655   6.115
 5472SOL    HW117315   3.135   3.599   6.080
 5472SOL    HW217316   3.066   3.660   6.215
 5473SOL     OW17317   1.442   3.537   1.927
 5473SOL    HW117318   1.542   3.547   1.929
 5473SOL    HW217319   1.411   3.540   1.833
 5474SOL     OW17320   1.021   4.031   4.428
 5474SOL    HW117321   0.948   4.010   4.493
 5474SOL    HW217322   1.110   4.021   4.474
 5475SOL     OW17323   2.056   2.416   1.057
 5475SOL    HW117324   2.041   2.472   1.139
 5475SOL    HW217325   2.150   2.429   1.025
 5476SOL     OW17326   2.017   4.705   5.180
 5476SOL    HW117327   2.052   4.690   5.087
 5476SOL    HW217328   1.923   4.671   5.186
 5477SOL     OW17329   2.213   4.198   2.438
 5477SOL    HW117330   2.197   4.223   2.533
 5477SOL    HW217331   2.171   4.110   2.419
 5478SOL     OW17332   3.063   6.603   4.964
 5478SOL    HW117333   3.118   6.597   4.881
 5478SOL    HW217334   2.987   6.539   4.958
 5479SOL     OW17335   5.959   1.989   5.781
 5479SOL    HW117336   5.873   1.941   5.798
 5479SOL    HW217337   5.964   2.017   5.685
 5480SOL     OW17338   5.707   6.094   3.966
 5480SOL    HW117339   5.750   6.004   3.971
 5480SOL    HW217340   5.626   6.095   4.025
 5481SOL     OW17341   4.775   0.906   4.256
 5481SOL    HW117342   4.863   0.950   4.277
 5481SOL    HW217343   4.708   0.928   4.326
 5482SOL     OW17344   3.587   4.275   1.380
 5482SOL    HW117345   3.556   4.237   1.467
 5482SOL    HW217346   3.633   4.203   1.327
 5483SOL     OW17347   0.042   2.680   5.514
 5483SOL    HW117348   0.113   2.681   5.444
 5483SOL    HW217349   0.033   2.588   5.552
 5484SOL     OW17350   4.259   0.970   3.489
 5484SOL    HW117351   4.345   1.016   3.468
 5484SOL    HW217352   4.275   0.871   3.499
 5485SOL     OW17353   4.011   7.000   4.652
 5485SOL    HW117354   4.008   0.036   4.730
 5485SOL    HW217355   4.007   6.905   4.684
 5486SOL     OW17356   2.177   6.127   5.286
 5486SOL    HW117357   2.089   6.133   5.239
 5486SOL    HW217358   2.223   6.042   5.259
 5487SOL     OW17359   5.626   3.253   6.958
 5487SOL    HW117360   5.619   3.155   6.940
 5487SOL    HW217361   5.691   3.295   6.894
 5488SOL     OW17362   6.058   0.642   0.828
 5488SOL    HW117363   6.077   0.699   0.748
 5488SOL    HW217364   5.966   0.661   0.862
 5489SOL     OW17365   0.846   3.916   1.599
 5489SOL    HW117366   0.891   3.893   1.513
 5489SOL    HW217367   0.789   3.997   1.585
 5490SOL     OW17368   3.124   6.770   1.072
 5490SOL    HW117369   3.211   6.776   1.022
 5490SOL    HW217370   3.118   6.845   1.137
 5491SOL     OW17371   1.957   4.117   0.805
 5491SOL    HW117372   2.016   4.080   0.878
 5491SOL    HW217373   2.013   4.134   0.724
 5492SOL     OW17374   6.940   3.166   6.087
 5492SOL    HW117375   6.894   3.092   6.137
 5492SOL    HW217376   6.897   3.253   6.110
 5493SOL     OW17377   3.666   4.080   4.160
 5493SOL    HW117378   3.615   3.995   4.167
 5493SOL    HW217379   3.609   4.151   4.118
 5494SOL     OW17380   6.223   3.032   6.254
 5494SOL    HW117381   6.208   3.082   6.339
 5494SOL    HW217382   6.248   3.096   6.181
 5495SOL     OW17383   3.169   1.877   0.720
 5495SOL    HW117384   3.078   1.895   0.680
 5495SOL    HW217385   3.238   1.884   0.649
 5496SOL     OW17386   3.317   0.714   3.604
 5496SOL    HW117387   3.357   0.700   3.694
 5496SOL    HW217388   3.269   0.802   3.602
 5497SOL     OW17389   0.284   2.380   3.964
 5497SOL    HW117390   0.344   2.330   4.026
 5497SOL    HW217391   0.202   2.325   3.945
 5498SOL     OW17392   6.113   6.324   1.096
 5498SOL    HW117393   6.205   6.357   1.120
 5498SOL    HW217394   6.052   6.403   1.083
 5499SOL     OW17395   0.576   0.379   4.693
 5499SOL    HW117396   0.494   0.392   4.638
 5499SOL    HW217397   0.550   0.351   4.786
 5500SOL     OW17398   1.176   0.413   0.490
 5500SOL    HW117399   1.193   0.511   0.479
 5500SOL    HW217400   1.251   0.361   0.450
 5501SOL     OW17401   3.580   0.479   0.402
 5501SOL    HW117402   3.605   0.515   0.313
 5501SOL    HW217403   3.525   0.396   0.390
 5502SOL     OW17404   5.305   3.237   0.499
 5502SOL    HW117405   5.240   3.209   0.429
 5502SOL    HW217406   5.305   3.337   0.506
 5503SOL     OW17407   0.755   4.814   2.179
 5503SOL    HW117408   0.817   4.781   2.250
 5503SOL    HW217409   0.807   4.863   2.109
 5504SOL     OW17410   3.927   0.974   4.990
 5504SOL    HW117411   4.017   1.015   4.976
 5504SOL    HW217412   3.858   1.029   4.943
 5505SOL     OW17413   2.349   5.192   4.427
 5505SOL    HW117414   2.436   5.172   4.472
 5505SOL    HW217415   2.274   5.153   4.480
 5506SOL     OW17416   1.206   2.283   6.878
 5506SOL    HW117417   1.287   2.341   6.885
 5506SOL    HW217418   1.156   2.285   6.964
 5507SOL     OW17419   3.895   1.262   4.352
 5507SOL    HW117420   3.907   1.362   4.355
 5507SOL    HW217421   3.841   1.238   4.272
 5508SOL     OW17422   1.882   1.248   6.465
 5508SOL    HW117423   1.900   1.164   6.517
 5508SOL    HW217424   1.909   1.235   6.370
 5509SOL     OW17425   6.844   6.538   6.946
 5509SOL    HW117426   6.916   6.603   6.972
 5509SOL    HW217427   6.803   6.568   6.859
 5510SOL     OW17428   4.760   5.144   6.830
 5510SOL    HW117429   4.826   5.205   6.872
 5510SOL    HW217430   4.800   5.054   6.818
 5511SOL     OW17431   2.389   1.514   4.102
 5511SOL    HW117432   2.396   1.529   4.201
 5511SOL    HW217433   2.333   1.432   4.085
 5512SOL     OW17434   5.552   2.351   1.471
 5512SOL    HW117435   5.576   2.317   1.380
 5512SOL    HW217436   5.490   2.428   1.462
 5513SOL     OW17437   4.511   4.438   6.540
 5513SOL    HW117438   4.454   4.359   6.516
 5513SOL    HW217439   4.453   4.519   6.548
 5514SOL     OW17440   4.163   6.613   4.273
 5514SOL    HW117441   4.197   6.524   4.241
 5514SOL    HW217442   4.070   6.626   4.239
 5515SOL     OW17443   0.908   5.975   2.037
 5515SOL    HW117444   0.856   6.058   2.055
 5515SOL    HW217445   0.847   5.896   2.040
 5516SOL     OW17446   1.787   4.174   6.230
 5516SOL    HW117447   1.765   4.107   6.158
 5516SOL    HW217448   1.735   4.152   6.312
 5517SOL     OW17449   2.146   3.037   1.788
 5517SOL    HW117450   2.205   3.117   1.780
 5517SOL    HW217451   2.127   2.999   1.698
 5518SOL     OW17452   5.886   6.373   6.617
 5518SOL    HW117453   5.844   6.389   6.527
 5518SOL    HW217454   5.873   6.277   6.643
 5519SOL     OW17455   5.518   3.455   3.537
 5519SOL    HW117456   5.607   3.492   3.509
 5519SOL    HW217457   5.497   3.485   3.630
 5520SOL     OW17458   5.908   6.281   2.479
 5520SOL    HW117459   5.976   6.252   2.546
 5520SOL    HW217460   5.952   6.298   2.391
 5521SOL     OW17461   5.639   5.970   1.696
 5521SOL    HW117462   5.713   5.903   1.708
 5521SOL    HW217463   5.627   5.990   1.598
 5522SOL     OW17464   6.796   5.133   0.315
 5522SOL    HW117465   6.879   5.095   0.357
 5522SOL    HW217466   6.821   5.212   0.258
 5523SOL     OW17467   3.889   0.679   1.876
 5523SOL    HW117468   3.800   0.664   1.917
 5523SOL    HW217469   3.911   0.777   1.878
 5524SOL     OW17470   5.355   0.082   4.812
 5524SOL    HW117471   5.293   0.026   4.757
 5524SOL    HW217472   5.306   0.163   4.845
 5525SOL     OW17473   0.140   1.799   1.108
 5525SOL    HW117474   0.063   1.787   1.045
 5525SOL    HW217475   0.210   1.730   1.088
 5526SOL     OW17476   4.935   5.690   3.793
 5526SOL    HW117477   4.888   5.709   3.879
 5526SOL    HW217478   5.016   5.748   3.785
 5527SOL     OW17479   4.931   3.773   3.932
 5527SOL    HW117480   5.026   3.804   3.937
 5527SOL    HW217481   4.915   3.701   3.999
 5528SOL     OW17482   1.477   1.064   6.729
 5528SOL    HW117483   1.383   1.053   6.761
 5528SOL    HW217484   1.490   1.157   6.694
 5529SOL     OW17485   2.963   7.014   3.382
 5529SOL    HW117486   3.033   6.967   3.436
 5529SOL    HW217487   3.006   0.060   3.327
 5530SOL     OW17488   5.721   2.232   1.932
 5530SOL    HW117489   5.742   2.139   1.963
 5530SOL    HW217490   5.786   2.258   1.861
 5531SOL     OW17491   3.298   3.451   2.136
 5531SOL    HW117492   3.292   3.425   2.040
 5531SOL    HW217493   3.383   3.500   2.153
 5532SOL     OW17494   1.814   3.115   0.482
 5532SOL    HW117495   1.863   3.027   0.481
 5532SOL    HW217496   1.868   3.182   0.534
 5533SOL     OW17497   3.612   1.730   3.122
 5533SOL    HW117498   3.643   1.787   3.046
 5533SOL    HW217499   3.528   1.770   3.159
 5534SOL     OW17500   0.283   1.091   6.335
 5534SOL    HW117501   0.228   1.173   6.346
 5534SOL    HW217502   0.286   1.042   6.422
 5535SOL     OW17503   6.965   2.802   3.440
 5535SOL    HW117504   6.909   2.872   3.394
 5535SOL    HW217505   6.912   2.762   3.515
 5536SOL     OW17506   3.180   1.206   4.156
 5536SOL    HW117507   3.243   1.209   4.234
 5536SOL    HW217508   3.166   1.299   4.120
 5537SOL     OW17509   2.929   0.755   2.545
 5537SOL    HW117510   2.976   0.771   2.631
 5537SOL    HW217511   2.830   0.761   2.559
 5538SOL     OW17512   2.526   6.295   6.124
 5538SOL    HW117513   2.540   6.209   6.075
 5538SOL    HW217514   2.557   6.371   6.068
 5539SOL     OW17515   1.441   3.026   1.350
 5539SOL    HW117516   1.363   2.993   1.297
 5539SOL    HW217517   1.411   3.046   1.444
 5540SOL     OW17518   4.977   4.599   3.717
 5540SOL    HW117519   4.960   4.569   3.811
 5540SOL    HW217520   4.914   4.673   3.693
 5541SOL     OW17521   6.110   0.322   6.187
 5541SOL    HW117522   6.181   0.346   6.253
 5541SOL    HW217523   6.048   0.254   6.227
 5542SOL     OW17524   5.473   3.823   6.177
 5542SOL    HW117525   5.459   3.803   6.274
 5542SOL    HW217526   5.402   3.778   6.123
 5543SOL     OW17527   3.727   4.919   5.535
 5543SOL    HW117528   3.749   4.850   5.604
 5543SOL    HW217529   3.804   4.981   5.524
 5544SOL     OW17530   4.826   5.892   6.321
 5544SOL    HW117531   4.915   5.846   6.326
 5544SOL    HW217532   4.839   5.987   6.291
 5545SOL     OW17533   3.529   1.122   1.795
 5545SOL    HW117534   3.593   1.192   1.764
 5545SOL    HW217535   3.578   1.037   1.815
 5546SOL     OW17536   0.915   5.059   4.514
 5546SOL    HW117537   0.999   5.111   4.529
 5546SOL    HW217538   0.882   5.024   4.601
 5547SOL     OW17539   2.399   0.111   5.157
 5547SOL    HW117540   2.487   0.159   5.167
 5547SOL    HW217541   2.331   0.155   5.215
 5548SOL     OW17542   5.674   3.077   5.138
 5548SOL    HW117543   5.722   3.045   5.056
 5548SOL    HW217544   5.724   3.153   5.178
 5549SOL     OW17545   4.409   3.945   6.530
 5549SOL    HW117546   4.360   3.879   6.473
 5549SOL    HW217547   4.504   3.951   6.501
 5550SOL     OW17548   2.567   5.020   2.001
 5550SOL    HW117549   2.568   5.118   1.981
 5550SOL    HW217550   2.661   4.986   2.007
 5551SOL     OW17551   2.290   0.852   3.538
 5551SOL    HW117552   2.380   0.816   3.514
 5551SOL    HW217553   2.300   0.922   3.608
 5552SOL     OW17554   7.021   0.657   0.305
 5552SOL    HW117555   0.035   0.569   0.330
 5552SOL    HW217556   0.042   0.692   0.223
 5553SOL     OW17557   4.410   6.456   7.024
 5553SOL    HW117558   4.505   6.485   0.005
 5553SOL    HW217559   4.407   6.359   7.000
 5554SOL     OW17560   3.895   1.202   5.369
 5554SOL    HW117561   3.822   1.253   5.325
 5554SOL    HW217562   3.982   1.223   5.325
 5555SOL     OW17563   1.152   4.404   4.522
 5555SOL    HW117564   1.082   4.435   4.457
 5555SOL    HW217565   1.230   4.367   4.472
 5556SOL     OW17566   6.796   2.150   3.857
 5556SOL    HW117567   6.790   2.245   3.828
 5556SOL    HW217568   6.734   2.134   3.934
 5557SOL     OW17569   3.616   6.307   3.025
 5557SOL    HW117570   3.575   6.238   3.085
 5557SOL    HW217571   3.650   6.262   2.942
 5558SOL     OW17572   5.148   3.352   6.467
 5558SOL    HW117573   5.212   3.371   6.542
 5558SOL    HW217574   5.060   3.394   6.486
 5559SOL     OW17575   3.040   6.806   1.961
 5559SOL    HW117576   2.951   6.836   1.927
 5559SOL    HW217577   3.057   6.847   2.050
 5560SOL     OW17578   0.993   6.714   3.433
 5560SOL    HW117579   0.932   6.762   3.371
 5560SOL    HW217580   1.079   6.763   3.441
 5561SOL     OW17581   2.017   2.901   4.271
 5561SOL    HW117582   2.106   2.947   4.261
 5561SOL    HW217583   1.944   2.964   4.246
 5562SOL     OW17584   2.893   2.583   6.706
 5562SOL    HW117585   2.974   2.528   6.727
 5562SOL    HW217586   2.916   2.652   6.638
 5563SOL     OW17587   4.496   6.157   2.748
 5563SOL    HW117588   4.543   6.184   2.664
 5563SOL    HW217589   4.478   6.059   2.746
 5564SOL     OW17590   4.473   1.456   1.673
 5564SOL    HW117591   4.389   1.465   1.726
 5564SOL    HW217592   4.550   1.489   1.727
 5565SOL     OW17593   5.243   1.875   6.729
 5565SOL    HW117594   5.146   1.864   6.754
 5565SOL    HW217595   5.300   1.840   6.803
 5566SOL     OW17596   1.711   5.098   0.516
 5566SOL    HW117597   1.742   5.102   0.611
 5566SOL    HW217598   1.648   5.021   0.505
 5567SOL     OW17599   0.755   4.434   1.921
 5567SOL    HW117600   0.811   4.457   2.001
 5567SOL    HW217601   0.710   4.345   1.936
 5568SOL     OW17602   4.543   2.482   2.712
 5568SOL    HW117603   4.579   2.565   2.755
 5568SOL    HW217604   4.462   2.504   2.658
 5569SOL     OW17605   2.478   1.069   1.700
 5569SOL    HW117606   2.550   1.002   1.717
 5569SOL    HW217607   2.504   1.126   1.621
 5570SOL     OW17608   5.372   5.099   5.028
 5570SOL    HW117609   5.337   5.128   5.117
 5570SOL    HW217610   5.425   5.015   5.039
 5571SOL     OW17611   0.562   6.571   0.192
 5571SOL    HW117612   0.474   6.612   0.216
 5571SOL    HW217613   0.561   6.543   0.095
 5572SOL     OW17614   1.731   2.832   5.174
 5572SOL    HW117615   1.665   2.876   5.113
 5572SOL    HW217616   1.823   2.838   5.134
 5573SOL     OW17617   2.133   3.308   0.031
 5573SOL    HW117618   2.077   3.259   0.098
 5573SOL    HW217619   2.194   3.371   0.078
 5574SOL     OW17620   6.202   1.571   3.956
 5574SOL    HW117621   6.170   1.604   3.867
 5574SOL    HW217622   6.225   1.474   3.950
 5575SOL     OW17623   0.750   1.399   1.961
 5575SOL    HW117624   0.787   1.491   1.967
 5575SOL    HW217625   0.810   1.342   1.905
 5576SOL     OW17626   0.233   6.363   1.778
 5576SOL    HW117627   0.258   6.309   1.858
 5576SOL    HW217628   0.159   6.317   1.728
 5577SOL     OW17629   2.924   2.429   6.190
 5577SOL    HW117630   2.856   2.496   6.159
 5577SOL    HW217631   2.889   2.381   6.270
 5578SOL     OW17632   4.522   3.851   0.700
 5578SOL    HW117633   4.473   3.768   0.728
 5578SOL    HW217634   4.555   3.840   0.607
 5579SOL     OW17635   6.410   3.935   6.546
 5579SOL    HW117636   6.484   3.971   6.603
 5579SOL    HW217637   6.447   3.901   6.460
 5580SOL     OW17638   4.829   1.999   6.175
 5580SOL    HW117639   4.823   1.971   6.079
 5580SOL    HW217640   4.738   2.001   6.215
 5581SOL     OW17641   1.974   6.961   1.098
 5581SOL    HW117642   2.055   7.018   1.092
 5581SOL    HW217643   1.963   6.928   1.192
 5582SOL     OW17644   3.771   3.227   3.326
 5582SOL    HW117645   3.817   3.141   3.303
 5582SOL    HW217646   3.767   3.238   3.425
 5583SOL     OW17647   4.197   6.806   2.577
 5583SOL    HW117648   4.144   6.721   2.568
 5583SOL    HW217649   4.135   6.884   2.576
 5584SOL     OW17650   5.857   3.856   4.855
 5584SOL    HW117651   5.875   3.953   4.837
 5584SOL    HW217652   5.798   3.848   4.935
 5585SOL     OW17653   4.610   0.369   3.790
 5585SOL    HW117654   4.598   0.270   3.791
 5585SOL    HW217655   4.639   0.400   3.880
 5586SOL     OW17656   1.236   2.183   6.499
 5586SOL    HW117657   1.262   2.156   6.591
 5586SOL    HW217658   1.215   2.281   6.497
 5587SOL     OW17659   4.664   6.320   2.287
 5587SOL    HW117660   4.681   6.394   2.222
 5587SOL    HW217661   4.641   6.237   2.237
 5588SOL     OW17662   1.400   6.888   3.882
 5588SOL    HW117663   1.499   6.873   3.885
 5588SOL    HW217664   1.378   6.947   3.805
 5589SOL     OW17665   5.756   3.024   6.610
 5589SOL    HW117666   5.743   2.953   6.679
 5589SOL    HW217667   5.669   3.071   6.593
 5590SOL     OW17668   0.213   5.522   3.060
 5590SOL    HW117669   0.291   5.489   3.112
 5590SOL    HW217670   0.240   5.542   2.966
 5591SOL     OW17671   5.657   0.944   6.606
 5591SOL    HW117672   5.638   0.982   6.697
 5591SOL    HW217673   5.619   0.852   6.601
 5592SOL     OW17674   2.177   4.522   2.818
 5592SOL    HW117675   2.121   4.571   2.750
 5592SOL    HW217676   2.237   4.586   2.864
 5593SOL     OW17677   6.593   2.259   5.914
 5593SOL    HW117678   6.664   2.243   5.982
 5593SOL    HW217679   6.506   2.223   5.947
 5594SOL     OW17680   2.723   1.443   6.830
 5594SOL    HW117681   2.638   1.445   6.778
 5594SOL    HW217682   2.711   1.493   6.915
 5595SOL     OW17683   6.394   1.225   5.093
 5595SOL    HW117684   6.492   1.240   5.109
 5595SOL    HW217685   6.376   1.127   5.091
 5596SOL     OW17686   5.032   0.181   2.120
 5596SOL    HW117687   5.001   0.267   2.080
 5596SOL    HW217688   5.047   0.194   2.218
 5597SOL     OW17689   5.457   2.094   4.964
 5597SOL    HW117690   5.490   2.101   4.870
 5597SOL    HW217691   5.416   2.004   4.979
 5598SOL     OW17692   5.002   2.576   3.644
 5598SOL    HW117693   4.926   2.519   3.676
 5598SOL    HW217694   5.027   2.550   3.551
 5599SOL     OW17695   6.492   3.542   2.026
 5599SOL    HW117696   6.538   3.618   2.072
 5599SOL    HW217697   6.493   3.557   1.927
 5600SOL     OW17698   1.682   6.981   2.602
 5600SOL    HW117699   1.633   0.043   2.606
 5600SOL    HW217700   1.676   6.944   2.509
 5601SOL     OW17701   4.559   2.123   6.180
 5601SOL    HW117702   4.474   2.103   6.228
 5601SOL    HW217703   4.600   2.206   6.218
 5602SOL     OW17704   0.199   0.958   2.883
 5602SOL    HW117705   0.231   0.945   2.789
 5602SOL    HW217706   0.118   0.902   2.899
 5603SOL     OW17707   5.163   2.380   5.186
 5603SOL    HW117708   5.066   2.398   5.194
 5603SOL    HW217709   5.204   2.444   5.121
 5604SOL     OW17710   0.678   2.283   4.808
 5604SOL    HW117711   0.714   2.285   4.715
 5604SOL    HW217712   0.601   2.219   4.813
 5605SOL     OW17713   1.597   6.961   5.069
 5605SOL    HW117714   1.627   6.870   5.100
 5605SOL    HW217715   1.655   0.005   5.110
 5606SOL     OW17716   4.295   0.740   0.603
 5606SOL    HW117717   4.266   0.669   0.538
 5606SOL    HW217718   4.383   0.778   0.574
 5607SOL     OW17719   5.195   2.237   3.815
 5607SOL    HW117720   5.150   2.172   3.754
 5607SOL    HW217721   5.287   2.203   3.837
 5608SOL     OW17722   5.831   1.428   3.386
 5608SOL    HW117723   5.855   1.430   3.483
 5608SOL    HW217724   5.732   1.442   3.376
 5609SOL     OW17725   5.010   5.606   0.142
 5609SOL    HW117726   5.069   5.567   0.212
 5609SOL    HW217727   5.061   5.612   0.056
 5610SOL     OW17728   6.200   4.020   1.327
 5610SOL    HW117729   6.228   4.107   1.288
 5610SOL    HW217730   6.101   4.022   1.345
 5611SOL     OW17731   0.775   5.391   2.058
 5611SOL    HW117732   0.679   5.391   2.029
 5611SOL    HW217733   0.787   5.457   2.132
 5612SOL     OW17734   3.426   2.788   0.487
 5612SOL    HW117735   3.418   2.726   0.564
 5612SOL    HW217736   3.501   2.759   0.428
 5613SOL     OW17737   6.729   4.745   5.317
 5613SOL    HW117738   6.654   4.728   5.381
 5613SOL    HW217739   6.737   4.668   5.254
 5614SOL     OW17740   5.854   2.903   4.620
 5614SOL    HW117741   5.851   2.867   4.527
 5614SOL    HW217742   5.940   2.950   4.635
 5615SOL     OW17743   0.261   1.436   3.431
 5615SOL    HW117744   0.258   1.465   3.336
 5615SOL    HW217745   0.352   1.456   3.469
 5616SOL     OW17746   2.365   2.759   4.860
 5616SOL    HW117747   2.432   2.702   4.908
 5616SOL    HW217748   2.362   2.849   4.903
 5617SOL     OW17749   1.882   3.866   4.867
 5617SOL    HW117750   1.958   3.852   4.931
 5617SOL    HW217751   1.902   3.818   4.781
 5618SOL     OW17752   6.923   4.722   3.325
 5618SOL    HW117753   6.955   4.666   3.248
 5618SOL    HW217754   6.915   4.817   3.295
 5619SOL     OW17755   3.612   3.452   3.222
 5619SOL    HW117756   3.656   3.371   3.260
 5619SOL    HW217757   3.682   3.520   3.199
 5620SOL     OW17758   4.859   3.811   6.356
 5620SOL    HW117759   4.953   3.778   6.346
 5620SOL    HW217760   4.797   3.746   6.312
 5621SOL     OW17761   1.153   2.961   6.236
 5621SOL    HW117762   1.130   2.864   6.236
 5621SOL    HW217763   1.093   3.009   6.300
 5622SOL     OW17764   5.040   6.813   5.673
 5622SOL    HW117765   4.994   6.901   5.670
 5622SOL    HW217766   5.065   6.791   5.768
 5623SOL     OW17767   4.660   6.313   5.396
 5623SOL    HW117768   4.647   6.229   5.343
 5623SOL    HW217769   4.632   6.297   5.491
 5624SOL     OW17770   0.654   5.146   3.811
 5624SOL    HW117771   0.677   5.049   3.804
 5624SOL    HW217772   0.732   5.196   3.847
 5625SOL     OW17773   0.329   4.925   5.360
 5625SOL    HW117774   0.322   4.838   5.410
 5625SOL    HW217775   0.238   4.953   5.330
 5626SOL     OW17776   2.685   5.851   4.294
 5626SOL    HW117777   2.724   5.806   4.215
 5626SOL    HW217778   2.586   5.862   4.281
 5627SOL     OW17779   0.152   5.586   6.058
 5627SOL    HW117780   0.086   5.513   6.077
 5627SOL    HW217781   0.155   5.603   5.959
 5628SOL     OW17782   2.571   2.546   1.387
 5628SOL    HW117783   2.642   2.580   1.450
 5628SOL    HW217784   2.497   2.505   1.440
 5629SOL     OW17785   4.628   2.633   1.532
 5629SOL    HW117786   4.610   2.642   1.630
 5629SOL    HW217787   4.606   2.719   1.486
 5630SOL     OW17788   1.807   3.750   6.383
 5630SOL    HW117789   1.897   3.722   6.417
 5630SOL    HW217790   1.777   3.686   6.312
 5631SOL     OW17791   5.571   1.516   0.933
 5631SOL    HW117792   5.531   1.606   0.951
 5631SOL    HW217793   5.499   1.454   0.900
 5632SOL     OW17794   5.306   2.114   5.316
 5632SOL    HW117795   5.236   2.044   5.305
 5632SOL    HW217796   5.281   2.195   5.263
 5633SOL     OW17797   6.596   5.245   4.609
 5633SOL    HW117798   6.610   5.267   4.513
 5633SOL    HW217799   6.499   5.257   4.632
 5634SOL     OW17800   2.200   4.820   3.864
 5634SOL    HW117801   2.294   4.824   3.898
 5634SOL    HW217802   2.151   4.744   3.909
 5635SOL     OW17803   2.433   6.160   6.861
 5635SOL    HW117804   2.497   6.084   6.870
 5635SOL    HW217805   2.400   6.187   6.952
 5636SOL     OW17806   6.216   0.844   5.352
 5636SOL    HW117807   6.259   0.766   5.307
 5636SOL    HW217808   6.213   0.829   5.450
 5637SOL     OW17809   4.345   6.966   3.539
 5637SOL    HW117810   4.403   6.907   3.595
 5637SOL    HW217811   4.250   6.956   3.568
 5638SOL     OW17812   6.401   5.267   0.818
 5638SOL    HW117813   6.359   5.343   0.768
 5638SOL    HW217814   6.481   5.301   0.868
 5639SOL     OW17815   2.144   0.581   1.532
 5639SOL    HW117816   2.179   0.632   1.611
 5639SOL    HW217817   2.197   0.497   1.521
 5640SOL     OW17818   3.086   6.915   2.210
 5640SOL    HW117819   3.132   7.003   2.217
 5640SOL    HW217820   3.014   6.910   2.280
 5641SOL     OW17821   6.956   4.814   6.009
 5641SOL    HW117822   6.957   4.732   6.066
 5641SOL    HW217823   6.938   4.788   5.914
 5642SOL     OW17824   1.230   5.247   5.282
 5642SOL    HW117825   1.185   5.195   5.354
 5642SOL    HW217826   1.165   5.311   5.241
 5643SOL     OW17827   3.979   0.875   4.484
 5643SOL    HW117828   4.019   0.944   4.423
 5643SOL    HW217829   4.026   0.788   4.473
 5644SOL     OW17830   4.056   0.370   3.728
 5644SOL    HW117831   4.071   0.410   3.638
 5644SOL    HW217832   4.013   0.280   3.718
 5645SOL     OW17833   6.136   4.207   3.003
 5645SOL    HW117834   6.141   4.108   3.008
 5645SOL    HW217835   6.225   4.247   3.023
 5646SOL     OW17836   2.256   5.781   3.503
 5646SOL    HW117837   2.282   5.687   3.524
 5646SOL    HW217838   2.157   5.792   3.513
 5647SOL     OW17839   6.348   6.413   0.401
 5647SOL    HW117840   6.381   6.474   0.329
 5647SOL    HW217841   6.369   6.453   0.490
 5648SOL     OW17842   1.871   1.220   2.703
 5648SOL    HW117843   1.941   1.152   2.725
 5648SOL    HW217844   1.914   1.297   2.655
 5649SOL     OW17845   0.414   6.783   5.578
 5649SOL    HW117846   0.419   6.697   5.628
 5649SOL    HW217847   0.437   6.767   5.482
 5650SOL     OW17848   0.542   5.871   0.919
 5650SOL    HW117849   0.527   5.965   0.950
 5650SOL    HW217850   0.603   5.871   0.840
 5651SOL     OW17851   0.571   1.286   1.650
 5651SOL    HW117852   0.628   1.216   1.693
 5651SOL    HW217853   0.486   1.244   1.617
 5652SOL     OW17854   5.761   6.519   2.573
 5652SOL    HW117855   5.699   6.521   2.494
 5652SOL    HW217856   5.847   6.476   2.546
 5653SOL     OW17857   0.280   5.986   6.495
 5653SOL    HW117858   0.348   6.054   6.467
 5653SOL    HW217859   0.192   6.007   6.452
 5654SOL     OW17860   6.689   6.767   5.482
 5654SOL    HW117861   6.739   6.852   5.499
 5654SOL    HW217862   6.622   6.752   5.555
 5655SOL     OW17863   0.920   3.441   4.766
 5655SOL    HW117864   0.994   3.450   4.699
 5655SOL    HW217865   0.839   3.403   4.722
 5656SOL     OW17866   1.425   3.151   0.306
 5656SOL    HW117867   1.390   3.167   0.214
 5656SOL    HW217868   1.511   3.201   0.318
 5657SOL     OW17869   5.524   0.743   0.875
 5657SOL    HW117870   5.450   0.761   0.810
 5657SOL    HW217871   5.485   0.728   0.966
 5658SOL     OW17872   3.324   5.581   5.905
 5658SOL    HW117873   3.321   5.484   5.931
 5658SOL    HW217874   3.407   5.598   5.851
 5659SOL     OW17875   3.894   3.835   3.486
 5659SOL    HW117876   3.976   3.862   3.536
 5659SOL    HW217877   3.816   3.890   3.515
 5660SOL     OW17878   5.825   0.235   5.728
 5660SOL    HW117879   5.867   0.289   5.801
 5660SOL    HW217880   5.725   0.233   5.742
 5661SOL     OW17881   0.222   4.041   5.483
 5661SOL    HW117882   0.187   4.134   5.474
 5661SOL    HW217883   0.314   4.035   5.443
 5662SOL     OW17884   2.776   5.603   3.109
 5662SOL    HW117885   2.874   5.580   3.111
 5662SOL    HW217886   2.722   5.520   3.101
 5663SOL     OW17887   2.105   3.223   6.796
 5663SOL    HW117888   2.151   3.246   6.882
 5663SOL    HW217889   2.126   3.129   6.771
 5664SOL     OW17890   6.806   4.296   4.682
 5664SOL    HW117891   6.835   4.317   4.589
 5664SOL    HW217892   6.875   4.239   4.726
 5665SOL     OW17893   1.539   1.996   6.883
 5665SOL    HW117894   1.495   2.046   6.808
 5665SOL    HW217895   1.562   2.060   6.956
 5666SOL     OW17896   6.043   5.862   1.126
 5666SOL    HW117897   6.031   5.801   1.047
 5666SOL    HW217898   6.097   5.941   1.098
 5667SOL     OW17899   1.307   4.417   3.597
 5667SOL    HW117900   1.334   4.494   3.655
 5667SOL    HW217901   1.233   4.367   3.640
 5668SOL     OW17902   4.894   1.853   4.945
 5668SOL    HW117903   4.944   1.797   5.011
 5668SOL    HW217904   4.885   1.946   4.980
 5669SOL     OW17905   0.665   2.847   6.884
 5669SOL    HW117906   0.595   2.900   6.931
 5669SOL    HW217907   0.728   2.909   6.836
 5670SOL     OW17908   0.075   2.572   3.826
 5670SOL    HW117909   0.081   2.664   3.787
 5670SOL    HW217910   0.127   2.508   3.769
 5671SOL     OW17911   0.530   6.456   6.206
 5671SOL    HW117912   0.435   6.467   6.178
 5671SOL    HW217913   0.543   6.364   6.244
 5672SOL     OW17914   4.308   4.658   6.608
 5672SOL    HW117915   4.237   4.724   6.583
 5672SOL    HW217916   4.302   4.638   6.706
 5673SOL     OW17917   0.812   6.273   1.615
 5673SOL    HW117918   0.797   6.206   1.542
 5673SOL    HW217919   0.848   6.227   1.696
 5674SOL     OW17920   6.703   4.403   4.029
 5674SOL    HW117921   6.621   4.432   3.979
 5674SOL    HW217922   6.698   4.434   4.123
 5675SOL     OW17923   4.859   2.496   5.757
 5675SOL    HW117924   4.834   2.532   5.847
 5675SOL    HW217925   4.951   2.457   5.761
 5676SOL     OW17926   1.959   2.411   2.216
 5676SOL    HW117927   2.035   2.408   2.281
 5676SOL    HW217928   1.938   2.506   2.193
 5677SOL     OW17929   0.942   2.179   3.183
 5677SOL    HW117930   0.920   2.104   3.120
 5677SOL    HW217931   0.867   2.192   3.248
 5678SOL     OW17932   3.245   6.577   2.536
 5678SOL    HW117933   3.290   6.629   2.609
 5678SOL    HW217934   3.163   6.532   2.572
 5679SOL     OW17935   1.370   0.785   3.664
 5679SOL    HW117936   1.361   0.883   3.679
 5679SOL    HW217937   1.295   0.753   3.606
 5680SOL     OW17938   1.398   5.515   0.727
 5680SOL    HW117939   1.321   5.555   0.777
 5680SOL    HW217940   1.464   5.586   0.704
 5681SOL     OW17941   0.407   3.621   0.176
 5681SOL    HW117942   0.466   3.686   0.127
 5681SOL    HW217943   0.403   3.535   0.126
 5682SOL     OW17944   2.226   4.649   5.842
 5682SOL    HW117945   2.249   4.579   5.775
 5682SOL    HW217946   2.271   4.628   5.929
 5683SOL     OW17947   3.155   1.044   0.290
 5683SOL    HW117948   3.087   1.044   0.363
 5683SOL    HW217949   3.208   1.128   0.294
 5684SOL     OW17950   3.468   2.947   4.910
 5684SOL    HW117951   3.398   2.950   4.981
 5684SOL    HW217952   3.558   2.944   4.952
 5685SOL     OW17953   1.859   3.186   2.419
 5685SOL    HW117954   1.891   3.112   2.359
 5685SOL    HW217955   1.796   3.245   2.368
 5686SOL     OW17956   2.803   6.831   6.521
 5686SOL    HW117957   2.800   6.897   6.446
 5686SOL    HW217958   2.724   6.769   6.514
 5687SOL     OW17959   0.862   4.196   5.784
 5687SOL    HW117960   0.856   4.294   5.803
 5687SOL    HW217961   0.931   4.181   5.713
 5688SOL     OW17962   6.810   1.865   0.149
 5688SOL    HW117963   6.897   1.904   0.179
 5688SOL    HW217964   6.827   1.786   0.091
 5689SOL     OW17965   4.210   0.545   0.406
 5689SOL    HW117966   4.191   0.618   0.340
 5689SOL    HW217967   4.277   0.482   0.368
 5690SOL     OW17968   2.216   5.785   0.524
 5690SOL    HW117969   2.224   5.810   0.427
 5690SOL    HW217970   2.285   5.835   0.577
 5691SOL     OW17971   2.861   6.213   1.697
 5691SOL    HW117972   2.773   6.224   1.743
 5691SOL    HW217973   2.852   6.241   1.601
 5692SOL     OW17974   6.907   3.427   6.252
 5692SOL    HW117975   6.839   3.431   6.179
 5692SOL    HW217976   6.863   3.440   6.341
 5693SOL     OW17977   5.785   2.624   2.414
 5693SOL    HW117978   5.781   2.607   2.316
 5693SOL    HW217979   5.846   2.558   2.458
 5694SOL     OW17980   1.168   2.059   3.968
 5694SOL    HW117981   1.246   2.001   3.988
 5694SOL    HW217982   1.196   2.155   3.969
 5695SOL     OW17983   1.334   2.569   3.611
 5695SOL    HW117984   1.364   2.478   3.639
 5695SOL    HW217985   1.316   2.624   3.692
 5696SOL     OW17986   1.698   0.559   3.439
 5696SOL    HW117987   1.629   0.541   3.369
 5696SOL    HW217988   1.767   0.620   3.401
 5697SOL     OW17989   6.057   2.612   1.386
 5697SOL    HW117990   6.124   2.666   1.334
 5697SOL    HW217991   6.075   2.622   1.484
 5698SOL     OW17992   0.671   3.253   2.688
 5698SOL    HW117993   0.635   3.213   2.772
 5698SOL    HW217994   0.767   3.280   2.703
 5699SOL     OW17995   6.344   2.183   2.726
 5699SOL    HW117996   6.246   2.189   2.743
 5699SOL    HW217997   6.382   2.275   2.717
 5700SOL     OW17998   6.834   6.444   3.911
 5700SOL    HW117999   6.907   6.513   3.908
 5700SOL    HW218000   6.767   6.471   3.980
 5701SOL     OW18001   1.202   6.525   3.253
 5701SOL    HW118002   1.264   6.538   3.331
 5701SOL    HW218003   1.191   6.427   3.235
 5702SOL     OW18004   2.015   6.908   5.934
 5702SOL    HW118005   2.024   6.823   5.883
 5702SOL    HW218006   2.085   6.913   6.005
 5703SOL     OW18007   5.565   4.920   1.422
 5703SOL    HW118008   5.501   4.952   1.491
 5703SOL    HW218009   5.656   4.959   1.440
 5704SOL     OW18010   4.267   5.882   1.845
 5704SOL    HW118011   4.349   5.877   1.787
 5704SOL    HW218012   4.195   5.823   1.807
 5705SOL     OW18013   4.767   0.769   1.317
 5705SOL    HW118014   4.731   0.847   1.368
 5705SOL    HW218015   4.810   0.705   1.381
 5706SOL     OW18016   0.559   2.495   0.208
 5706SOL    HW118017   0.644   2.509   0.157
 5706SOL    HW218018   0.496   2.570   0.189
 5707SOL     OW18019   0.002   7.017   0.363
 5707SOL    HW118020   0.094   6.983   0.380
 5707SOL    HW218021   6.979   0.001   0.450
 5708SOL     OW18022   5.317   6.272   1.293
 5708SOL    HW118023   5.391   6.333   1.267
 5708SOL    HW218024   5.301   6.279   1.391
 5709SOL     OW18025   1.794   0.196   3.738
 5709SOL    HW118026   1.804   0.216   3.641
 5709SOL    HW218027   1.696   0.185   3.760
 5710SOL     OW18028   2.352   3.063   6.447
 5710SOL    HW118029   2.409   3.116   6.384
 5710SOL    HW218030   2.299   2.996   6.395
 5711SOL     OW18031   4.785   1.270   2.719
 5711SOL    HW118032   4.715   1.220   2.668
 5711SOL    HW218033   4.850   1.311   2.655
 5712SOL     OW18034   0.975   5.436   5.652
 5712SOL    HW118035   0.932   5.347   5.639
 5712SOL    HW218036   1.073   5.425   5.663
 5713SOL     OW18037   1.793   2.279   1.702
 5713SOL    HW118038   1.783   2.183   1.727
 5713SOL    HW218039   1.870   2.318   1.752
 5714SOL     OW18040   0.551   6.045   6.066
 5714SOL    HW118041   0.639   6.034   6.021
 5714SOL    HW218042   0.560   6.110   6.142
 5715SOL     OW18043   1.314   6.779   3.173
 5715SOL    HW118044   1.281   6.691   3.205
 5715SOL    HW218045   1.404   6.768   3.131
 5716SOL     OW18046   1.525   4.753   0.165
 5716SOL    HW118047   1.428   4.734   0.156
 5716SOL    HW218048   1.572   4.734   0.079
 5717SOL     OW18049   1.846   5.833   0.689
 5717SOL    HW118050   1.883   5.741   0.685
 5717SOL    HW218051   1.762   5.833   0.744
 5718SOL     OW18052   1.351   3.714   6.021
 5718SOL    HW118053   1.330   3.622   6.053
 5718SOL    HW218054   1.344   3.716   5.921
 5719SOL     OW18055   2.575   1.334   6.327
 5719SOL    HW118056   2.586   1.272   6.250
 5719SOL    HW218057   2.593   1.428   6.297
 5720SOL     OW18058   1.103   5.243   4.606
 5720SOL    HW118059   1.120   5.213   4.700
 5720SOL    HW218060   1.170   5.312   4.581
 5721SOL     OW18061   0.483   3.466   1.014
 5721SOL    HW118062   0.580   3.475   0.994
 5721SOL    HW218063   0.444   3.556   1.035
 5722SOL     OW18064   6.294   1.980   5.042
 5722SOL    HW118065   6.354   1.968   4.963
 5722SOL    HW218066   6.198   1.983   5.011
 5723SOL     OW18067   4.461   3.300   6.670
 5723SOL    HW118068   4.367   3.330   6.653
 5723SOL    HW218069   4.502   3.357   6.741
 5724SOL     OW18070   4.190   2.777   5.381
 5724SOL    HW118071   4.105   2.772   5.433
 5724SOL    HW218072   4.189   2.708   5.309
 5725SOL     OW18073   6.163   6.015   4.056
 5725SOL    HW118074   6.089   6.082   4.067
 5725SOL    HW218075   6.170   5.960   4.139
 5726SOL     OW18076   6.846   4.155   4.299
 5726SOL    HW118077   6.878   4.126   4.209
 5726SOL    HW218078   6.749   4.130   4.309
 5727SOL     OW18079   0.965   2.842   4.075
 5727SOL    HW118080   0.870   2.810   4.071
 5727SOL    HW218081   0.983   2.881   4.165
 5728SOL     OW18082   4.663   1.382   6.859
 5728SOL    HW118083   4.634   1.300   6.909
 5728SOL    HW218084   4.700   1.448   6.924
 5729SOL     OW18085   1.056   1.540   0.502
 5729SOL    HW118086   1.036   1.636   0.520
 5729SOL    HW218087   1.135   1.533   0.441
 5730SOL     OW18088   4.334   5.437   5.597
 5730SOL    HW118089   4.234   5.443   5.600
 5730SOL    HW218090   4.368   5.490   5.519
 5731SOL     OW18091   2.097   6.593   4.085
 5731SOL    HW118092   2.083   6.512   4.028
 5731SOL    HW218093   2.026   6.597   4.155
 5732SOL     OW18094   6.753   5.336   5.307
 5732SOL    HW118095   6.780   5.328   5.211
 5732SOL    HW218096   6.655   5.319   5.316
 5733SOL     OW18097   3.554   0.423   5.625
 5733SOL    HW118098   3.514   0.449   5.537
 5733SOL    HW218099   3.556   0.502   5.686
 5734SOL     OW18100   1.596   5.870   5.911
 5734SOL    HW118101   1.562   5.800   5.974
 5734SOL    HW218102   1.535   5.949   5.913
 5735SOL     OW18103   3.781   1.374   2.494
 5735SOL    HW118104   3.777   1.384   2.395
 5735SOL    HW218105   3.700   1.325   2.527
 5736SOL     OW18106   6.878   4.557   1.299
 5736SOL    HW118107   6.904   4.594   1.209
 5736SOL    HW218108   6.782   4.529   1.297
 5737SOL     OW18109   4.850   5.450   6.914
 5737SOL    HW118110   4.845   5.443   6.815
 5737SOL    HW218111   4.760   5.475   6.950
 5738SOL     OW18112   3.112   2.306   6.547
 5738SOL    HW118113   3.105   2.391   6.495
 5738SOL    HW218114   3.207   2.277   6.551
 5739SOL     OW18115   1.174   6.898   5.444
 5739SOL    HW118116   1.088   6.846   5.442
 5739SOL    HW218117   1.250   6.835   5.457
 5740SOL     OW18118   3.922   3.582   0.988
 5740SOL    HW118119   3.991   3.515   0.959
 5740SOL    HW218120   3.861   3.541   1.055
 5741SOL     OW18121   6.382   3.760   4.669
 5741SOL    HW118122   6.346   3.669   4.683
 5741SOL    HW218123   6.320   3.828   4.708
 5742SOL     OW18124   4.508   6.639   2.274
 5742SOL    HW118125   4.490   6.606   2.366
 5742SOL    HW218126   4.490   6.738   2.269
 5743SOL     OW18127   2.317   5.572   5.655
 5743SOL    HW118128   2.317   5.667   5.685
 5743SOL    HW218129   2.381   5.519   5.712
 5744SOL     OW18130   4.730   1.422   0.872
 5744SOL    HW118131   4.742   1.511   0.916
 5744SOL    HW218132   4.820   1.381   0.855
 5745SOL     OW18133   2.424   1.532   3.741
 5745SOL    HW118134   2.493   1.488   3.683
 5745SOL    HW218135   2.468   1.606   3.793
 5746SOL     OW18136   5.130   6.828   2.020
 5746SOL    HW118137   5.071   6.824   1.939
 5746SOL    HW218138   5.123   6.919   2.061
 5747SOL     OW18139   1.088   4.862   2.231
 5747SOL    HW118140   1.186   4.879   2.223
 5747SOL    HW218141   1.042   4.888   2.147
 5748SOL     OW18142   0.918   0.414   0.753
 5748SOL    HW118143   0.885   0.348   0.820
 5748SOL    HW218144   0.840   0.451   0.701
 5749SOL     OW18145   1.342   6.364   4.533
 5749SOL    HW118146   1.414   6.298   4.511
 5749SOL    HW218147   1.256   6.315   4.548
 5750SOL     OW18148   6.513   6.527   4.982
 5750SOL    HW118149   6.529   6.597   5.051
 5750SOL    HW218150   6.592   6.523   4.920
 5751SOL     OW18151   2.197   3.128   4.864
 5751SOL    HW118152   2.264   3.083   4.922
 5751SOL    HW218153   2.159   3.061   4.800
 5752SOL     OW18154   6.149   0.069   0.469
 5752SOL    HW118155   6.213   0.121   0.526
 5752SOL    HW218156   6.055   0.099   0.489
 5753SOL     OW18157   4.004   3.747   4.185
 5753SOL    HW118158   3.998   3.833   4.133
 5753SOL    HW218159   4.028   3.767   4.280
 5754SOL     OW18160   0.242   5.621   1.822
 5754SOL    HW118161   0.292   5.651   1.904
 5754SOL    HW218162   0.186   5.696   1.789
 5755SOL     OW18163   2.343   2.175   6.666
 5755SOL    HW118164   2.348   2.208   6.760
 5755SOL    HW218165   2.319   2.078   6.666
 5756SOL     OW18166   6.519   0.410   3.586
 5756SOL    HW118167   6.458   0.476   3.541
 5756SOL    HW218168   6.465   0.351   3.646
 5757SOL     OW18169   0.309   5.836   3.236
 5757SOL    HW118170   0.344   5.925   3.207
 5757SOL    HW218171   0.209   5.839   3.235
 5758SOL     OW18172   2.432   1.184   4.481
 5758SOL    HW118173   2.412   1.274   4.443
 5758SOL    HW218174   2.369   1.117   4.444
 5759SOL     OW18175   4.931   1.140   6.799
 5759SOL    HW118176   5.005   1.073   6.805
 5759SOL    HW218177   4.843   1.094   6.817
 5760SOL     OW18178   6.831   3.073   0.733
 5760SOL    HW118179   6.735   3.099   0.726
 5760SOL    HW218180   6.844   2.984   0.689
 5761SOL     OW18181   5.926   5.343   6.160
 5761SOL    HW118182   5.931   5.393   6.246
 5761SOL    HW218183   5.977   5.393   6.090
 5762SOL     OW18184   5.143   4.302   0.732
 5762SOL    HW118185   5.106   4.348   0.652
 5762SOL    HW218186   5.124   4.204   0.726
 5763SOL     OW18187   6.463   6.208   0.651
 5763SOL    HW118188   6.527   6.276   0.619
 5763SOL    HW218189   6.435   6.229   0.745
 5764SOL     OW18190   5.247   4.984   5.511
 5764SOL    HW118191   5.166   4.953   5.461
 5764SOL    HW218192   5.218   5.026   5.597
 5765SOL     OW18193   6.472   2.623   0.798
 5765SOL    HW118194   6.561   2.667   0.807
 5765SOL    HW218195   6.440   2.631   0.704
 5766SOL     OW18196   1.988   1.565   6.364
 5766SOL    HW118197   1.958   1.660   6.366
 5766SOL    HW218198   2.045   1.550   6.283
 5767SOL     OW18199   1.652   0.732   0.290
 5767SOL    HW118200   1.646   0.829   0.313
 5767SOL    HW218201   1.748   0.704   0.291
 5768SOL     OW18202   1.295   5.878   3.958
 5768SOL    HW118203   1.222   5.932   3.915
 5768SOL    HW218204   1.367   5.940   3.990
 5769SOL     OW18205   2.682   5.854   4.592
 5769SOL    HW118206   2.767   5.801   4.580
 5769SOL    HW218207   2.643   5.874   4.502
 5770SOL     OW18208   6.318   5.690   0.282
 5770SOL    HW118209   6.299   5.770   0.339
 5770SOL    HW218210   6.336   5.719   0.188
 5771SOL     OW18211   1.458   0.198   4.324
 5771SOL    HW118212   1.370   0.232   4.357
 5771SOL    HW218213   1.446   0.154   4.235
 5772SOL     OW18214   5.382   1.752   1.655
 5772SOL    HW118215   5.354   1.752   1.559
 5772SOL    HW218216   5.351   1.837   1.699
 5773SOL     OW18217   4.077   0.476   2.944
 5773SOL    HW118218   4.013   0.539   2.901
 5773SOL    HW218219   4.036   0.438   3.027
 5774SOL     OW18220   2.538   6.275   3.863
 5774SOL    HW118221   2.568   6.225   3.782
 5774SOL    HW218222   2.553   6.373   3.849
 5775SOL     OW18223   1.888   0.497   2.230
 5775SOL    HW118224   1.802   0.483   2.279
 5775SOL    HW218225   1.964   0.493   2.295
 5776SOL     OW18226   0.069   0.724   4.530
 5776SOL    HW118227   0.070   0.823   4.544
 5776SOL    HW218228   0.048   0.704   4.434
 5777SOL     OW18229   6.585   0.541   4.878
 5777SOL    HW118230   6.559   0.620   4.822
 5777SOL    HW218231   6.504   0.506   4.925
 5778SOL     OW18232   1.547   0.914   1.232
 5778SOL    HW118233   1.480   0.856   1.280
 5778SOL    HW218234   1.638   0.896   1.269
 5779SOL     OW18235   4.506   3.314   1.036
 5779SOL    HW118236   4.491   3.233   0.980
 5779SOL    HW218237   4.443   3.387   1.009
 5780SOL     OW18238   5.857   5.998   3.674
 5780SOL    HW118239   5.810   6.065   3.733
 5780SOL    HW218240   5.956   6.010   3.683
 5781SOL     OW18241   6.664   4.520   4.294
 5781SOL    HW118242   6.576   4.493   4.334
 5781SOL    HW218243   6.658   4.615   4.263
 5782SOL     OW18244   1.202   1.449   0.177
 5782SOL    HW118245   1.156   1.492   0.100
 5782SOL    HW218246   1.260   1.515   0.224
 5783SOL     OW18247   2.370   0.219   1.705
 5783SOL    HW118248   2.426   0.290   1.748
 5783SOL    HW218249   2.338   0.252   1.616
 5784SOL     OW18250   6.786   5.800   6.903
 5784SOL    HW118251   6.802   5.895   6.875
 5784SOL    HW218252   6.760   5.798   6.999
 5785SOL     OW18253   2.167   1.703   0.676
 5785SOL    HW118254   2.190   1.773   0.744
 5785SOL    HW218255   2.206   1.728   0.588
 5786SOL     OW18256   0.777   3.646   0.518
 5786SOL    HW118257   0.801   3.581   0.590
 5786SOL    HW218258   0.748   3.595   0.436
 5787SOL     OW18259   4.128   1.527   5.344
 5787SOL    HW118260   4.138   1.455   5.276
 5787SOL    HW218261   4.210   1.585   5.343
 5788SOL     OW18262   3.034   1.813   1.540
 5788SOL    HW118263   2.982   1.732   1.515
 5788SOL    HW218264   3.048   1.870   1.459
 5789SOL     OW18265   2.598   4.293   0.178
 5789SOL    HW118266   2.600   4.229   0.255
 5789SOL    HW218267   2.508   4.335   0.172
 5790SOL     OW18268   0.358   4.493   5.061
 5790SOL    HW118269   0.376   4.432   5.138
 5790SOL    HW218270   0.280   4.458   5.008
 5791SOL     OW18271   2.982   1.377   2.496
 5791SOL    HW118272   2.915   1.382   2.570
 5791SOL    HW218273   2.998   1.469   2.460
 5792SOL     OW18274   6.041   2.991   2.581
 5792SOL    HW118275   6.076   2.953   2.667
 5792SOL    HW218276   6.026   2.916   2.517
 5793SOL     OW18277   5.350   0.683   3.616
 5793SOL    HW118278   5.375   0.718   3.706
 5793SOL    HW218279   5.285   0.607   3.627
 5794SOL     OW18280   2.144   1.047   7.010
 5794SOL    HW118281   2.104   0.956   7.007
 5794SOL    HW218282   2.193   1.058   0.071
 5795SOL     OW18283   6.426   0.260   6.828
 5795SOL    HW118284   6.424   0.179   6.887
 5795SOL    HW218285   6.332   0.291   6.810
 5796SOL     OW18286   4.955   1.182   6.016
 5796SOL    HW118287   4.995   1.113   6.077
 5796SOL    HW218288   4.856   1.179   6.024
 5797SOL     OW18289   4.513   2.205   0.110
 5797SOL    HW118290   4.509   2.161   0.020
 5797SOL    HW218291   4.432   2.262   0.122
 5798SOL     OW18292   0.757   5.507   4.285
 5798SOL    HW118293   0.690   5.570   4.247
 5798SOL    HW218294   0.721   5.467   4.369
 5799SOL     OW18295   0.533   0.745   3.791
 5799SOL    HW118296   0.444   0.791   3.795
 5799SOL    HW218297   0.563   0.737   3.696
 5800SOL     OW18298   6.376   6.125   1.777
 5800SOL    HW118299   6.283   6.158   1.765
 5800SOL    HW218300   6.409   6.151   1.868
 5801SOL     OW18301   1.872   2.561   3.365
 5801SOL    HW118302   1.952   2.545   3.308
 5801SOL    HW218303   1.827   2.646   3.337
 5802SOL     OW18304   0.386   3.544   2.474
 5802SOL    HW118305   0.352   3.602   2.548
 5802SOL    HW218306   0.335   3.564   2.390
 5803SOL     OW18307   2.259   5.301   1.510
 5803SOL    HW118308   2.243   5.273   1.415
 5803SOL    HW218309   2.300   5.225   1.560
 5804SOL     OW18310   0.484   5.108   3.588
 5804SOL    HW118311   0.415   5.038   3.604
 5804SOL    HW218312   0.535   5.125   3.672
 5805SOL     OW18313   2.421   3.267   0.519
 5805SOL    HW118314   2.368   3.352   0.514
 5805SOL    HW218315   2.513   3.283   0.483
 5806SOL     OW18316   6.891   5.214   5.091
 5806SOL    HW118317   6.882   5.139   5.026
 5806SOL    HW218318   6.980   5.209   5.136
 5807SOL     OW18319   0.951   3.888   0.529
 5807SOL    HW118320   0.897   3.959   0.482
 5807SOL    HW218321   0.890   3.813   0.557
 5808SOL     OW18322   6.381   5.279   4.164
 5808SOL    HW118323   6.353   5.184   4.177
 5808SOL    HW218324   6.338   5.336   4.235
 5809SOL     OW18325   6.654   2.595   4.611
 5809SOL    HW118326   6.677   2.501   4.637
 5809SOL    HW218327   6.572   2.624   4.660
 5810SOL     OW18328   4.328   1.374   5.006
 5810SOL    HW118329   4.383   1.393   5.087
 5810SOL    HW218330   4.239   1.418   5.015
 5811SOL     OW18331   3.400   0.657   5.385
 5811SOL    HW118332   3.409   0.572   5.333
 5811SOL    HW218333   3.321   0.708   5.354
 5812SOL     OW18334   5.964   3.251   4.973
 5812SOL    HW118335   5.949   3.311   4.895
 5812SOL    HW218336   6.017   3.171   4.944
 5813SOL     OW18337   1.628   1.516   1.271
 5813SOL    HW118338   1.725   1.532   1.288
 5813SOL    HW218339   1.595   1.580   1.202
 5814SOL     OW18340   6.022   4.227   2.081
 5814SOL    HW118341   5.997   4.237   2.177
 5814SOL    HW218342   6.113   4.184   2.074
 5815SOL     OW18343   4.454   1.246   4.490
 5815SOL    HW118344   4.517   1.307   4.537
 5815SOL    HW218345   4.425   1.173   4.552
 5816SOL     OW18346   4.685   4.475   0.663
 5816SOL    HW118347   4.722   4.490   0.572
 5816SOL    HW218348   4.592   4.437   0.656
 5817SOL     OW18349   5.767   4.515   5.752
 5817SOL    HW118350   5.837   4.498   5.682
 5817SOL    HW218351   5.713   4.595   5.725
 5818SOL     OW18352   6.975   5.695   5.249
 5818SOL    HW118353   6.985   5.788   5.284
 5818SOL    HW218354   0.002   5.632   5.306
 5819SOL     OW18355   3.601   0.300   6.597
 5819SOL    HW118356   3.518   0.319   6.649
 5819SOL    HW218357   3.593   0.210   6.553
 5820SOL     OW18358   4.798   4.800   3.302
 5820SOL    HW118359   4.778   4.895   3.323
 5820SOL    HW218360   4.749   4.773   3.219
 5821SOL     OW18361   6.994   0.297   1.935
 5821SOL    HW118362   6.999   0.397   1.936
 5821SOL    HW218363   0.043   0.260   1.991
 5822SOL     OW18364   1.365   2.615   1.412
 5822SOL    HW118365   1.297   2.557   1.456
 5822SOL    HW218366   1.400   2.682   1.479
 5823SOL     OW18367   2.655   0.199   5.137
 5823SOL    HW118368   2.701   0.265   5.196
 5823SOL    HW218369   2.724   0.144   5.090
 5824SOL     OW18370   0.003   5.588   2.430
 5824SOL    HW118371   0.024   5.494   2.453
 5824SOL    HW218372   0.032   5.606   2.336
 5825SOL     OW18373   6.925   1.108   5.084
 5825SOL    HW118374   6.944   1.035   5.150
 5825SOL    HW218375   7.011   1.145   5.050
 5826SOL     OW18376   0.251   4.981   5.676
 5826SOL    HW118377   0.257   5.068   5.626
 5826SOL    HW218378   0.312   4.984   5.755
 5827SOL     OW18379   1.859   4.199   4.770
 5827SOL    HW118380   1.876   4.273   4.705
 5827SOL    HW218381   1.797   4.132   4.728
 5828SOL     OW18382   6.006   1.343   1.757
 5828SOL    HW118383   6.061   1.426   1.758
 5828SOL    HW218384   6.049   1.274   1.815
 5829SOL     OW18385   1.034   0.348   3.535
 5829SOL    HW118386   1.060   0.284   3.608
 5829SOL    HW218387   0.952   0.399   3.562
 5830SOL     OW18388   5.077   6.612   5.901
 5830SOL    HW118389   5.063   6.574   5.992
 5830SOL    HW218390   5.101   6.539   5.837
 5831SOL     OW18391   1.332   1.273   5.518
 5831SOL    HW118392   1.432   1.269   5.521
 5831SOL    HW218393   1.300   1.226   5.435
 5832SOL     OW18394   2.956   4.833   6.819
 5832SOL    HW118395   2.956   4.926   6.781
 5832SOL    HW218396   3.014   4.830   6.901
 5833SOL     OW18397   3.388   4.079   4.919
 5833SOL    HW118398   3.361   4.096   5.014
 5833SOL    HW218399   3.343   3.997   4.885
 5834SOL     OW18400   0.168   2.316   0.455
 5834SOL    HW118401   0.184   2.363   0.368
 5834SOL    HW218402   0.071   2.324   0.480
 5835SOL     OW18403   5.558   3.181   3.222
 5835SOL    HW118404   5.555   3.097   3.275
 5835SOL    HW218405   5.648   3.224   3.233
 5836SOL     OW18406   2.616   6.852   1.684
 5836SOL    HW118407   2.574   6.762   1.694
 5836SOL    HW218408   2.555   6.911   1.630
 5837SOL     OW18409   3.362   4.109   6.838
 5837SOL    HW118410   3.400   4.105   6.746
 5837SOL    HW218411   3.405   4.184   6.889
 5838SOL     OW18412   2.729   1.790   0.811
 5838SOL    HW118413   2.802   1.854   0.786
 5838SOL    HW218414   2.649   1.840   0.842
 5839SOL     OW18415   0.733   1.885   2.484
 5839SOL    HW118416   0.685   1.908   2.569
 5839SOL    HW218417   0.669   1.843   2.420
 5840SOL     OW18418   0.802   4.818   6.706
 5840SOL    HW118419   0.768   4.744   6.647
 5840SOL    HW218420   0.891   4.849   6.673
 5841SOL     OW18421   5.270   1.662   2.314
 5841SOL    HW118422   5.257   1.673   2.412
 5841SOL    HW218423   5.251   1.748   2.268
 5842SOL     OW18424   5.127   3.631   1.419
 5842SOL    HW118425   5.168   3.546   1.384
 5842SOL    HW218426   5.126   3.700   1.347
 5843SOL     OW18427   1.276   3.823   2.742
 5843SOL    HW118428   1.185   3.842   2.705
 5843SOL    HW218429   1.343   3.881   2.696
 5844SOL     OW18430   2.275   5.914   6.007
 5844SOL    HW118431   2.231   5.980   5.946
 5844SOL    HW218432   2.230   5.917   6.097
 5845SOL     OW18433   0.332   0.361   2.678
 5845SOL    HW118434   0.427   0.384   2.657
 5845SOL    HW218435   0.304   0.411   2.760
 5846SOL     OW18436   6.068   2.886   5.438
 5846SOL    HW118437   6.022   2.797   5.447
 5846SOL    HW218438   6.037   2.932   5.355
 5847SOL     OW18439   2.970   2.163   1.828
 5847SOL    HW118440   2.906   2.171   1.751
 5847SOL    HW218441   2.948   2.231   1.897
 5848SOL     OW18442   1.482   5.496   2.746
 5848SOL    HW118443   1.493   5.408   2.700
 5848SOL    HW218444   1.571   5.528   2.778
 5849SOL     OW18445   0.998   0.785   5.443
 5849SOL    HW118446   0.986   0.788   5.542
 5849SOL    HW218447   0.942   0.711   5.405
 5850SOL     OW18448   6.671   4.103   1.680
 5850SOL    HW118449   6.722   4.021   1.658
 5850SOL    HW218450   6.573   4.084   1.672
 5851SOL     OW18451   5.071   3.445   2.694
 5851SOL    HW118452   5.135   3.385   2.742
 5851SOL    HW218453   5.051   3.407   2.604
 5852SOL     OW18454   5.686   6.521   3.267
 5852SOL    HW118455   5.680   6.570   3.354
 5852SOL    HW218456   5.652   6.580   3.193
 5853SOL     OW18457   3.455   5.477   4.875
 5853SOL    HW118458   3.555   5.475   4.882
 5853SOL    HW218459   3.426   5.418   4.799
 5854SOL     OW18460   4.688   4.617   6.143
 5854SOL    HW118461   4.708   4.519   6.145
 5854SOL    HW218462   4.773   4.669   6.133
 5855SOL     OW18463   0.698   1.511   4.935
 5855SOL    HW118464   0.770   1.488   4.868
 5855SOL    HW218465   0.628   1.567   4.890
 5856SOL     OW18466   1.913   5.791   3.878
 5856SOL    HW118467   1.849   5.737   3.932
 5856SOL    HW218468   1.977   5.838   3.939
 5857SOL     OW18469   6.071   2.556   6.276
 5857SOL    HW118470   6.148   2.508   6.235
 5857SOL    HW218471   6.021   2.494   6.336
 5858SOL     OW18472   2.892   2.100   3.059
 5858SOL    HW118473   2.877   2.156   3.141
 5858SOL    HW218474   2.805   2.062   3.028
 5859SOL     OW18475   6.027   6.104   1.971
 5859SOL    HW118476   6.017   6.193   1.926
 5859SOL    HW218477   5.937   6.063   1.984
 5860SOL     OW18478   0.327   3.328   2.273
 5860SOL    HW118479   0.422   3.313   2.248
 5860SOL    HW218480   0.306   3.279   2.358
 5861SOL     OW18481   4.840   1.556   4.509
 5861SOL    HW118482   4.844   1.640   4.563
 5861SOL    HW218483   4.885   1.482   4.557
 5862SOL     OW18484   6.237   5.539   0.999
 5862SOL    HW118485   6.221   5.606   0.926
 5862SOL    HW218486   6.335   5.528   1.014
 5863SOL     OW18487   3.440   2.050   5.261
 5863SOL    HW118488   3.436   2.109   5.342
 5863SOL    HW218489   3.348   2.018   5.239
 5864SOL     OW18490   3.985   3.860   2.266
 5864SOL    HW118491   3.943   3.925   2.329
 5864SOL    HW218492   4.029   3.787   2.319
 5865SOL     OW18493   5.838   0.118   4.962
 5865SOL    HW118494   5.759   0.161   4.918
 5865SOL    HW218495   5.910   0.187   4.976
 5866SOL     OW18496   3.984   4.241   0.054
 5866SOL    HW118497   4.003   4.317   0.116
 5866SOL    HW218498   3.890   4.211   0.066
 5867SOL     OW18499   2.223   2.992   1.112
 5867SOL    HW118500   2.129   3.024   1.098
 5867SOL    HW218501   2.250   3.009   1.207
 5868SOL     OW18502   0.695   1.602   5.367
 5868SOL    HW118503   0.785   1.637   5.393
 5868SOL    HW218504   0.638   1.591   5.448
 5869SOL     OW18505   1.937   6.367   3.682
 5869SOL    HW118506   1.841   6.341   3.686
 5869SOL    HW218507   1.962   6.388   3.587
 5870SOL     OW18508   4.443   6.460   4.488
 5870SOL    HW118509   4.525   6.415   4.523
 5870SOL    HW218510   4.383   6.484   4.564
 5871SOL     OW18511   3.443   3.376   1.434
 5871SOL    HW118512   3.345   3.388   1.420
 5871SOL    HW218513   3.471   3.421   1.519
 5872SOL     OW18514   4.417   5.755   1.112
 5872SOL    HW118515   4.385   5.671   1.156
 5872SOL    HW218516   4.358   5.831   1.139
 5873SOL     OW18517   3.466   1.881   1.717
 5873SOL    HW118518   3.536   1.889   1.787
 5873SOL    HW218519   3.375   1.884   1.760
 5874SOL     OW18520   3.329   4.301   6.561
 5874SOL    HW118521   3.375   4.389   6.565
 5874SOL    HW218522   3.394   4.228   6.583
 5875SOL     OW18523   4.482   0.993   6.942
 5875SOL    HW118524   4.439   0.913   6.982
 5875SOL    HW218525   4.438   1.015   6.855
 5876SOL     OW18526   3.710   3.108   0.309
 5876SOL    HW118527   3.684   3.199   0.341
 5876SOL    HW218528   3.631   3.064   0.266
 5877SOL     OW18529   0.637   0.655   0.990
 5877SOL    HW118530   0.682   0.683   0.905
 5877SOL    HW218531   0.672   0.709   1.066
 5878SOL     OW18532   5.928   5.087   3.967
 5878SOL    HW118533   5.895   5.180   3.982
 5878SOL    HW218534   5.851   5.027   3.946
 5879SOL     OW18535   1.608   4.205   6.897
 5879SOL    HW118536   1.514   4.237   6.883
 5879SOL    HW218537   1.612   4.106   6.885
 5880SOL     OW18538   4.924   4.640   6.460
 5880SOL    HW118539   4.903   4.696   6.541
 5880SOL    HW218540   4.880   4.681   6.380
 5881SOL     OW18541   0.748   0.209   2.770
 5881SOL    HW118542   0.657   0.169   2.783
 5881SOL    HW218543   0.769   0.271   2.846
 5882SOL     OW18544   0.406   5.475   0.121
 5882SOL    HW118545   0.339   5.541   0.088
 5882SOL    HW218546   0.450   5.430   0.042
 5883SOL     OW18547   0.512   1.398   6.468
 5883SOL    HW118548   0.563   1.483   6.454
 5883SOL    HW218549   0.416   1.413   6.445
 5884SOL     OW18550   4.528   0.892   4.429
 5884SOL    HW118551   4.497   0.828   4.359
 5884SOL    HW218552   4.450   0.934   4.474
 5885SOL     OW18553   0.649   6.343   2.271
 5885SOL    HW118554   0.572   6.392   2.230
 5885SOL    HW218555   0.690   6.399   2.343
 5886SOL     OW18556   7.007   1.970   3.885
 5886SOL    HW118557   6.928   2.031   3.872
 5886SOL    HW218558   7.006   1.933   3.978
 5887SOL     OW18559   2.745   2.061   2.038
 5887SOL    HW118560   2.805   2.141   2.030
 5887SOL    HW218561   2.739   2.034   2.134
 5888SOL     OW18562   1.862   0.537   1.284
 5888SOL    HW118563   1.877   0.570   1.377
 5888SOL    HW218564   1.763   0.533   1.266
 5889SOL     OW18565   0.426   0.673   0.226
 5889SOL    HW118566   0.415   0.638   0.319
 5889SOL    HW218567   0.457   0.599   0.166
 5890SOL     OW18568   2.414   1.180   2.982
 5890SOL    HW118569   2.332   1.181   3.040
 5890SOL    HW218570   2.440   1.274   2.960
 5891SOL     OW18571   3.369   3.248   6.890
 5891SOL    HW118572   3.330   3.333   6.925
 5891SOL    HW218573   3.433   3.211   6.957
 5892SOL     OW18574   0.988   4.769   2.616
 5892SOL    HW118575   0.963   4.759   2.519
 5892SOL    HW218576   1.054   4.698   2.640
 5893SOL     OW18577   1.865   4.029   3.771
 5893SOL    HW118578   1.873   4.076   3.859
 5893SOL    HW218579   1.802   3.952   3.780
 5894SOL     OW18580   0.107   5.961   4.246
 5894SOL    HW118581   0.016   5.987   4.211
 5894SOL    HW218582   0.123   5.864   4.228
 5895SOL     OW18583   5.048   3.383   3.925
 5895SOL    HW118584   4.986   3.350   3.853
 5895SOL    HW218585   5.055   3.314   3.997
 5896SOL     OW18586   3.576   0.916   1.478
 5896SOL    HW118587   3.533   0.905   1.388
 5896SOL    HW218588   3.584   0.827   1.522
 5897SOL     OW18589   4.164   0.032   1.544
 5897SOL    HW118590   4.173   7.023   1.451
 5897SOL    HW218591   4.074   0.009   1.580
 5898SOL     OW18592   2.880   0.297   4.379
 5898SOL    HW118593   2.834   0.228   4.435
 5898SOL    HW218594   2.914   0.255   4.295
 5899SOL     OW18595   6.521   5.184   0.000
 5899SOL    HW118596   6.531   5.281   0.024
 5899SOL    HW218597   6.513   5.130   0.084
 5900SOL     OW18598   6.092   5.347   3.520
 5900SOL    HW118599   6.173   5.398   3.490
 5900SOL    HW218600   6.117   5.251   3.532
 5901SOL     OW18601   2.252   1.069   0.244
 5901SOL    HW118602   2.194   1.020   0.309
 5901SOL    HW218603   2.263   1.164   0.273
 5902SOL     OW18604   5.913   2.164   5.343
 5902SOL    HW118605   5.858   2.092   5.385
 5902SOL    HW218606   5.875   2.188   5.254
 5903SOL     OW18607   4.857   3.539   6.747
 5903SOL    HW118608   4.827   3.492   6.665
 5903SOL    HW218609   4.943   3.499   6.779
 5904SOL     OW18610   1.534   4.698   1.086
 5904SOL    HW118611   1.601   4.629   1.059
 5904SOL    HW218612   1.562   4.739   1.173
 5905SOL     OW18613   6.321   0.245   4.056
 5905SOL    HW118614   6.226   0.216   4.069
 5905SOL    HW218615   6.382   0.185   4.107
 5906SOL     OW18616   3.619   1.883   3.419
 5906SOL    HW118617   3.524   1.852   3.421
 5906SOL    HW218618   3.634   1.948   3.493
 5907SOL     OW18619   0.995   5.938   0.171
 5907SOL    HW118620   0.985   6.000   0.249
 5907SOL    HW218621   0.935   5.859   0.183
 5908SOL     OW18622   6.917   3.159   0.309
 5908SOL    HW118623   6.984   3.232   0.295
 5908SOL    HW218624   6.831   3.200   0.342
 5909SOL     OW18625   6.655   4.920   0.795
 5909SOL    HW118626   6.751   4.892   0.801
 5909SOL    HW218627   6.605   4.883   0.873
 5910SOL     OW18628   0.681   4.210   3.171
 5910SOL    HW118629   0.635   4.138   3.119
 5910SOL    HW218630   0.637   4.219   3.261
 5911SOL     OW18631   6.718   4.987   6.139
 5911SOL    HW118632   6.735   4.976   6.237
 5911SOL    HW218633   6.779   4.926   6.088
 5912SOL     OW18634   5.870   2.693   6.755
 5912SOL    HW118635   5.856   2.642   6.670
 5912SOL    HW218636   5.967   2.716   6.764
 5913SOL     OW18637   5.112   2.860   6.235
 5913SOL    HW118638   5.197   2.875   6.185
 5913SOL    HW218639   5.096   2.937   6.297
 5914SOL     OW18640   1.498   5.154   6.740
 5914SOL    HW118641   1.426   5.105   6.788
 5914SOL    HW218642   1.472   5.166   6.644
 5915SOL     OW18643   5.280   5.349   1.402
 5915SOL    HW118644   5.356   5.414   1.399
 5915SOL    HW218645   5.194   5.397   1.383
 5916SOL     OW18646   4.027   5.419   4.461
 5916SOL    HW118647   4.111   5.368   4.442
 5916SOL    HW218648   3.948   5.362   4.442
 5917SOL     OW18649   3.281   3.411   4.142
 5917SOL    HW118650   3.331   3.410   4.055
 5917SOL    HW218651   3.297   3.326   4.191
 5918SOL     OW18652   1.769   3.662   5.872
 5918SOL    HW118653   1.672   3.671   5.846
 5918SOL    HW218654   1.819   3.744   5.845
 5919SOL     OW18655   3.867   3.450   1.705
 5919SOL    HW118656   3.832   3.506   1.630
 5919SOL    HW218657   3.790   3.414   1.758
 5920SOL     OW18658   4.117   0.570   6.923
 5920SOL    HW118659   4.091   0.580   6.827
 5920SOL    HW218660   4.070   0.491   6.962
 5921SOL     OW18661   3.958   5.419   6.036
 5921SOL    HW118662   3.933   5.453   5.945
 5921SOL    HW218663   3.907   5.470   6.105
 5922SOL     OW18664   6.876   5.066   2.763
 5922SOL    HW118665   6.918   5.155   2.777
 5922SOL    HW218666   6.813   5.070   2.685
 5923SOL     OW18667   5.455   0.943   1.677
 5923SOL    HW118668   5.416   1.034   1.666
 5923SOL    HW218669   5.521   0.925   1.603
 5924SOL     OW18670   0.154   1.479   3.809
 5924SOL    HW118671   0.073   1.535   3.792
 5924SOL    HW218672   0.157   1.404   3.743
 5925SOL     OW18673   3.684   5.394   1.640
 5925SOL    HW118674   3.709   5.389   1.736
 5925SOL    HW218675   3.686   5.489   1.609
 5926SOL     OW18676   4.062   5.340   1.596
 5926SOL    HW118677   4.155   5.366   1.624
 5926SOL    HW218678   3.997   5.402   1.640
 5927SOL     OW18679   1.038   3.941   2.669
 5927SOL    HW118680   0.982   3.938   2.586
 5927SOL    HW218681   1.084   4.030   2.675
 5928SOL     OW18682   3.333   0.170   0.827
 5928SOL    HW118683   3.252   0.165   0.885
 5928SOL    HW218684   3.324   0.248   0.765
 5929SOL     OW18685   0.671   6.851   6.572
 5929SOL    HW118686   0.624   6.763   6.573
 5929SOL    HW218687   0.768   6.838   6.590
 5930SOL     OW18688   6.468   3.020   3.509
 5930SOL    HW118689   6.427   2.967   3.435
 5930SOL    HW218690   6.402   3.029   3.584
 5931SOL     OW18691   0.011   5.700   3.178
 5931SOL    HW118692   6.993   5.640   3.245
 5931SOL    HW218693   0.095   5.658   3.144
 5932SOL     OW18694   1.988   6.803   0.778
 5932SOL    HW118695   1.985   6.897   0.813
 5932SOL    HW218696   2.076   6.761   0.802
 5933SOL     OW18697   0.313   6.215   3.675
 5933SOL    HW118698   0.241   6.175   3.619
 5933SOL    HW218699   0.312   6.174   3.766
 5934SOL     OW18700   3.627   2.982   4.384
 5934SOL    HW118701   3.700   2.963   4.451
 5934SOL    HW218702   3.645   3.069   4.339
 5935SOL     OW18703   4.714   4.333   6.207
 5935SOL    HW118704   4.641   4.265   6.218
 5935SOL    HW218705   4.769   4.336   6.291
 5936SOL     OW18706   3.678   2.851   0.797
 5936SOL    HW118707   3.593   2.799   0.810
 5936SOL    HW218708   3.674   2.900   0.710
 5937SOL     OW18709   0.845   4.513   2.980
 5937SOL    HW118710   0.937   4.551   2.988
 5937SOL    HW218711   0.799   4.518   3.069
 5938SOL     OW18712   0.834   5.177   3.527
 5938SOL    HW118713   0.751   5.231   3.516
 5938SOL    HW218714   0.828   5.095   3.470
 5939SOL     OW18715   2.681   6.518   3.140
 5939SOL    HW118716   2.668   6.595   3.078
 5939SOL    HW218717   2.755   6.540   3.204
 5940SOL     OW18718   4.525   5.466   0.797
 5940SOL    HW118719   4.433   5.427   0.792
 5940SOL    HW218720   4.531   5.545   0.736
 5941SOL     OW18721   5.805   3.334   2.123
 5941SOL    HW118722   5.800   3.294   2.215
 5941SOL    HW218723   5.888   3.389   2.116
 5942SOL     OW18724   5.012   3.207   0.673
 5942SOL    HW118725   5.057   3.223   0.761
 5942SOL    HW218726   5.068   3.145   0.618
 5943SOL     OW18727   3.568   5.210   0.370
 5943SOL    HW118728   3.531   5.228   0.461
 5943SOL    HW218729   3.506   5.151   0.319
 5944SOL     OW18730   6.528   2.949   1.347
 5944SOL    HW118731   6.563   2.907   1.263
 5944SOL    HW218732   6.592   3.019   1.378
 5945SOL     OW18733   6.088   5.247   5.546
 5945SOL    HW118734   6.186   5.232   5.564
 5945SOL    HW218735   6.061   5.192   5.467
 5946SOL     OW18736   3.724   3.095   6.214
 5946SOL    HW118737   3.709   3.068   6.309
 5946SOL    HW218738   3.652   3.157   6.185
 5947SOL     OW18739   3.975   3.565   1.927
 5947SOL    HW118740   3.932   3.518   1.850
 5947SOL    HW218741   4.071   3.581   1.906
 5948SOL     OW18742   4.760   5.074   3.398
 5948SOL    HW118743   4.831   5.100   3.462
 5948SOL    HW218744   4.703   5.153   3.377
 5949SOL     OW18745   4.725   3.948   1.746
 5949SOL    HW118746   4.780   4.010   1.803
 5949SOL    HW218747   4.640   3.994   1.721
 5950SOL     OW18748   4.539   2.029   5.927
 5950SOL    HW118749   4.620   2.066   5.882
 5950SOL    HW218750   4.541   2.052   6.024
 5951SOL     OW18751   0.740   5.724   3.868
 5951SOL    HW118752   0.747   5.815   3.909
 5951SOL    HW218753   0.817   5.668   3.898
 5952SOL     OW18754   5.769   4.707   3.996
 5952SOL    HW118755   5.763   4.613   3.962
 5952SOL    HW218756   5.863   4.726   4.025
 5953SOL     OW18757   6.413   3.349   5.359
 5953SOL    HW118758   6.461   3.338   5.272
 5953SOL    HW218759   6.321   3.310   5.352
 5954SOL     OW18760   0.728   4.461   5.812
 5954SOL    HW118761   0.733   4.477   5.911
 5954SOL    HW218762   0.633   4.450   5.785
 5955SOL     OW18763   5.264   6.195   2.753
 5955SOL    HW118764   5.173   6.158   2.768
 5955SOL    HW218765   5.333   6.127   2.778
 5956SOL     OW18766   4.658   1.163   6.001
 5956SOL    HW118767   4.676   1.099   6.075
 5956SOL    HW218768   4.603   1.119   5.930
 5957SOL     OW18769   4.219   0.681   5.147
 5957SOL    HW118770   4.192   0.750   5.215
 5957SOL    HW218771   4.275   0.724   5.077
 5958SOL     OW18772   5.713   6.964   3.051
 5958SOL    HW118773   5.692   0.000   2.975
 5958SOL    HW218774   5.808   6.934   3.044
 5959SOL     OW18775   4.054   2.469   5.431
 5959SOL    HW118776   3.954   2.477   5.430
 5959SOL    HW218777   4.092   2.510   5.349
 5960SOL     OW18778   3.563   5.110   4.832
 5960SOL    HW118779   3.597   5.116   4.925
 5960SOL    HW218780   3.600   5.186   4.777
 5961SOL     OW18781   5.536   1.414   3.042
 5961SOL    HW118782   5.606   1.343   3.041
 5961SOL    HW218783   5.474   1.398   3.119
 5962SOL     OW18784   5.536   6.447   0.505
 5962SOL    HW118785   5.544   6.407   0.596
 5962SOL    HW218786   5.575   6.539   0.506
 5963SOL     OW18787   3.711   3.748   5.500
 5963SOL    HW118788   3.720   3.836   5.453
 5963SOL    HW218789   3.801   3.705   5.507
 5964SOL     OW18790   0.454   5.474   5.387
 5964SOL    HW118791   0.485   5.496   5.294
 5964SOL    HW218792   0.446   5.375   5.397
 5965SOL     OW18793   1.123   1.987   6.894
 5965SOL    HW118794   1.168   2.076   6.903
 5965SOL    HW218795   1.173   1.930   6.830
 5966SOL     OW18796   3.175   5.961   5.700
 5966SOL    HW118797   3.102   5.941   5.635
 5966SOL    HW218798   3.264   5.950   5.655
 5967SOL     OW18799   4.244   6.685   6.472
 5967SOL    HW118800   4.301   6.633   6.536
 5967SOL    HW218801   4.167   6.628   6.443
 5968SOL     OW18802   4.560   1.698   1.212
 5968SOL    HW118803   4.598   1.647   1.289
 5968SOL    HW218804   4.543   1.793   1.239
 5969SOL     OW18805   0.295   6.502   6.569
 5969SOL    HW118806   0.257   6.513   6.477
 5969SOL    HW218807   0.231   6.449   6.625
 5970SOL     OW18808   0.272   4.457   2.330
 5970SOL    HW118809   0.348   4.433   2.269
 5970SOL    HW218810   0.301   4.531   2.391
 5971SOL     OW18811   1.398   0.684   2.351
 5971SOL    HW118812   1.360   0.738   2.427
 5971SOL    HW218813   1.361   0.591   2.356
 5972SOL     OW18814   5.352   5.254   0.048
 5972SOL    HW118815   5.351   5.214   0.140
 5972SOL    HW218816   5.278   5.215   7.019
 5973SOL     OW18817   1.977   3.579   2.574
 5973SOL    HW118818   1.986   3.541   2.482
 5973SOL    HW218819   1.886   3.560   2.609
 5974SOL     OW18820   5.678   5.568   6.409
 5974SOL    HW118821   5.647   5.540   6.499
 5974SOL    HW218822   5.777   5.578   6.409
 5975SOL     OW18823   3.452   1.171   0.571
 5975SOL    HW118824   3.399   1.256   0.574
 5975SOL    HW218825   3.400   1.098   0.614
 5976SOL     OW18826   3.222   3.241   5.569
 5976SOL    HW118827   3.165   3.223   5.488
 5976SOL    HW218828   3.189   3.324   5.614
 5977SOL     OW18829   2.730   5.416   6.673
 5977SOL    HW118830   2.709   5.399   6.769
 5977SOL    HW218831   2.726   5.329   6.622
 5978SOL     OW18832   5.257   5.730   2.887
 5978SOL    HW118833   5.178   5.746   2.947
 5978SOL    HW218834   5.293   5.638   2.903
 5979SOL     OW18835   5.489   0.572   2.514
 5979SOL    HW118836   5.573   0.624   2.534
 5979SOL    HW218837   5.418   0.598   2.579
 5980SOL     OW18838   3.783   4.049   0.732
 5980SOL    HW118839   3.819   3.977   0.672
 5980SOL    HW218840   3.737   4.006   0.810
 5981SOL     OW18841   5.626   2.231   1.193
 5981SOL    HW118842   5.580   2.296   1.133
 5981SOL    HW218843   5.576   2.144   1.192
 5982SOL     OW18844   6.963   3.168   2.063
 5982SOL    HW118845   0.035   3.180   2.079
 5982SOL    HW218846   6.942   3.071   2.055
 5983SOL     OW18847   0.702   2.068   3.952
 5983SOL    HW118848   0.767   2.064   3.877
 5983SOL    HW218849   0.750   2.068   4.039
 5984SOL     OW18850   6.524   5.635   4.072
 5984SOL    HW118851   6.568   5.714   4.031
 5984SOL    HW218852   6.495   5.659   4.165
 5985SOL     OW18853   6.848   2.831   4.096
 5985SOL    HW118854   6.839   2.768   4.019
 5985SOL    HW218855   6.920   2.898   4.076
 5986SOL     OW18856   3.115   3.644   4.758
 5986SOL    HW118857   3.051   3.647   4.682
 5986SOL    HW218858   3.143   3.549   4.774
 5987SOL     OW18859   4.786   0.456   4.566
 5987SOL    HW118860   4.764   0.399   4.487
 5987SOL    HW218861   4.816   0.546   4.535
 5988SOL     OW18862   4.850   7.024   5.694
 5988SOL    HW118863   4.897   0.081   5.663
 5988SOL    HW218864   4.751   0.011   5.684
 5989SOL     OW18865   2.567   6.667   6.842
 5989SOL    HW118866   2.659   6.627   6.838
 5989SOL    HW218867   2.520   6.651   6.756
 5990SOL     OW18868   3.767   4.676   0.053
 5990SOL    HW118869   3.772   4.592   0.106
 5990SOL    HW218870   3.846   4.681   7.017
 5991SOL     OW18871   3.438   5.083   6.868
 5991SOL    HW118872   3.509   5.026   6.907
 5991SOL    HW218873   3.415   5.050   6.776
 5992SOL     OW18874   3.601   6.945   2.830
 5992SOL    HW118875   3.595   7.014   2.758
 5992SOL    HW218876   3.518   6.948   2.886
 5993SOL     OW18877   2.925   6.224   6.756
 5993SOL    HW118878   2.905   6.260   6.847
 5993SOL    HW218879   2.845   6.175   6.722
 5994SOL     OW18880   5.786   2.654   2.125
 5994SOL    HW118881   5.768   2.557   2.111
 5994SOL    HW218882   5.761   2.705   2.042
 5995SOL     OW18883   5.443   4.931   3.036
 5995SOL    HW118884   5.419   4.966   2.945
 5995SOL    HW218885   5.462   4.833   3.031
 5996SOL     OW18886   1.189   6.499   0.693
 5996SOL    HW118887   1.115   6.522   0.756
 5996SOL    HW218888   1.154   6.500   0.599
 5997SOL     OW18889   0.951   5.336   2.416
 5997SOL    HW118890   0.851   5.328   2.418
 5997SOL    HW218891   0.991   5.262   2.469
 5998SOL     OW18892   5.805   1.625   3.156
 5998SOL    HW118893   5.863   1.548   3.182
 5998SOL    HW218894   5.800   1.630   3.056
 5999SOL     OW18895   1.472   1.808   2.696
 5999SOL    HW118896   1.435   1.898   2.671
 5999SOL    HW218897   1.429   1.738   2.639
 6000SOL     OW18898   4.429   6.731   0.763
 6000SOL    HW118899   4.381   6.671   0.699
 6000SOL    HW218900   4.367   6.758   0.836
 6001SOL     OW18901   1.044   3.839   6.926
 6001SOL    HW118902   1.097   3.917   6.893
 6001SOL    HW218903   0.958   3.833   6.875
 6002SOL     OW18904   6.395   7.020   1.092
 6002SOL    HW118905   6.372   0.092   1.094
 6002SOL    HW218906   6.382   6.984   0.999
 6003SOL     OW18907   6.392   2.392   4.128
 6003SOL    HW118908   6.367   2.474   4.077
 6003SOL    HW218909   6.308   2.343   4.155
 6004SOL     OW18910   0.694   3.655   2.943
 6004SOL    HW118911   0.699   3.712   2.861
 6004SOL    HW218912   0.641   3.572   2.923
 6005SOL     OW18913   5.398   5.782   4.591
 6005SOL    HW118914   5.343   5.785   4.674
 6005SOL    HW218915   5.447   5.869   4.580
 6006SOL     OW18916   2.565   1.001   5.893
 6006SOL    HW118917   2.568   0.913   5.847
 6006SOL    HW218918   2.639   1.059   5.859
 6007SOL     OW18919   4.911   3.480   5.312
 6007SOL    HW118920   4.897   3.544   5.236
 6007SOL    HW218921   4.823   3.461   5.356
 6008SOL     OW18922   1.938   4.513   5.996
 6008SOL    HW118923   1.867   4.479   6.057
 6008SOL    HW218924   1.899   4.529   5.905
 6009SOL     OW18925   3.575   0.460   3.693
 6009SOL    HW118926   3.596   0.487   3.598
 6009SOL    HW218927   3.633   0.384   3.720
 6010SOL     OW18928   1.383   4.507   4.142
 6010SOL    HW118929   1.454   4.496   4.073
 6010SOL    HW218930   1.342   4.598   4.135
 6011SOL     OW18931   4.958   3.388   2.198
 6011SOL    HW118932   4.958   3.326   2.120
 6011SOL    HW218933   4.925   3.478   2.169
 6012SOL     OW18934   4.987   1.474   0.211
 6012SOL    HW118935   4.985   1.434   0.120
 6012SOL    HW218936   4.966   1.403   0.279
 6013SOL     OW18937   4.619   2.028   3.434
 6013SOL    HW118938   4.597   1.966   3.509
 6013SOL    HW218939   4.710   2.007   3.399
 6014SOL     OW18940   3.980   3.724   1.338
 6014SOL    HW118941   4.044   3.674   1.280
 6014SOL    HW218942   4.021   3.811   1.366
 6015SOL     OW18943   5.449   2.845   4.112
 6015SOL    HW118944   5.381   2.891   4.054
 6015SOL    HW218945   5.485   2.911   4.178
 6016SOL     OW18946   6.384   2.154   6.116
 6016SOL    HW118947   6.425   2.194   6.198
 6016SOL    HW218948   6.398   2.055   6.117
 6017SOL     OW18949   6.719   4.134   2.935
 6017SOL    HW118950   6.711   4.217   2.990
 6017SOL    HW218951   6.679   4.057   2.985
 6018SOL     OW18952   3.132   0.565   6.457
 6018SOL    HW118953   3.056   0.628   6.476
 6018SOL    HW218954   3.164   0.579   6.364
 6019SOL     OW18955   6.796   2.215   4.249
 6019SOL    HW118956   6.859   2.174   4.314
 6019SOL    HW218957   6.745   2.143   4.201
 6020SOL     OW18958   1.221   4.543   0.746
 6020SOL    HW118959   1.135   4.580   0.781
 6020SOL    HW218960   1.268   4.613   0.692
 6021SOL     OW18961   4.822   0.501   2.368
 6021SOL    HW118962   4.744   0.529   2.313
 6021SOL    HW218963   4.832   0.561   2.447
 6022SOL     OW18964   4.292   2.311   4.073
 6022SOL    HW118965   4.309   2.352   4.162
 6022SOL    HW218966   4.335   2.368   4.002
 6023SOL     OW18967   6.431   0.192   2.504
 6023SOL    HW118968   6.434   0.282   2.461
 6023SOL    HW218969   6.413   0.122   2.434
 6024SOL     OW18970   1.348   5.135   3.338
 6024SOL    HW118971   1.429   5.143   3.280
 6024SOL    HW218972   1.294   5.056   3.309
 6025SOL     OW18973   3.382   1.528   2.597
 6025SOL    HW118974   3.322   1.517   2.518
 6025SOL    HW218975   3.417   1.621   2.599
 6026SOL     OW18976   0.076   4.072   5.214
 6026SOL    HW118977   0.069   4.121   5.301
 6026SOL    HW218978   0.001   4.007   5.206
 6027SOL     OW18979   1.638   4.351   6.645
 6027SOL    HW118980   1.705   4.426   6.640
 6027SOL    HW218981   1.660   4.293   6.724
 6028SOL     OW18982   0.388   4.991   6.745
 6028SOL    HW118983   0.473   4.950   6.778
 6028SOL    HW218984   0.410   5.074   6.693
 6029SOL     OW18985   2.535   6.350   5.366
 6029SOL    HW118986   2.582   6.318   5.448
 6029SOL    HW218987   2.436   6.349   5.382
 6030SOL     OW18988   3.621   5.857   3.047
 6030SOL    HW118989   3.633   5.796   2.969
 6030SOL    HW218990   3.662   5.945   3.027
 6031SOL     OW18991   3.281   5.622   3.115
 6031SOL    HW118992   3.200   5.603   3.060
 6031SOL    HW218993   3.252   5.656   3.205
 6032SOL     OW18994   2.325   4.478   3.159
 6032SOL    HW118995   2.348   4.418   3.082
 6032SOL    HW218996   2.404   4.485   3.220
 6033SOL     OW18997   2.991   1.853   3.099
 6033SOL    HW118998   3.053   1.801   3.042
 6033SOL    HW218999   2.965   1.938   3.052
 6034SOL     OW19000   0.761   4.950   4.745
 6034SOL    HW119001   0.690   4.998   4.797
 6034SOL    HW219002   0.720   4.896   4.673
 6035SOL     OW19003   0.007   0.917   2.555
 6035SOL    HW119004   6.970   0.928   2.632
 6035SOL    HW219005   6.999   0.844   2.495
 6036SOL     OW19006   6.329   5.685   3.703
 6036SOL    HW119007   6.361   5.609   3.759
 6036SOL    HW219008   6.310   5.764   3.762
 6037SOL     OW19009   4.410   4.880   6.327
 6037SOL    HW119010   4.371   4.938   6.399
 6037SOL    HW219011   4.462   4.937   6.263
 6038SOL     OW19012   1.688   2.698   6.004
 6038SOL    HW119013   1.766   2.667   5.950
 6038SOL    HW219014   1.609   2.639   5.984
 6039SOL     OW19015   3.180   3.782   2.419
 6039SOL    HW119016   3.108   3.803   2.484
 6039SOL    HW219017   3.194   3.683   2.415
 6040SOL     OW19018   0.643   2.157   6.543
 6040SOL    HW119019   0.553   2.129   6.574
 6040SOL    HW219020   0.712   2.129   6.610
 6041SOL     OW19021   2.207   0.246   5.340
 6041SOL    HW119022   2.130   0.262   5.278
 6041SOL    HW219023   2.219   0.326   5.399
 6042SOL     OW19024   5.280   5.758   1.576
 6042SOL    HW119025   5.203   5.822   1.577
 6042SOL    HW219026   5.245   5.665   1.569
 6043SOL     OW19027   0.827   4.715   5.679
 6043SOL    HW119028   0.783   4.765   5.753
 6043SOL    HW219029   0.806   4.617   5.688
 6044SOL     OW19030   1.249   1.675   1.990
 6044SOL    HW119031   1.330   1.730   1.967
 6044SOL    HW219032   1.231   1.683   2.088
 6045SOL     OW19033   6.615   4.617   2.287
 6045SOL    HW119034   6.534   4.568   2.257
 6045SOL    HW219035   6.687   4.551   2.309
 6046SOL     OW19036   3.962   2.125   0.346
 6046SOL    HW119037   3.977   2.063   0.269
 6046SOL    HW219038   4.019   2.098   0.423
 6047SOL     OW19039   5.314   2.221   1.960
 6047SOL    HW119040   5.357   2.309   1.978
 6047SOL    HW219041   5.215   2.231   1.961
 6048SOL     OW19042   4.919   5.934   4.499
 6048SOL    HW119043   4.931   5.842   4.462
 6048SOL    HW219044   4.909   5.930   4.598
 6049SOL     OW19045   5.830   4.090   5.991
 6049SOL    HW119046   5.916   4.137   6.013
 6049SOL    HW219047   5.828   4.001   6.038
 6050SOL     OW19048   3.411   6.127   4.333
 6050SOL    HW119049   3.401   6.165   4.241
 6050SOL    HW219050   3.369   6.036   4.335
 6051SOL     OW19051   2.990   0.647   4.193
 6051SOL    HW119052   2.956   0.693   4.275
 6051SOL    HW219053   2.979   0.708   4.114
 6052SOL     OW19054   6.170   0.383   0.873
 6052SOL    HW119055   6.103   0.315   0.901
 6052SOL    HW219056   6.124   0.470   0.856
 6053SOL     OW19057   4.492   1.507   6.428
 6053SOL    HW119058   4.499   1.458   6.341
 6053SOL    HW219059   4.404   1.486   6.471
 6054SOL     OW19060   3.159   3.382   0.695
 6054SOL    HW119061   3.178   3.403   0.599
 6054SOL    HW219062   3.073   3.423   0.722
 6055SOL     OW19063   4.979   0.908   5.392
 6055SOL    HW119064   4.921   0.940   5.317
 6055SOL    HW219065   5.062   0.868   5.355
 6056SOL     OW19066   4.713   2.659   4.356
 6056SOL    HW119067   4.746   2.753   4.346
 6056SOL    HW219068   4.763   2.614   4.429
 6057SOL     OW19069   5.129   2.795   3.495
 6057SOL    HW119070   5.163   2.755   3.580
 6057SOL    HW219071   5.047   2.849   3.514
 6058SOL     OW19072   4.774   3.187   0.930
 6058SOL    HW119073   4.819   3.221   1.013
 6058SOL    HW219074   4.711   3.256   0.896
 6059SOL     OW19075   5.130   5.357   5.006
 6059SOL    HW119076   5.163   5.446   5.040
 6059SOL    HW219077   5.188   5.327   4.930
 6060SOL     OW19078   2.588   3.959   6.426
 6060SOL    HW119079   2.670   4.015   6.411
 6060SOL    HW219080   2.521   3.978   6.354
 6061SOL     OW19081   3.383   2.305   1.239
 6061SOL    HW119082   3.482   2.294   1.245
 6061SOL    HW219083   3.354   2.380   1.298
 6062SOL     OW19084   2.334   1.735   4.940
 6062SOL    HW119085   2.424   1.709   4.974
 6062SOL    HW219086   2.296   1.660   4.886
 6063SOL     OW19087   3.300   1.913   6.190
 6063SOL    HW119088   3.394   1.886   6.173
 6063SOL    HW219089   3.298   2.003   6.234
 6064SOL     OW19090   1.711   5.896   1.145
 6064SOL    HW119091   1.765   5.922   1.065
 6064SOL    HW219092   1.703   5.797   1.149
 6065SOL     OW19093   6.443   0.135   2.005
 6065SOL    HW119094   6.499   0.214   1.981
 6065SOL    HW219095   6.387   0.109   1.926
 6066SOL     OW19096   5.070   1.718   5.889
 6066SOL    HW119097   5.056   1.677   5.798
 6066SOL    HW219098   5.154   1.771   5.889
 6067SOL     OW19099   5.353   1.836   5.776
 6067SOL    HW119100   5.337   1.739   5.759
 6067SOL    HW219101   5.426   1.846   5.844
 6068SOL     OW19102   5.722   3.019   4.848
 6068SOL    HW119103   5.640   3.070   4.821
 6068SOL    HW219104   5.765   2.980   4.767
 6069SOL     OW19105   6.711   3.404   4.690
 6069SOL    HW119106   6.802   3.382   4.724
 6069SOL    HW219107   6.715   3.421   4.591
 6070SOL     OW19108   2.255   2.768   0.642
 6070SOL    HW119109   2.216   2.698   0.582
 6070SOL    HW219110   2.247   2.739   0.737
 6071SOL     OW19111   6.301   5.661   4.685
 6071SOL    HW119112   6.239   5.736   4.661
 6071SOL    HW219113   6.256   5.601   4.751
 6072SOL     OW19114   0.698   0.278   2.055
 6072SOL    HW119115   0.673   0.203   1.993
 6072SOL    HW219116   0.790   0.262   2.091
 6073SOL     OW19117   6.362   4.060   0.178
 6073SOL    HW119118   6.450   4.062   0.225
 6073SOL    HW219119   6.326   3.967   0.179
 6074SOL     OW19120   1.267   6.216   4.104
 6074SOL    HW119121   1.276   6.301   4.156
 6074SOL    HW219122   1.238   6.237   4.011
 6075SOL     OW19123   6.560   1.251   6.412
 6075SOL    HW119124   6.501   1.209   6.343
 6075SOL    HW219125   6.624   1.182   6.447
 6076SOL     OW19126   2.483   5.516   4.826
 6076SOL    HW119127   2.501   5.575   4.905
 6076SOL    HW219128   2.495   5.421   4.853
 6077SOL     OW19129   5.816   5.768   1.748
 6077SOL    HW119130   5.857   5.750   1.837
 6077SOL    HW219131   5.799   5.681   1.700
 6078SOL     OW19132   3.911   5.082   0.695
 6078SOL    HW119133   3.840   5.100   0.763
 6078SOL    HW219134   3.887   5.128   0.609
 6079SOL     OW19135   4.052   3.262   6.687
 6079SOL    HW119136   3.952   3.256   6.697
 6079SOL    HW219137   4.075   3.257   6.590
 6080SOL     OW19138   0.007   1.386   1.639
 6080SOL    HW119139   6.935   1.379   1.616
 6080SOL    HW219140   0.017   1.425   1.730
 6081SOL     OW19141   6.077   3.330   5.611
 6081SOL    HW119142   6.119   3.305   5.524
 6081SOL    HW219143   6.034   3.420   5.602
 6082SOL     OW19144   2.039   2.028   3.640
 6082SOL    HW119145   2.135   2.037   3.612
 6082SOL    HW219146   2.006   1.938   3.614
 6083SOL     OW19147   0.318   4.624   0.002
 6083SOL    HW119148   0.270   4.539   0.022
 6083SOL    HW219149   0.272   4.671   6.952
 6084SOL     OW19150   0.462   6.353   3.242
 6084SOL    HW119151   0.546   6.408   3.241
 6084SOL    HW219152   0.437   6.333   3.337
 6085SOL     OW19153   0.894   4.282   0.551
 6085SOL    HW119154   0.985   4.247   0.530
 6085SOL    HW219155   0.861   4.239   0.636
 6086SOL     OW19156   3.863   1.235   5.860
 6086SOL    HW119157   3.865   1.330   5.893
 6086SOL    HW219158   3.857   1.234   5.761
 6087SOL     OW19159   3.937   5.550   0.902
 6087SOL    HW119160   3.937   5.464   0.851
 6087SOL    HW219161   3.867   5.611   0.865
 6088SOL     OW19162   6.094   5.633   4.429
 6088SOL    HW119163   6.040   5.684   4.362
 6088SOL    HW219164   6.110   5.690   4.509
 6089SOL     OW19165   6.332   3.204   0.716
 6089SOL    HW119166   6.284   3.127   0.674
 6089SOL    HW219167   6.326   3.284   0.656
 6090SOL     OW19168   2.390   6.174   5.665
 6090SOL    HW119169   2.472   6.200   5.614
 6090SOL    HW219170   2.343   6.257   5.697
 6091SOL     OW19171   1.625   1.249   1.351
 6091SOL    HW119172   1.550   1.209   1.298
 6091SOL    HW219173   1.616   1.349   1.351
 6092SOL     OW19174   3.661   6.682   2.805
 6092SOL    HW119175   3.639   6.779   2.795
 6092SOL    HW219176   3.686   6.663   2.900
 6093SOL     OW19177   1.896   3.129   2.979
 6093SOL    HW119178   1.891   3.164   3.072
 6093SOL    HW219179   1.873   3.202   2.915
 6094SOL     OW19180   3.922   0.875   1.527
 6094SOL    HW119181   3.825   0.901   1.521
 6094SOL    HW219182   3.977   0.942   1.478
 6095SOL     OW19183   4.720   3.390   0.119
 6095SOL    HW119184   4.670   3.307   0.142
 6095SOL    HW219185   4.736   3.443   0.202
 6096SOL     OW19186   6.458   0.846   3.701
 6096SOL    HW119187   6.463   0.923   3.637
 6096SOL    HW219188   6.461   0.760   3.649
 6097SOL     OW19189   2.076   6.631   2.126
 6097SOL    HW119190   2.115   6.711   2.081
 6097SOL    HW219191   1.992   6.657   2.174
 6098SOL     OW19192   1.457   2.556   6.234
 6098SOL    HW119193   1.447   2.541   6.332
 6098SOL    HW219194   1.520   2.632   6.218
 6099SOL     OW19195   6.680   6.064   0.751
 6099SOL    HW119196   6.752   6.123   0.714
 6099SOL    HW219197   6.591   6.107   0.738
 6100SOL     OW19198   4.376   3.640   0.328
 6100SOL    HW119199   4.286   3.668   0.359
 6100SOL    HW219200   4.374   3.624   0.229
 6101SOL     OW19201   6.144   2.237   4.462
 6101SOL    HW119202   6.228   2.281   4.493
 6101SOL    HW219203   6.127   2.261   4.366
 6102SOL     OW19204   3.181   6.543   3.395
 6102SOL    HW119205   3.262   6.564   3.450
 6102SOL    HW219206   3.201   6.467   3.334
 6103SOL     OW19207   6.887   2.849   2.631
 6103SOL    HW119208   6.874   2.836   2.532
 6103SOL    HW219209   6.809   2.809   2.679
 6104SOL     OW19210   6.178   1.419   5.414
 6104SOL    HW119211   6.119   1.381   5.486
 6104SOL    HW219212   6.138   1.399   5.325
 6105SOL     OW19213   2.110   0.165   5.804
 6105SOL    HW119214   2.119   0.072   5.839
 6105SOL    HW219215   2.147   0.170   5.712
 6106SOL     OW19216   2.262   4.171   5.384
 6106SOL    HW119217   2.274   4.268   5.363
 6106SOL    HW219218   2.294   4.116   5.308
 6107SOL     OW19219   2.491   4.500   4.790
 6107SOL    HW119220   2.430   4.421   4.782
 6107SOL    HW219221   2.503   4.523   4.886
 6108SOL     OW19222   0.476   2.323   2.087
 6108SOL    HW119223   0.415   2.401   2.098
 6108SOL    HW219224   0.456   2.255   2.157
 6109SOL     OW19225   5.396   2.883   5.735
 6109SOL    HW119226   5.434   2.972   5.761
 6109SOL    HW219227   5.321   2.896   5.671
 6110SOL     OW19228   4.106   3.403   0.294
 6110SOL    HW119229   4.202   3.402   0.323
 6110SOL    HW219230   4.066   3.493   0.312
 6111SOL     OW19231   2.167   4.068   2.146
 6111SOL    HW119232   2.188   3.974   2.171
 6111SOL    HW219233   2.073   4.073   2.112
 6112SOL     OW19234   3.885   6.947   2.868
 6112SOL    HW119235   3.933   6.966   2.782
 6112SOL    HW219236   3.788   6.934   2.850
 6113SOL     OW19237   1.697   1.500   6.326
 6113SOL    HW119238   1.795   1.490   6.345
 6113SOL    HW219239   1.653   1.546   6.403
 6114SOL     OW19240   5.348   5.629   1.147
 6114SOL    HW119241   5.357   5.600   1.052
 6114SOL    HW219242   5.317   5.724   1.150
 6115SOL     OW19243   4.396   0.280   3.541
 6115SOL    HW119244   4.471   0.319   3.594
 6115SOL    HW219245   4.374   0.189   3.576
 6116SOL     OW19246   2.799   6.950   0.364
 6116SOL    HW119247   2.766   6.882   0.298
 6116SOL    HW219248   2.863   6.907   0.427
 6117SOL     OW19249   0.627   0.603   5.475
 6117SOL    HW119250   0.626   0.515   5.427
 6117SOL    HW219251   0.654   0.675   5.412
 6118SOL     OW19252   6.326   0.546   1.898
 6118SOL    HW119253   6.349   0.484   1.823
 6118SOL    HW219254   6.268   0.499   1.964
 6119SOL     OW19255   1.482   3.353   5.764
 6119SOL    HW119256   1.384   3.342   5.780
 6119SOL    HW219257   1.521   3.267   5.731
 6120SOL     OW19258   3.735   6.695   4.732
 6120SOL    HW119259   3.689   6.667   4.648
 6120SOL    HW219260   3.828   6.725   4.711
 6121SOL     OW19261   0.717   2.949   5.543
 6121SOL    HW119262   0.719   2.979   5.448
 6121SOL    HW219263   0.637   2.889   5.557
 6122SOL     OW19264   4.100   6.454   1.061
 6122SOL    HW119265   4.022   6.507   1.094
 6122SOL    HW219266   4.080   6.357   1.066
 6123SOL     OW19267   6.184   0.339   6.734
 6123SOL    HW119268   6.200   0.434   6.759
 6123SOL    HW219269   6.090   0.328   6.701
 6124SOL     OW19270   2.008   0.995   6.320
 6124SOL    HW119271   2.065   1.076   6.307
 6124SOL    HW219272   2.061   0.925   6.368
 6125SOL     OW19273   1.142   5.652   0.261
 6125SOL    HW119274   1.201   5.731   0.272
 6125SOL    HW219275   1.161   5.608   0.172
 6126SOL     OW19276   0.114   6.870   4.011
 6126SOL    HW119277   0.142   6.907   4.100
 6126SOL    HW219278   0.129   6.939   3.940
 6127SOL     OW19279   3.706   0.327   1.830
 6127SOL    HW119280   3.796   0.300   1.794
 6127SOL    HW219281   3.646   0.352   1.754
 6128SOL     OW19282   6.510   3.126   6.903
 6128SOL    HW119283   6.591   3.067   6.897
 6128SOL    HW219284   6.529   3.201   6.966
 6129SOL     OW19285   6.333   3.882   3.268
 6129SOL    HW119286   6.246   3.908   3.227
 6129SOL    HW219287   6.406   3.896   3.202
 6130SOL     OW19288   6.088   2.170   3.544
 6130SOL    HW119289   6.056   2.264   3.531
 6130SOL    HW219290   6.046   2.110   3.476
 6131SOL     OW19291   6.660   1.140   5.096
 6131SOL    HW119292   6.621   1.064   5.148
 6131SOL    HW219293   6.759   1.129   5.091
 6132SOL     OW19294   4.561   1.391   0.656
 6132SOL    HW119295   4.636   1.394   0.723
 6132SOL    HW219296   4.477   1.364   0.702
 6133SOL     OW19297   1.137   2.532   2.435
 6133SOL    HW119298   1.215   2.518   2.374
 6133SOL    HW219299   1.170   2.553   2.527
 6134SOL     OW19300   4.015   4.725   6.307
 6134SOL    HW119301   3.930   4.776   6.314
 6134SOL    HW219302   4.008   4.640   6.360
 6135SOL     OW19303   0.631   0.394   2.348
 6135SOL    HW119304   0.589   0.303   2.356
 6135SOL    HW219305   0.560   0.461   2.325
 6136SOL     OW19306   0.943   2.373   2.759
 6136SOL    HW119307   0.895   2.409   2.838
 6136SOL    HW219308   1.000   2.444   2.719
 6137SOL     OW19309   6.043   2.503   3.774
 6137SOL    HW119310   6.053   2.480   3.677
 6137SOL    HW219311   5.952   2.542   3.790
 6138SOL     OW19312   4.543   6.238   3.019
 6138SOL    HW119313   4.641   6.249   3.035
 6138SOL    HW219314   4.527   6.222   2.922
 6139SOL     OW19315   1.125   1.815   5.946
 6139SOL    HW119316   1.213   1.854   5.917
 6139SOL    HW219317   1.142   1.737   6.005
 6140SOL     OW19318   0.477   6.585   1.392
 6140SOL    HW119319   0.474   6.572   1.293
 6140SOL    HW219320   0.393   6.548   1.433
 6141SOL     OW19321   6.679   5.545   6.020
 6141SOL    HW119322   6.699   5.448   6.036
 6141SOL    HW219323   6.595   5.554   5.967
 6142SOL     OW19324   0.950   5.524   1.104
 6142SOL    HW119325   0.953   5.486   1.012
 6142SOL    HW219326   0.971   5.452   1.170
 6143SOL     OW19327   6.812   4.201   1.148
 6143SOL    HW119328   6.816   4.185   1.050
 6143SOL    HW219329   6.774   4.292   1.166
 6144SOL     OW19330   6.479   4.161   3.213
 6144SOL    HW119331   6.555   4.220   3.242
 6144SOL    HW219332   6.393   4.196   3.252
 6145SOL     OW19333   4.447   5.382   3.775
 6145SOL    HW119334   4.419   5.322   3.700
 6145SOL    HW219335   4.546   5.382   3.783
 6146SOL     OW19336   3.189   6.724   3.811
 6146SOL    HW119337   3.182   6.733   3.712
 6146SOL    HW219338   3.123   6.657   3.844
 6147SOL     OW19339   1.315   3.428   4.520
 6147SOL    HW119340   1.225   3.470   4.505
 6147SOL    HW219341   1.345   3.446   4.614
 6148SOL     OW19342   6.693   0.332   4.095
 6148SOL    HW119343   6.649   0.368   4.012
 6148SOL    HW219344   6.718   0.237   4.082
 6149SOL     OW19345   3.465   5.132   1.212
 6149SOL    HW119346   3.424   5.191   1.142
 6149SOL    HW219347   3.397   5.114   1.284
 6150SOL     OW19348   4.614   5.263   6.589
 6150SOL    HW119349   4.689   5.265   6.655
 6150SOL    HW219350   4.622   5.181   6.532
 6151SOL     OW19351   5.691   4.839   5.252
 6151SOL    HW119352   5.662   4.748   5.222
 6151SOL    HW219353   5.768   4.830   5.316
 6152SOL     OW19354   6.746   5.940   5.093
 6152SOL    HW119355   6.728   5.845   5.116
 6152SOL    HW219356   6.677   5.999   5.135
 6153SOL     OW19357   5.611   4.048   1.585
 6153SOL    HW119358   5.637   4.143   1.602
 6153SOL    HW219359   5.538   4.022   1.647
 6154SOL     OW19360   5.941   2.446   2.619
 6154SOL    HW119361   5.858   2.399   2.650
 6154SOL    HW219362   5.998   2.470   2.697
 6155SOL     OW19363   1.909   2.240   4.549
 6155SOL    HW119364   1.955   2.193   4.474
 6155SOL    HW219365   1.820   2.197   4.566
 6156SOL     OW19366   4.210   4.671   1.652
 6156SOL    HW119367   4.247   4.585   1.616
 6156SOL    HW219368   4.260   4.748   1.614
 6157SOL     OW19369   1.159   1.011   3.993
 6157SOL    HW119370   1.165   1.094   4.049
 6157SOL    HW219371   1.198   0.934   4.043
 6158SOL     OW19372   4.740   0.995   6.218
 6158SOL    HW119373   4.731   0.897   6.234
 6158SOL    HW219374   4.725   1.045   6.303
 6159SOL     OW19375   5.035   2.476   1.340
 6159SOL    HW119376   5.123   2.493   1.384
 6159SOL    HW219377   5.001   2.560   1.298
 6160SOL     OW19378   5.196   0.444   6.429
 6160SOL    HW119379   5.275   0.427   6.369
 6160SOL    HW219380   5.210   0.397   6.516
 6161SOL     OW19381   5.110   1.730   4.643
 6161SOL    HW119382   5.132   1.799   4.712
 6161SOL    HW219383   5.068   1.773   4.564
 6162SOL     OW19384   1.425   6.577   3.426
 6162SOL    HW119385   1.442   6.551   3.521
 6162SOL    HW219386   1.497   6.637   3.393
 6163SOL     OW19387   6.215   6.067   1.059
 6163SOL    HW119388   6.174   6.154   1.085
 6163SOL    HW219389   6.283   6.040   1.127
 6164SOL     OW19390   3.483   2.745   1.995
 6164SOL    HW119391   3.567   2.799   2.005
 6164SOL    HW219392   3.491   2.687   1.914
 6165SOL     OW19393   4.748   0.910   6.550
 6165SOL    HW119394   4.761   0.905   6.649
 6165SOL    HW219395   4.691   0.989   6.528
 6166SOL     OW19396   4.834   1.385   6.320
 6166SOL    HW119397   4.883   1.427   6.397
 6166SOL    HW219398   4.880   1.409   6.235
 6167SOL     OW19399   0.887   4.170   3.835
 6167SOL    HW119400   0.803   4.225   3.836
 6167SOL    HW219401   0.875   4.092   3.897
 6168SOL     OW19402   0.898   3.478   0.718
 6168SOL    HW119403   0.958   3.431   0.653
 6168SOL    HW219404   0.952   3.534   0.779
 6169SOL     OW19405   1.696   2.718   1.280
 6169SOL    HW119406   1.677   2.816   1.281
 6169SOL    HW219407   1.626   2.671   1.225
 6170SOL     OW19408   1.211   3.787   5.339
 6170SOL    HW119409   1.294   3.731   5.328
 6170SOL    HW219410   1.174   3.811   5.250
 6171SOL     OW19411   0.572   2.896   0.583
 6171SOL    HW119412   0.588   2.938   0.673
 6171SOL    HW219413   0.629   2.815   0.573
 6172SOL     OW19414   2.321   2.739   2.165
 6172SOL    HW119415   2.281   2.825   2.134
 6172SOL    HW219416   2.345   2.683   2.086
 6173SOL     OW19417   0.276   5.627   2.409
 6173SOL    HW119418   0.183   5.597   2.429
 6173SOL    HW219419   0.277   5.724   2.387
 6174SOL     OW19420   4.864   5.817   4.162
 6174SOL    HW119421   4.844   5.750   4.233
 6174SOL    HW219422   4.963   5.832   4.157
 6175SOL     OW19423   3.758   0.224   3.241
 6175SOL    HW119424   3.672   0.242   3.289
 6175SOL    HW219425   3.740   0.207   3.145
 6176SOL     OW19426   5.026   4.797   5.447
 6176SOL    HW119427   5.002   4.776   5.542
 6176SOL    HW219428   4.983   4.730   5.386
 6177SOL     OW19429   5.559   1.423   1.450
 6177SOL    HW119430   5.465   1.445   1.472
 6177SOL    HW219431   5.570   1.416   1.351
 6178SOL     OW19432   5.099   4.701   2.110
 6178SOL    HW119433   5.173   4.634   2.103
 6178SOL    HW219434   5.014   4.660   2.077
 6179SOL     OW19435   6.841   4.445   3.807
 6179SOL    HW119436   6.833   4.542   3.787
 6179SOL    HW219437   6.810   4.428   3.901
 6180SOL     OW19438   2.475   4.536   0.593
 6180SOL    HW119439   2.485   4.437   0.603
 6180SOL    HW219440   2.388   4.566   0.632
 6181SOL     OW19441   4.650   6.777   5.983
 6181SOL    HW119442   4.728   6.840   5.980
 6181SOL    HW219443   4.576   6.814   5.927
 6182SOL     OW19444   4.880   2.991   4.722
 6182SOL    HW119445   4.836   3.026   4.805
 6182SOL    HW219446   4.942   2.917   4.746
 6183SOL     OW19447   1.395   2.348   3.757
 6183SOL    HW119448   1.355   2.344   3.848
 6183SOL    HW219449   1.481   2.399   3.761
 6184SOL     OW19450   2.683   6.112   0.134
 6184SOL    HW119451   2.641   6.055   0.063
 6184SOL    HW219452   2.660   6.074   0.224
 6185SOL     OW19453   0.055   4.008   6.536
 6185SOL    HW119454   0.057   3.990   6.634
 6185SOL    HW219455   7.013   4.079   6.516
 6186SOL     OW19456   6.746   1.064   0.443
 6186SOL    HW119457   6.716   1.152   0.480
 6186SOL    HW219458   6.801   1.079   0.361
 6187SOL     OW19459   5.242   4.425   4.206
 6187SOL    HW119460   5.155   4.475   4.216
 6187SOL    HW219461   5.271   4.390   4.295
 6188SOL     OW19462   1.905   1.834   6.357
 6188SOL    HW119463   1.821   1.860   6.309
 6188SOL    HW219464   1.887   1.830   6.455
 6189SOL     OW19465   4.474   4.624   2.567
 6189SOL    HW119466   4.401   4.622   2.499
 6189SOL    HW219467   4.460   4.548   2.631
 6190SOL     OW19468   0.529   3.835   5.799
 6190SOL    HW119469   0.522   3.830   5.700
 6190SOL    HW219470   0.582   3.916   5.825
 6191SOL     OW19471   2.620   2.682   6.610
 6191SOL    HW119472   2.620   2.592   6.568
 6191SOL    HW219473   2.685   2.684   6.686
 6192SOL     OW19474   2.981   2.149   5.811
 6192SOL    HW119475   2.991   2.169   5.713
 6192SOL    HW219476   3.067   2.113   5.846
 6193SOL     OW19477   4.892   5.993   1.485
 6193SOL    HW119478   4.884   5.896   1.463
 6193SOL    HW219479   4.840   6.013   1.568
 6194SOL     OW19480   0.105   0.759   6.641
 6194SOL    HW119481   0.054   0.702   6.576
 6194SOL    HW219482   0.099   0.720   6.732
 6195SOL     OW19483   4.375   5.765   4.394
 6195SOL    HW119484   4.356   5.743   4.299
 6195SOL    HW219485   4.461   5.816   4.400
 6196SOL     OW19486   5.943   3.995   1.456
 6196SOL    HW119487   5.883   4.073   1.476
 6196SOL    HW219488   5.941   3.931   1.533
 6197SOL     OW19489   3.367   5.537   1.100
 6197SOL    HW119490   3.340   5.624   1.059
 6197SOL    HW219491   3.407   5.553   1.190
 6198SOL     OW19492   4.033   6.820   0.949
 6198SOL    HW119493   4.017   6.732   0.905
 6198SOL    HW219494   4.127   6.824   0.983
 6199SOL     OW19495   0.961   0.832   0.520
 6199SOL    HW119496   0.900   0.773   0.466
 6199SOL    HW219497   0.958   0.925   0.484
 6200SOL     OW19498   1.256   1.285   5.777
 6200SOL    HW119499   1.169   1.250   5.741
 6200SOL    HW219500   1.315   1.311   5.700
 6201SOL     OW19501   1.051   3.797   6.017
 6201SOL    HW119502   1.004   3.884   6.003
 6201SOL    HW219503   1.132   3.812   6.074
 6202SOL     OW19504   4.899   1.441   1.325
 6202SOL    HW119505   4.868   1.492   1.405
 6202SOL    HW219506   4.952   1.501   1.266
 6203SOL     OW19507   6.399   5.869   2.253
 6203SOL    HW119508   6.344   5.939   2.207
 6203SOL    HW219509   6.342   5.820   2.319
 6204SOL     OW19510   0.219   6.049   4.503
 6204SOL    HW119511   0.225   5.960   4.548
 6204SOL    HW219512   0.164   6.040   4.420
 6205SOL     OW19513   6.489   5.512   1.291
 6205SOL    HW119514   6.514   5.560   1.375
 6205SOL    HW219515   6.466   5.579   1.220
 6206SOL     OW19516   6.394   1.903   2.792
 6206SOL    HW119517   6.308   1.853   2.790
 6206SOL    HW219518   6.379   1.999   2.768
 6207SOL     OW19519   1.801   5.471   5.194
 6207SOL    HW119520   1.827   5.562   5.226
 6207SOL    HW219521   1.701   5.464   5.189
 6208SOL     OW19522   3.787   2.487   5.364
 6208SOL    HW119523   3.707   2.544   5.344
 6208SOL    HW219524   3.770   2.434   5.447
 6209SOL     OW19525   3.536   5.836   6.699
 6209SOL    HW119526   3.491   5.917   6.737
 6209SOL    HW219527   3.635   5.845   6.710
 6210SOL     OW19528   4.949   3.741   3.219
 6210SOL    HW119529   4.924   3.675   3.149
 6210SOL    HW219530   4.935   3.834   3.184
 6211SOL     OW19531   2.705   6.385   6.327
 6211SOL    HW119532   2.765   6.315   6.289
 6211SOL    HW219533   2.619   6.388   6.276
 6212SOL     OW19534   2.857   4.816   4.847
 6212SOL    HW119535   2.847   4.731   4.899
 6212SOL    HW219536   2.766   4.851   4.824
 6213SOL     OW19537   5.224   0.283   0.266
 6213SOL    HW119538   5.263   0.228   0.340
 6213SOL    HW219539   5.151   0.233   0.221
 6214SOL     OW19540   5.637   5.753   5.457
 6214SOL    HW119541   5.551   5.793   5.490
 6214SOL    HW219542   5.621   5.658   5.432
 6215SOL     OW19543   3.736   2.230   6.923
 6215SOL    HW119544   3.645   2.197   6.948
 6215SOL    HW219545   3.792   2.240   7.006
 6216SOL     OW19546   5.884   2.256   2.936
 6216SOL    HW119547   5.850   2.175   2.983
 6216SOL    HW219548   5.815   2.329   2.942
 6217SOL     OW19549   0.894   3.425   2.023
 6217SOL    HW119550   0.878   3.408   2.120
 6217SOL    HW219551   0.954   3.354   1.986
 6218SOL     OW19552   3.463   6.872   6.868
 6218SOL    HW119553   3.450   6.805   6.796
 6218SOL    HW219554   3.493   6.827   6.952
 6219SOL     OW19555   0.791   1.910   4.807
 6219SOL    HW119556   0.855   1.963   4.862
 6219SOL    HW219557   0.701   1.908   4.851
 6220SOL     OW19558   2.726   1.544   5.224
 6220SOL    HW119559   2.727   1.634   5.268
 6220SOL    HW219560   2.701   1.475   5.291
 6221SOL     OW19561   5.426   6.912   0.288
 6221SOL    HW119562   5.348   6.912   0.225
 6221SOL    HW219563   5.504   6.868   0.243
 6222SOL     OW19564   1.307   6.817   1.918
 6222SOL    HW119565   1.276   6.808   1.823
 6222SOL    HW219566   1.324   6.726   1.955
 6223SOL     OW19567   1.965   5.231   3.246
 6223SOL    HW119568   1.986   5.328   3.252
 6223SOL    HW219569   1.928   5.199   3.334
 6224SOL     OW19570   3.923   1.550   5.994
 6224SOL    HW119571   3.843   1.529   6.050
 6224SOL    HW219572   3.973   1.626   6.035
 6225SOL     OW19573   3.738   2.059   6.256
 6225SOL    HW119574   3.715   1.977   6.309
 6225SOL    HW219575   3.659   2.120   6.254
 6226SOL     OW19576   0.937   1.558   4.334
 6226SOL    HW119577   1.030   1.594   4.348
 6226SOL    HW219578   0.918   1.487   4.401
 6227SOL     OW19579   3.334   5.036   5.511
 6227SOL    HW119580   3.346   4.956   5.453
 6227SOL    HW219581   3.241   5.071   5.502
 6228SOL     OW19582   0.522   2.747   2.573
 6228SOL    HW119583   0.515   2.756   2.474
 6228SOL    HW219584   0.487   2.830   2.617
 6229SOL     OW19585   0.707   2.120   5.304
 6229SOL    HW119586   0.762   2.080   5.231
 6229SOL    HW219587   0.611   2.095   5.290
 6230SOL     OW19588   0.647   2.300   4.195
 6230SOL    HW119589   0.722   2.330   4.136
 6230SOL    HW219590   0.564   2.288   4.140
 6231SOL     OW19591   6.142   5.501   0.399
 6231SOL    HW119592   6.181   5.577   0.347
 6231SOL    HW219593   6.197   5.419   0.384
 6232SOL     OW19594   6.645   1.141   0.846
 6232SOL    HW119595   6.579   1.090   0.901
 6232SOL    HW219596   6.629   1.239   0.856
 6233SOL     OW19597   6.386   3.059   1.667
 6233SOL    HW119598   6.344   3.074   1.577
 6233SOL    HW219599   6.365   2.967   1.698
 6234SOL     OW19600   0.074   6.924   5.691
 6234SOL    HW119601   0.073   6.846   5.629
 6234SOL    HW219602   0.156   6.923   5.747
 6235SOL     OW19603   0.086   0.311   1.283
 6235SOL    HW119604   0.111   0.242   1.214
 6235SOL    HW219605   0.115   0.279   1.373
 6236SOL     OW19606   0.582   4.142   0.894
 6236SOL    HW119607   0.513   4.171   0.827
 6236SOL    HW219608   0.671   4.176   0.867
 6237SOL     OW19609   3.339   0.105   6.904
 6237SOL    HW119610   3.414   0.039   6.893
 6237SOL    HW219611   3.273   0.069   6.970
 6238SOL     OW19612   4.981   5.803   2.575
 6238SOL    HW119613   4.920   5.829   2.651
 6238SOL    HW219614   5.033   5.721   2.601
 6239SOL     OW19615   3.464   1.324   1.372
 6239SOL    HW119616   3.408   1.407   1.374
 6239SOL    HW219617   3.421   1.254   1.428
 6240SOL     OW19618   2.951   3.626   4.995
 6240SOL    HW119619   3.004   3.646   4.913
 6240SOL    HW219620   2.857   3.602   4.968
 6241SOL     OW19621   3.336   0.753   2.565
 6241SOL    HW119622   3.306   0.833   2.513
 6241SOL    HW219623   3.343   0.777   2.662
 6242SOL     OW19624   4.073   6.386   3.267
 6242SOL    HW119625   4.113   6.468   3.227
 6242SOL    HW219626   3.980   6.374   3.233
 6243SOL     OW19627   0.198   6.754   5.246
 6243SOL    HW119628   0.281   6.776   5.194
 6243SOL    HW219629   0.158   6.669   5.211
 6244SOL     OW19630   5.039   3.440   3.497
 6244SOL    HW119631   5.130   3.479   3.483
 6244SOL    HW219632   4.979   3.510   3.535
 6245SOL     OW19633   1.583   3.850   1.794
 6245SOL    HW119634   1.667   3.833   1.743
 6245SOL    HW219635   1.509   3.794   1.756
 6246SOL     OW19636   1.034   1.388   4.981
 6246SOL    HW119637   1.023   1.469   5.038
 6246SOL    HW219638   1.037   1.415   4.885
 6247SOL     OW19639   1.329   6.009   3.343
 6247SOL    HW119640   1.406   5.945   3.349
 6247SOL    HW219641   1.249   5.971   3.388
 6248SOL     OW19642   3.685   3.834   0.013
 6248SOL    HW119643   3.674   3.860   0.109
 6248SOL    HW219644   3.760   3.887   6.998
 6249SOL     OW19645   6.937   3.285   0.586
 6249SOL    HW119646   6.887   3.209   0.629
 6249SOL    HW219647   0.007   3.258   0.572
 6250SOL     OW19648   6.374   6.436   1.150
 6250SOL    HW119649   6.453   6.446   1.089
 6250SOL    HW219650   6.400   6.461   1.243
 6251SOL     OW19651   4.373   5.873   5.534
 6251SOL    HW119652   4.301   5.868   5.465
 6251SOL    HW219653   4.439   5.800   5.518
 6252SOL     OW19654   2.783   4.813   6.162
 6252SOL    HW119655   2.809   4.719   6.142
 6252SOL    HW219656   2.793   4.831   6.260
 6253SOL     OW19657   2.708   4.986   4.408
 6253SOL    HW119658   2.654   4.980   4.323
 6253SOL    HW219659   2.753   4.899   4.425
 6254SOL     OW19660   6.049   0.900   1.336
 6254SOL    HW119661   6.016   0.823   1.391
 6254SOL    HW219662   5.977   0.929   1.273
 6255SOL     OW19663   2.356   1.731   1.124
 6255SOL    HW119664   2.340   1.724   1.223
 6255SOL    HW219665   2.306   1.659   1.077
 6256SOL     OW19666   3.810   5.374   1.892
 6256SOL    HW119667   3.845   5.286   1.858
 6256SOL    HW219668   3.788   5.366   1.989
 6257SOL     OW19669   4.333   2.859   0.170
 6257SOL    HW119670   4.414   2.842   0.114
 6257SOL    HW219671   4.337   2.951   0.208
 6258SOL     OW19672   3.275   6.626   4.465
 6258SOL    HW119673   3.238   6.686   4.394
 6258SOL    HW219674   3.234   6.535   4.455
 6259SOL     OW19675   2.083   0.520   6.464
 6259SOL    HW119676   2.050   0.564   6.547
 6259SOL    HW219677   2.158   0.458   6.487
 6260SOL     OW19678   3.447   6.325   0.057
 6260SOL    HW119679   3.372   6.303   7.020
 6260SOL    HW219680   3.421   6.301   0.150
 6261SOL     OW19681   5.389   0.468   0.169
 6261SOL    HW119682   5.473   0.464   0.223
 6261SOL    HW219683   5.326   0.396   0.198
 6262SOL     OW19684   2.115   5.645   1.730
 6262SOL    HW119685   2.130   5.703   1.811
 6262SOL    HW219686   2.108   5.702   1.649
 6263SOL     OW19687   1.205   6.604   4.616
 6263SOL    HW119688   1.285   6.545   4.603
 6263SOL    HW219689   1.137   6.584   4.545
 6264SOL     OW19690   2.184   6.876   2.046
 6264SOL    HW119691   2.191   6.938   1.968
 6264SOL    HW219692   2.154   6.927   2.127
 6265SOL     OW19693   3.893   3.466   0.618
 6265SOL    HW119694   3.806   3.441   0.661
 6265SOL    HW219695   3.936   3.539   0.671
 6266SOL     OW19696   4.414   0.348   3.277
 6266SOL    HW119697   4.429   0.319   3.371
 6266SOL    HW219698   4.367   0.436   3.276
 6267SOL     OW19699   2.169   6.841   4.936
 6267SOL    HW119700   2.258   6.872   4.970
 6267SOL    HW219701   2.181   6.764   4.873
 6268SOL     OW19702   2.752   0.468   1.923
 6268SOL    HW119703   2.795   0.544   1.874
 6268SOL    HW219704   2.729   0.497   2.016
 6269SOL     OW19705   7.001   0.349   2.319
 6269SOL    HW119706   6.925   0.348   2.254
 6269SOL    HW219707   6.993   0.430   2.378
 6270SOL     OW19708   0.271   0.078   6.722
 6270SOL    HW119709   0.205   0.131   6.775
 6270SOL    HW219710   0.330   0.140   6.670
 6271SOL     OW19711   5.928   2.583   5.744
 6271SOL    HW119712   5.863   2.509   5.765
 6271SOL    HW219713   5.918   2.656   5.810
 6272SOL     OW19714   0.493   2.086   0.864
 6272SOL    HW119715   0.545   2.049   0.940
 6272SOL    HW219716   0.549   2.153   0.815
 6273SOL     OW19717   0.608   6.600   2.703
 6273SOL    HW119718   0.513   6.569   2.711
 6273SOL    HW219719   0.641   6.585   2.610
 6274SOL     OW19720   3.611   6.938   4.456
 6274SOL    HW119721   3.570   6.950   4.546
 6274SOL    HW219722   3.621   6.841   4.437
 6275SOL     OW19723   1.951   6.332   0.286
 6275SOL    HW119724   1.951   6.380   0.198
 6275SOL    HW219725   1.914   6.240   0.274
 6276SOL     OW19726   2.449   5.675   3.104
 6276SOL    HW119727   2.463   5.589   3.055
 6276SOL    HW219728   2.535   5.726   3.107
 6277SOL     OW19729   4.604   3.407   0.718
 6277SOL    HW119730   4.564   3.486   0.765
 6277SOL    HW219731   4.602   3.423   0.619
 6278SOL     OW19732   4.029   0.140   4.855
 6278SOL    HW119733   3.940   0.178   4.831
 6278SOL    HW219734   4.100   0.211   4.844
 6279SOL     OW19735   3.314   6.328   0.337
 6279SOL    HW119736   3.275   6.245   0.296
 6279SOL    HW219737   3.358   6.304   0.424
 6280SOL     OW19738   0.313   0.919   6.564
 6280SOL    HW119739   0.243   0.853   6.593
 6280SOL    HW219740   0.362   0.953   6.644
 6281SOL     OW19741   6.742   4.843   4.365
 6281SOL    HW119742   6.689   4.868   4.446
 6281SOL    HW219743   6.824   4.793   4.392
 6282SOL     OW19744   6.419   4.411   5.606
 6282SOL    HW119745   6.384   4.482   5.667
 6282SOL    HW219746   6.485   4.354   5.656
 6283SOL     OW19747   0.113   3.975   4.002
 6283SOL    HW119748   0.081   3.907   3.936
 6283SOL    HW219749   0.111   3.936   4.094
 6284SOL     OW19750   1.894   4.821   6.079
 6284SOL    HW119751   1.817   4.758   6.074
 6284SOL    HW219752   1.879   4.896   6.014
 6285SOL     OW19753   1.303   3.230   3.325
 6285SOL    HW119754   1.376   3.163   3.334
 6285SOL    HW219755   1.243   3.204   3.250
 6286SOL     OW19756   6.928   2.875   4.635
 6286SOL    HW119757   6.935   2.935   4.555
 6286SOL    HW219758   6.837   2.884   4.676
 6287SOL     OW19759   3.393   4.824   5.351
 6287SOL    HW119760   3.352   4.738   5.321
 6287SOL    HW219761   3.449   4.862   5.277
 6288SOL     OW19762   5.649   4.751   1.722
 6288SOL    HW119763   5.694   4.698   1.793
 6288SOL    HW219764   5.714   4.814   1.680
 6289SOL     OW19765   2.299   5.009   6.757
 6289SOL    HW119766   2.375   4.945   6.764
 6289SOL    HW219767   2.325   5.086   6.699
 6290SOL     OW19768   5.892   5.000   5.830
 6290SOL    HW119769   5.880   5.059   5.751
 6290SOL    HW219770   5.970   5.032   5.884
 6291SOL     OW19771   3.808   3.893   3.798
 6291SOL    HW119772   3.758   3.810   3.824
 6291SOL    HW219773   3.761   3.936   3.721
 6292SOL     OW19774   2.565   2.567   5.469
 6292SOL    HW119775   2.611   2.539   5.385
 6292SOL    HW219776   2.575   2.666   5.481
 6293SOL     OW19777   4.589   1.737   0.746
 6293SOL    HW119778   4.501   1.692   0.758
 6293SOL    HW219779   4.642   1.732   0.831
 6294SOL     OW19780   4.002   0.353   3.184
 6294SOL    HW119781   4.045   0.300   3.257
 6294SOL    HW219782   3.903   0.339   3.187
 6295SOL     OW19783   5.482   4.201   4.310
 6295SOL    HW119784   5.555   4.149   4.353
 6295SOL    HW219785   5.436   4.258   4.379
 6296SOL     OW19786   6.855   4.781   5.739
 6296SOL    HW119787   6.789   4.734   5.680
 6296SOL    HW219788   6.930   4.816   5.682
 6297SOL     OW19789   6.074   0.468   5.267
 6297SOL    HW119790   6.075   0.440   5.171
 6297SOL    HW219791   6.017   0.404   5.319
 6298SOL     OW19792   0.963   3.548   6.518
 6298SOL    HW119793   1.062   3.560   6.511
 6298SOL    HW219794   0.918   3.600   6.446
 6299SOL     OW19795   6.188   2.824   1.870
 6299SOL    HW119796   6.209   2.915   1.905
 6299SOL    HW219797   6.089   2.815   1.858
 6300SOL     OW19798   6.315   0.946   0.218
 6300SOL    HW119799   6.327   0.945   0.318
 6300SOL    HW219800   6.403   0.965   0.175
 6301SOL     OW19801   2.682   6.610   0.426
 6301SOL    HW119802   2.711   6.520   0.394
 6301SOL    HW219803   2.700   6.678   0.355
 6302SOL     OW19804   1.948   1.949   4.725
 6302SOL    HW119805   1.940   1.917   4.630
 6302SOL    HW219806   1.863   1.994   4.752
 6303SOL     OW19807   0.519   0.328   5.580
 6303SOL    HW119808   0.581   0.403   5.603
 6303SOL    HW219809   0.571   0.244   5.565
 6304SOL     OW19810   3.968   1.412   1.832
 6304SOL    HW119811   3.994   1.318   1.809
 6304SOL    HW219812   3.901   1.445   1.765
 6305SOL     OW19813   6.019   6.050   0.321
 6305SOL    HW119814   5.987   6.145   0.324
 6305SOL    HW219815   6.002   6.011   0.231
 6306SOL     OW19816   6.969   3.758   4.097
 6306SOL    HW119817   6.902   3.731   4.167
 6306SOL    HW219818   7.016   3.677   4.064
 6307SOL     OW19819   3.272   3.449   3.690
 6307SOL    HW119820   3.330   3.385   3.638
 6307SOL    HW219821   3.178   3.416   3.689
 6308SOL     OW19822   1.614   2.481   4.795
 6308SOL    HW119823   1.604   2.387   4.763
 6308SOL    HW219824   1.705   2.493   4.836
 6309SOL     OW19825   6.724   6.530   4.565
 6309SOL    HW119826   6.635   6.512   4.523
 6309SOL    HW219827   6.796   6.491   4.508
 6310SOL     OW19828   1.240   6.717   2.636
 6310SOL    HW119829   1.335   6.688   2.649
 6310SOL    HW219830   1.226   6.807   2.677
 6311SOL     OW19831   4.964   1.933   5.535
 6311SOL    HW119832   4.934   2.008   5.477
 6311SOL    HW219833   5.040   1.963   5.593
 6312SOL     OW19834   0.742   6.938   5.395
 6312SOL    HW119835   0.739   6.863   5.330
 6312SOL    HW219836   0.815   6.922   5.462
 6313SOL     OW19837   6.504   6.043   3.771
 6313SOL    HW119838   6.539   6.127   3.810
 6313SOL    HW219839   6.425   6.011   3.823
 6314SOL     OW19840   3.614   6.701   1.862
 6314SOL    HW119841   3.534   6.731   1.914
 6314SOL    HW219842   3.660   6.780   1.822
 6315SOL     OW19843   3.281   1.748   5.871
 6315SOL    HW119844   3.308   1.839   5.839
 6315SOL    HW219845   3.348   1.715   5.937
 6316SOL     OW19846   5.311   2.474   5.415
 6316SOL    HW119847   5.369   2.396   5.438
 6316SOL    HW219848   5.271   2.461   5.324
 6317SOL     OW19849   4.861   4.627   1.986
 6317SOL    HW119850   4.938   4.627   1.923
 6317SOL    HW219851   4.836   4.533   2.010
 6318SOL     OW19852   4.618   0.563   6.294
 6318SOL    HW119853   4.553   0.620   6.244
 6318SOL    HW219854   4.680   0.519   6.230
 6319SOL     OW19855   6.495   2.611   5.466
 6319SOL    HW119856   6.450   2.553   5.534
 6319SOL    HW219857   6.570   2.560   5.423
 6320SOL     OW19858   0.010   6.828   4.943
 6320SOL    HW119859   0.050   6.743   4.977
 6320SOL    HW219860   6.960   6.807   4.881
 6321SOL     OW19861   4.443   3.186   0.791
 6321SOL    HW119862   4.509   3.261   0.780
 6321SOL    HW219863   4.446   3.128   0.710
 6322SOL     OW19864   2.952   2.543   0.419
 6322SOL    HW119865   3.045   2.534   0.384
 6322SOL    HW219866   2.898   2.601   0.358
 6323SOL     OW19867   1.306   2.026   2.309
 6323SOL    HW119868   1.392   2.070   2.335
 6323SOL    HW219869   1.278   1.961   2.380
 6324SOL     OW19870   4.042   0.775   0.720
 6324SOL    HW119871   4.052   0.798   0.817
 6324SOL    HW219872   4.133   0.770   0.678
 6325SOL     OW19873   1.939   3.258   2.687
 6325SOL    HW119874   1.951   3.210   2.600
 6325SOL    HW219875   1.878   3.336   2.674
 6326SOL     OW19876   5.388   4.964   0.270
 6326SOL    HW119877   5.303   5.013   0.251
 6326SOL    HW219878   5.421   4.920   0.186
 6327SOL     OW19879   0.112   1.996   4.321
 6327SOL    HW119880   0.073   2.078   4.365
 6327SOL    HW219881   0.107   1.919   4.385
 6328SOL     OW19882   4.549   3.175   0.161
 6328SOL    HW119883   4.477   3.232   0.123
 6328SOL    HW219884   4.569   3.100   0.098
 6329SOL     OW19885   1.431   2.678   4.873
 6329SOL    HW119886   1.491   2.599   4.861
 6329SOL    HW219887   1.370   2.662   4.950
 6330SOL     OW19888   5.932   6.674   2.240
 6330SOL    HW119889   5.843   6.713   2.263
 6330SOL    HW219890   5.967   6.718   2.158
 6331SOL     OW19891   0.016   3.847   4.795
 6331SOL    HW119892   7.010   3.778   4.860
 6331SOL    HW219893   7.018   3.818   4.702
 6332SOL     OW19894   0.616   2.752   1.155
 6332SOL    HW119895   0.597   2.775   1.250
 6332SOL    HW219896   0.714   2.737   1.143
 6333SOL     OW19897   5.082   0.054   5.453
 6333SOL    HW119898   5.169   0.069   5.406
 6333SOL    HW219899   5.011   0.108   5.408
 6334SOL     OW19900   3.092   0.789   2.320
 6334SOL    HW119901   3.151   0.850   2.373
 6334SOL    HW219902   3.008   0.771   2.370
 6335SOL     OW19903   3.914   0.757   0.248
 6335SOL    HW119904   3.888   0.664   0.222
 6335SOL    HW219905   3.836   0.802   0.290
 6336SOL     OW19906   0.348   1.926   6.441
 6336SOL    HW119907   0.351   1.954   6.345
 6336SOL    HW219908   0.355   2.007   6.500
 6337SOL     OW19909   3.944   4.993   4.772
 6337SOL    HW119910   3.942   4.933   4.693
 6337SOL    HW219911   3.855   5.039   4.782
 6338SOL     OW19912   2.344   2.552   4.124
 6338SOL    HW119913   2.428   2.497   4.129
 6338SOL    HW219914   2.345   2.621   4.197
 6339SOL     OW19915   0.536   3.363   4.175
 6339SOL    HW119916   0.478   3.436   4.138
 6339SOL    HW219917   0.489   3.275   4.166
 6340SOL     OW19918   2.682   4.166   1.085
 6340SOL    HW119919   2.619   4.137   1.012
 6340SOL    HW219920   2.632   4.214   1.156
 6341SOL     OW19921   6.457   3.336   4.705
 6341SOL    HW119922   6.420   3.415   4.754
 6341SOL    HW219923   6.557   3.341   4.704
 6342SOL     OW19924   2.608   1.549   1.186
 6342SOL    HW119925   2.578   1.643   1.167
 6342SOL    HW219926   2.700   1.552   1.226
 6343SOL     OW19927   3.785   0.437   6.717
 6343SOL    HW119928   3.845   0.470   6.644
 6343SOL    HW219929   3.710   0.385   6.676
 6344SOL     OW19930   4.763   2.433   3.745
 6344SOL    HW119931   4.786   2.439   3.842
 6344SOL    HW219932   4.670   2.466   3.731
 6345SOL     OW19933   5.038   2.453   1.691
 6345SOL    HW119934   4.952   2.454   1.639
 6345SOL    HW219935   5.054   2.543   1.731
 6346SOL     OW19936   0.244   5.339   4.844
 6346SOL    HW119937   0.266   5.417   4.903
 6346SOL    HW219938   0.160   5.359   4.794
 6347SOL     OW19939   1.715   1.709   0.733
 6347SOL    HW119940   1.615   1.705   0.737
 6347SOL    HW219941   1.744   1.723   0.638
 6348SOL     OW19942   1.352   2.871   6.971
 6348SOL    HW119943   1.361   2.864   0.045
 6348SOL    HW219944   1.307   2.957   6.948
 6349SOL     OW19945   1.857   1.311   0.946
 6349SOL    HW119946   1.846   1.238   1.014
 6349SOL    HW219947   1.866   1.399   0.993
 6350SOL     OW19948   0.938   5.335   4.203
 6350SOL    HW119949   0.856   5.391   4.208
 6350SOL    HW219950   0.925   5.253   4.259
 6351SOL     OW19951   5.833   3.348   3.734
 6351SOL    HW119952   5.842   3.446   3.718
 6351SOL    HW219953   5.816   3.332   3.832
 6352SOL     OW19954   3.006   0.497   4.807
 6352SOL    HW119955   2.981   0.563   4.736
 6352SOL    HW219956   3.102   0.472   4.796
 6353SOL     OW19957   1.246   5.852   5.735
 6353SOL    HW119958   1.223   5.861   5.832
 6353SOL    HW219959   1.330   5.798   5.726
 6354SOL     OW19960   3.614   6.115   2.804
 6354SOL    HW119961   3.534   6.073   2.846
 6354SOL    HW219962   3.585   6.179   2.732
 6355SOL     OW19963   3.049   5.707   6.765
 6355SOL    HW119964   3.009   5.619   6.791
 6355SOL    HW219965   3.144   5.710   6.794
 6356SOL     OW19966   5.655   4.715   0.801
 6356SOL    HW119967   5.579   4.779   0.818
 6356SOL    HW219968   5.739   4.766   0.784
 6357SOL     OW19969   5.566   3.699   2.358
 6357SOL    HW119970   5.498   3.704   2.431
 6357SOL    HW219971   5.642   3.641   2.387
 6358SOL     OW19972   0.074   1.870   6.238
 6358SOL    HW119973   0.076   1.788   6.295
 6358SOL    HW219974   0.145   1.934   6.268
 6359SOL     OW19975   6.094   6.852   0.105
 6359SOL    HW119976   6.075   6.903   0.021
 6359SOL    HW219977   6.035   6.885   0.179
 6360SOL     OW19978   1.102   3.748   5.032
 6360SOL    HW119979   1.072   3.839   5.060
 6360SOL    HW219980   1.025   3.698   4.993
 6361SOL     OW19981   1.109   0.836   0.918
 6361SOL    HW119982   1.202   0.871   0.917
 6361SOL    HW219983   1.104   0.753   0.863
 6362SOL     OW19984   0.627   5.529   5.948
 6362SOL    HW119985   0.567   5.455   5.980
 6362SOL    HW219986   0.719   5.515   5.986
 6363SOL     OW19987   2.458   5.863   3.724
 6363SOL    HW119988   2.547   5.817   3.729
 6363SOL    HW219989   2.409   5.831   3.643
 6364SOL     OW19990   2.902   2.314   5.607
 6364SOL    HW119991   2.802   2.306   5.599
 6364SOL    HW219992   2.934   2.391   5.552
 6365SOL     OW19993   4.838   6.491   4.004
 6365SOL    HW119994   4.818   6.552   3.928
 6365SOL    HW219995   4.863   6.401   3.970
 6366SOL     OW19996   0.842   5.827   5.140
 6366SOL    HW119997   0.924   5.769   5.144
 6366SOL    HW219998   0.868   5.923   5.134
 6367SOL     OW19999   3.660   2.070   3.613
 6367SOL    HW120000   3.683   2.076   3.710
 6367SOL    HW220001   3.567   2.105   3.599
 6368SOL     OW20002   3.726   5.024   4.186
 6368SOL    HW120003   3.757   5.114   4.156
 6368SOL    HW220004   3.805   4.964   4.197
 6369SOL     OW20005   1.647   0.585   4.705
 6369SOL    HW120006   1.712   0.660   4.712
 6369SOL    HW220007   1.653   0.528   4.788
 6370SOL     OW20008   5.341   3.915   3.543
 6370SOL    HW120009   5.249   3.955   3.550
 6370SOL    HW220010   5.362   3.899   3.447
 6371SOL     OW20011   5.816   4.566   3.070
 6371SOL    HW120012   5.765   4.629   3.129
 6371SOL    HW220013   5.754   4.497   3.034
 6372SOL     OW20014   1.379   1.048   1.936
 6372SOL    HW120015   1.338   1.013   2.020
 6372SOL    HW220016   1.322   1.022   1.857
 6373SOL     OW20017   5.188   4.640   2.991
 6373SOL    HW120018   5.158   4.736   2.994
 6373SOL    HW220019   5.153   4.598   2.907
 6374SOL     OW20020   4.223   3.295   1.496
 6374SOL    HW120021   4.311   3.256   1.522
 6374SOL    HW220022   4.158   3.286   1.572
 6375SOL     OW20023   0.075   2.509   2.352
 6375SOL    HW120024   0.036   2.564   2.426
 6375SOL    HW220025   0.002   2.476   2.292
 6376SOL     OW20026   4.720   2.085   6.552
 6376SOL    HW120027   4.690   2.007   6.608
 6376SOL    HW220028   4.752   2.052   6.464
 6377SOL     OW20029   6.377   1.597   5.102
 6377SOL    HW120030   6.470   1.602   5.065
 6377SOL    HW220031   6.381   1.601   5.202
 6378SOL     OW20032   5.446   5.183   3.459
 6378SOL    HW120033   5.484   5.259   3.512
 6378SOL    HW220034   5.443   5.208   3.362
 6379SOL     OW20035   0.237   3.989   4.858
 6379SOL    HW120036   0.270   3.964   4.949
 6379SOL    HW220037   0.159   3.931   4.833
 6380SOL     OW20038   0.227   1.823   5.154
 6380SOL    HW120039   0.256   1.906   5.105
 6380SOL    HW220040   0.307   1.765   5.171
 6381SOL     OW20041   4.290   2.996   0.963
 6381SOL    HW120042   4.324   3.019   0.871
 6381SOL    HW220043   4.367   2.994   1.027
 6382SOL     OW20044   3.268   1.530   7.023
 6382SOL    HW120045   3.339   1.467   0.028
 6382SOL    HW220046   3.200   1.542   0.070
 6383SOL     OW20047   2.389   2.473   2.487
 6383SOL    HW120048   2.470   2.430   2.526
 6383SOL    HW220049   2.395   2.473   2.388
 6384SOL     OW20050   5.766   3.778   3.027
 6384SOL    HW120051   5.824   3.805   2.950
 6384SOL    HW220052   5.672   3.806   3.009
 6385SOL     OW20053   6.740   3.673   3.487
 6385SOL    HW120054   6.793   3.735   3.546
 6385SOL    HW220055   6.644   3.700   3.489
 6386SOL     OW20056   2.747   3.308   6.366
 6386SOL    HW120057   2.684   3.378   6.332
 6386SOL    HW220058   2.749   3.310   6.466
 6387SOL     OW20059   6.482   1.593   6.879
 6387SOL    HW120060   6.538   1.664   6.923
 6387SOL    HW220061   6.398   1.579   6.933
 6388SOL     OW20062   5.214   5.872   0.983
 6388SOL    HW120063   5.226   5.882   0.884
 6388SOL    HW220064   5.146   5.937   1.015
 6389SOL     OW20065   0.572   6.799   0.662
 6389SOL    HW120066   0.480   6.781   0.698
 6389SOL    HW220067   0.631   6.832   0.736
 6390SOL     OW20068   6.319   0.549   5.289
 6390SOL    HW120069   6.224   0.532   5.313
 6390SOL    HW220070   6.362   0.464   5.259
 6391SOL     OW20071   2.139   0.803   6.440
 6391SOL    HW120072   2.104   0.710   6.451
 6391SOL    HW220073   2.115   0.857   6.521
 6392SOL     OW20074   3.031   4.799   2.858
 6392SOL    HW120075   2.945   4.802   2.807
 6392SOL    HW220076   3.012   4.798   2.956
 6393SOL     OW20077   0.106   6.033   2.126
 6393SOL    HW120078   0.158   6.108   2.167
 6393SOL    HW220079   0.009   6.058   2.123
 6394SOL     OW20080   1.573   5.442   0.934
 6394SOL    HW120081   1.535   5.449   1.026
 6394SOL    HW220082   1.502   5.458   0.866
 6395SOL     OW20083   6.801   2.983   1.821
 6395SOL    HW120084   6.711   2.979   1.864
 6395SOL    HW220085   6.829   3.078   1.812
 6396SOL     OW20086   6.479   3.553   6.437
 6396SOL    HW120087   6.445   3.471   6.393
 6396SOL    HW220088   6.413   3.585   6.505
 6397SOL     OW20089   5.594   1.087   1.461
 6397SOL    HW120090   5.680   1.119   1.419
 6397SOL    HW220091   5.545   1.164   1.501
 6398SOL     OW20092   3.155   6.725   1.737
 6398SOL    HW120093   3.157   6.626   1.744
 6398SOL    HW220094   3.095   6.763   1.808
 6399SOL     OW20095   1.713   0.659   6.786
 6399SOL    HW120096   1.812   0.656   6.772
 6399SOL    HW220097   1.692   0.645   6.883
 6400SOL     OW20098   2.007   4.943   2.400
 6400SOL    HW120099   1.980   4.928   2.495
 6400SOL    HW220100   2.097   4.902   2.385
 6401SOL     OW20101   5.516   5.544   2.931
 6401SOL    HW120102   5.549   5.622   2.879
 6401SOL    HW220103   5.592   5.483   2.953
 6402SOL     OW20104   2.134   3.229   3.573
 6402SOL    HW120105   2.150   3.179   3.658
 6402SOL    HW220106   2.123   3.326   3.593
 6403SOL     OW20107   5.869   6.088   5.566
 6403SOL    HW120108   5.969   6.087   5.563
 6403SOL    HW220109   5.837   6.180   5.587
 6404SOL     OW20110   4.355   1.338   2.454
 6404SOL    HW120111   4.345   1.311   2.550
 6404SOL    HW220112   4.451   1.359   2.435
 6405SOL     OW20113   4.355   0.658   4.030
 6405SOL    HW120114   4.382   0.610   3.946
 6405SOL    HW220115   4.263   0.631   4.056
 6406SOL     OW20116   0.673   2.761   2.941
 6406SOL    HW120117   0.731   2.823   2.994
 6406SOL    HW220118   0.694   2.772   2.844
 6407SOL     OW20119   2.426   0.181   4.768
 6407SOL    HW120120   2.467   0.090   4.776
 6407SOL    HW220121   2.440   0.215   4.675
 6408SOL     OW20122   5.025   1.665   1.147
 6408SOL    HW120123   5.071   1.710   1.224
 6408SOL    HW220124   5.086   1.665   1.068
 6409SOL     OW20125   6.738   4.345   3.388
 6409SOL    HW120126   6.754   4.428   3.442
 6409SOL    HW220127   6.819   4.325   3.332
 6410SOL     OW20128   1.931   1.278   6.152
 6410SOL    HW120129   1.963   1.265   6.058
 6410SOL    HW220130   1.987   1.349   6.197
 6411SOL     OW20131   0.470   2.479   2.494
 6411SOL    HW120132   0.470   2.439   2.585
 6411SOL    HW220133   0.480   2.578   2.501
 6412SOL     OW20134   1.790   1.029   6.131
 6412SOL    HW120135   1.766   1.122   6.157
 6412SOL    HW220136   1.860   0.994   6.193
 6413SOL     OW20137   3.809   4.891   3.856
 6413SOL    HW120138   3.781   4.869   3.763
 6413SOL    HW220139   3.869   4.819   3.891
 6414SOL     OW20140   5.101   0.930   6.874
 6414SOL    HW120141   5.199   0.941   6.890
 6414SOL    HW220142   5.085   0.842   6.828
 6415SOL     OW20143   1.542   3.147   4.061
 6415SOL    HW120144   1.589   3.231   4.088
 6415SOL    HW220145   1.606   3.070   4.067
 6416SOL     OW20146   2.334   6.598   6.285
 6416SOL    HW120147   2.245   6.620   6.326
 6416SOL    HW220148   2.331   6.505   6.247
 6417SOL     OW20149   5.956   3.743   0.575
 6417SOL    HW120150   6.035   3.803   0.562
 6417SOL    HW220151   5.897   3.749   0.494
 6418SOL     OW20152   4.857   4.014   3.178
 6418SOL    HW120153   4.803   4.031   3.096
 6418SOL    HW220154   4.833   4.080   3.249
 6419SOL     OW20155   1.535   5.208   3.172
 6419SOL    HW120156   1.492   5.255   3.095
 6419SOL    HW220157   1.580   5.125   3.138
 6420SOL     OW20158   2.642   0.715   4.192
 6420SOL    HW120159   2.682   0.807   4.188
 6420SOL    HW220160   2.544   0.723   4.211
 6421SOL     OW20161   4.868   0.073   1.661
 6421SOL    HW120162   4.943   0.139   1.665
 6421SOL    HW220163   4.849   0.049   1.566
 6422SOL     OW20164   6.664   1.589   5.020
 6422SOL    HW120165   6.653   1.661   4.951
 6422SOL    HW220166   6.752   1.543   5.007
 6423SOL     OW20167   5.163   5.095   4.466
 6423SOL    HW120168   5.193   5.000   4.468
 6423SOL    HW220169   5.218   5.146   4.399
 6424SOL     OW20170   0.406   3.824   4.598
 6424SOL    HW120171   0.363   3.892   4.657
 6424SOL    HW220172   0.348   3.808   4.518
 6425SOL     OW20173   6.712   5.925   2.911
 6425SOL    HW120174   6.633   5.883   2.955
 6425SOL    HW220175   6.714   6.023   2.932
 6426SOL     OW20176   6.947   5.375   3.045
 6426SOL    HW120177   6.939   5.355   2.947
 6426SOL    HW220178   7.021   5.441   3.059
 6427SOL     OW20179   3.667   4.005   3.581
 6427SOL    HW120180   3.611   3.969   3.506
 6427SOL    HW220181   3.613   4.070   3.635
 6428SOL     OW20182   6.046   3.513   0.361
 6428SOL    HW120183   6.116   3.584   0.360
 6428SOL    HW220184   5.956   3.555   0.376
 6429SOL     OW20185   6.930   0.758   5.729
 6429SOL    HW120186   7.006   0.824   5.730
 6429SOL    HW220187   6.860   0.788   5.793
 6430SOL     OW20188   6.508   1.250   4.013
 6430SOL    HW120189   6.589   1.306   4.000
 6430SOL    HW220190   6.443   1.298   4.072
 6431SOL     OW20191   3.938   6.183   3.818
 6431SOL    HW120192   3.916   6.223   3.729
 6431SOL    HW220193   3.907   6.088   3.820
 6432SOL     OW20194   4.422   4.895   5.599
 6432SOL    HW120195   4.427   4.989   5.566
 6432SOL    HW220196   4.411   4.894   5.698
 6433SOL     OW20197   2.611   4.908   6.561
 6433SOL    HW120198   2.554   4.945   6.488
 6433SOL    HW220199   2.696   4.871   6.522
 6434SOL     OW20200   3.303   0.086   6.517
 6434SOL    HW120201   3.204   0.097   6.513
 6434SOL    HW220202   3.340   0.139   6.593
 6435SOL     OW20203   5.800   6.811   0.673
 6435SOL    HW120204   5.869   6.877   0.701
 6435SOL    HW220205   5.756   6.773   0.754
 6436SOL     OW20206   1.285   3.533   2.530
 6436SOL    HW120207   1.223   3.464   2.570
 6436SOL    HW220208   1.333   3.580   2.604
 6437SOL     OW20209   1.556   2.043   0.705
 6437SOL    HW120210   1.487   2.050   0.633
 6437SOL    HW220211   1.640   2.004   0.667
 6438SOL     OW20212   0.346   4.668   5.484
 6438SOL    HW120213   0.425   4.678   5.545
 6438SOL    HW220214   0.271   4.626   5.535
 6439SOL     OW20215   5.193   0.885   2.025
 6439SOL    HW120216   5.130   0.910   1.951
 6439SOL    HW220217   5.147   0.823   2.088
 6440SOL     OW20218   2.654   1.555   5.721
 6440SOL    HW120219   2.574   1.570   5.663
 6440SOL    HW220220   2.718   1.495   5.673
 6441SOL     OW20221   0.470   0.591   1.410
 6441SOL    HW120222   0.432   0.536   1.336
 6441SOL    HW220223   0.430   0.683   1.408
 6442SOL     OW20224   2.765   1.879   5.267
 6442SOL    HW120225   2.724   1.967   5.291
 6442SOL    HW220226   2.835   1.892   5.196
 6443SOL     OW20227   3.427   3.121   5.320
 6443SOL    HW120228   3.418   3.120   5.420
 6443SOL    HW220229   3.379   3.042   5.282
 6444SOL     OW20230   5.505   2.829   4.898
 6444SOL    HW120231   5.483   2.788   4.987
 6444SOL    HW220232   5.599   2.863   4.899
 6445SOL     OW20233   4.098   3.461   3.442
 6445SOL    HW120234   4.128   3.448   3.536
 6445SOL    HW220235   4.002   3.433   3.434
 6446SOL     OW20236   0.714   1.821   0.212
 6446SOL    HW120237   0.638   1.786   0.158
 6446SOL    HW220238   0.683   1.837   0.306
 6447SOL     OW20239   0.098   4.368   2.975
 6447SOL    HW120240   0.073   4.273   2.992
 6447SOL    HW220241   0.149   4.374   2.889
 6448SOL     OW20242   5.083   5.160   1.344
 6448SOL    HW120243   5.158   5.226   1.353
 6448SOL    HW220244   5.011   5.183   1.409
 6449SOL     OW20245   3.525   5.668   1.756
 6449SOL    HW120246   3.484   5.706   1.838
 6449SOL    HW220247   3.493   5.574   1.743
 6450SOL     OW20248   1.552   2.778   0.688
 6450SOL    HW120249   1.502   2.724   0.756
 6450SOL    HW220250   1.646   2.791   0.718
 6451SOL     OW20251   2.423   0.686   6.150
 6451SOL    HW120252   2.343   0.631   6.174
 6451SOL    HW220253   2.415   0.718   6.056
 6452SOL     OW20254   4.819   4.040   2.898
 6452SOL    HW120255   4.867   3.954   2.913
 6452SOL    HW220256   4.797   4.050   2.801
 6453SOL     OW20257   2.225   6.816   1.737
 6453SOL    HW120258   2.292   6.749   1.705
 6453SOL    HW220259   2.135   6.773   1.741
 6454SOL     OW20260   1.202   1.331   2.845
 6454SOL    HW120261   1.146   1.318   2.927
 6454SOL    HW220262   1.299   1.326   2.870
 6455SOL     OW20263   6.673   3.218   3.896
 6455SOL    HW120264   6.641   3.246   3.987
 6455SOL    HW220265   6.687   3.119   3.895
 6456SOL     OW20266   1.396   1.332   3.518
 6456SOL    HW120267   1.308   1.300   3.482
 6456SOL    HW220268   1.468   1.315   3.451
 6457SOL     OW20269   5.043   0.287   1.714
 6457SOL    HW120270   5.030   0.378   1.752
 6457SOL    HW220271   5.141   0.268   1.706
 6458SOL     OW20272   1.363   5.260   4.167
 6458SOL    HW120273   1.406   5.315   4.095
 6458SOL    HW220274   1.290   5.313   4.210
 6459SOL     OW20275   6.498   3.180   1.978
 6459SOL    HW120276   6.572   3.144   2.035
 6459SOL    HW220277   6.527   3.267   1.937
 6460SOL     OW20278   5.767   5.694   6.107
 6460SOL    HW120279   5.783   5.791   6.130
 6460SOL    HW220280   5.853   5.644   6.112
 6461SOL     OW20281   2.410   4.366   6.841
 6461SOL    HW120282   2.392   4.268   6.832
 6461SOL    HW220283   2.491   4.390   6.788
 6462SOL     OW20284   1.536   3.055   4.679
 6462SOL    HW120285   1.599   3.132   4.680
 6462SOL    HW220286   1.574   2.980   4.733
 6463SOL     OW20287   5.738   0.778   0.551
 6463SOL    HW120288   5.723   0.838   0.629
 6463SOL    HW220289   5.832   0.745   0.552
 6464SOL     OW20290   1.763   5.283   5.521
 6464SOL    HW120291   1.696   5.308   5.451
 6464SOL    HW220292   1.743   5.191   5.555
 6465SOL     OW20293   6.864   3.116   2.549
 6465SOL    HW120294   6.947   3.093   2.499
 6465SOL    HW220295   6.849   3.048   2.622
 6466SOL     OW20296   5.878   1.746   6.135
 6466SOL    HW120297   5.901   1.842   6.115
 6466SOL    HW220298   5.948   1.687   6.095
 6467SOL     OW20299   3.754   0.279   0.810
 6467SOL    HW120300   3.850   0.274   0.837
 6467SOL    HW220301   3.720   0.372   0.824
 6468SOL     OW20302   2.767   6.214   1.188
 6468SOL    HW120303   2.681   6.233   1.142
 6468SOL    HW220304   2.840   6.203   1.120
 6469SOL     OW20305   3.891   2.164   3.482
 6469SOL    HW120306   3.799   2.139   3.512
 6469SOL    HW220307   3.951   2.175   3.561
 6470SOL     OW20308   5.604   2.902   0.962
 6470SOL    HW120309   5.610   2.905   0.862
 6470SOL    HW220310   5.697   2.907   1.000
 6471SOL     OW20311   0.439   6.274   5.591
 6471SOL    HW120312   0.472   6.188   5.552
 6471SOL    HW220313   0.419   6.260   5.688
 6472SOL     OW20314   6.872   6.102   2.093
 6472SOL    HW120315   6.844   6.103   2.189
 6472SOL    HW220316   6.793   6.085   2.035
 6473SOL     OW20317   2.948   1.969   5.097
 6473SOL    HW120318   2.939   2.057   5.144
 6473SOL    HW220319   3.003   1.980   5.015
 6474SOL     OW20320   4.355   6.038   5.756
 6474SOL    HW120321   4.302   5.993   5.828
 6474SOL    HW220322   4.361   5.978   5.677
 6475SOL     OW20323   6.088   4.621   3.605
 6475SOL    HW120324   6.077   4.609   3.507
 6475SOL    HW220325   6.000   4.648   3.646
 6476SOL     OW20326   5.133   2.896   0.767
 6476SOL    HW120327   5.232   2.894   0.751
 6476SOL    HW220328   5.085   2.883   0.680
 6477SOL     OW20329   6.305   5.298   0.343
 6477SOL    HW120330   6.295   5.314   0.245
 6477SOL    HW220331   6.282   5.203   0.364
 6478SOL     OW20332   3.713   6.438   2.428
 6478SOL    HW120333   3.780   6.407   2.360
 6478SOL    HW220334   3.709   6.538   2.427
 6479SOL     OW20335   3.951   5.780   4.119
 6479SOL    HW120336   3.944   5.879   4.110
 6479SOL    HW220337   3.952   5.755   4.216
 6480SOL     OW20338   2.398   1.333   0.191
 6480SOL    HW120339   2.397   1.357   0.288
 6480SOL    HW220340   2.463   1.259   0.176
 6481SOL     OW20341   3.368   2.016   2.011
 6481SOL    HW120342   3.377   1.917   2.011
 6481SOL    HW220343   3.398   2.053   2.099
 6482SOL     OW20344   6.309   1.829   6.406
 6482SOL    HW120345   6.248   1.907   6.395
 6482SOL    HW220346   6.302   1.769   6.326
 6483SOL     OW20347   7.020   0.106   3.269
 6483SOL    HW120348   6.935   0.099   3.216
 6483SOL    HW220349   7.002   0.155   3.354
 6484SOL     OW20350   3.431   0.471   2.311
 6484SOL    HW120351   3.365   0.471   2.387
 6484SOL    HW220352   3.465   0.563   2.296
 6485SOL     OW20353   2.141   5.165   3.993
 6485SOL    HW120354   2.191   5.171   3.907
 6485SOL    HW220355   2.202   5.134   4.065
 6486SOL     OW20356   0.934   4.692   2.371
 6486SOL    HW120357   1.024   4.720   2.338
 6486SOL    HW220358   0.918   4.596   2.349
 6487SOL     OW20359   1.408   6.815   5.698
 6487SOL    HW120360   1.363   6.869   5.768
 6487SOL    HW220361   1.488   6.865   5.663
 6488SOL     OW20362   3.948   6.141   4.355
 6488SOL    HW120363   3.907   6.226   4.385
 6488SOL    HW220364   4.040   6.132   4.395
 6489SOL     OW20365   3.390   3.496   6.450
 6489SOL    HW120366   3.424   3.491   6.544
 6489SOL    HW220367   3.380   3.404   6.413
 6490SOL     OW20368   4.243   1.378   6.506
 6490SOL    HW120369   4.226   1.391   6.604
 6490SOL    HW220370   4.157   1.355   6.460
 6491SOL     OW20371   2.866   0.426   1.167
 6491SOL    HW120372   2.846   0.523   1.180
 6491SOL    HW220373   2.849   0.401   1.072
 6492SOL     OW20374   3.498   4.074   5.712
 6492SOL    HW120375   3.522   4.159   5.759
 6492SOL    HW220376   3.527   4.080   5.616
 6493SOL     OW20377   1.534   4.408   6.022
 6493SOL    HW120378   1.601   4.363   5.963
 6493SOL    HW220379   1.481   4.339   6.071
 6494SOL     OW20380   6.925   0.051   2.835
 6494SOL    HW120381   6.853   0.024   2.772
 6494SOL    HW220382   6.926   7.015   2.914
 6495SOL     OW20383   6.741   0.423   4.421
 6495SOL    HW120384   6.737   0.523   4.424
 6495SOL    HW220385   6.650   0.386   4.401
 6496SOL     OW20386   5.871   0.924   2.787
 6496SOL    HW120387   5.833   1.013   2.762
 6496SOL    HW220388   5.917   0.884   2.708
 6497SOL     OW20389   0.909   0.584   1.443
 6497SOL    HW120390   0.924   0.545   1.352
 6497SOL    HW220391   0.935   0.516   1.513
 6498SOL     OW20392   1.093   2.940   4.887
 6498SOL    HW120393   1.128   3.033   4.894
 6498SOL    HW220394   1.142   2.890   4.816
 6499SOL     OW20395   5.604   4.388   5.363
 6499SOL    HW120396   5.702   4.393   5.344
 6499SOL    HW220397   5.556   4.358   5.280
 6500SOL     OW20398   6.738   3.832   3.843
 6500SOL    HW120399   6.743   3.733   3.831
 6500SOL    HW220400   6.727   3.854   3.939
 6501SOL     OW20401   6.556   1.010   0.088
 6501SOL    HW120402   6.582   1.104   0.070
 6501SOL    HW220403   6.614   0.971   0.159
 6502SOL     OW20404   6.717   3.634   2.252
 6502SOL    HW120405   6.641   3.591   2.301
 6502SOL    HW220406   6.736   3.584   2.168
 6503SOL     OW20407   5.108   1.267   3.751
 6503SOL    HW120408   5.117   1.168   3.741
 6503SOL    HW220409   5.103   1.291   3.848
 6504SOL     OW20410   3.742   6.512   6.302
 6504SOL    HW120411   3.654   6.473   6.276
 6504SOL    HW220412   3.729   6.606   6.332
 6505SOL     OW20413   5.271   5.972   6.313
 6505SOL    HW120414   5.207   6.048   6.301
 6505SOL    HW220415   5.338   5.972   6.239
 6506SOL     OW20416   0.276   2.915   3.169
 6506SOL    HW120417   0.279   3.010   3.138
 6506SOL    HW220418   0.270   2.854   3.089
 6507SOL     OW20419   2.477   5.612   6.606
 6507SOL    HW120420   2.459   5.660   6.520
 6507SOL    HW220421   2.552   5.547   6.592
 6508SOL     OW20422   1.630   0.437   3.074
 6508SOL    HW120423   1.586   0.487   3.149
 6508SOL    HW220424   1.624   0.491   2.991
 6509SOL     OW20425   4.441   2.002   4.490
 6509SOL    HW120426   4.387   1.994   4.574
 6509SOL    HW220427   4.385   1.976   4.411
 6510SOL     OW20428   6.028   5.337   0.122
 6510SOL    HW120429   6.064   5.251   0.157
 6510SOL    HW220430   5.944   5.361   0.171
 6511SOL     OW20431   4.169   0.397   4.194
 6511SOL    HW120432   4.087   0.351   4.230
 6511SOL    HW220433   4.203   0.348   4.114
 6512SOL     OW20434   3.739   6.463   1.937
 6512SOL    HW120435   3.708   6.551   1.900
 6512SOL    HW220436   3.725   6.391   1.869
 6513SOL     OW20437   2.603   5.324   3.178
 6513SOL    HW120438   2.595   5.388   3.255
 6513SOL    HW220439   2.555   5.361   3.099
 6514SOL     OW20440   5.582   1.496   4.568
 6514SOL    HW120441   5.673   1.458   4.583
 6514SOL    HW220442   5.571   1.521   4.472
 6515SOL     OW20443   1.176   3.844   3.463
 6515SOL    HW120444   1.146   3.773   3.527
 6515SOL    HW220445   1.119   3.840   3.381
 6516SOL     OW20446   0.560   2.881   1.452
 6516SOL    HW120447   0.479   2.910   1.402
 6516SOL    HW220448   0.535   2.814   1.522
 6517SOL     OW20449   0.023   1.753   1.696
 6517SOL    HW120450   6.954   1.768   1.668
 6517SOL    HW220451   0.066   1.687   1.635
 6518SOL     OW20452   0.243   0.230   0.941
 6518SOL    HW120453   0.303   0.159   0.976
 6518SOL    HW220454   0.150   0.194   0.932
 6519SOL     OW20455   0.953   1.838   2.777
 6519SOL    HW120456   1.005   1.756   2.803
 6519SOL    HW220457   0.857   1.814   2.766
 6520SOL     OW20458   6.992   5.510   6.842
 6520SOL    HW120459   7.023   5.572   6.770
 6520SOL    HW220460   6.893   5.503   6.840
 6521SOL     OW20461   1.672   2.495   4.384
 6521SOL    HW120462   1.738   2.507   4.458
 6521SOL    HW220463   1.668   2.398   4.358
 6522SOL     OW20464   3.103   4.764   5.577
 6522SOL    HW120465   3.185   4.736   5.627
 6522SOL    HW220466   3.034   4.798   5.642
 6523SOL     OW20467   3.763   1.003   6.890
 6523SOL    HW120468   3.672   1.001   6.848
 6523SOL    HW220469   3.761   1.060   6.972
 6524SOL     OW20470   2.740   3.538   1.300
 6524SOL    HW120471   2.653   3.515   1.343
 6524SOL    HW220472   2.815   3.511   1.360
 6525SOL     OW20473   2.295   4.790   2.902
 6525SOL    HW120474   2.279   4.779   2.804
 6525SOL    HW220475   2.392   4.810   2.918
 6526SOL     OW20476   1.856   0.608   1.550
 6526SOL    HW120477   1.953   0.584   1.558
 6526SOL    HW220478   1.841   0.698   1.591
 6527SOL     OW20479   6.768   1.702   6.160
 6527SOL    HW120480   6.736   1.632   6.097
 6527SOL    HW220481   6.814   1.659   6.238
 6528SOL     OW20482   5.636   1.769   5.235
 6528SOL    HW120483   5.540   1.791   5.251
 6528SOL    HW220484   5.650   1.671   5.247
 6529SOL     OW20485   1.949   0.414   2.523
 6529SOL    HW120486   1.981   0.338   2.579
 6529SOL    HW220487   1.849   0.413   2.520
 6530SOL     OW20488   6.480   1.598   1.148
 6530SOL    HW120489   6.481   1.663   1.224
 6530SOL    HW220490   6.437   1.641   1.068
 6531SOL     OW20491   4.910   3.494   4.716
 6531SOL    HW120492   4.955   3.502   4.805
 6531SOL    HW220493   4.814   3.522   4.724
 6532SOL     OW20494   0.599   1.058   1.361
 6532SOL    HW120495   0.675   1.030   1.420
 6532SOL    HW220496   0.618   1.149   1.323
 6533SOL     OW20497   4.375   6.653   0.210
 6533SOL    HW120498   4.299   6.674   0.272
 6533SOL    HW220499   4.362   6.562   0.171
 6534SOL     OW20500   5.108   4.664   1.800
 6534SOL    HW120501   5.181   4.729   1.822
 6534SOL    HW220502   5.142   4.571   1.813
 6535SOL     OW20503   0.108   4.379   3.842
 6535SOL    HW120504   0.143   4.286   3.845
 6535SOL    HW220505   0.009   4.378   3.830
 6536SOL     OW20506   0.353   1.524   5.077
 6536SOL    HW120507   0.346   1.466   5.159
 6536SOL    HW220508   0.412   1.602   5.097
 6537SOL     OW20509   6.814   4.562   6.991
 6537SOL    HW120510   6.846   4.654   6.967
 6537SOL    HW220511   6.724   4.569   0.010
 6538SOL     OW20512   2.001   3.505   5.838
 6538SOL    HW120513   2.048   3.453   5.909
 6538SOL    HW220514   1.929   3.561   5.880
 6539SOL     OW20515   4.962   0.488   7.014
 6539SOL    HW120516   5.001   0.539   6.937
 6539SOL    HW220517   4.959   0.391   6.991
 6540SOL     OW20518   4.087   2.567   6.599
 6540SOL    HW120519   4.114   2.527   6.512
 6540SOL    HW220520   4.137   2.652   6.614
 6541SOL     OW20521   4.958   1.486   5.277
 6541SOL    HW120522   4.943   1.437   5.362
 6541SOL    HW220523   4.970   1.421   5.202
 6542SOL     OW20524   6.831   2.659   3.873
 6542SOL    HW120525   6.921   2.615   3.867
 6542SOL    HW220526   6.816   2.715   3.791
 6543SOL     OW20527   4.215   3.125   5.502
 6543SOL    HW120528   4.210   3.035   5.543
 6543SOL    HW220529   4.134   3.141   5.446
 6544SOL     OW20530   1.524   6.288   3.450
 6544SOL    HW120531   1.507   6.240   3.364
 6544SOL    HW220532   1.466   6.370   3.455
 6545SOL     OW20533   4.289   0.244   1.014
 6545SOL    HW120534   4.380   0.202   1.017
 6545SOL    HW220535   4.256   0.259   1.107
 6546SOL     OW20536   2.715   4.447   6.291
 6546SOL    HW120537   2.751   4.485   6.206
 6546SOL    HW220538   2.767   4.482   6.368
 6547SOL     OW20539   4.449   1.155   0.125
 6547SOL    HW120540   4.373   1.220   0.132
 6547SOL    HW220541   4.452   1.116   0.033
 6548SOL     OW20542   0.996   3.673   1.138
 6548SOL    HW120543   1.088   3.632   1.142
 6548SOL    HW220544   0.963   3.671   1.043
 6549SOL     OW20545   4.674   1.128   1.764
 6549SOL    HW120546   4.735   1.108   1.841
 6549SOL    HW220547   4.579   1.113   1.792
 6550SOL     OW20548   0.066   6.612   3.865
 6550SOL    HW120549   0.092   6.700   3.905
 6550SOL    HW220550   0.145   6.551   3.861
 6551SOL     OW20551   1.813   3.785   1.615
 6551SOL    HW120552   1.866   3.851   1.668
 6551SOL    HW220553   1.829   3.693   1.650
 6552SOL     OW20554   1.376   0.261   0.391
 6552SOL    HW120555   1.440   0.289   0.319
 6552SOL    HW220556   1.402   0.172   0.427
 6553SOL     OW20557   6.729   1.930   3.568
 6553SOL    HW120558   6.669   2.006   3.595
 6553SOL    HW220559   6.824   1.963   3.562
 6554SOL     OW20560   0.836   0.192   4.266
 6554SOL    HW120561   0.768   0.260   4.293
 6554SOL    HW220562   0.816   0.105   4.310
 6555SOL     OW20563   5.082   2.207   3.051
 6555SOL    HW120564   5.020   2.277   3.015
 6555SOL    HW220565   5.163   2.201   2.992
 6556SOL     OW20566   5.572   4.554   3.302
 6556SOL    HW120567   5.622   4.484   3.353
 6556SOL    HW220568   5.600   4.644   3.333
 6557SOL     OW20569   3.233   0.229   2.658
 6557SOL    HW120570   3.145   0.263   2.625
 6557SOL    HW220571   3.289   0.307   2.687
 6558SOL     OW20572   0.055   5.061   0.349
 6558SOL    HW120573   0.133   5.002   0.327
 6558SOL    HW220574   0.022   5.042   0.441
 6559SOL     OW20575   1.119   4.161   0.463
 6559SOL    HW120576   1.158   4.141   0.553
 6559SOL    HW220577   1.139   4.086   0.400
 6560SOL     OW20578   4.321   4.927   1.584
 6560SOL    HW120579   4.232   4.973   1.585
 6560SOL    HW220580   4.369   4.945   1.670
 6561SOL     OW20581   3.269   4.339   1.391
 6561SOL    HW120582   3.257   4.242   1.369
 6561SOL    HW220583   3.180   4.378   1.417
 6562SOL     OW20584   6.218   2.540   0.864
 6562SOL    HW120585   6.208   2.448   0.901
 6562SOL    HW220586   6.316   2.562   0.855
 6563SOL     OW20587   5.223   5.324   6.088
 6563SOL    HW120588   5.125   5.315   6.069
 6563SOL    HW220589   5.273   5.335   6.002
 6564SOL     OW20590   6.764   3.448   2.870
 6564SOL    HW120591   6.845   3.389   2.879
 6564SOL    HW220592   6.753   3.502   2.953
 6565SOL     OW20593   5.417   1.391   2.643
 6565SOL    HW120594   5.368   1.443   2.713
 6565SOL    HW220595   5.515   1.404   2.655
 6566SOL     OW20596   3.992   6.227   1.722
 6566SOL    HW120597   4.010   6.300   1.789
 6566SOL    HW220598   4.003   6.138   1.767
 6567SOL     OW20599   4.704   0.970   2.197
 6567SOL    HW120600   4.620   0.920   2.177
 6567SOL    HW220601   4.768   0.959   2.121
 6568SOL     OW20602   3.339   1.531   4.247
 6568SOL    HW120603   3.396   1.458   4.285
 6568SOL    HW220604   3.395   1.613   4.233
 6569SOL     OW20605   2.635   3.264   0.361
 6569SOL    HW120606   2.613   3.179   0.314
 6569SOL    HW220607   2.603   3.342   0.307
 6570SOL     OW20608   2.951   0.514   2.437
 6570SOL    HW120609   2.864   0.483   2.399
 6570SOL    HW220610   2.941   0.606   2.474
 6571SOL     OW20611   3.222   5.085   1.754
 6571SOL    HW120612   3.235   4.986   1.758
 6571SOL    HW220613   3.304   5.128   1.718
 6572SOL     OW20614   6.450   4.412   4.408
 6572SOL    HW120615   6.361   4.451   4.431
 6572SOL    HW220616   6.489   4.367   4.489
 6573SOL     OW20617   1.164   1.679   2.278
 6573SOL    HW120618   1.074   1.721   2.267
 6573SOL    HW220619   1.153   1.581   2.293
 6574SOL     OW20620   2.215   5.878   2.687
 6574SOL    HW120621   2.295   5.880   2.628
 6574SOL    HW220622   2.224   5.948   2.758
 6575SOL     OW20623   0.487   6.565   3.420
 6575SOL    HW120624   0.413   6.610   3.368
 6575SOL    HW220625   0.571   6.565   3.366
 6576SOL     OW20626   2.257   5.892   6.976
 6576SOL    HW120627   2.184   5.831   7.005
 6576SOL    HW220628   2.259   5.972   0.010
 6577SOL     OW20629   0.617   1.986   3.593
 6577SOL    HW120630   0.540   2.026   3.644
 6577SOL    HW220631   0.702   2.006   3.640
 6578SOL     OW20632   0.550   6.154   3.020
 6578SOL    HW120633   0.612   6.231   3.008
 6578SOL    HW220634   0.456   6.186   3.008
 6579SOL     OW20635   0.454   3.169   3.818
 6579SOL    HW120636   0.368   3.159   3.767
 6579SOL    HW220637   0.494   3.258   3.799
 6580SOL     OW20638   0.322   2.005   0.526
 6580SOL    HW120639   0.368   2.086   0.561
 6580SOL    HW220640   0.288   1.949   0.602
 6581SOL     OW20641   2.404   0.441   6.958
 6581SOL    HW120642   2.415   0.350   6.998
 6581SOL    HW220643   2.493   0.487   6.957
 6582SOL     OW20644   0.037   1.342   3.110
 6582SOL    HW120645   0.008   1.264   3.054
 6582SOL    HW220646   0.124   1.376   3.076
 6583SOL     OW20647   4.598   0.410   6.026
 6583SOL    HW120648   4.523   0.399   6.091
 6583SOL    HW220649   4.587   0.496   5.976
 6584SOL     OW20650   4.399   2.858   0.681
 6584SOL    HW120651   4.446   2.807   0.754
 6584SOL    HW220652   4.305   2.825   0.673
 6585SOL     OW20653   6.383   6.161   0.327
 6585SOL    HW120654   6.355   6.142   0.233
 6585SOL    HW220655   6.355   6.254   0.352
 6586SOL     OW20656   5.730   1.224   5.749
 6586SOL    HW120657   5.643   1.274   5.752
 6586SOL    HW220658   5.713   1.130   5.719
 6587SOL     OW20659   2.033   5.162   5.755
 6587SOL    HW120660   2.023   5.262   5.755
 6587SOL    HW220661   2.062   5.131   5.665
 6588SOL     OW20662   0.281   2.624   2.194
 6588SOL    HW120663   0.218   2.604   2.268
 6588SOL    HW220664   0.241   2.594   2.107
 6589SOL     OW20665   4.591   0.376   1.309
 6589SOL    HW120666   4.602   0.458   1.252
 6589SOL    HW220667   4.510   0.386   1.366
 6590SOL     OW20668   0.221   1.137   6.829
 6590SOL    HW120669   0.314   1.099   6.822
 6590SOL    HW220670   0.155   1.069   6.798
 6591SOL     OW20671   6.420   5.749   3.065
 6591SOL    HW120672   6.354   5.799   3.008
 6591SOL    HW220673   6.418   5.652   3.040
 6592SOL     OW20674   5.358   0.141   3.102
 6592SOL    HW120675   5.435   0.080   3.082
 6592SOL    HW220676   5.309   0.107   3.182
 6593SOL     OW20677   2.034   2.302   2.777
 6593SOL    HW120678   1.999   2.228   2.720
 6593SOL    HW220679   2.028   2.276   2.873
 6594SOL     OW20680   3.728   1.373   6.176
 6594SOL    HW120681   3.762   1.316   6.251
 6594SOL    HW220682   3.668   1.444   6.213
 6595SOL     OW20683   1.038   4.374   0.000
 6595SOL    HW120684   1.024   4.413   6.934
 6595SOL    HW220685   1.052   4.275   7.018
 6596SOL     OW20686   3.153   0.081   4.435
 6596SOL    HW120687   3.144   0.003   4.496
 6596SOL    HW220688   3.140   0.052   4.340
 6597SOL     OW20689   1.121   5.313   1.288
 6597SOL    HW120690   1.044   5.266   1.330
 6597SOL    HW220691   1.205   5.260   1.303
 6598SOL     OW20692   1.891   5.219   4.383
 6598SOL    HW120693   1.809   5.259   4.343
 6598SOL    HW220694   1.962   5.288   4.389
 6599SOL     OW20695   4.297   6.248   6.088
 6599SOL    HW120696   4.246   6.280   6.169
 6599SOL    HW220697   4.358   6.174   6.115
 6600SOL     OW20698   4.099   5.763   5.554
 6600SOL    HW120699   4.128   5.782   5.647
 6600SOL    HW220700   4.007   5.801   5.539
 6601SOL     OW20701   1.680   1.757   4.868
 6601SOL    HW120702   1.686   1.849   4.828
 6601SOL    HW220703   1.623   1.759   4.950
 6602SOL     OW20704   1.815   1.380   1.913
 6602SOL    HW120705   1.804   1.297   1.858
 6602SOL    HW220706   1.750   1.379   1.989
 6603SOL     OW20707   0.210   2.922   3.441
 6603SOL    HW120708   0.241   2.918   3.346
 6603SOL    HW220709   0.119   2.881   3.448
 6604SOL     OW20710   1.109   0.085   1.261
 6604SOL    HW120711   1.164   0.082   1.178
 6604SOL    HW220712   1.067   7.021   1.277
 6605SOL     OW20713   5.753   5.553   1.614
 6605SOL    HW120714   5.682   5.482   1.613
 6605SOL    HW220715   5.841   5.511   1.591
 6606SOL     OW20716   0.570   5.800   2.289
 6606SOL    HW120717   0.545   5.805   2.386
 6606SOL    HW220718   0.668   5.812   2.279
 6607SOL     OW20719   1.845   4.098   2.418
 6607SOL    HW120720   1.838   4.178   2.478
 6607SOL    HW220721   1.938   4.061   2.424
 6608SOL     OW20722   6.707   6.647   0.198
 6608SOL    HW120723   6.685   6.627   0.293
 6608SOL    HW220724   6.806   6.652   0.186
 6609SOL     OW20725   5.412   1.127   0.318
 6609SOL    HW120726   5.385   1.176   0.235
 6609SOL    HW220727   5.498   1.080   0.302
 6610SOL     OW20728   2.441   6.235   0.309
 6610SOL    HW120729   2.501   6.311   0.287
 6610SOL    HW220730   2.368   6.267   0.371
 6611SOL     OW20731   4.870   3.303   2.871
 6611SOL    HW120732   4.940   3.342   2.811
 6611SOL    HW220733   4.809   3.244   2.817
 6612SOL     OW20734   6.242   1.855   6.767
 6612SOL    HW120735   6.269   1.819   6.678
 6612SOL    HW220736   6.149   1.823   6.790
 6613SOL     OW20737   6.809   6.466   5.198
 6613SOL    HW120738   6.810   6.380   5.249
 6613SOL    HW220739   6.782   6.449   5.104
 6614SOL     OW20740   4.198   5.277   6.689
 6614SOL    HW120741   4.240   5.190   6.665
 6614SOL    HW220742   4.133   5.263   6.763
 6615SOL     OW20743   1.691   5.626   1.213
 6615SOL    HW120744   1.744   5.582   1.285
 6615SOL    HW220745   1.606   5.576   1.199
 6616SOL     OW20746   4.726   0.395   6.495
 6616SOL    HW120747   4.683   0.305   6.492
 6616SOL    HW220748   4.689   0.452   6.421
 6617SOL     OW20749   4.670   5.359   3.335
 6617SOL    HW120750   4.662   5.388   3.240
 6617SOL    HW220751   4.583   5.376   3.382
 6618SOL     OW20752   1.741   1.888   2.625
 6618SOL    HW120753   1.767   1.873   2.720
 6618SOL    HW220754   1.644   1.869   2.613
 6619SOL     OW20755   5.341   0.192   3.665
 6619SOL    HW120756   5.285   0.151   3.593
 6619SOL    HW220757   5.332   0.139   3.749
 6620SOL     OW20758   1.453   2.898   5.370
 6620SOL    HW120759   1.489   2.806   5.378
 6620SOL    HW220760   1.466   2.930   5.276
 6621SOL     OW20761   3.227   3.101   6.211
 6621SOL    HW120762   3.149   3.138   6.262
 6621SOL    HW220763   3.202   3.093   6.115
 6622SOL     OW20764   5.741   6.407   2.147
 6622SOL    HW120765   5.680   6.445   2.078
 6622SOL    HW220766   5.702   6.425   2.238
 6623SOL     OW20767   3.634   3.137   5.133
 6623SOL    HW120768   3.654   3.234   5.125
 6623SOL    HW220769   3.554   3.124   5.192
 6624SOL     OW20770   6.908   4.033   5.758
 6624SOL    HW120771   7.001   4.040   5.793
 6624SOL    HW220772   6.843   4.042   5.833
 6625SOL     OW20773   5.012   2.098   5.051
 6625SOL    HW120774   5.006   2.197   5.039
 6625SOL    HW220775   5.091   2.076   5.108
 6626SOL     OW20776   3.832   5.844   5.529
 6626SOL    HW120777   3.774   5.847   5.611
 6626SOL    HW220778   3.848   5.937   5.496
 6627SOL     OW20779   1.872   6.459   5.997
 6627SOL    HW120780   1.963   6.466   5.956
 6627SOL    HW220781   1.823   6.381   5.958
 6628SOL     OW20782   6.140   5.203   4.420
 6628SOL    HW120783   6.209   5.133   4.436
 6628SOL    HW220784   6.157   5.281   4.480
 6629SOL     OW20785   4.740   6.473   6.312
 6629SOL    HW120786   4.698   6.450   6.225
 6629SOL    HW220787   4.831   6.511   6.296
 6630SOL     OW20788   3.503   1.523   0.854
 6630SOL    HW120789   3.450   1.440   0.871
 6630SOL    HW220790   3.542   1.556   0.940
 6631SOL     OW20791   2.606   5.619   4.051
 6631SOL    HW120792   2.658   5.551   4.000
 6631SOL    HW220793   2.578   5.581   4.140
 6632SOL     OW20794   0.946   0.248   0.970
 6632SOL    HW120795   0.955   0.293   1.058
 6632SOL    HW220796   1.024   0.187   0.954
 6633SOL     OW20797   1.692   4.785   6.622
 6633SOL    HW120798   1.597   4.754   6.624
 6633SOL    HW220799   1.722   4.796   6.528
 6634SOL     OW20800   5.001   1.332   5.052
 6634SOL    HW120801   5.054   1.262   5.004
 6634SOL    HW220802   4.965   1.397   4.985
 6635SOL     OW20803   4.699   4.278   2.938
 6635SOL    HW120804   4.721   4.181   2.945
 6635SOL    HW220805   4.749   4.319   2.862
 6636SOL     OW20806   4.857   1.769   6.603
 6636SOL    HW120807   4.904   1.787   6.517
 6636SOL    HW220808   4.821   1.676   6.603
 6637SOL     OW20809   0.259   6.843   6.622
 6637SOL    HW120810   0.274   6.941   6.621
 6637SOL    HW220811   0.335   6.797   6.667
 6638SOL     OW20812   3.279   3.803   3.012
 6638SOL    HW120813   3.257   3.717   3.058
 6638SOL    HW220814   3.257   3.796   2.915
 6639SOL     OW20815   4.761   4.745   6.748
 6639SOL    HW120816   4.673   4.756   6.703
 6639SOL    HW220817   4.749   4.695   6.834
 6640SOL     OW20818   6.908   1.880   4.729
 6640SOL    HW120819   6.994   1.929   4.740
 6640SOL    HW220820   6.927   1.782   4.721
 6641SOL     OW20821   2.339   1.085   6.531
 6641SOL    HW120822   2.258   1.143   6.534
 6641SOL    HW220823   2.415   1.131   6.576
 6642SOL     OW20824   2.141   6.079   6.826
 6642SOL    HW120825   2.219   6.141   6.832
 6642SOL    HW220826   2.162   5.993   6.872
 6643SOL     OW20827   5.632   5.963   0.074
 6643SOL    HW120828   5.657   5.986   0.168
 6643SOL    HW220829   5.544   5.915   0.074
 6644SOL     OW20830   2.550   4.939   1.229
 6644SOL    HW120831   2.527   4.891   1.144
 6644SOL    HW220832   2.549   5.037   1.213
 6645SOL     OW20833   6.205   3.873   0.553
 6645SOL    HW120834   6.216   3.906   0.647
 6645SOL    HW220835   6.181   3.949   0.493
 6646SOL     OW20836   4.592   0.769   5.150
 6646SOL    HW120837   4.659   0.697   5.129
 6646SOL    HW220838   4.580   0.827   5.070
 6647SOL     OW20839   5.262   0.393   1.119
 6647SOL    HW120840   5.165   0.386   1.139
 6647SOL    HW220841   5.314   0.394   1.204
 6648SOL     OW20842   3.112   6.306   3.670
 6648SOL    HW120843   3.067   6.395   3.669
 6648SOL    HW220844   3.064   6.242   3.610
 6649SOL     OW20845   5.510   1.804   6.892
 6649SOL    HW120846   5.555   1.816   6.803
 6649SOL    HW220847   5.505   1.706   6.914
 6650SOL     OW20848   4.014   1.447   5.620
 6650SOL    HW120849   4.047   1.476   5.530
 6650SOL    HW220850   4.089   1.406   5.671
 6651SOL     OW20851   2.749   0.783   6.309
 6651SOL    HW120852   2.670   0.826   6.353
 6651SOL    HW220853   2.733   0.776   6.211
 6652SOL     OW20854   0.481   4.227   6.908
 6652SOL    HW120855   0.554   4.161   6.889
 6652SOL    HW220856   0.515   4.298   6.969
 6653SOL     OW20857   4.064   4.176   1.420
 6653SOL    HW120858   4.138   4.233   1.384
 6653SOL    HW220859   4.076   4.082   1.390
 6654SOL     OW20860   1.554   5.043   0.975
 6654SOL    HW120861   1.476   4.988   1.007
 6654SOL    HW220862   1.534   5.140   0.987
 6655SOL     OW20863   1.049   6.428   3.869
 6655SOL    HW120864   0.991   6.396   3.944
 6655SOL    HW220865   1.064   6.353   3.804
 6656SOL     OW20866   5.070   2.077   3.624
 6656SOL    HW120867   4.987   2.116   3.584
 6656SOL    HW220868   5.122   2.030   3.554
 6657SOL     OW20869   5.915   4.794   6.210
 6657SOL    HW120870   5.848   4.836   6.149
 6657SOL    HW220871   5.867   4.743   6.282
 6658SOL     OW20872   5.649   1.138   4.402
 6658SOL    HW120873   5.575   1.148   4.468
 6658SOL    HW220874   5.635   1.056   4.347
 6659SOL     OW20875   2.386   3.147   0.129
 6659SOL    HW120876   2.348   3.064   0.088
 6659SOL    HW220877   2.383   3.222   0.063
 6660SOL     OW20878   1.341   4.581   1.265
 6660SOL    HW120879   1.375   4.641   1.193
 6660SOL    HW220880   1.300   4.636   1.338
 6661SOL     OW20881   1.758   0.129   5.201
 6661SOL    HW120882   1.764   0.107   5.299
 6661SOL    HW220883   1.850   0.146   5.165
 6662SOL     OW20884   1.039   0.175   0.359
 6662SOL    HW120885   1.073   0.268   0.369
 6662SOL    HW220886   0.964   0.159   0.423
 6663SOL     OW20887   6.420   5.997   4.477
 6663SOL    HW120888   6.374   6.036   4.557
 6663SOL    HW220889   6.506   5.954   4.505
 6664SOL     OW20890   2.214   6.646   0.884
 6664SOL    HW120891   2.222   6.552   0.918
 6664SOL    HW220892   2.264   6.655   0.798
 6665SOL     OW20893   1.696   6.129   4.507
 6665SOL    HW120894   1.690   6.214   4.560
 6665SOL    HW220895   1.604   6.102   4.477
 6666SOL     OW20896   5.822   6.342   6.078
 6666SOL    HW120897   5.884   6.319   6.003
 6666SOL    HW220898   5.874   6.346   6.164
 6667SOL     OW20899   5.990   6.646   6.285
 6667SOL    HW120900   6.013   6.592   6.366
 6667SOL    HW220901   6.045   6.615   6.207
 6668SOL     OW20902   6.893   5.445   0.882
 6668SOL    HW120903   6.860   5.398   0.800
 6668SOL    HW220904   6.871   5.542   0.876
 6669SOL     OW20905   2.395   2.198   2.187
 6669SOL    HW120906   2.411   2.292   2.216
 6669SOL    HW220907   2.371   2.142   2.266
 6670SOL     OW20908   3.184   1.577   5.295
 6670SOL    HW120909   3.246   1.577   5.217
 6670SOL    HW220910   3.235   1.601   5.378
 6671SOL     OW20911   4.586   6.605   0.370
 6671SOL    HW120912   4.586   6.629   0.467
 6671SOL    HW220913   4.497   6.630   0.330
 6672SOL     OW20914   6.459   2.817   6.722
 6672SOL    HW120915   6.384   2.868   6.680
 6672SOL    HW220916   6.493   2.749   6.658
 6673SOL     OW20917   4.565   4.677   4.039
 6673SOL    HW120918   4.585   4.596   3.983
 6673SOL    HW220919   4.517   4.648   4.122
 6674SOL     OW20920   0.843   3.759   6.726
 6674SOL    HW120921   0.904   3.684   6.699
 6674SOL    HW220922   0.775   3.726   6.790
 6675SOL     OW20923   5.835   3.736   0.273
 6675SOL    HW120924   5.917   3.773   0.229
 6675SOL    HW220925   5.796   3.665   0.215
 6676SOL     OW20926   0.917   3.868   5.446
 6676SOL    HW120927   0.846   3.801   5.425
 6676SOL    HW220928   1.005   3.837   5.408
 6677SOL     OW20929   1.122   1.804   6.255
 6677SOL    HW120930   1.146   1.898   6.233
 6677SOL    HW220931   1.025   1.799   6.280
 6678SOL     OW20932   3.221   3.466   6.965
 6678SOL    HW120933   3.131   3.426   6.979
 6678SOL    HW220934   3.217   3.564   6.980
 6679SOL     OW20935   3.331   0.999   4.027
 6679SOL    HW120936   3.358   0.930   4.094
 6679SOL    HW220937   3.267   1.064   4.070
 6680SOL     OW20938   4.837   6.691   6.784
 6680SOL    HW120939   4.775   6.703   6.705
 6680SOL    HW220940   4.788   6.716   6.868
 6681SOL     OW20941   4.214   5.048   1.283
 6681SOL    HW120942   4.273   4.968   1.278
 6681SOL    HW220943   4.176   5.056   1.375
 6682SOL     OW20944   1.748   4.130   1.213
 6682SOL    HW120945   1.790   4.090   1.294
 6682SOL    HW220946   1.748   4.063   1.139
 6683SOL     OW20947   5.671   3.881   5.107
 6683SOL    HW120948   5.702   3.788   5.126
 6683SOL    HW220949   5.670   3.934   5.192
 6684SOL     OW20950   3.201   6.019   1.761
 6684SOL    HW120951   3.265   6.083   1.805
 6684SOL    HW220952   3.165   6.061   1.677
 6685SOL     OW20953   6.147   2.855   5.885
 6685SOL    HW120954   6.168   2.780   5.823
 6685SOL    HW220955   6.135   2.939   5.832
 6686SOL     OW20956   4.729   5.603   3.985
 6686SOL    HW120957   4.776   5.668   4.044
 6686SOL    HW220958   4.707   5.647   3.898
 6687SOL     OW20959   1.043   3.301   1.324
 6687SOL    HW120960   1.115   3.370   1.314
 6687SOL    HW220961   0.959   3.334   1.281
 6688SOL     OW20962   6.344   4.264   1.893
 6688SOL    HW120963   6.302   4.211   1.966
 6688SOL    HW220964   6.319   4.224   1.804
 6689SOL     OW20965   3.840   3.506   6.656
 6689SOL    HW120966   3.871   3.466   6.743
 6689SOL    HW220967   3.749   3.545   6.668
 6690SOL     OW20968   0.410   0.943   0.780
 6690SOL    HW120969   0.397   0.864   0.841
 6690SOL    HW220970   0.329   0.954   0.722
 6691SOL     OW20971   2.702   6.860   2.140
 6691SOL    HW120972   2.602   6.862   2.139
 6691SOL    HW220973   2.737   6.869   2.047
 6692SOL     OW20974   3.741   3.036   4.017
 6692SOL    HW120975   3.840   3.030   4.016
 6692SOL    HW220976   3.708   3.040   4.111
 6693SOL     OW20977   3.826   2.270   5.194
 6693SOL    HW120978   3.837   2.341   5.264
 6693SOL    HW220979   3.799   2.184   5.238
 6694SOL     OW20980   4.328   5.509   1.209
 6694SOL    HW120981   4.345   5.494   1.307
 6694SOL    HW220982   4.402   5.468   1.156
 6695SOL     OW20983   2.689   2.397   6.757
 6695SOL    HW120984   2.623   2.448   6.811
 6695SOL    HW220985   2.777   2.446   6.757
 6696SOL     OW20986   3.199   3.366   4.830
 6696SOL    HW120987   3.276   3.410   4.877
 6696SOL    HW220988   3.161   3.295   4.888
 6697SOL     OW20989   4.583   1.906   3.165
 6697SOL    HW120990   4.508   1.938   3.107
 6697SOL    HW220991   4.583   1.957   3.251
 6698SOL     OW20992   2.830   2.142   0.426
 6698SOL    HW120993   2.888   2.146   0.345
 6698SOL    HW220994   2.806   2.234   0.455
 6699SOL     OW20995   2.658   5.822   5.617
 6699SOL    HW120996   2.570   5.864   5.635
 6699SOL    HW220997   2.668   5.806   5.519
 6700SOL     OW20998   0.960   0.736   1.122
 6700SOL    HW120999   0.886   0.803   1.120
 6700SOL    HW221000   1.030   0.763   1.055
 6701SOL     OW21001   5.700   5.172   2.097
 6701SOL    HW121002   5.711   5.159   1.998
 6701SOL    HW221003   5.607   5.201   2.117
 6702SOL     OW21004   2.787   1.995   1.476
 6702SOL    HW121005   2.845   2.007   1.395
 6702SOL    HW221006   2.763   2.084   1.514
 6703SOL     OW21007   6.093   1.229   0.275
 6703SOL    HW121008   6.077   1.204   0.180
 6703SOL    HW221009   6.028   1.300   0.302
 6704SOL     OW21010   4.030   1.962   3.403
 6704SOL    HW121011   3.963   2.026   3.440
 6704SOL    HW221012   4.122   1.999   3.415
 6705SOL     OW21013   6.519   4.095   1.304
 6705SOL    HW121014   6.520   4.117   1.402
 6705SOL    HW221015   6.454   4.155   1.257
 6706SOL     OW21016   1.563   4.403   1.306
 6706SOL    HW121017   1.552   4.358   1.395
 6706SOL    HW221018   1.526   4.495   1.311
 6707SOL     OW21019   6.374   6.495   3.773
 6707SOL    HW121020   6.342   6.439   3.696
 6707SOL    HW221021   6.410   6.582   3.739
 6708SOL     OW21022   6.935   4.763   0.706
 6708SOL    HW121023   6.952   4.834   0.638
 6708SOL    HW221024   6.955   4.800   0.797
 6709SOL     OW21025   2.334   6.254   2.389
 6709SOL    HW121026   2.261   6.191   2.365
 6709SOL    HW221027   2.299   6.321   2.455
 6710SOL     OW21028   3.905   1.595   6.382
 6710SOL    HW121029   3.854   1.626   6.462
 6710SOL    HW221030   3.939   1.675   6.332
 6711SOL     OW21031   4.819   6.138   5.918
 6711SOL    HW121032   4.881   6.060   5.928
 6711SOL    HW221033   4.854   6.200   5.848
 6712SOL     OW21034   5.801   4.122   0.490
 6712SOL    HW121035   5.855   4.196   0.530
 6712SOL    HW221036   5.746   4.079   0.561
 6713SOL     OW21037   2.250   0.215   2.513
 6713SOL    HW121038   2.256   0.277   2.435
 6713SOL    HW221039   2.286   0.259   2.594
 6714SOL     OW21040   6.732   0.991   5.812
 6714SOL    HW121041   6.759   0.947   5.897
 6714SOL    HW221042   6.802   1.055   5.783
 6715SOL     OW21043   0.531   0.215   0.236
 6715SOL    HW121044   0.475   0.148   0.186
 6715SOL    HW221045   0.531   0.192   0.333
 6716SOL     OW21046   0.087   5.667   2.188
 6716SOL    HW121047   0.128   5.748   2.231
 6716SOL    HW221048   0.146   5.637   2.113
 6717SOL     OW21049   3.682   2.506   6.870
 6717SOL    HW121050   3.679   2.528   6.968
 6717SOL    HW221051   3.701   2.408   6.859
 6718SOL     OW21052   5.234   0.864   0.857
 6718SOL    HW121053   5.225   0.781   0.912
 6718SOL    HW221054   5.270   0.841   0.766
 6719SOL     OW21055   2.611   6.631   6.444
 6719SOL    HW121056   2.650   6.549   6.403
 6719SOL    HW221057   2.530   6.606   6.498
 6720SOL     OW21058   1.640   0.674   4.369
 6720SOL    HW121059   1.656   0.575   4.365
 6720SOL    HW221060   1.620   0.701   4.463
 6721SOL     OW21061   6.617   6.607   0.458
 6721SOL    HW121062   6.527   6.595   0.498
 6721SOL    HW221063   6.679   6.536   0.492
 6722SOL     OW21064   0.066   2.849   1.402
 6722SOL    HW121065   0.082   2.757   1.367
 6722SOL    HW221066   6.997   2.856   1.434
 6723SOL     OW21067   2.121   6.129   4.176
 6723SOL    HW121068   2.061   6.208   4.185
 6723SOL    HW221069   2.194   6.150   4.110
 6724SOL     OW21070   2.083   3.336   6.054
 6724SOL    HW121071   2.070   3.250   6.005
 6724SOL    HW221072   2.104   3.316   6.150
 6725SOL     OW21073   0.186   3.672   1.824
 6725SOL    HW121074   0.231   3.645   1.739
 6725SOL    HW221075   0.254   3.681   1.897
 6726SOL     OW21076   1.102   2.199   5.292
 6726SOL    HW121077   1.087   2.270   5.361
 6726SOL    HW221078   1.170   2.134   5.327
 6727SOL     OW21079   0.768   4.915   5.217
 6727SOL    HW121080   0.808   4.963   5.139
 6727SOL    HW221081   0.699   4.850   5.184
 6728SOL     OW21082   3.436   2.056   2.302
 6728SOL    HW121083   3.381   2.074   2.384
 6728SOL    HW221084   3.446   1.958   2.289
 6729SOL     OW21085   6.344   0.898   2.698
 6729SOL    HW121086   6.363   0.929   2.605
 6729SOL    HW221087   6.287   0.816   2.694
 6730SOL     OW21088   1.708   6.541   1.222
 6730SOL    HW121089   1.762   6.561   1.304
 6730SOL    HW221090   1.757   6.474   1.166
 6731SOL     OW21091   1.127   6.144   1.033
 6731SOL    HW121092   1.177   6.176   0.952
 6731SOL    HW221093   1.150   6.203   1.111
 6732SOL     OW21094   5.533   4.600   4.878
 6732SOL    HW121095   5.614   4.580   4.934
 6732SOL    HW221096   5.463   4.643   4.935
 6733SOL     OW21097   3.836   5.571   6.258
 6733SOL    HW121098   3.737   5.566   6.249
 6733SOL    HW221099   3.862   5.554   6.353
 6734SOL     OW21100   5.600   2.987   4.334
 6734SOL    HW121101   5.689   2.947   4.357
 6734SOL    HW221102   5.586   3.071   4.386
 6735SOL     OW21103   6.606   4.086   4.858
 6735SOL    HW121104   6.616   3.997   4.814
 6735SOL    HW221105   6.521   4.089   4.910
 6736SOL     OW21106   3.335   3.753   0.302
 6736SOL    HW121107   3.328   3.804   0.388
 6736SOL    HW221108   3.322   3.815   0.225
 6737SOL     OW21109   1.576   2.329   0.746
 6737SOL    HW121110   1.670   2.297   0.738
 6737SOL    HW221111   1.517   2.253   0.772
 6738SOL     OW21112   1.529   5.847   3.182
 6738SOL    HW121113   1.430   5.835   3.186
 6738SOL    HW221114   1.555   5.887   3.095
 6739SOL     OW21115   4.436   6.082   4.395
 6739SOL    HW121116   4.411   6.007   4.335
 6739SOL    HW221117   4.508   6.137   4.352
 6740SOL     OW21118   0.991   0.356   4.910
 6740SOL    HW121119   1.084   0.332   4.938
 6740SOL    HW221120   0.974   0.322   4.817
 6741SOL     OW21121   4.414   1.932   5.192
 6741SOL    HW121122   4.510   1.905   5.180
 6741SOL    HW221123   4.404   1.986   5.275
 6742SOL     OW21124   5.403   5.971   2.838
 6742SOL    HW121125   5.331   5.914   2.877
 6742SOL    HW221126   5.466   5.999   2.910
 6743SOL     OW21127   4.314   5.043   6.539
 6743SOL    HW121128   4.357   5.053   6.629
 6743SOL    HW221129   4.230   4.989   6.548
 6744SOL     OW21130   5.871   4.570   5.993
 6744SOL    HW121131   5.841   4.529   5.907
 6744SOL    HW221132   5.815   4.650   6.013
 6745SOL     OW21133   7.002   6.654   3.257
 6745SOL    HW121134   6.960   6.614   3.339
 6745SOL    HW221135   0.064   6.696   3.281
 6746SOL     OW21136   1.204   1.062   3.483
 6746SOL    HW121137   1.224   1.084   3.578
 6746SOL    HW221138   1.105   1.052   3.472
 6747SOL     OW21139   5.375   1.408   4.901
 6747SOL    HW121140   5.402   1.417   4.997
 6747SOL    HW221141   5.305   1.476   4.879
 6748SOL     OW21142   3.112   1.544   4.433
 6748SOL    HW121143   3.174   1.544   4.354
 6748SOL    HW221144   3.164   1.563   4.516
 6749SOL     OW21145   3.464   4.972   0.234
 6749SOL    HW121146   3.387   4.908   0.240
 6749SOL    HW221147   3.547   4.926   0.265
 6750SOL     OW21148   3.991   1.804   4.992
 6750SOL    HW121149   3.984   1.896   5.033
 6750SOL    HW221150   4.087   1.775   4.992
 6751SOL     OW21151   4.662   6.866   3.246
 6751SOL    HW121152   4.573   6.911   3.244
 6751SOL    HW221153   4.734   6.935   3.245
 6752SOL     OW21154   1.247   1.127   3.203
 6752SOL    HW121155   1.204   1.217   3.211
 6752SOL    HW221156   1.210   1.066   3.272
 6753SOL     OW21157   2.957   0.756   6.504
 6753SOL    HW121158   2.862   0.735   6.480
 6753SOL    HW221159   2.965   0.854   6.522
 6754SOL     OW21160   6.940   1.771   0.949
 6754SOL    HW121161   6.842   1.761   0.964
 6754SOL    HW221162   6.965   1.731   0.860
 6755SOL     OW21163   4.033   0.954   2.733
 6755SOL    HW121164   4.034   1.002   2.820
 6755SOL    HW221165   3.939   0.944   2.701
 6756SOL     OW21166   3.956   5.602   5.045
 6756SOL    HW121167   3.978   5.656   5.126
 6756SOL    HW221168   4.009   5.518   5.045
 6757SOL     OW21169   4.151   2.322   0.772
 6757SOL    HW121170   4.198   2.238   0.745
 6757SOL    HW221171   4.212   2.378   0.828
 6758SOL     OW21172   6.210   1.549   2.030
 6758SOL    HW121173   6.116   1.554   1.995
 6758SOL    HW221174   6.208   1.537   2.129
 6759SOL     OW21175   1.277   4.007   4.525
 6759SOL    HW121176   1.334   4.043   4.451
 6759SOL    HW221177   1.270   4.075   4.598
 6760SOL     OW21178   6.492   4.031   2.561
 6760SOL    HW121179   6.541   3.945   2.550
 6760SOL    HW221180   6.409   4.016   2.615
 6761SOL     OW21181   6.627   2.832   5.491
 6761SOL    HW121182   6.554   2.900   5.494
 6761SOL    HW221183   6.592   2.743   5.521
 6762SOL     OW21184   0.903   5.302   5.155
 6762SOL    HW121185   0.972   5.372   5.173
 6762SOL    HW221186   0.941   5.235   5.091
 6763SOL     OW21187   1.107   5.420   3.057
 6763SOL    HW121188   1.016   5.456   3.037
 6763SOL    HW221189   1.110   5.390   3.152
 6764SOL     OW21190   1.362   5.218   1.126
 6764SOL    HW121191   1.297   5.202   1.052
 6764SOL    HW221192   1.346   5.153   1.200
 6765SOL     OW21193   5.765   4.468   3.873
 6765SOL    HW121194   5.738   4.409   3.798
 6765SOL    HW221195   5.779   4.413   3.956
 6766SOL     OW21196   5.054   6.545   6.186
 6766SOL    HW121197   5.095   6.480   6.251
 6766SOL    HW221198   5.050   6.636   6.228
 6767SOL     OW21199   1.962   2.054   1.354
 6767SOL    HW121200   2.017   2.046   1.271
 6767SOL    HW221201   1.910   1.970   1.368
 6768SOL     OW21202   1.530   6.654   4.325
 6768SOL    HW121203   1.579   6.739   4.304
 6768SOL    HW221204   1.592   6.577   4.315
 6769SOL     OW21205   2.997   0.758   5.892
 6769SOL    HW121206   2.983   0.686   5.959
 6769SOL    HW221207   3.090   0.794   5.900
 6770SOL     OW21208   5.413   2.015   3.212
 6770SOL    HW121209   5.335   2.046   3.157
 6770SOL    HW221210   5.496   2.059   3.179
 6771SOL     OW21211   3.722   1.803   2.424
 6771SOL    HW121212   3.804   1.848   2.462
 6771SOL    HW221213   3.750   1.740   2.351
 6772SOL     OW21214   4.529   2.528   2.163
 6772SOL    HW121215   4.524   2.484   2.073
 6772SOL    HW221216   4.558   2.623   2.152
 6773SOL     OW21217   0.414   5.971   1.739
 6773SOL    HW121218   0.454   5.951   1.828
 6773SOL    HW221219   0.474   6.034   1.689
 6774SOL     OW21220   1.087   4.277   5.348
 6774SOL    HW121221   1.135   4.214   5.409
 6774SOL    HW221222   1.136   4.283   5.261
 6775SOL     OW21223   2.337   2.440   2.798
 6775SOL    HW121224   2.245   2.405   2.783
 6775SOL    HW221225   2.337   2.503   2.876
 6776SOL     OW21226   4.412   3.107   0.374
 6776SOL    HW121227   4.476   3.133   0.301
 6776SOL    HW221228   4.460   3.049   0.440
 6777SOL     OW21229   4.873   4.827   0.806
 6777SOL    HW121230   4.778   4.818   0.778
 6777SOL    HW221231   4.932   4.785   0.736
 6778SOL     OW21232   6.848   5.624   1.664
 6778SOL    HW121233   6.929   5.636   1.606
 6778SOL    HW221234   6.875   5.633   1.760
 6779SOL     OW21235   5.296   5.761   5.787
 6779SOL    HW121236   5.217   5.716   5.830
 6779SOL    HW221237   5.330   5.833   5.848
 6780SOL     OW21238   1.938   2.684   2.182
 6780SOL    HW121239   2.000   2.697   2.259
 6780SOL    HW221240   1.872   2.759   2.179
 6781SOL     OW21241   6.059   2.415   4.655
 6781SOL    HW121242   6.076   2.349   4.581
 6781SOL    HW221243   5.966   2.402   4.689
 6782SOL     OW21244   0.943   0.998   3.403
 6782SOL    HW121245   0.946   1.013   3.304
 6782SOL    HW221246   0.857   1.034   3.439
 6783SOL     OW21247   7.015   1.475   6.124
 6783SOL    HW121248   7.007   1.412   6.047
 6783SOL    HW221249   6.932   1.469   6.180
 6784SOL     OW21250   1.635   3.252   0.787
 6784SOL    HW121251   1.634   3.293   0.696
 6784SOL    HW221252   1.728   3.219   0.807
 6785SOL     OW21253   6.204   5.854   4.965
 6785SOL    HW121254   6.161   5.768   4.939
 6785SOL    HW221255   6.187   5.871   5.062
 6786SOL     OW21256   1.828   1.948   0.754
 6786SOL    HW121257   1.906   1.960   0.817
 6786SOL    HW221258   1.786   1.859   0.770
 6787SOL     OW21259   2.883   2.760   0.046
 6787SOL    HW121260   2.894   2.772   6.973
 6787SOL    HW221261   2.858   2.847   0.088
 6788SOL     OW21262   1.025   4.178   1.119
 6788SOL    HW121263   1.111   4.227   1.133
 6788SOL    HW221264   0.994   4.140   1.206
 6789SOL     OW21265   1.214   4.784   3.587
 6789SOL    HW121266   1.232   4.733   3.503
 6789SOL    HW221267   1.120   4.820   3.585
 6790SOL     OW21268   1.088   3.905   0.192
 6790SOL    HW121269   1.081   3.806   0.203
 6790SOL    HW221270   1.149   3.926   0.116
 6791SOL     OW21271   3.710   2.074   2.201
 6791SOL    HW121272   3.745   2.119   2.118
 6791SOL    HW221273   3.626   2.120   2.230
 6792SOL     OW21274   5.468   7.007   5.056
 6792SOL    HW121275   5.449   7.023   4.959
 6792SOL    HW221276   5.547   0.036   5.084
 6793SOL     OW21277   1.933   1.546   0.185
 6793SOL    HW121278   1.897   1.521   0.095
 6793SOL    HW221279   1.869   1.514   0.256
 6794SOL     OW21280   5.396   1.696   5.503
 6794SOL    HW121281   5.429   1.681   5.596
 6794SOL    HW221282   5.322   1.631   5.484
 6795SOL     OW21283   1.444   6.566   1.205
 6795SOL    HW121284   1.533   6.542   1.245
 6795SOL    HW221285   1.433   6.518   1.118
 6796SOL     OW21286   5.788   1.020   3.287
 6796SOL    HW121287   5.691   1.017   3.260
 6796SOL    HW221288   5.832   1.098   3.243
 6797SOL     OW21289   6.810   2.274   1.834
 6797SOL    HW121290   6.716   2.281   1.800
 6797SOL    HW221291   6.814   2.202   1.904
 6798SOL     OW21292   6.108   6.189   1.679
 6798SOL    HW121293   6.048   6.231   1.611
 6798SOL    HW221294   6.095   6.090   1.679
 6799SOL     OW21295   6.743   0.802   2.452
 6799SOL    HW121296   6.761   0.886   2.401
 6799SOL    HW221297   6.739   0.725   2.387
 6800SOL     OW21298   2.398   2.544   1.986
 6800SOL    HW121299   2.345   2.472   1.941
 6800SOL    HW221300   2.465   2.582   1.921
 6801SOL     OW21301   1.207   0.390   3.302
 6801SOL    HW121302   1.153   0.415   3.222
 6801SOL    HW221303   1.145   0.371   3.379
 6802SOL     OW21304   3.785   6.039   1.515
 6802SOL    HW121305   3.712   6.016   1.579
 6802SOL    HW221306   3.772   5.989   1.430
 6803SOL     OW21307   4.279   3.760   5.902
 6803SOL    HW121308   4.247   3.798   5.989
 6803SOL    HW221309   4.378   3.774   5.895
 6804SOL     OW21310   3.743   5.245   3.817
 6804SOL    HW121311   3.748   5.338   3.780
 6804SOL    HW221312   3.826   5.195   3.791
 6805SOL     OW21313   6.845   4.759   6.604
 6805SOL    HW121314   6.916   4.711   6.553
 6805SOL    HW221315   6.764   4.701   6.611
 6806SOL     OW21316   6.531   1.262   3.199
 6806SOL    HW121317   6.509   1.169   3.228
 6806SOL    HW221318   6.603   1.300   3.257
 6807SOL     OW21319   3.218   3.178   1.548
 6807SOL    HW121320   3.196   3.116   1.473
 6807SOL    HW221321   3.306   3.154   1.588
 6808SOL     OW21322   6.673   1.922   6.291
 6808SOL    HW121323   6.698   1.838   6.243
 6808SOL    HW221324   6.574   1.927   6.301
 6809SOL     OW21325   0.509   3.020   0.982
 6809SOL    HW121326   0.490   2.928   0.947
 6809SOL    HW221327   0.502   3.020   1.082
 6810SOL     OW21328   2.282   1.090   2.232
 6810SOL    HW121329   2.261   1.155   2.158
 6810SOL    HW221330   2.203   1.030   2.247
 6811SOL     OW21331   5.656   4.328   1.578
 6811SOL    HW121332   5.747   4.366   1.596
 6811SOL    HW221333   5.590   4.402   1.566
 6812SOL     OW21334   3.211   3.890   4.479
 6812SOL    HW121335   3.194   3.827   4.403
 6812SOL    HW221336   3.258   3.841   4.552
 6813SOL     OW21337   5.527   3.897   2.960
 6813SOL    HW121338   5.495   3.936   3.047
 6813SOL    HW221339   5.458   3.833   2.925
 6814SOL     OW21340   4.206   2.200   6.170
 6814SOL    HW121341   4.245   2.246   6.090
 6814SOL    HW221342   4.216   2.101   6.159
 6815SOL     OW21343   3.327   6.008   0.269
 6815SOL    HW121344   3.301   5.922   0.224
 6815SOL    HW221345   3.374   5.987   0.355
 6816SOL     OW21346   6.529   0.963   6.061
 6816SOL    HW121347   6.625   0.961   6.090
 6816SOL    HW221348   6.486   0.876   6.083
 6817SOL     OW21349   2.300   2.663   2.975
 6817SOL    HW121350   2.291   2.742   2.914
 6817SOL    HW221351   2.209   2.625   2.994
 6818SOL     OW21352   1.898   6.332   0.807
 6818SOL    HW121353   1.912   6.302   0.712
 6818SOL    HW221354   1.986   6.347   0.851
 6819SOL     OW21355   3.964   1.514   3.388
 6819SOL    HW121356   3.921   1.603   3.398
 6819SOL    HW221357   4.053   1.515   3.435
 6820SOL     OW21358   2.244   6.095   1.189
 6820SOL    HW121359   2.166   6.052   1.235
 6820SOL    HW221360   2.316   6.113   1.256
 6821SOL     OW21361   4.126   2.192   5.189
 6821SOL    HW121362   4.073   2.185   5.105
 6821SOL    HW221363   4.102   2.117   5.250
 6822SOL     OW21364   5.854   2.285   5.891
 6822SOL    HW121365   5.827   2.268   5.796
 6822SOL    HW221366   5.953   2.280   5.899
 6823SOL     OW21367   5.650   3.820   5.709
 6823SOL    HW121368   5.674   3.771   5.793
 6823SOL    HW221369   5.675   3.917   5.720
 6824SOL     OW21370   1.591   1.686   0.277
 6824SOL    HW121371   1.544   1.744   0.211
 6824SOL    HW221372   1.580   1.590   0.251
 6825SOL     OW21373   5.869   0.279   0.477
 6825SOL    HW121374   5.850   0.274   0.378
 6825SOL    HW221375   5.838   0.368   0.512
 6826SOL     OW21376   2.082   3.485   3.681
 6826SOL    HW121377   2.012   3.544   3.641
 6826SOL    HW221378   2.066   3.476   3.779
 6827SOL     OW21379   4.893   5.076   6.045
 6827SOL    HW121380   4.906   5.099   6.142
 6827SOL    HW221381   4.795   5.067   6.026
 6828SOL     OW21382   3.054   1.294   1.475
 6828SOL    HW121383   3.139   1.247   1.453
 6828SOL    HW221384   2.997   1.301   1.393
 6829SOL     OW21385   4.919   5.995   5.319
 6829SOL    HW121386   4.852   6.010   5.391
 6829SOL    HW221387   4.917   6.072   5.255
 6830SOL     OW21388   5.098   0.811   3.126
 6830SOL    HW121389   5.060   0.767   3.207
 6830SOL    HW221390   5.152   0.746   3.074
 6831SOL     OW21391   1.289   0.752   6.671
 6831SOL    HW121392   1.324   0.830   6.723
 6831SOL    HW221393   1.225   0.700   6.728
 6832SOL     OW21394   2.377   3.960   0.895
 6832SOL    HW121395   2.470   3.934   0.870
 6832SOL    HW221396   2.376   3.998   0.987
 6833SOL     OW21397   3.464   4.573   6.629
 6833SOL    HW121398   3.553   4.528   6.634
 6833SOL    HW221399   3.428   4.565   6.535
 6834SOL     OW21400   5.606   0.461   0.806
 6834SOL    HW121401   5.552   0.386   0.844
 6834SOL    HW221402   5.568   0.548   0.835
 6835SOL     OW21403   4.465   0.626   4.829
 6835SOL    HW121404   4.517   0.543   4.807
 6835SOL    HW221405   4.367   0.604   4.831
 6836SOL     OW21406   3.166   3.999   0.643
 6836SOL    HW121407   3.188   4.038   0.553
 6836SOL    HW221408   3.071   3.966   0.643
 6837SOL     OW21409   0.960   1.967   3.034
 6837SOL    HW121410   0.942   1.948   2.937
 6837SOL    HW221411   1.053   2.001   3.045
 6838SOL     OW21412   3.692   6.064   6.940
 6838SOL    HW121413   3.704   6.140   7.004
 6838SOL    HW221414   3.600   6.067   6.901
 6839SOL     OW21415   5.733   1.422   6.037
 6839SOL    HW121416   5.819   1.372   6.032
 6839SOL    HW221417   5.680   1.389   6.115
 6840SOL     OW21418   3.452   0.569   3.911
 6840SOL    HW121419   3.485   0.535   3.823
 6840SOL    HW221420   3.353   0.556   3.917
 6841SOL     OW21421   3.734   4.442   0.200
 6841SOL    HW121422   3.834   4.443   0.204
 6841SOL    HW221423   3.697   4.454   0.292
 6842SOL     OW21424   2.581   3.370   0.955
 6842SOL    HW121425   2.562   3.460   0.914
 6842SOL    HW221426   2.583   3.301   0.883
 6843SOL     OW21427   6.128   6.466   1.841
 6843SOL    HW121428   6.078   6.529   1.782
 6843SOL    HW221429   6.169   6.394   1.786
 6844SOL     OW21430   4.618   0.757   3.455
 6844SOL    HW121431   4.626   0.714   3.545
 6844SOL    HW221432   4.681   0.713   3.391
 6845SOL     OW21433   6.414   5.198   3.599
 6845SOL    HW121434   6.511   5.174   3.598
 6845SOL    HW221435   6.388   5.225   3.692
 6846SOL     OW21436   4.163   2.722   0.323
 6846SOL    HW121437   4.084   2.782   0.317
 6846SOL    HW221438   4.235   2.756   0.262
 6847SOL     OW21439   0.201   4.452   3.240
 6847SOL    HW121440   0.173   4.464   3.335
 6847SOL    HW221441   0.131   4.491   3.180
 6848SOL     OW21442   4.098   6.919   3.665
 6848SOL    HW121443   4.043   6.857   3.610
 6848SOL    HW221444   4.038   6.984   3.711
 6849SOL     OW21445   3.879   5.069   5.196
 6849SOL    HW121446   3.860   4.975   5.227
 6849SOL    HW221447   3.977   5.078   5.178
 6850SOL     OW21448   5.955   3.910   1.951
 6850SOL    HW121449   5.904   3.888   2.034
 6850SOL    HW221450   5.941   4.006   1.928
 6851SOL     OW21451   0.910   2.673   3.399
 6851SOL    HW121452   0.890   2.611   3.323
 6851SOL    HW221453   0.828   2.724   3.423
 6852SOL     OW21454   2.603   5.029   0.665
 6852SOL    HW121455   2.544   4.950   0.648
 6852SOL    HW221456   2.644   5.021   0.756
 6853SOL     OW21457   6.564   3.839   0.342
 6853SOL    HW121458   6.590   3.806   0.251
 6853SOL    HW221459   6.640   3.890   0.382
 6854SOL     OW21460   5.262   1.939   6.350
 6854SOL    HW121461   5.170   1.976   6.369
 6854SOL    HW221462   5.282   1.948   6.253
 6855SOL     OW21463   3.541   5.593   3.161
 6855SOL    HW121464   3.579   5.685   3.160
 6855SOL    HW221465   3.445   5.596   3.133
 6856SOL     OW21466   4.981   3.791   5.427
 6856SOL    HW121467   4.940   3.720   5.485
 6856SOL    HW221468   4.921   3.808   5.349
 6857SOL     OW21469   3.097   2.472   6.901
 6857SOL    HW121470   3.036   2.470   6.981
 6857SOL    HW221471   3.162   2.547   6.911
 6858SOL     OW21472   3.827   3.503   3.656
 6858SOL    HW121473   3.769   3.584   3.651
 6858SOL    HW221474   3.773   3.422   3.631
 6859SOL     OW21475   0.640   0.865   0.577
 6859SOL    HW121476   0.718   0.925   0.555
 6859SOL    HW221477   0.580   0.911   0.643
 6860SOL     OW21478   6.692   5.163   1.282
 6860SOL    HW121479   6.757   5.157   1.206
 6860SOL    HW221480   6.740   5.191   1.365
 6861SOL     OW21481   4.305   5.051   0.326
 6861SOL    HW121482   4.270   5.094   0.409
 6861SOL    HW221483   4.349   4.964   0.349
 6862SOL     OW21484   1.832   4.505   5.730
 6862SOL    HW121485   1.765   4.572   5.699
 6862SOL    HW221486   1.901   4.491   5.659
 6863SOL     OW21487   5.260   6.952   6.207
 6863SOL    HW121488   5.341   7.010   6.206
 6863SOL    HW221489   5.272   6.877   6.142
 6864SOL     OW21490   3.099   5.609   4.103
 6864SOL    HW121491   3.074   5.699   4.137
 6864SOL    HW221492   3.196   5.608   4.079
 6865SOL     OW21493   1.213   6.251   3.258
 6865SOL    HW121494   1.186   6.216   3.168
 6865SOL    HW221495   1.256   6.178   3.311
 6866SOL     OW21496   6.298   4.909   3.143
 6866SOL    HW121497   6.294   4.974   3.219
 6866SOL    HW221498   6.296   4.960   3.056
 6867SOL     OW21499   2.381   3.983   1.448
 6867SOL    HW121500   2.452   3.930   1.495
 6867SOL    HW221501   2.295   3.932   1.449
 6868SOL     OW21502   1.044   5.514   5.891
 6868SOL    HW121503   1.143   5.506   5.899
 6868SOL    HW221504   1.018   5.511   5.795
 6869SOL     OW21505   6.050   1.301   5.620
 6869SOL    HW121506   5.971   1.360   5.602
 6869SOL    HW221507   6.018   1.214   5.659
 6870SOL     OW21508   0.507   4.705   2.119
 6870SOL    HW121509   0.473   4.739   2.031
 6870SOL    HW221510   0.597   4.743   2.137
 6871SOL     OW21511   6.090   4.661   3.334
 6871SOL    HW121512   6.102   4.747   3.286
 6871SOL    HW221513   6.088   4.585   3.268
 6872SOL     OW21514   0.105   2.582   1.310
 6872SOL    HW121515   0.131   2.521   1.384
 6872SOL    HW221516   0.117   2.535   1.222
 6873SOL     OW21517   6.906   3.704   5.768
 6873SOL    HW121518   6.832   3.756   5.811
 6873SOL    HW221519   6.913   3.730   5.671
 6874SOL     OW21520   0.371   6.143   2.510
 6874SOL    HW121521   0.445   6.163   2.575
 6874SOL    HW221522   0.341   6.228   2.467
 6875SOL     OW21523   2.341   2.713   3.493
 6875SOL    HW121524   2.259   2.655   3.494
 6875SOL    HW221525   2.372   2.724   3.398
 6876SOL     OW21526   3.511   6.589   3.758
 6876SOL    HW121527   3.604   6.614   3.785
 6876SOL    HW221528   3.446   6.620   3.828
 6877SOL     OW21529   2.548   3.717   1.150
 6877SOL    HW121530   2.610   3.665   1.091
 6877SOL    HW221531   2.466   3.662   1.168
 6878SOL     OW21532   3.058   1.171   5.175
 6878SOL    HW121533   3.041   1.267   5.154
 6878SOL    HW221534   3.101   1.126   5.097
 6879SOL     OW21535   0.681   2.281   0.734
 6879SOL    HW121536   0.631   2.321   0.657
 6879SOL    HW221537   0.739   2.351   0.776
 6880SOL     OW21538   1.560   4.840   4.694
 6880SOL    HW121539   1.582   4.845   4.596
 6880SOL    HW221540   1.548   4.932   4.730
 6881SOL     OW21541   1.711   4.027   0.903
 6881SOL    HW121542   1.622   4.071   0.903
 6881SOL    HW221543   1.780   4.090   0.869
 6882SOL     OW21544   2.975   0.706   6.831
 6882SOL    HW121545   2.975   0.762   6.748
 6882SOL    HW221546   2.908   0.632   6.821
 6883SOL     OW21547   4.334   1.038   0.672
 6883SOL    HW121548   4.257   0.976   0.683
 6883SOL    HW221549   4.418   0.992   0.700
 6884SOL     OW21550   2.603   4.563   4.202
 6884SOL    HW121551   2.556   4.511   4.273
 6884SOL    HW221552   2.581   4.525   4.112
 6885SOL     OW21553   3.885   5.394   3.620
 6885SOL    HW121554   3.985   5.395   3.618
 6885SOL    HW221555   3.853   5.303   3.591
 6886SOL     OW21556   6.687   0.700   4.533
 6886SOL    HW121557   6.719   0.739   4.446
 6886SOL    HW221558   6.763   0.696   4.597
 6887SOL     OW21559   5.045   5.738   6.369
 6887SOL    HW121560   5.141   5.734   6.340
 6887SOL    HW221561   5.016   5.649   6.403
 6888SOL     OW21562   5.431   6.178   6.935
 6888SOL    HW121563   5.434   6.264   6.985
 6888SOL    HW221564   5.496   6.114   6.974
 6889SOL     OW21565   1.973   2.318   5.140
 6889SOL    HW121566   1.904   2.383   5.174
 6889SOL    HW221567   2.063   2.360   5.143
 6890SOL     OW21568   4.553   6.225   1.487
 6890SOL    HW121569   4.525   6.235   1.583
 6890SOL    HW221570   4.477   6.251   1.428
 6891SOL     OW21571   2.078   4.527   3.350
 6891SOL    HW121572   2.121   4.488   3.269
 6891SOL    HW221573   2.148   4.562   3.412
 6892SOL     OW21574   3.089   2.188   3.528
 6892SOL    HW121575   3.163   2.197   3.596
 6892SOL    HW221576   3.106   2.108   3.470
 6893SOL     OW21577   4.124   4.022   0.195
 6893SOL    HW121578   4.124   4.110   0.148
 6893SOL    HW221579   4.216   4.002   0.229
 6894SOL     OW21580   6.513   4.604   0.752
 6894SOL    HW121581   6.530   4.690   0.801
 6894SOL    HW221582   6.577   4.596   0.676
 6895SOL     OW21583   3.019   5.373   6.854
 6895SOL    HW121584   3.084   5.324   6.911
 6895SOL    HW221585   3.058   5.387   6.763
 6896SOL     OW21586   2.319   0.185   3.791
 6896SOL    HW121587   2.264   0.250   3.843
 6896SOL    HW221588   2.388   0.145   3.851
 6897SOL     OW21589   4.703   4.255   5.937
 6897SOL    HW121590   4.619   4.295   5.899
 6897SOL    HW221591   4.706   4.272   6.035
 6898SOL     OW21592   3.410   1.613   1.600
 6898SOL    HW121593   3.373   1.605   1.507
 6898SOL    HW221594   3.400   1.708   1.631
 6899SOL     OW21595   5.746   6.257   1.370
 6899SOL    HW121596   5.782   6.168   1.341
 6899SOL    HW221597   5.662   6.243   1.423
 6900SOL     OW21598   6.482   6.559   5.747
 6900SOL    HW121599   6.531   6.585   5.830
 6900SOL    HW221600   6.539   6.498   5.692
 6901SOL     OW21601   0.072   6.261   6.082
 6901SOL    HW121602   7.014   6.244   6.030
 6901SOL    HW221603   0.062   6.222   6.174
 6902SOL     OW21604   5.525   5.899   6.735
 6902SOL    HW121605   5.504   5.988   6.776
 6902SOL    HW221606   5.554   5.835   6.806
 6903SOL     OW21607   3.097   5.696   4.743
 6903SOL    HW121608   3.158   5.706   4.821
 6903SOL    HW221609   3.147   5.654   4.667
 6904SOL     OW21610   5.812   0.658   4.583
 6904SOL    HW121611   5.855   0.653   4.493
 6904SOL    HW221612   5.799   0.754   4.608
 6905SOL     OW21613   5.632   6.654   6.024
 6905SOL    HW121614   5.643   6.612   5.934
 6905SOL    HW221615   5.654   6.588   6.096
 6906SOL     OW21616   4.750   1.231   3.439
 6906SOL    HW121617   4.762   1.288   3.520
 6906SOL    HW221618   4.835   1.182   3.420
 6907SOL     OW21619   5.345   2.865   1.418
 6907SOL    HW121620   5.427   2.914   1.444
 6907SOL    HW221621   5.276   2.872   1.490
 6908SOL     OW21622   0.859   5.461   6.097
 6908SOL    HW121623   0.910   5.471   6.011
 6908SOL    HW221624   0.922   5.468   6.174
 6909SOL     OW21625   5.674   4.473   1.246
 6909SOL    HW121626   5.711   4.474   1.154
 6909SOL    HW221627   5.629   4.560   1.266
 6910SOL     OW21628   6.563   2.141   3.554
 6910SOL    HW121629   6.486   2.087   3.520
 6910SOL    HW221630   6.539   2.238   3.553
 6911SOL     OW21631   4.233   5.970   4.219
 6911SOL    HW121632   4.251   5.872   4.218
 6911SOL    HW221633   4.153   5.990   4.162
 6912SOL     OW21634   3.941   4.583   6.812
 6912SOL    HW121635   3.901   4.607   6.724
 6912SOL    HW221636   3.960   4.484   6.814
 6913SOL     OW21637   4.799   5.618   4.308
 6913SOL    HW121638   4.724   5.595   4.369
 6913SOL    HW221639   4.877   5.558   4.326
 6914SOL     OW21640   5.958   3.850   5.327
 6914SOL    HW121641   6.028   3.882   5.263
 6914SOL    HW221642   5.893   3.792   5.279
 6915SOL     OW21643   6.004   3.170   1.822
 6915SOL    HW121644   6.075   3.147   1.888
 6915SOL    HW221645   6.038   3.153   1.729
 6916SOL     OW21646   6.538   2.469   0.093
 6916SOL    HW121647   6.629   2.507   0.112
 6916SOL    HW221648   6.486   2.463   0.178
 6917SOL     OW21649   3.057   5.560   1.146
 6917SOL    HW121650   3.141   5.514   1.176
 6917SOL    HW221651   2.978   5.511   1.182
 6918SOL     OW21652   7.012   3.082   4.011
 6918SOL    HW121653   0.057   3.080   4.082
 6918SOL    HW221654   6.993   3.177   3.986
 6919SOL     OW21655   0.160   6.265   2.739
 6919SOL    HW121656   0.131   6.222   2.653
 6919SOL    HW221657   0.143   6.203   2.815
 6920SOL     OW21658   4.581   5.831   5.016
 6920SOL    HW121659   4.638   5.882   4.951
 6920SOL    HW221660   4.486   5.862   5.008
 6921SOL     OW21661   5.472   5.596   3.590
 6921SOL    HW121662   5.376   5.622   3.596
 6921SOL    HW221663   5.526   5.650   3.654
 6922SOL     OW21664   2.140   5.802   5.584
 6922SOL    HW121665   2.123   5.740   5.661
 6922SOL    HW221666   2.099   5.764   5.501
 6923SOL     OW21667   4.531   5.865   3.353
 6923SOL    HW121668   4.472   5.809   3.296
 6923SOL    HW221669   4.481   5.891   3.436
 6924SOL     OW21670   2.829   3.907   6.660
 6924SOL    HW121671   2.814   3.944   6.568
 6924SOL    HW221672   2.774   3.958   6.726
 6925SOL     OW21673   4.575   6.211   4.608
 6925SOL    HW121674   4.532   6.208   4.698
 6925SOL    HW221675   4.515   6.169   4.540
 6926SOL     OW21676   3.512   2.548   0.975
 6926SOL    HW121677   3.553   2.569   1.064
 6926SOL    HW221678   3.413   2.544   0.985
 6927SOL     OW21679   4.452   2.936   6.422
 6927SOL    HW121680   4.491   2.908   6.335
 6927SOL    HW221681   4.463   3.035   6.433
 6928SOL     OW21682   6.094   5.747   0.853
 6928SOL    HW121683   6.146   5.827   0.821
 6928SOL    HW221684   6.034   5.716   0.780
 6929SOL     OW21685   5.874   5.229   1.006
 6929SOL    HW121686   5.838   5.141   0.975
 6929SOL    HW221687   5.801   5.282   1.048
 6930SOL     OW21688   0.495   0.152   2.399
 6930SOL    HW121689   0.503   0.066   2.449
 6930SOL    HW221690   0.405   0.193   2.416
 6931SOL     OW21691   2.233   0.846   2.467
 6931SOL    HW121692   2.328   0.875   2.456
 6931SOL    HW221693   2.229   0.746   2.475
 6932SOL     OW21694   4.300   6.525   0.590
 6932SOL    HW121695   4.207   6.509   0.624
 6932SOL    HW221696   4.310   6.482   0.500
 6933SOL     OW21697   3.315   6.259   4.631
 6933SOL    HW121698   3.405   6.261   4.587
 6933SOL    HW221699   3.327   6.248   4.730
 6934SOL     OW21700   5.062   3.431   5.814
 6934SOL    HW121701   5.039   3.352   5.757
 6934SOL    HW221702   4.986   3.495   5.816
 6935SOL     OW21703   4.518   5.057   3.229
 6935SOL    HW121704   4.601   5.042   3.174
 6935SOL    HW221705   4.454   4.981   3.214
 6936SOL     OW21706   6.058   1.837   3.611
 6936SOL    HW121707   5.996   1.889   3.668
 6936SOL    HW221708   6.015   1.819   3.522
 6937SOL     OW21709   6.695   6.365   0.063
 6937SOL    HW121710   6.735   6.450   0.029
 6937SOL    HW221711   6.596   6.366   0.049
 6938SOL     OW21712   5.105   3.248   5.128
 6938SOL    HW121713   5.095   3.319   5.058
 6938SOL    HW221714   5.197   3.208   5.122
 6939SOL     OW21715   0.994   4.545   2.024
 6939SOL    HW121716   0.944   4.611   1.968
 6939SOL    HW221717   1.092   4.553   2.006
 6940SOL     OW21718   4.279   0.785   6.547
 6940SOL    HW121719   4.216   0.728   6.599
 6940SOL    HW221720   4.372   0.749   6.556
 6941SOL     OW21721   3.780   3.970   1.987
 6941SOL    HW121722   3.870   3.930   2.005
 6941SOL    HW221723   3.739   4.000   2.073
 6942SOL     OW21724   5.536   0.625   1.213
 6942SOL    HW121725   5.468   0.698   1.202
 6942SOL    HW221726   5.499   0.554   1.273
 6943SOL     OW21727   4.440   6.064   0.364
 6943SOL    HW121728   4.402   6.121   0.437
 6943SOL    HW221729   4.366   6.029   0.307
 6944SOL     OW21730   0.391   4.152   6.523
 6944SOL    HW121731   0.333   4.205   6.585
 6944SOL    HW221732   0.464   4.108   6.575
 6945SOL     OW21733   6.216   1.002   6.800
 6945SOL    HW121734   6.145   0.985   6.731
 6945SOL    HW221735   6.173   1.011   6.890
 6946SOL     OW21736   5.701   6.431   1.177
 6946SOL    HW121737   5.631   6.392   1.118
 6946SOL    HW221738   5.711   6.375   1.260
 6947SOL     OW21739   3.271   6.391   6.810
 6947SOL    HW121740   3.346   6.455   6.792
 6947SOL    HW221741   3.238   6.354   6.723
 6948SOL     OW21742   0.028   0.096   0.779
 6948SOL    HW121743   0.110   0.067   0.730
 6948SOL    HW221744   7.004   0.162   0.724
 6949SOL     OW21745   4.525   0.162   2.574
 6949SOL    HW121746   4.614   0.171   2.617
 6949SOL    HW221747   4.495   0.066   2.579
 6950SOL     OW21748   2.241   1.814   4.682
 6950SOL    HW121749   2.142   1.825   4.692
 6950SOL    HW221750   2.279   1.776   4.767
 6951SOL     OW21751   6.713   5.775   5.860
 6951SOL    HW121752   6.734   5.702   5.925
 6951SOL    HW221753   6.715   5.863   5.907
 6952SOL     OW21754   0.939   6.407   3.267
 6952SOL    HW121755   1.014   6.474   3.272
 6952SOL    HW221756   0.924   6.381   3.172
 6953SOL     OW21757   4.555   6.494   0.857
 6953SOL    HW121758   4.621   6.445   0.800
 6953SOL    HW221759   4.537   6.584   0.816
 6954SOL     OW21760   6.897   3.600   3.259
 6954SOL    HW121761   6.851   3.637   3.340
 6954SOL    HW221762   6.829   3.558   3.198
 6955SOL     OW21763   6.023   0.102   2.508
 6955SOL    HW121764   6.040   0.035   2.436
 6955SOL    HW221765   6.085   0.086   2.584
 6956SOL     OW21766   5.601   5.369   3.594
 6956SOL    HW121767   5.697   5.392   3.610
 6956SOL    HW221768   5.554   5.447   3.551
 6957SOL     OW21769   6.555   5.130   0.640
 6957SOL    HW121770   6.602   5.048   0.672
 6957SOL    HW221771   6.507   5.173   0.717
 6958SOL     OW21772   3.160   3.041   4.484
 6958SOL    HW121773   3.083   2.995   4.441
 6958SOL    HW221774   3.170   3.008   4.578
 6959SOL     OW21775   1.783   2.065   4.157
 6959SOL    HW121776   1.846   2.065   4.079
 6959SOL    HW221777   1.782   1.974   4.199
 6960SOL     OW21778   2.560   4.281   1.356
 6960SOL    HW121779   2.557   4.354   1.424
 6960SOL    HW221780   2.471   4.236   1.350
 6961SOL     OW21781   5.620   1.787   3.492
 6961SOL    HW121782   5.536   1.756   3.536
 6961SOL    HW221783   5.666   1.853   3.552
 6962SOL     OW21784   4.717   6.033   1.687
 6962SOL    HW121785   4.622   6.061   1.682
 6962SOL    HW221786   4.770   6.100   1.739
 6963SOL     OW21787   5.507   6.297   1.030
 6963SOL    HW121788   5.486   6.205   1.063
 6963SOL    HW221789   5.424   6.337   0.990
 6964SOL     OW21790   3.568   0.573   4.899
 6964SOL    HW121791   3.544   0.669   4.912
 6964SOL    HW221792   3.657   0.567   4.853
 6965SOL     OW21793   1.073   2.268   0.962
 6965SOL    HW121794   1.134   2.189   0.963
 6965SOL    HW221795   1.012   2.265   1.041
 6966SOL     OW21796   0.080   2.158   3.140
 6966SOL    HW121797   0.111   2.068   3.111
 6966SOL    HW221798   0.013   2.149   3.214
 6967SOL     OW21799   2.633   0.097   5.405
 6967SOL    HW121800   2.622   0.159   5.327
 6967SOL    HW221801   2.559   0.113   5.471
 6968SOL     OW21802   4.437   6.530   2.517
 6968SOL    HW121803   4.497   6.463   2.561
 6968SOL    HW221804   4.388   6.582   2.588
 6969SOL     OW21805   3.230   2.548   1.017
 6969SOL    HW121806   3.179   2.577   1.098
 6969SOL    HW221807   3.196   2.459   0.986
 6970SOL     OW21808   4.092   4.392   5.882
 6970SOL    HW121809   4.126   4.302   5.857
 6970SOL    HW221810   4.001   4.384   5.923
 6971SOL     OW21811   6.739   4.145   2.268
 6971SOL    HW121812   6.757   4.059   2.317
 6971SOL    HW221813   6.792   4.147   2.183
 6972SOL     OW21814   4.742   4.170   3.375
 6972SOL    HW121815   4.715   4.107   3.448
 6972SOL    HW221816   4.728   4.264   3.406
 6973SOL     OW21817   0.737   3.230   4.585
 6973SOL    HW121818   0.737   3.256   4.489
 6973SOL    HW221819   0.664   3.279   4.633
 6974SOL     OW21820   2.925   3.776   2.828
 6974SOL    HW121821   2.891   3.794   2.920
 6974SOL    HW221822   2.974   3.689   2.827
 6975SOL     OW21823   2.247   6.382   6.152
 6975SOL    HW121824   2.332   6.334   6.132
 6975SOL    HW221825   2.173   6.316   6.167
 6976SOL     OW21826   5.392   5.484   4.668
 6976SOL    HW121827   5.399   5.416   4.595
 6976SOL    HW221828   5.400   5.576   4.630
 6977SOL     OW21829   3.710   3.145   1.760
 6977SOL    HW121830   3.804   3.112   1.766
 6977SOL    HW221831   3.687   3.195   1.844
 6978SOL     OW21832   5.439   1.365   1.951
 6978SOL    HW121833   5.436   1.388   2.048
 6978SOL    HW221834   5.437   1.449   1.897
 6979SOL     OW21835   0.412   4.323   1.333
 6979SOL    HW121836   0.414   4.227   1.306
 6979SOL    HW221837   0.319   4.358   1.323
 6980SOL     OW21838   1.794   0.819   4.145
 6980SOL    HW121839   1.810   0.914   4.169
 6980SOL    HW221840   1.766   0.768   4.226
 6981SOL     OW21841   3.737   2.386   5.610
 6981SOL    HW121842   3.755   2.412   5.705
 6981SOL    HW221843   3.650   2.424   5.581
 6982SOL     OW21844   1.431   0.455   4.873
 6982SOL    HW121845   1.358   0.426   4.935
 6982SOL    HW221846   1.515   0.405   4.893
 6983SOL     OW21847   3.540   2.125   4.035
 6983SOL    HW121848   3.454   2.150   3.990
 6983SOL    HW221849   3.607   2.096   3.966
 6984SOL     OW21850   2.301   1.803   3.156
 6984SOL    HW121851   2.258   1.713   3.152
 6984SOL    HW221852   2.231   1.873   3.143
 6985SOL     OW21853   5.782   5.061   1.452
 6985SOL    HW121854   5.797   5.128   1.379
 6985SOL    HW221855   5.840   5.084   1.530
 6986SOL     OW21856   2.143   7.012   5.506
 6986SOL    HW121857   2.160   0.067   5.448
 6986SOL    HW221858   2.207   6.939   5.481
 6987SOL     OW21859   6.001   1.339   6.013
 6987SOL    HW121860   6.056   1.321   6.095
 6987SOL    HW221861   5.985   1.254   5.964
 6988SOL     OW21862   0.332   0.684   5.502
 6988SOL    HW121863   0.303   0.670   5.407
 6988SOL    HW221864   0.425   0.647   5.513
 6989SOL     OW21865   1.013   3.850   3.234
 6989SOL    HW121866   1.016   3.766   3.179
 6989SOL    HW221867   0.925   3.856   3.281
 6990SOL     OW21868   4.690   2.406   1.052
 6990SOL    HW121869   4.595   2.381   1.067
 6990SOL    HW221870   4.697   2.505   1.038
 6991SOL     OW21871   4.118   4.730   3.301
 6991SOL    HW121872   4.048   4.796   3.327
 6991SOL    HW221873   4.075   4.649   3.260
 6992SOL     OW21874   5.110   6.198   6.255
 6992SOL    HW121875   5.015   6.171   6.243
 6992SOL    HW221876   5.120   6.246   6.342
 6993SOL     OW21877   5.274   0.663   2.661
 6993SOL    HW121878   5.175   0.656   2.672
 6993SOL    HW221879   5.303   0.756   2.682
 6994SOL     OW21880   0.432   2.198   4.552
 6994SOL    HW121881   0.414   2.142   4.471
 6994SOL    HW221882   0.502   2.266   4.531
 6995SOL     OW21883   6.690   4.574   6.251
 6995SOL    HW121884   6.692   4.475   6.239
 6995SOL    HW221885   6.703   4.618   6.162
 6996SOL     OW21886   1.347   6.883   6.854
 6996SOL    HW121887   1.344   6.930   6.766
 6996SOL    HW221888   1.404   6.801   6.847
 6997SOL     OW21889   0.039   6.145   4.903
 6997SOL    HW121890   0.105   6.075   4.931
 6997SOL    HW221891   6.977   6.101   4.883
 6998SOL     OW21892   2.064   0.440   1.831
 6998SOL    HW121893   2.158   0.420   1.802
 6998SOL    HW221894   2.048   0.539   1.822
 6999SOL     OW21895   2.638   2.186   6.586
 6999SOL    HW121896   2.563   2.133   6.624
 6999SOL    HW221897   2.671   2.252   6.655
 7000SOL     OW21898   5.171   6.785   1.062
 7000SOL    HW121899   5.251   6.770   1.119
 7000SOL    HW221900   5.156   6.883   1.051
 7001SOL     OW21901   1.665   3.237   5.568
 7001SOL    HW121902   1.727   3.273   5.638
 7001SOL    HW221903   1.714   3.232   5.480
 7002SOL     OW21904   2.045   5.357   4.640
 7002SOL    HW121905   1.948   5.359   4.617
 7002SOL    HW221906   2.060   5.290   4.713
 7003SOL     OW21907   4.012   5.244   0.281
 7003SOL    HW121908   4.095   5.251   0.335
 7003SOL    HW221909   4.027   5.286   0.191
 7004SOL     OW21910   1.395   4.766   2.661
 7004SOL    HW121911   1.418   4.820   2.580
 7004SOL    HW221912   1.301   4.734   2.654
 7005SOL     OW21913   1.459   0.286   0.919
 7005SOL    HW121914   1.422   0.366   0.873
 7005SOL    HW221915   1.530   0.315   0.984
 7006SOL     OW21916   5.140   4.958   3.808
 7006SOL    HW121917   5.235   4.983   3.790
 7006SOL    HW221918   5.127   4.944   3.906
 7007SOL     OW21919   3.997   0.768   3.601
 7007SOL    HW121920   3.943   0.689   3.569
 7007SOL    HW221921   4.091   0.739   3.617
 7008SOL     OW21922   0.492   3.533   4.908
 7008SOL    HW121923   0.517   3.626   4.935
 7008SOL    HW221924   0.429   3.495   4.976
 7009SOL     OW21925   5.699   5.987   1.979
 7009SOL    HW121926   5.619   6.012   2.034
 7009SOL    HW221927   5.669   5.956   1.889
 7010SOL     OW21928   5.429   4.329   4.019
 7010SOL    HW121929   5.347   4.360   4.067
 7010SOL    HW221930   5.510   4.361   4.067
 7011SOL     OW21931   3.017   6.805   6.319
 7011SOL    HW121932   2.954   6.739   6.279
 7011SOL    HW221933   3.065   6.853   6.245
 7012SOL     OW21934   0.385   2.195   1.610
 7012SOL    HW121935   0.479   2.225   1.626
 7012SOL    HW221936   0.382   2.131   1.533
 7013SOL     OW21937   0.526   0.483   0.075
 7013SOL    HW121938   0.492   0.470   7.007
 7013SOL    HW221939   0.520   0.396   0.125
 7014SOL     OW21940   4.411   3.623   0.787
 7014SOL    HW121941   4.378   3.582   0.701
 7014SOL    HW221942   4.346   3.604   0.860
 7015SOL     OW21943   6.364   4.757   2.276
 7015SOL    HW121944   6.307   4.712   2.345
 7015SOL    HW221945   6.454   4.778   2.315
 7016SOL     OW21946   3.337   4.868   1.565
 7016SOL    HW121947   3.321   4.837   1.471
 7016SOL    HW221948   3.431   4.847   1.592
 7017SOL     OW21949   2.386   5.019   2.496
 7017SOL    HW121950   2.370   5.030   2.398
 7017SOL    HW221951   2.323   5.078   2.547
 7018SOL     OW21952   5.522   3.636   4.705
 7018SOL    HW121953   5.475   3.717   4.671
 7018SOL    HW221954   5.512   3.630   4.804
 7019SOL     OW21955   3.640   3.931   0.278
 7019SOL    HW121956   3.683   3.856   0.329
 7019SOL    HW221957   3.585   3.986   0.340
 7020SOL     OW21958   6.639   5.271   6.408
 7020SOL    HW121959   6.628   5.321   6.494
 7020SOL    HW221960   6.643   5.173   6.427
 7021SOL     OW21961   1.017   1.905   5.601
 7021SOL    HW121962   1.090   1.845   5.634
 7021SOL    HW221963   1.047   1.949   5.516
 7022SOL     OW21964   4.863   6.962   5.967
 7022SOL    HW121965   4.838   6.983   5.873
 7022SOL    HW221966   4.956   6.993   5.985
 7023SOL     OW21967   6.876   2.387   4.047
 7023SOL    HW121968   6.857   2.313   4.112
 7023SOL    HW221969   6.954   2.362   3.990
 7024SOL     OW21970   2.615   3.825   5.343
 7024SOL    HW121971   2.548   3.878   5.291
 7024SOL    HW221972   2.705   3.832   5.298
 7025SOL     OW21973   2.895   0.836   0.626
 7025SOL    HW121974   2.869   0.762   0.565
 7025SOL    HW221975   2.943   0.799   0.705
 7026SOL     OW21976   2.988   1.567   2.022
 7026SOL    HW121977   3.065   1.511   2.052
 7026SOL    HW221978   2.908   1.509   2.008
 7027SOL     OW21979   3.115   5.387   4.323
 7027SOL    HW121980   3.057   5.311   4.353
 7027SOL    HW221981   3.078   5.426   4.239
 7028SOL     OW21982   3.218   2.028   4.456
 7028SOL    HW121983   3.210   1.966   4.534
 7028SOL    HW221984   3.155   2.105   4.468
 7029SOL     OW21985   5.047   5.158   5.227
 7029SOL    HW121986   5.113   5.178   5.299
 7029SOL    HW221987   5.074   5.204   5.143
 7030SOL     OW21988   1.457   0.793   4.893
 7030SOL    HW121989   1.414   0.732   4.827
 7030SOL    HW221990   1.388   0.851   4.935
 7031SOL     OW21991   3.459   5.556   5.590
 7031SOL    HW121992   3.379   5.542   5.531
 7031SOL    HW221993   3.538   5.580   5.534
 7032SOL     OW21994   4.067   1.158   3.556
 7032SOL    HW121995   4.149   1.100   3.549
 7032SOL    HW221996   4.094   1.254   3.550
 7033SOL     OW21997   1.625   2.453   3.806
 7033SOL    HW121998   1.652   2.455   3.710
 7033SOL    HW221999   1.694   2.501   3.861
 7034SOL     OW22000   6.566   0.485   3.869
 7034SOL    HW122001   6.472   0.484   3.904
 7034SOL    HW222002   6.565   0.501   3.771
 7035SOL     OW22003   1.437   6.497   0.941
 7035SOL    HW122004   1.378   6.431   0.895
 7035SOL    HW222005   1.461   6.571   0.878
 7036SOL     OW22006   0.131   0.537   3.138
 7036SOL    HW122007   0.218   0.587   3.145
 7036SOL    HW222008   0.084   0.540   3.226
 7037SOL     OW22009   1.589   1.485   6.572
 7037SOL    HW122010   1.655   1.450   6.639
 7037SOL    HW222011   1.537   1.559   6.612
 7038SOL     OW22012   2.383   3.135   5.399
 7038SOL    HW122013   2.309   3.188   5.359
 7038SOL    HW222014   2.434   3.088   5.326
 7039SOL     OW22015   1.733   5.263   1.833
 7039SOL    HW122016   1.805   5.221   1.889
 7039SOL    HW222017   1.735   5.362   1.845
 7040SOL     OW22018   6.060   1.587   5.983
 7040SOL    HW122019   6.067   1.619   5.889
 7040SOL    HW222020   6.003   1.505   5.987
 7041SOL     OW22021   6.194   0.976   2.325
 7041SOL    HW122022   6.270   0.991   2.388
 7041SOL    HW222023   6.121   1.042   2.345
 7042SOL     OW22024   4.679   4.798   4.995
 7042SOL    HW122025   4.698   4.872   4.931
 7042SOL    HW222026   4.763   4.749   5.016
 7043SOL     OW22027   2.521   4.472   2.757
 7043SOL    HW122028   2.540   4.539   2.828
 7043SOL    HW222029   2.477   4.392   2.797
 7044SOL     OW22030   5.306   5.170   4.005
 7044SOL    HW122031   5.291   5.071   4.003
 7044SOL    HW222032   5.364   5.196   3.929
 7045SOL     OW22033   5.162   5.638   3.331
 7045SOL    HW122034   5.216   5.571   3.281
 7045SOL    HW222035   5.072   5.599   3.352
 7046SOL     OW22036   3.057   1.004   3.142
 7046SOL    HW122037   3.148   0.962   3.144
 7046SOL    HW222038   3.026   1.021   3.235
 7047SOL     OW22039   6.223   1.408   2.443
 7047SOL    HW122040   6.245   1.369   2.532
 7047SOL    HW222041   6.245   1.506   2.442
 7048SOL     OW22042   5.204   6.979   3.239
 7048SOL    HW122043   5.280   6.915   3.226
 7048SOL    HW222044   5.119   6.929   3.250
 7049SOL     OW22045   3.079   1.675   0.301
 7049SOL    HW122046   3.059   1.589   0.255
 7049SOL    HW222047   3.031   1.750   0.255
 7050SOL     OW22048   4.351   3.623   1.518
 7050SOL    HW122049   4.339   3.537   1.566
 7050SOL    HW222050   4.419   3.612   1.445
 7051SOL     OW22051   6.182   6.712   1.003
 7051SOL    HW122052   6.183   6.757   1.092
 7051SOL    HW222053   6.103   6.650   0.998
 7052SOL     OW22054   5.708   2.105   3.113
 7052SOL    HW122055   5.721   2.031   3.179
 7052SOL    HW222056   5.717   2.193   3.160
 7053SOL     OW22057   1.307   3.348   5.413
 7053SOL    HW122058   1.223   3.319   5.367
 7053SOL    HW222059   1.353   3.269   5.452
 7054SOL     OW22060   0.317   6.693   0.188
 7054SOL    HW122061   0.267   6.713   0.103
 7054SOL    HW222062   0.257   6.709   0.266
 7055SOL     OW22063   2.890   6.935   6.075
 7055SOL    HW122064   2.821   6.959   6.144
 7055SOL    HW222065   2.846   6.885   6.000
 7056SOL     OW22066   0.053   4.176   2.237
 7056SOL    HW122067   0.152   4.162   2.247
 7056SOL    HW222068   0.037   4.264   2.192
 7057SOL     OW22069   2.741   5.198   4.569
 7057SOL    HW122070   2.734   5.104   4.534
 7057SOL    HW222071   2.837   5.220   4.587
 7058SOL     OW22072   5.412   4.274   5.156
 7058SOL    HW122073   5.323   4.310   5.184
 7058SOL    HW222074   5.400   4.184   5.114
 7059SOL     OW22075   6.831   1.679   4.070
 7059SOL    HW122076   6.838   1.579   4.069
 7059SOL    HW222077   6.922   1.718   4.083
 7060SOL     OW22078   3.594   0.123   1.389
 7060SOL    HW122079   3.504   0.163   1.403
 7060SOL    HW222080   3.592   0.026   1.411
 7061SOL     OW22081   0.446   3.487   3.793
 7061SOL    HW122082   0.371   3.479   3.727
 7061SOL    HW222083   0.528   3.444   3.756
 7062SOL     OW22084   4.336   1.138   5.392
 7062SOL    HW122085   4.347   1.149   5.491
 7062SOL    HW222086   4.394   1.063   5.361
 7063SOL     OW22087   1.511   6.955   2.047
 7063SOL    HW122088   1.588   6.976   1.987
 7063SOL    HW222089   1.443   6.901   1.998
 7064SOL     OW22090   3.709   2.025   0.129
 7064SOL    HW122091   3.790   1.990   0.082
 7064SOL    HW222092   3.650   1.949   0.155
 7065SOL     OW22093   5.406   3.953   5.547
 7065SOL    HW122094   5.497   3.920   5.572
 7065SOL    HW222095   5.348   3.956   5.628
 7066SOL     OW22096   4.679   0.208   6.757
 7066SOL    HW122097   4.697   0.221   6.855
 7066SOL    HW222098   4.583   0.229   6.738
 7067SOL     OW22099   1.386   3.064   5.827
 7067SOL    HW122100   1.357   3.088   5.920
 7067SOL    HW222101   1.485   3.054   5.825
 7068SOL     OW22102   6.609   4.851   4.759
 7068SOL    HW122103   6.671   4.920   4.721
 7068SOL    HW222104   6.639   4.760   4.733
 7069SOL     OW22105   5.266   2.025   4.086
 7069SOL    HW122106   5.171   1.993   4.081
 7069SOL    HW222107   5.326   1.947   4.100
 7070SOL     OW22108   0.604   0.000   4.950
 7070SOL    HW122109   0.688   6.973   4.941
 7070SOL    HW222110   0.556   6.998   5.033
 7071SOL     OW22111   3.204   5.916   5.329
 7071SOL    HW122112   3.165   5.919   5.421
 7071SOL    HW222113   3.152   5.851   5.274
 7072SOL     OW22114   1.623   6.510   0.254
 7072SOL    HW122115   1.531   6.507   0.216
 7072SOL    HW222116   1.682   6.566   0.195
 7073SOL     OW22117   5.404   6.939   4.130
 7073SOL    HW122118   5.500   6.910   4.130
 7073SOL    HW222119   5.347   6.863   4.161
 7074SOL     OW22120   5.539   2.654   1.711
 7074SOL    HW122121   5.543   2.560   1.744
 7074SOL    HW222122   5.444   2.684   1.705
 7075SOL     OW22123   1.902   4.185   5.029
 7075SOL    HW122124   1.955   4.101   5.034
 7075SOL    HW222125   1.881   4.206   4.933
 7076SOL     OW22126   5.801   2.555   6.501
 7076SOL    HW122127   5.857   2.482   6.461
 7076SOL    HW222128   5.748   2.600   6.430
 7077SOL     OW22129   2.490   4.797   3.950
 7077SOL    HW122130   2.497   4.701   3.922
 7077SOL    HW222131   2.541   4.854   3.885
 7078SOL     OW22132   6.465   6.748   1.862
 7078SOL    HW122133   6.429   6.672   1.916
 7078SOL    HW222134   6.547   6.718   1.813
 7079SOL     OW22135   6.926   5.862   4.538
 7079SOL    HW122136   6.990   5.835   4.610
 7079SOL    HW222137   6.934   5.798   4.462
 7080SOL     OW22138   3.599   1.021   4.728
 7080SOL    HW122139   3.653   0.958   4.672
 7080SOL    HW222140   3.661   1.077   4.784
 7081SOL     OW22141   2.283   6.140   0.081
 7081SOL    HW122142   2.332   6.178   0.159
 7081SOL    HW222143   2.184   6.145   0.098
 7082SOL     OW22144   6.576   4.298   6.905
 7082SOL    HW122145   6.648   4.288   6.973
 7082SOL    HW222146   6.558   4.396   6.890
 7083SOL     OW22147   1.724   6.839   1.246
 7083SOL    HW122148   1.676   6.751   1.248
 7083SOL    HW222149   1.815   6.828   1.286
 7084SOL     OW22150   0.073   4.983   5.240
 7084SOL    HW122151   0.084   5.010   5.144
 7084SOL    HW222152   0.044   4.888   5.245
 7085SOL     OW22153   1.075   1.395   2.216
 7085SOL    HW122154   1.000   1.444   2.262
 7085SOL    HW222155   1.094   1.310   2.265
 7086SOL     OW22156   6.056   0.035   5.902
 7086SOL    HW122157   6.055   6.991   5.830
 7086SOL    HW222158   5.974   0.025   5.958
 7087SOL     OW22159   6.241   3.976   4.188
 7087SOL    HW122160   6.306   3.945   4.258
 7087SOL    HW222161   6.248   4.075   4.176
 7088SOL     OW22162   5.253   2.965   3.925
 7088SOL    HW122163   5.206   3.037   3.977
 7088SOL    HW222164   5.187   2.903   3.885
 7089SOL     OW22165   2.630   2.381   4.540
 7089SOL    HW122166   2.631   2.478   4.517
 7089SOL    HW222167   2.559   2.335   4.485
 7090SOL     OW22168   2.023   0.296   7.020
 7090SOL    HW122169   1.924   0.286   7.020
 7090SOL    HW222170   2.059   0.279   0.086
 7091SOL     OW22171   0.233   2.193   1.007
 7091SOL    HW122172   0.308   2.155   0.952
 7091SOL    HW222173   0.149   2.142   0.987
 7092SOL     OW22174   3.575   3.162   5.835
 7092SOL    HW122175   3.626   3.087   5.877
 7092SOL    HW222176   3.551   3.137   5.741
 7093SOL     OW22177   3.308   4.130   2.458
 7093SOL    HW122178   3.303   4.089   2.368
 7093SOL    HW222179   3.275   4.224   2.454
 7094SOL     OW22180   0.187   5.703   5.775
 7094SOL    HW122181   0.268   5.753   5.744
 7094SOL    HW222182   0.110   5.765   5.783
 7095SOL     OW22183   3.576   4.568   5.659
 7095SOL    HW122184   3.652   4.632   5.671
 7095SOL    HW222185   3.556   4.560   5.561
 7096SOL     OW22186   6.934   1.311   3.377
 7096SOL    HW122187   6.862   1.353   3.322
 7096SOL    HW222188   7.023   1.341   3.343
 7097SOL     OW22189   4.729   1.571   1.742
 7097SOL    HW122190   4.782   1.655   1.730
 7097SOL    HW222191   4.715   1.554   1.839
 7098SOL     OW22192   1.933   5.268   6.066
 7098SOL    HW122193   2.031   5.272   6.047
 7098SOL    HW222194   1.905   5.173   6.080
 7099SOL     OW22195   3.520   1.141   5.240
 7099SOL    HW122196   3.450   1.168   5.174
 7099SOL    HW222197   3.603   1.193   5.224
 7100SOL     OW22198   0.022   3.880   0.332
 7100SOL    HW122199   0.019   3.851   0.236
 7100SOL    HW222200   6.970   3.841   0.381
 7101SOL     OW22201   2.296   1.921   5.531
 7101SOL    HW122202   2.343   1.927   5.443
 7101SOL    HW222203   2.363   1.911   5.605
 7102SOL     OW22204   5.038   6.995   0.846
 7102SOL    HW122205   5.073   6.941   0.770
 7102SOL    HW222206   5.095   0.051   0.858
 7103SOL     OW22207   5.413   5.116   2.351
 7103SOL    HW122208   5.416   5.124   2.251
 7103SOL    HW222209   5.324   5.149   2.384
 7104SOL     OW22210   6.970   3.855   3.494
 7104SOL    HW122211   0.025   3.835   3.438
 7104SOL    HW222212   6.998   3.904   3.577
 7105SOL     OW22213   3.006   3.398   5.158
 7105SOL    HW122214   3.093   3.402   5.206
 7105SOL    HW222215   2.994   3.481   5.104
 7106SOL     OW22216   3.597   3.556   2.217
 7106SOL    HW122217   3.691   3.587   2.204
 7106SOL    HW222218   3.564   3.587   2.306
 7107SOL     OW22219   4.705   1.185   0.524
 7107SOL    HW122220   4.722   1.133   0.607
 7107SOL    HW222221   4.644   1.261   0.544
 7108SOL     OW22222   2.982   6.492   2.635
 7108SOL    HW122223   2.919   6.563   2.666
 7108SOL    HW222224   2.931   6.422   2.585
 7109SOL     OW22225   2.330   0.019   6.078
 7109SOL    HW122226   2.357   0.113   6.097
 7109SOL    HW222227   2.391   7.005   6.010
 7110SOL     OW22228   3.047   5.868   4.287
 7110SOL    HW122229   2.997   5.939   4.238
 7110SOL    HW222230   3.005   5.854   4.377
 7111SOL     OW22231   1.234   2.597   5.071
 7111SOL    HW122232   1.173   2.518   5.063
 7111SOL    HW222233   1.304   2.578   5.140
 7112SOL     OW22234   2.105   5.185   4.843
 7112SOL    HW122235   2.081   5.250   4.916
 7112SOL    HW222236   2.073   5.094   4.868
 7113SOL     OW22237   3.785   4.055   4.414
 7113SOL    HW122238   3.707   4.100   4.458
 7113SOL    HW222239   3.774   4.056   4.315
 7114SOL     OW22240   5.483   5.791   0.804
 7114SOL    HW122241   5.573   5.815   0.839
 7114SOL    HW222242   5.445   5.716   0.857
 7115SOL     OW22243   5.090   2.571   0.410
 7115SOL    HW122244   5.160   2.642   0.415
 7115SOL    HW222245   5.001   2.614   0.394
 7116SOL     OW22246   5.795   4.722   2.548
 7116SOL    HW122247   5.826   4.783   2.475
 7116SOL    HW222248   5.815   4.763   2.637
 7117SOL     OW22249   0.813   6.406   4.641
 7117SOL    HW122250   0.811   6.467   4.720
 7117SOL    HW222251   0.863   6.449   4.567
 7118SOL     OW22252   3.245   4.770   0.263
 7118SOL    HW122253   3.287   4.697   0.319
 7118SOL    HW222254   3.184   4.824   0.320
 7119SOL     OW22255   4.762   1.578   3.836
 7119SOL    HW122256   4.750   1.505   3.768
 7119SOL    HW222257   4.679   1.585   3.892
 7120SOL     OW22258   3.082   2.018   2.109
 7120SOL    HW122259   3.021   2.091   2.079
 7120SOL    HW222260   3.166   2.021   2.054
 7121SOL     OW22261   0.515   6.985   3.459
 7121SOL    HW122262   0.443   6.915   3.451
 7121SOL    HW222263   0.581   6.956   3.528
 7122SOL     OW22264   1.570   0.782   6.086
 7122SOL    HW122265   1.600   0.688   6.102
 7122SOL    HW222266   1.470   0.785   6.082
 7123SOL     OW22267   1.279   4.612   3.391
 7123SOL    HW122268   1.367   4.650   3.359
 7123SOL    HW222269   1.296   4.539   3.456
 7124SOL     OW22270   6.575   1.961   1.594
 7124SOL    HW122271   6.518   2.041   1.572
 7124SOL    HW222272   6.670   1.989   1.600
 7125SOL     OW22273   0.612   0.285   0.512
 7125SOL    HW122274   0.558   0.250   0.589
 7125SOL    HW222275   0.691   0.226   0.497
 7126SOL     OW22276   3.697   5.176   0.148
 7126SOL    HW122277   3.766   5.109   0.176
 7126SOL    HW222278   3.642   5.202   0.228
 7127SOL     OW22279   1.997   5.488   6.253
 7127SOL    HW122280   1.929   5.418   6.231
 7127SOL    HW222281   2.082   5.469   6.204
 7128SOL     OW22282   3.212   4.384   6.806
 7128SOL    HW122283   3.144   4.457   6.799
 7128SOL    HW222284   3.241   4.357   6.714
 7129SOL     OW22285   2.417   1.540   0.555
 7129SOL    HW122286   2.376   1.629   0.538
 7129SOL    HW222287   2.366   1.469   0.507
 7130SOL     OW22288   3.623   5.802   4.272
 7130SOL    HW122289   3.674   5.888   4.277
 7130SOL    HW222290   3.542   5.814   4.215
 7131SOL     OW22291   2.440   0.790   1.405
 7131SOL    HW122292   2.403   0.734   1.331
 7131SOL    HW222293   2.378   0.866   1.426
 7132SOL     OW22294   3.694   3.661   0.822
 7132SOL    HW122295   3.635   3.618   0.890
 7132SOL    HW222296   3.784   3.677   0.862
 7133SOL     OW22297   4.650   5.131   5.524
 7133SOL    HW122298   4.670   5.058   5.589
 7133SOL    HW222299   4.709   5.121   5.444
 7134SOL     OW22300   4.768   6.738   1.314
 7134SOL    HW122301   4.683   6.723   1.363
 7134SOL    HW222302   4.750   6.747   1.216
 7135SOL     OW22303   1.626   2.816   3.639
 7135SOL    HW122304   1.542   2.792   3.590
 7135SOL    HW222305   1.705   2.807   3.578
 7136SOL     OW22306   2.212   1.768   0.403
 7136SOL    HW122307   2.258   1.754   0.315
 7136SOL    HW222308   2.115   1.782   0.387
 7137SOL     OW22309   2.995   1.025   6.572
 7137SOL    HW122310   3.094   1.040   6.565
 7137SOL    HW222311   2.950   1.111   6.594
 7138SOL     OW22312   2.675   2.279   0.041
 7138SOL    HW122313   2.655   2.243   6.975
 7138SOL    HW222314   2.672   2.205   0.108
 7139SOL     OW22315   6.180   4.209   1.649
 7139SOL    HW122316   6.085   4.209   1.681
 7139SOL    HW222317   6.195   4.289   1.591
 7140SOL     OW22318   6.483   3.886   1.991
 7140SOL    HW122319   6.487   3.866   2.089
 7140SOL    HW222320   6.575   3.891   1.954
 7141SOL     OW22321   3.700   6.466   0.373
 7141SOL    HW122322   3.678   6.546   0.429
 7141SOL    HW222323   3.619   6.437   0.323
 7142SOL     OW22324   3.783   6.647   3.045
 7142SOL    HW122325   3.768   6.732   3.095
 7142SOL    HW222326   3.812   6.575   3.108
 7143SOL     OW22327   1.826   2.636   6.394
 7143SOL    HW122328   1.914   2.669   6.361
 7143SOL    HW222329   1.838   2.585   6.479
 7144SOL     OW22330   1.910   2.120   2.600
 7144SOL    HW122331   1.881   2.123   2.504
 7144SOL    HW222332   1.974   2.044   2.613
 7145SOL     OW22333   3.942   0.105   6.418
 7145SOL    HW122334   3.987   0.126   6.505
 7145SOL    HW222335   3.994   0.034   6.370
 7146SOL     OW22336   1.748   6.802   6.546
 7146SOL    HW122337   1.754   6.837   6.452
 7146SOL    HW222338   1.809   6.855   6.605
 7147SOL     OW22339   6.761   6.550   3.313
 7147SOL    HW122340   6.661   6.560   3.315
 7147SOL    HW222341   6.784   6.461   3.274
 7148SOL     OW22342   0.096   6.881   1.402
 7148SOL    HW122343   0.009   6.899   1.447
 7148SOL    HW222344   0.170   6.884   1.469
 7149SOL     OW22345   7.023   6.547   3.518
 7149SOL    HW122346   0.094   6.521   3.527
 7149SOL    HW222347   6.980   6.549   3.609
 7150SOL     OW22348   3.919   2.632   0.902
 7150SOL    HW122349   3.836   2.626   0.846
 7150SOL    HW222350   3.909   2.572   0.982
 7151SOL     OW22351   3.234   6.771   0.702
 7151SOL    HW122352   3.263   6.859   0.665
 7151SOL    HW222353   3.144   6.782   0.746
 7152SOL     OW22354   6.758   0.624   5.063
 7152SOL    HW122355   6.707   0.599   4.981
 7152SOL    HW222356   6.694   0.652   5.135
 7153SOL     OW22357   4.088   5.067   1.533
 7153SOL    HW122358   4.085   5.165   1.550
 7153SOL    HW222359   3.998   5.027   1.551
 7154SOL     OW22360   4.800   6.994   2.941
 7154SOL    HW122361   4.746   6.942   2.874
 7154SOL    HW222362   4.869   6.933   2.981
 7155SOL     OW22363   2.603   2.922   0.984
 7155SOL    HW122364   2.530   2.987   0.965
 7155SOL    HW222365   2.576   2.863   1.060
 7156SOL     OW22366   6.945   3.206   3.596
 7156SOL    HW122367   6.964   3.288   3.542
 7156SOL    HW222368   6.869   3.156   3.555
 7157SOL     OW22369   0.243   3.779   1.484
 7157SOL    HW122370   0.240   3.687   1.523
 7157SOL    HW222371   0.160   3.795   1.430
 7158SOL     OW22372   0.862   0.524   4.305
 7158SOL    HW122373   0.780   0.526   4.248
 7158SOL    HW222374   0.943   0.524   4.247
 7159SOL     OW22375   0.650   4.831   3.755
 7159SOL    HW122376   0.658   4.768   3.832
 7159SOL    HW222377   0.686   4.789   3.673
 7160SOL     OW22378   5.803   0.241   2.459
 7160SOL    HW122379   5.875   0.240   2.528
 7160SOL    HW222380   5.806   0.156   2.406
 7161SOL     OW22381   3.122   3.992   3.134
 7161SOL    HW122382   3.103   4.076   3.082
 7161SOL    HW222383   3.198   3.943   3.091
 7162SOL     OW22384   1.251   4.973   6.318
 7162SOL    HW122385   1.309   4.912   6.371
 7162SOL    HW222386   1.243   4.938   6.224
 7163SOL     OW22387   2.662   0.147   2.434
 7163SOL    HW122388   2.576   0.096   2.429
 7163SOL    HW222389   2.684   0.164   2.530
 7164SOL     OW22390   3.145   0.370   4.479
 7164SOL    HW122391   3.052   0.341   4.455
 7164SOL    HW222392   3.203   0.289   4.491
 7165SOL     OW22393   6.340   7.007   2.703
 7165SOL    HW122394   6.305   6.933   2.645
 7165SOL    HW222395   6.394   0.045   2.647
 7166SOL     OW22396   4.775   1.710   0.965
 7166SOL    HW122397   4.750   1.657   1.046
 7166SOL    HW222398   4.842   1.779   0.991
 7167SOL     OW22399   5.171   2.997   4.481
 7167SOL    HW122400   5.258   2.948   4.474
 7167SOL    HW222401   5.106   2.941   4.532
 7168SOL     OW22402   1.940   2.836   2.923
 7168SOL    HW122403   1.896   2.805   2.838
 7168SOL    HW222404   1.923   2.933   2.936
 7169SOL     OW22405   0.104   3.690   5.934
 7169SOL    HW122406   0.021   3.687   5.878
 7169SOL    HW222407   0.168   3.621   5.902
 7170SOL     OW22408   5.127   0.018   2.708
 7170SOL    HW122409   5.071   0.083   2.759
 7170SOL    HW222410   5.141   6.961   2.764
 7171SOL     OW22411   6.257   3.914   6.929
 7171SOL    HW122412   6.170   3.929   6.977
 7171SOL    HW222413   6.302   4.003   6.915
 7172SOL     OW22414   1.838   0.091   4.839
 7172SOL    HW122415   1.797   0.060   4.753
 7172SOL    HW222416   1.933   0.062   4.842
 7173SOL     OW22417   6.577   4.602   6.814
 7173SOL    HW122418   6.632   4.542   6.755
 7173SOL    HW222419   6.491   4.625   6.767
 7174SOL     OW22420   1.289   3.284   0.516
 7174SOL    HW122421   1.319   3.309   0.609
 7174SOL    HW222422   1.362   3.233   0.471
 7175SOL     OW22423   5.504   3.125   5.745
 7175SOL    HW122424   5.570   3.182   5.696
 7175SOL    HW222425   5.423   3.180   5.769
 7176SOL     OW22426   6.940   1.365   3.656
 7176SOL    HW122427   6.920   1.458   3.685
 7176SOL    HW222428   6.945   1.361   3.556
 7177SOL     OW22429   1.120   4.732   5.020
 7177SOL    HW122430   1.041   4.702   5.074
 7177SOL    HW222431   1.153   4.655   4.965
 7178SOL     OW22432   6.792   1.369   5.694
 7178SOL    HW122433   6.876   1.344   5.742
 7178SOL    HW222434   6.744   1.286   5.666
 7179SOL     OW22435   2.127   3.336   4.286
 7179SOL    HW122436   2.041   3.290   4.263
 7179SOL    HW222437   2.140   3.414   4.226
 7180SOL     OW22438   2.038   5.246   6.748
 7180SOL    HW122439   1.973   5.236   6.673
 7180SOL    HW222440   2.072   5.156   6.776
 7181SOL     OW22441   1.983   0.148   0.398
 7181SOL    HW122442   1.912   0.090   0.438
 7181SOL    HW222443   2.023   0.101   0.319
 7182SOL     OW22444   6.975   3.370   4.245
 7182SOL    HW122445   6.907   3.297   4.233
 7182SOL    HW222446   6.999   3.407   4.155
 7183SOL     OW22447   1.283   5.486   1.626
 7183SOL    HW122448   1.377   5.504   1.657
 7183SOL    HW222449   1.253   5.559   1.566
 7184SOL     OW22450   6.743   0.820   4.042
 7184SOL    HW122451   6.653   0.780   4.030
 7184SOL    HW222452   6.738   0.919   4.030
 7185SOL     OW22453   5.698   0.981   4.910
 7185SOL    HW122454   5.658   1.071   4.890
 7185SOL    HW222455   5.759   0.954   4.836
 7186SOL     OW22456   6.452   1.907   1.987
 7186SOL    HW122457   6.471   1.821   2.033
 7186SOL    HW222458   6.414   1.889   1.896
 7187SOL     OW22459   2.861   4.121   5.311
 7187SOL    HW122460   2.771   4.098   5.276
 7187SOL    HW222461   2.930   4.104   5.241
 7188SOL     OW22462   5.253   6.998   6.811
 7188SOL    HW122463   5.186   6.924   6.814
 7188SOL    HW222464   5.284   7.011   6.717
 7189SOL     OW22465   5.899   1.449   5.087
 7189SOL    HW122466   5.978   1.392   5.111
 7189SOL    HW222467   5.895   1.461   4.988
 7190SOL     OW22468   6.497   4.619   1.699
 7190SOL    HW122469   6.554   4.543   1.731
 7190SOL    HW222470   6.406   4.612   1.738
 7191SOL     OW22471   1.809   4.762   2.276
 7191SOL    HW122472   1.768   4.713   2.354
 7191SOL    HW222473   1.873   4.830   2.310
 7192SOL     OW22474   2.178   3.917   5.659
 7192SOL    HW122475   2.259   3.905   5.717
 7192SOL    HW222476   2.150   4.013   5.660
 7193SOL     OW22477   1.439   2.740   2.628
 7193SOL    HW122478   1.529   2.777   2.603
 7193SOL    HW222479   1.390   2.712   2.545
 7194SOL     OW22480   2.352   2.423   0.754
 7194SOL    HW122481   2.424   2.469   0.703
 7194SOL    HW222482   2.326   2.478   0.833
 7195SOL     OW22483   0.958   4.096   6.796
 7195SOL    HW122484   1.057   4.107   6.794
 7195SOL    HW222485   0.931   4.019   6.738
 7196SOL     OW22486   2.264   3.584   1.618
 7196SOL    HW122487   2.200   3.528   1.671
 7196SOL    HW222488   2.357   3.551   1.633
 7197SOL     OW22489   0.664   2.650   5.773
 7197SOL    HW122490   0.752   2.679   5.809
 7197SOL    HW222491   0.610   2.608   5.847
 7198SOL     OW22492   0.807   0.722   0.321
 7198SOL    HW122493   0.725   0.780   0.323
 7198SOL    HW222494   0.801   0.658   0.244
 7199SOL     OW22495   1.712   0.049   1.774
 7199SOL    HW122496   1.696   6.978   1.796
 7199SOL    HW222497   1.810   0.065   1.762
 7200SOL     OW22498   2.150   2.971   6.729
 7200SOL    HW122499   2.097   2.943   6.649
 7200SOL    HW222500   2.247   2.957   6.711
 7201SOL     OW22501   0.811   6.385   4.014
 7201SOL    HW122502   0.812   6.374   4.114
 7201SOL    HW222503   0.744   6.322   3.974
 7202SOL     OW22504   5.661   6.672   0.456
 7202SOL    HW122505   5.655   6.711   0.365
 7202SOL    HW222506   5.707   6.736   0.517
 7203SOL     OW22507   0.004   1.282   0.502
 7203SOL    HW122508   7.015   1.359   0.439
 7203SOL    HW222509   6.963   1.210   0.483
 7204SOL     OW22510   0.450   0.436   5.924
 7204SOL    HW122511   0.394   0.364   5.886
 7204SOL    HW222512   0.421   0.525   5.887
 7205SOL     OW22513   1.698   4.039   4.281
 7205SOL    HW122514   1.738   4.001   4.197
 7205SOL    HW222515   1.726   3.982   4.359
 7206SOL     OW22516   1.381   0.229   2.066
 7206SOL    HW122517   1.306   0.196   2.124
 7206SOL    HW222518   1.439   0.152   2.040
 7207SOL     OW22519   3.176   0.558   2.870
 7207SOL    HW122520   3.260   0.524   2.828
 7207SOL    HW222521   3.163   0.654   2.845
 7208SOL     OW22522   3.934   0.061   3.400
 7208SOL    HW122523   3.966   7.009   3.345
 7208SOL    HW222524   3.886   0.126   3.341
 7209SOL     OW22525   2.636   3.155   1.661
 7209SOL    HW122526   2.730   3.168   1.690
 7209SOL    HW222527   2.628   3.179   1.564
 7210SOL     OW22528   4.092   1.140   2.932
 7210SOL    HW122529   4.092   1.100   3.023
 7210SOL    HW222530   4.187   1.158   2.903
 7211SOL     OW22531   2.083   6.888   4.555
 7211SOL    HW122532   1.997   6.929   4.586
 7211SOL    HW222533   2.087   6.890   4.456
 7212SOL     OW22534   0.154   6.394   4.946
 7212SOL    HW122535   0.121   6.300   4.935
 7212SOL    HW222536   0.247   6.401   4.911
 7213SOL     OW22537   4.083   6.203   6.643
 7213SOL    HW122538   4.151   6.144   6.599
 7213SOL    HW222539   4.037   6.152   6.716
 7214SOL     OW22540   6.773   0.208   4.622
 7214SOL    HW122541   6.729   0.265   4.553
 7214SOL    HW222542   6.863   0.246   4.644
 7215SOL     OW22543   0.256   3.156   3.580
 7215SOL    HW122544   0.220   3.063   3.578
 7215SOL    HW222545   0.342   3.159   3.529
 7216SOL     OW22546   2.725   0.370   0.307
 7216SOL    HW122547   2.758   0.362   0.213
 7216SOL    HW222548   2.791   0.329   0.369
 7217SOL     OW22549   2.146   3.993   3.782
 7217SOL    HW122550   2.048   3.986   3.799
 7217SOL    HW222551   2.162   4.020   3.687
 7218SOL     OW22552   5.887   2.779   5.018
 7218SOL    HW122553   5.870   2.850   4.950
 7218SOL    HW222554   5.984   2.757   5.021
 7219SOL     OW22555   4.363   0.087   2.860
 7219SOL    HW122556   4.394   0.039   2.778
 7219SOL    HW222557   4.294   0.155   2.835
 7220SOL     OW22558   0.248   4.256   4.782
 7220SOL    HW122559   0.168   4.292   4.734
 7220SOL    HW222560   0.226   4.167   4.822
 7221SOL     OW22561   3.287   5.906   4.130
 7221SOL    HW122562   3.223   5.948   4.194
 7221SOL    HW222563   3.268   5.809   4.123
 7222SOL     OW22564   5.989   6.837   3.047
 7222SOL    HW122565   5.989   6.813   2.950
 7222SOL    HW222566   6.018   6.757   3.101
 7223SOL     OW22567   3.001   1.432   0.849
 7223SOL    HW122568   2.963   1.360   0.907
 7223SOL    HW222569   3.006   1.518   0.900
 7224SOL     OW22570   5.001   1.904   4.135
 7224SOL    HW122571   5.007   1.914   4.035
 7224SOL    HW222572   4.951   1.819   4.156
 7225SOL     OW22573   1.016   5.649   0.661
 7225SOL    HW122574   1.080   5.655   0.737
 7225SOL    HW222575   1.045   5.577   0.598
 7226SOL     OW22576   6.155   0.748   2.158
 7226SOL    HW122577   6.160   0.848   2.159
 7226SOL    HW222578   6.196   0.712   2.241
 7227SOL     OW22579   2.836   2.323   0.786
 7227SOL    HW122580   2.802   2.351   0.696
 7227SOL    HW222581   2.859   2.404   0.840
 7228SOL     OW22582   1.220   2.342   2.918
 7228SOL    HW122583   1.271   2.426   2.896
 7228SOL    HW222584   1.152   2.325   2.848
 7229SOL     OW22585   1.295   6.173   5.038
 7229SOL    HW122586   1.284   6.219   4.950
 7229SOL    HW222587   1.347   6.231   5.100
 7230SOL     OW22588   3.347   5.340   4.628
 7230SOL    HW122589   3.408   5.314   4.553
 7230SOL    HW222590   3.278   5.269   4.641
 7231SOL     OW22591   4.120   0.921   6.358
 7231SOL    HW122592   4.176   0.881   6.431
 7231SOL    HW222593   4.024   0.915   6.382
 7232SOL     OW22594   4.779   6.169   3.145
 7232SOL    HW122595   4.782   6.082   3.194
 7232SOL    HW222596   4.821   6.157   3.055
 7233SOL     OW22597   1.124   1.358   3.426
 7233SOL    HW122598   1.123   1.350   3.526
 7233SOL    HW222599   1.038   1.398   3.395
 7234SOL     OW22600   5.198   2.489   3.912
 7234SOL    HW122601   5.225   2.394   3.900
 7234SOL    HW222602   5.123   2.511   3.850
 7235SOL     OW22603   0.011   5.111   2.422
 7235SOL    HW122604   0.036   5.014   2.429
 7235SOL    HW222605   0.038   5.146   2.332
 7236SOL     OW22606   2.836   1.862   1.871
 7236SOL    HW122607   2.887   1.918   1.806
 7236SOL    HW222608   2.814   1.917   1.952
 7237SOL     OW22609   4.012   6.940   5.003
 7237SOL    HW122610   3.972   7.013   5.058
 7237SOL    HW222611   4.035   6.974   4.912
 7238SOL     OW22612   4.030   1.508   0.027
 7238SOL    HW122613   3.931   1.499   0.015
 7238SOL    HW222614   4.058   1.601   0.002
 7239SOL     OW22615   1.407   2.084   2.662
 7239SOL    HW122616   1.317   2.057   2.695
 7239SOL    HW222617   1.398   2.135   2.576
 7240SOL     OW22618   1.579   0.506   6.084
 7240SOL    HW122619   1.526   0.474   6.163
 7240SOL    HW222620   1.676   0.496   6.104
 7241SOL     OW22621   1.414   0.527   0.784
 7241SOL    HW122622   1.377   0.564   0.699
 7241SOL    HW222623   1.430   0.601   0.849
 7242SOL     OW22624   6.654   5.785   0.155
 7242SOL    HW122625   6.650   5.848   0.232
 7242SOL    HW222626   6.579   5.804   0.092
 7243SOL     OW22627   6.275   4.450   6.157
 7243SOL    HW122628   6.348   4.413   6.100
 7243SOL    HW222629   6.276   4.550   6.151
 7244SOL     OW22630   6.503   1.029   1.963
 7244SOL    HW122631   6.408   1.058   1.952
 7244SOL    HW222632   6.505   0.929   1.974
 7245SOL     OW22633   1.198   3.025   5.620
 7245SOL    HW122634   1.215   3.012   5.718
 7245SOL    HW222635   1.273   3.079   5.581
 7246SOL     OW22636   0.555   0.126   4.095
 7246SOL    HW122637   0.594   0.036   4.114
 7246SOL    HW222638   0.590   0.192   4.162
 7247SOL     OW22639   2.909   1.151   4.188
 7247SOL    HW122640   3.008   1.165   4.183
 7247SOL    HW222641   2.864   1.211   4.121
 7248SOL     OW22642   2.439   1.438   2.911
 7248SOL    HW122643   2.344   1.465   2.892
 7248SOL    HW222644   2.501   1.494   2.856
 7249SOL     OW22645   6.688   5.260   2.176
 7249SOL    HW122646   6.735   5.344   2.149
 7249SOL    HW222647   6.728   5.182   2.126
 7250SOL     OW22648   5.023   6.808   6.283
 7250SOL    HW122649   4.934   6.849   6.299
 7250SOL    HW222650   5.082   6.874   6.236
 7251SOL     OW22651   0.432   6.543   5.720
 7251SOL    HW122652   0.434   6.527   5.819
 7251SOL    HW222653   0.456   6.459   5.672
 7252SOL     OW22654   3.792   3.376   2.287
 7252SOL    HW122655   3.835   3.433   2.357
 7252SOL    HW222656   3.707   3.419   2.257
 7253SOL     OW22657   1.352   5.983   6.466
 7253SOL    HW122658   1.359   5.970   6.367
 7253SOL    HW222659   1.439   6.017   6.502
 7254SOL     OW22660   4.490   5.065   3.939
 7254SOL    HW122661   4.485   5.163   3.959
 7254SOL    HW222662   4.583   5.032   3.956
 7255SOL     OW22663   2.961   4.159   1.335
 7255SOL    HW122664   2.960   4.255   1.363
 7255SOL    HW222665   2.869   4.120   1.343
 7256SOL     OW22666   3.228   5.554   4.495
 7256SOL    HW122667   3.291   5.489   4.537
 7256SOL    HW222668   3.158   5.505   4.443
 7257SOL     OW22669   5.792   2.342   3.284
 7257SOL    HW122670   5.805   2.313   3.379
 7257SOL    HW222671   5.694   2.348   3.265
 7258SOL     OW22672   4.967   1.495   3.383
 7258SOL    HW122673   4.921   1.556   3.447
 7258SOL    HW222674   5.049   1.458   3.427
 7259SOL     OW22675   2.010   3.430   0.967
 7259SOL    HW122676   2.063   3.454   1.048
 7259SOL    HW222677   2.060   3.360   0.915
 7260SOL     OW22678   4.083   1.834   1.546
 7260SOL    HW122679   3.994   1.803   1.513
 7260SOL    HW222680   4.134   1.875   1.471
 7261SOL     OW22681   1.327   2.268   1.522
 7261SOL    HW122682   1.411   2.311   1.489
 7261SOL    HW222683   1.350   2.192   1.583
 7262SOL     OW22684   5.556   2.193   5.775
 7262SOL    HW122685   5.575   2.165   5.681
 7262SOL    HW222686   5.619   2.265   5.802
 7263SOL     OW22687   1.006   0.861   0.229
 7263SOL    HW122688   0.948   0.796   0.278
 7263SOL    HW222689   0.948   0.922   0.174
 7264SOL     OW22690   5.482   2.205   6.775
 7264SOL    HW122691   5.435   2.153   6.704
 7264SOL    HW222692   5.581   2.194   6.765
 7265SOL     OW22693   5.902   5.562   5.424
 7265SOL    HW122694   5.898   5.627   5.500
 7265SOL    HW222695   5.814   5.517   5.414
 7266SOL     OW22696   5.369   6.035   1.726
 7266SOL    HW122697   5.464   6.013   1.706
 7266SOL    HW222698   5.364   6.121   1.777
 7267SOL     OW22699   6.455   6.156   5.197
 7267SOL    HW122700   6.403   6.074   5.220
 7267SOL    HW222701   6.422   6.194   5.110
 7268SOL     OW22702   5.879   5.322   3.327
 7268SOL    HW122703   5.947   5.354   3.393
 7268SOL    HW222704   5.853   5.228   3.349
 7269SOL     OW22705   6.714   6.622   6.720
 7269SOL    HW122706   6.757   6.711   6.705
 7269SOL    HW222707   6.658   6.598   6.641
 7270SOL     OW22708   1.204   4.034   5.462
 7270SOL    HW122709   1.213   3.936   5.444
 7270SOL    HW222710   1.158   4.048   5.550
 7271SOL     OW22711   0.901   6.063   3.278
 7271SOL    HW122712   0.905   5.988   3.213
 7271SOL    HW222713   0.993   6.083   3.312
 7272SOL     OW22714   5.761   5.757   2.237
 7272SOL    HW122715   5.724   5.843   2.203
 7272SOL    HW222716   5.853   5.773   2.274
 7273SOL     OW22717   6.122   4.509   2.246
 7273SOL    HW122718   6.125   4.417   2.283
 7273SOL    HW222719   6.147   4.575   2.316
 7274SOL     OW22720   0.763   5.830   6.576
 7274SOL    HW122721   0.694   5.852   6.506
 7274SOL    HW222722   0.853   5.821   6.532
 7275SOL     OW22723   0.214   6.828   2.904
 7275SOL    HW122724   0.158   6.749   2.928
 7275SOL    HW222725   0.294   6.832   2.964
 7276SOL     OW22726   3.624   1.027   2.480
 7276SOL    HW122727   3.564   0.975   2.419
 7276SOL    HW222728   3.596   1.123   2.481
 7277SOL     OW22729   4.299   0.818   3.123
 7277SOL    HW122730   4.261   0.871   3.199
 7277SOL    HW222731   4.363   0.875   3.071
 7278SOL     OW22732   3.279   2.752   1.255
 7278SOL    HW122733   3.195   2.805   1.248
 7278SOL    HW222734   3.357   2.811   1.234
 7279SOL     OW22735   3.731   4.095   5.556
 7279SOL    HW122736   3.788   4.177   5.555
 7279SOL    HW222737   3.751   4.041   5.637
 7280SOL     OW22738   0.218   1.995   3.455
 7280SOL    HW122739   0.283   2.013   3.382
 7280SOL    HW222740   0.255   2.027   3.542
 7281SOL     OW22741   1.895   1.020   0.570
 7281SOL    HW122742   1.923   1.112   0.595
 7281SOL    HW222743   1.859   1.020   0.476
 7282SOL     OW22744   6.376   6.063   1.514
 7282SOL    HW122745   6.288   6.102   1.488
 7282SOL    HW222746   6.398   6.092   1.608
 7283SOL     OW22747   4.714   0.448   1.892
 7283SOL    HW122748   4.705   0.350   1.879
 7283SOL    HW222749   4.653   0.496   1.830
 7284SOL     OW22750   6.671   2.453   5.742
 7284SOL    HW122751   6.624   2.535   5.776
 7284SOL    HW222752   6.658   2.378   5.807
 7285SOL     OW22753   5.541   2.990   2.050
 7285SOL    HW122754   5.471   2.992   1.979
 7285SOL    HW222755   5.607   3.064   2.034
 7286SOL     OW22756   1.403   1.134   1.193
 7286SOL    HW122757   1.438   1.042   1.211
 7286SOL    HW222758   1.303   1.131   1.185
 7287SOL     OW22759   0.022   2.563   5.848
 7287SOL    HW122760   0.103   2.619   5.832
 7287SOL    HW222761   7.015   2.526   5.761
 7288SOL     OW22762   1.590   1.968   1.551
 7288SOL    HW122763   1.643   2.030   1.610
 7288SOL    HW222764   1.520   1.922   1.605
 7289SOL     OW22765   5.510   2.168   3.515
 7289SOL    HW122766   5.445   2.118   3.457
 7289SOL    HW222767   5.467   2.252   3.548
 7290SOL     OW22768   2.982   1.726   5.400
 7290SOL    HW122769   2.918   1.775   5.340
 7290SOL    HW222770   3.051   1.680   5.345
 7291SOL     OW22771   1.183   0.000   0.221
 7291SOL    HW122772   1.136   0.063   0.283
 7291SOL    HW222773   1.282   0.010   0.232
 7292SOL     OW22774   3.287   6.867   3.290
 7292SOL    HW122775   3.342   6.911   3.219
 7292SOL    HW222776   3.288   6.768   3.276
 7293SOL     OW22777   1.282   1.572   4.783
 7293SOL    HW122778   1.202   1.514   4.769
 7293SOL    HW222779   1.360   1.516   4.808
 7294SOL     OW22780   2.794   4.308   6.985
 7294SOL    HW122781   2.875   4.361   7.011
 7294SOL    HW222782   2.724   4.319   0.030
 7295SOL     OW22783   6.568   4.048   0.970
 7295SOL    HW122784   6.653   4.020   1.015
 7295SOL    HW222785   6.566   4.011   0.877
 7296SOL     OW22786   3.070   6.048   1.308
 7296SOL    HW122787   3.022   5.962   1.287
 7296SOL    HW222788   3.068   6.063   1.407
 7297SOL     OW22789   3.629   6.488   1.351
 7297SOL    HW122790   3.560   6.445   1.410
 7297SOL    HW222791   3.585   6.558   1.295
 7298SOL     OW22792   4.934   5.453   6.100
 7298SOL    HW122793   4.945   5.552   6.105
 7298SOL    HW222794   4.885   5.428   6.016
 7299SOL     OW22795   0.594   2.134   1.305
 7299SOL    HW122796   0.612   2.114   1.401
 7299SOL    HW222797   0.665   2.091   1.248
 7300SOL     OW22798   0.177   6.895   2.076
 7300SOL    HW122799   0.217   6.918   1.988
 7300SOL    HW222800   0.176   6.796   2.088
 7301SOL     OW22801   6.142   2.217   4.915
 7301SOL    HW122802   6.048   2.189   4.936
 7301SOL    HW222803   6.192   2.233   5.000
 7302SOL     OW22804   6.982   2.519   6.131
 7302SOL    HW122805   6.990   2.618   6.146
 7302SOL    HW222806   6.990   2.500   6.033
 7303SOL     OW22807   4.142   1.015   6.827
 7303SOL    HW122808   4.159   1.093   6.886
 7303SOL    HW222809   4.081   1.042   6.753
 7304SOL     OW22810   2.982   5.087   1.431
 7304SOL    HW122811   2.954   5.069   1.336
 7304SOL    HW222812   2.905   5.128   1.480
 7305SOL     OW22813   4.883   1.951   1.037
 7305SOL    HW122814   4.969   2.001   1.046
 7305SOL    HW222815   4.844   1.934   1.127
 7306SOL     OW22816   3.772   1.809   1.457
 7306SOL    HW122817   3.810   1.724   1.421
 7306SOL    HW222818   3.819   1.887   1.416
 7307SOL     OW22819   2.917   6.531   2.330
 7307SOL    HW122820   2.984   6.595   2.367
 7307SOL    HW222821   2.941   6.438   2.357
 7308SOL     OW22822   6.699   2.345   4.679
 7308SOL    HW122823   6.688   2.250   4.650
 7308SOL    HW222824   6.743   2.348   4.769
 7309SOL     OW22825   3.581   5.542   0.811
 7309SOL    HW122826   3.680   5.537   0.820
 7309SOL    HW222827   3.539   5.464   0.858
 7310SOL     OW22828   2.102   4.028   6.798
 7310SOL    HW122829   2.181   4.049   6.740
 7310SOL    HW222830   2.131   4.021   6.893
 7311SOL     OW22831   1.970   1.631   1.332
 7311SOL    HW122832   1.979   1.661   1.237
 7311SOL    HW222833   1.921   1.701   1.384
 7312SOL     OW22834   0.568   2.890   4.985
 7312SOL    HW122835   0.649   2.928   5.031
 7312SOL    HW222836   0.594   2.856   4.895
 7313SOL     OW22837   2.151   1.093   1.101
 7313SOL    HW122838   2.151   0.994   1.117
 7313SOL    HW222839   2.086   1.137   1.163
 7314SOL     OW22840   6.931   4.413   6.198
 7314SOL    HW122841   6.939   4.460   6.285
 7314SOL    HW222842   7.012   4.432   6.142
 7315SOL     OW22843   5.261   5.420   1.950
 7315SOL    HW122844   5.163   5.423   1.972
 7315SOL    HW222845   5.273   5.399   1.853
 7316SOL     OW22846   3.558   3.387   6.762
 7316SOL    HW122847   3.475   3.339   6.790
 7316SOL    HW222848   3.587   3.449   6.835
 7317SOL     OW22849   4.367   1.764   1.493
 7317SOL    HW122850   4.336   1.677   1.454
 7317SOL    HW222851   4.326   1.776   1.584
 7318SOL     OW22852   3.116   0.423   1.982
 7318SOL    HW122853   3.123   0.522   1.991
 7318SOL    HW222854   3.099   0.399   1.886
 7319SOL     OW22855   0.024   3.814   0.051
 7319SOL    HW122856   0.069   3.741   7.024
 7319SOL    HW222857   6.960   3.833   0.012
 7320SOL     OW22858   1.014   3.647   2.129
 7320SOL    HW122859   0.970   3.563   2.098
 7320SOL    HW222860   1.110   3.629   2.148
 7321SOL     OW22861   1.202   6.533   6.086
 7321SOL    HW122862   1.261   6.586   6.025
 7321SOL    HW222863   1.252   6.512   6.170
 7322SOL     OW22864   6.774   3.208   3.063
 7322SOL    HW122865   6.847   3.139   3.063
 7322SOL    HW222866   6.686   3.162   3.075
 7323SOL     OW22867   2.173   2.711   1.492
 7323SOL    HW122868   2.201   2.676   1.582
 7323SOL    HW222869   2.150   2.808   1.500
 7324SOL     OW22870   5.631   5.981   1.421
 7324SOL    HW122871   5.716   5.980   1.368
 7324SOL    HW222872   5.595   5.888   1.429
 7325SOL     OW22873   2.575   0.326   6.366
 7325SOL    HW122874   2.606   0.244   6.414
 7325SOL    HW222875   2.508   0.374   6.422
 7326SOL     OW22876   3.148   6.281   6.556
 7326SOL    HW122877   3.134   6.189   6.518
 7326SOL    HW222878   3.065   6.311   6.602
 7327SOL     OW22879   6.261   2.395   6.117
 7327SOL    HW122880   6.315   2.459   6.063
 7327SOL    HW222881   6.304   2.305   6.117
 7328SOL     OW22882   4.305   0.073   6.820
 7328SOL    HW122883   4.218   0.040   6.857
 7328SOL    HW222884   4.319   0.035   6.729
 7329SOL     OW22885   1.154   4.043   0.748
 7329SOL    HW122886   1.148   4.143   0.756
 7329SOL    HW222887   1.088   4.012   0.680
 7330SOL     OW22888   1.998   3.118   0.182
 7330SOL    HW122889   2.026   3.102   0.277
 7330SOL    HW222890   1.994   3.030   0.133
 7331SOL     OW22891   5.636   6.731   1.613
 7331SOL    HW122892   5.681   6.691   1.692
 7331SOL    HW222893   5.645   6.670   1.534
 7332SOL     OW22894   3.278   5.740   6.911
 7332SOL    HW122895   3.286   5.838   6.932
 7332SOL    HW222896   3.272   5.689   6.996
 7333SOL     OW22897   6.137   3.285   3.624
 7333SOL    HW122898   6.173   3.249   3.710
 7333SOL    HW222899   6.042   3.253   3.612
 7334SOL     OW22900   2.065   6.177   6.218
 7334SOL    HW122901   2.091   6.082   6.202
 7334SOL    HW222902   1.973   6.180   6.258
 7335SOL     OW22903   0.538   2.332   3.377
 7335SOL    HW122904   0.475   2.341   3.301
 7335SOL    HW222905   0.488   2.339   3.463
 7336SOL     OW22906   2.043   6.834   2.541
 7336SOL    HW122907   2.135   6.873   2.535
 7336SOL    HW222908   2.020   6.819   2.637
 7337SOL     OW22909   1.243   2.285   1.950
 7337SOL    HW122910   1.198   2.288   2.039
 7337SOL    HW222911   1.177   2.257   1.880
 7338SOL     OW22912   4.922   1.786   1.789
 7338SOL    HW122913   5.017   1.773   1.816
 7338SOL    HW222914   4.911   1.876   1.748
 7339SOL     OW22915   6.085   0.852   4.927
 7339SOL    HW122916   5.995   0.823   4.959
 7339SOL    HW222917   6.091   0.836   4.828
 7340SOL     OW22918   3.031   1.416   0.183
 7340SOL    HW122919   3.050   1.332   0.131
 7340SOL    HW222920   2.936   1.416   0.213
 7341SOL     OW22921   0.426   4.404   5.339
 7341SOL    HW122922   0.501   4.337   5.335
 7341SOL    HW222923   0.464   4.497   5.334
 7342SOL     OW22924   0.431   0.252   6.556
 7342SOL    HW122925   0.367   0.268   6.481
 7342SOL    HW222926   0.478   0.337   6.579
 7343SOL     OW22927   5.867   4.525   1.574
 7343SOL    HW122928   5.861   4.619   1.607
 7343SOL    HW222929   5.946   4.516   1.513
 7344SOL     OW22930   1.006   0.807   5.979
 7344SOL    HW122931   1.101   0.836   5.985
 7344SOL    HW222932   0.977   0.770   6.067
 7345SOL     OW22933   5.008   5.749   5.184
 7345SOL    HW122934   4.953   5.666   5.176
 7345SOL    HW222935   4.963   5.814   5.245
 7346SOL     OW22936   4.708   4.691   1.360
 7346SOL    HW122937   4.679   4.758   1.428
 7346SOL    HW222938   4.630   4.638   1.329
 7347SOL     OW22939   0.444   2.753   0.947
 7347SOL    HW122940   0.440   2.656   0.921
 7347SOL    HW222941   0.505   2.762   1.026
 7348SOL     OW22942   1.282   3.805   3.806
 7348SOL    HW122943   1.338   3.879   3.768
 7348SOL    HW222944   1.186   3.835   3.811
 7349SOL     OW22945   4.772   1.985   0.733
 7349SOL    HW122946   4.759   1.888   0.710
 7349SOL    HW222947   4.819   1.992   0.820
 7350SOL     OW22948   1.428   3.126   5.516
 7350SOL    HW122949   1.512   3.174   5.542
 7350SOL    HW222950   1.451   3.045   5.462
 7351SOL     OW22951   4.894   6.837   5.292
 7351SOL    HW122952   4.957   6.912   5.311
 7351SOL    HW222953   4.853   6.805   5.377
 7352SOL     OW22954   1.977   2.679   3.591
 7352SOL    HW122955   2.063   2.638   3.622
 7352SOL    HW222956   1.932   2.617   3.527
 7353SOL     OW22957   0.890   0.542   5.896
 7353SOL    HW122958   0.938   0.620   5.936
 7353SOL    HW222959   0.872   0.560   5.799
 7354SOL     OW22960   0.233   1.473   5.945
 7354SOL    HW122961   0.175   1.408   5.992
 7354SOL    HW222962   0.189   1.563   5.944
 7355SOL     OW22963   2.288   1.311   0.454
 7355SOL    HW122964   2.196   1.323   0.416
 7355SOL    HW222965   2.285   1.240   0.524
 7356SOL     OW22966   3.699   3.521   6.182
 7356SOL    HW122967   3.761   3.523   6.261
 7356SOL    HW222968   3.669   3.428   6.165
 7357SOL     OW22969   4.633   6.526   1.638
 7357SOL    HW122970   4.599   6.590   1.569
 7357SOL    HW222971   4.559   6.504   1.702
 7358SOL     OW22972   6.192   3.552   2.826
 7358SOL    HW122973   6.150   3.476   2.876
 7358SOL    HW222974   6.291   3.548   2.838
 7359SOL     OW22975   2.498   1.988   6.201
 7359SOL    HW122976   2.489   2.087   6.191
 7359SOL    HW222977   2.593   1.966   6.225
 7360SOL     OW22978   3.216   3.981   5.640
 7360SOL    HW122979   3.172   4.049   5.581
 7360SOL    HW222980   3.293   4.023   5.688
 7361SOL     OW22981   4.520   6.719   1.457
 7361SOL    HW122982   4.498   6.797   1.515
 7361SOL    HW222983   4.445   6.701   1.394
 7362SOL     OW22984   1.069   4.816   4.740
 7362SOL    HW122985   1.039   4.721   4.730
 7362SOL    HW222986   1.064   4.843   4.836
 7363SOL     OW22987   4.434   1.957   1.324
 7363SOL    HW122988   4.418   1.892   1.399
 7363SOL    HW222989   4.355   2.019   1.318
 7364SOL     OW22990   4.511   0.881   1.466
 7364SOL    HW122991   4.430   0.911   1.515
 7364SOL    HW222992   4.492   0.879   1.368
 7365SOL     OW22993   1.516   6.135   1.984
 7365SOL    HW122994   1.435   6.152   1.928
 7365SOL    HW222995   1.488   6.110   2.077
 7366SOL     OW22996   1.839   5.633   6.802
 7366SOL    HW122997   1.850   5.563   6.872
 7366SOL    HW222998   1.927   5.678   6.786
 7367SOL     OW22999   4.957   3.279   1.099
 7367SOL    HW123000   4.940   3.208   1.167
 7367SOL    HW223001   5.043   3.260   1.051
 7368SOL     OW23002   3.846   2.948   2.853
 7368SOL    HW123003   3.933   2.996   2.846
 7368SOL    HW223004   3.805   2.965   2.942
 7369SOL     OW23005   3.768   3.180   6.684
 7369SOL    HW123006   3.713   3.263   6.683
 7369SOL    HW223007   3.746   3.126   6.766
 7370SOL     OW23008   2.351   0.800   4.150
 7370SOL    HW123009   2.328   0.745   4.070
 7370SOL    HW223010   2.347   0.897   4.127
 7371SOL     OW23011   1.866   6.300   4.166
 7371SOL    HW123012   1.857   6.395   4.136
 7371SOL    HW223013   1.867   6.239   4.087
 7372SOL     OW23014   4.182   1.070   4.934
 7372SOL    HW123015   4.242   1.131   4.882
 7372SOL    HW223016   4.214   0.976   4.925
 7373SOL     OW23017   5.869   2.184   4.239
 7373SOL    HW123018   5.880   2.089   4.267
 7373SOL    HW223019   5.832   2.238   4.315
 7374SOL     OW23020   2.531   1.362   5.349
 7374SOL    HW123021   2.545   1.286   5.285
 7374SOL    HW223022   2.479   1.434   5.304
 7375SOL     OW23023   2.089   3.485   3.310
 7375SOL    HW123024   1.989   3.493   3.315
 7375SOL    HW223025   2.114   3.439   3.224
 7376SOL     OW23026   3.109   1.595   0.627
 7376SOL    HW123027   3.057   1.563   0.706
 7376SOL    HW223028   3.075   1.685   0.599
 7377SOL     OW23029   5.904   4.339   0.612
 7377SOL    HW123030   5.961   4.364   0.534
 7377SOL    HW223031   5.829   4.405   0.621
 7378SOL     OW23032   6.941   1.292   5.934
 7378SOL    HW123033   6.878   1.243   5.993
 7378SOL    HW223034   7.020   1.233   5.914
 7379SOL     OW23035   3.497   1.466   3.062
 7379SOL    HW123036   3.574   1.413   3.095
 7379SOL    HW223037   3.511   1.563   3.084
 7380SOL     OW23038   6.672   4.590   4.679
 7380SOL    HW123039   6.767   4.563   4.661
 7380SOL    HW223040   6.617   4.509   4.696
 7381SOL     OW23041   4.456   4.038   1.654
 7381SOL    HW123042   4.510   4.074   1.578
 7381SOL    HW223043   4.427   4.114   1.713
 7382SOL     OW23044   6.855   6.107   6.227
 7382SOL    HW123045   6.841   6.193   6.276
 7382SOL    HW223046   6.788   6.040   6.257
 7383SOL     OW23047   1.535   0.016   1.304
 7383SOL    HW123048   1.567   6.985   1.228
 7383SOL    HW223049   1.475   6.987   1.363
 7384SOL     OW23050   5.562   0.457   2.988
 7384SOL    HW123051   5.503   0.404   2.927
 7384SOL    HW223052   5.549   0.555   2.971
 7385SOL     OW23053   4.375   6.099   1.995
 7385SOL    HW123054   4.394   6.009   1.956
 7385SOL    HW223055   4.336   6.088   2.087
 7386SOL     OW23056   0.302   2.153   5.746
 7386SOL    HW123057   0.212   2.143   5.704
 7386SOL    HW223058   0.348   2.065   5.749
 7387SOL     OW23059   5.229   6.241   4.553
 7387SOL    HW123060   5.224   6.220   4.650
 7387SOL    HW223061   5.159   6.189   4.503
 7388SOL     OW23062   0.312   5.048   2.512
 7388SOL    HW123063   0.343   5.070   2.420
 7388SOL    HW223064   0.233   4.986   2.507
 7389SOL     OW23065   0.050   3.558   6.995
 7389SOL    HW123066   0.073   3.521   0.060
 7389SOL    HW223067   0.019   3.484   6.935
 7390SOL     OW23068   1.378   1.607   6.951
 7390SOL    HW123069   1.284   1.622   6.981
 7390SOL    HW223070   1.396   1.658   6.868
 7391SOL     OW23071   4.127   3.380   4.883
 7391SOL    HW123072   4.212   3.371   4.935
 7391SOL    HW223073   4.114   3.476   4.858
 7392SOL     OW23074   2.679   6.042   0.419
 7392SOL    HW123075   2.645   5.948   0.423
 7392SOL    HW223076   2.772   6.046   0.456
 7393SOL     OW23077   6.111   4.915   2.848
 7393SOL    HW123078   6.104   4.838   2.785
 7393SOL    HW223079   6.057   4.896   2.930
 7394SOL     OW23080   2.483   2.696   5.761
 7394SOL    HW123081   2.404   2.636   5.761
 7394SOL    HW223082   2.468   2.772   5.825
 7395SOL     OW23083   1.095   2.163   0.151
 7395SOL    HW123084   1.180   2.184   0.198
 7395SOL    HW223085   1.106   2.080   0.097
 7396SOL     OW23086   0.809   0.100   0.505
 7396SOL    HW123087   0.787   0.005   0.485
 7396SOL    HW223088   0.863   0.104   0.589
 7397SOL     OW23089   4.286   5.429   4.726
 7397SOL    HW123090   4.213   5.493   4.752
 7397SOL    HW223091   4.258   5.376   4.647
 7398SOL     OW23092   2.612   4.853   4.746
 7398SOL    HW123093   2.631   4.764   4.706
 7398SOL    HW223094   2.622   4.924   4.676
 7399SOL     OW23095   1.326   2.382   5.568
 7399SOL    HW123096   1.243   2.331   5.591
 7399SOL    HW223097   1.401   2.318   5.551
 7400SOL     OW23098   3.901   2.154   5.642
 7400SOL    HW123099   3.831   2.223   5.623
 7400SOL    HW223100   3.858   2.073   5.681
 7401SOL     OW23101   1.450   1.409   4.928
 7401SOL    HW123102   1.546   1.409   4.955
 7401SOL    HW223103   1.394   1.447   5.001
 7402SOL     OW23104   2.851   5.775   6.398
 7402SOL    HW123105   2.825   5.681   6.415
 7402SOL    HW223106   2.791   5.815   6.328
 7403SOL     OW23107   2.149   3.804   2.199
 7403SOL    HW123108   2.229   3.752   2.230
 7403SOL    HW223109   2.103   3.754   2.125
 7404SOL     OW23110   2.552   5.377   1.655
 7404SOL    HW123111   2.490   5.306   1.689
 7404SOL    HW223112   2.525   5.466   1.693
 7405SOL     OW23113   3.525   4.999   4.355
 7405SOL    HW123114   3.537   4.948   4.440
 7405SOL    HW223115   3.610   5.001   4.304
 7406SOL     OW23116   0.305   2.494   3.024
 7406SOL    HW123117   0.267   2.517   3.114
 7406SOL    HW223118   0.366   2.415   3.033
 7407SOL     OW23119   1.018   7.011   4.441
 7407SOL    HW123120   1.098   6.972   4.488
 7407SOL    HW223121   1.046   0.062   4.383
 7408SOL     OW23122   3.164   3.742   6.958
 7408SOL    HW123123   3.174   3.788   6.870
 7408SOL    HW223124   3.239   3.770   7.019
 7409SOL     OW23125   6.478   2.238   6.707
 7409SOL    HW123126   6.574   2.263   6.695
 7409SOL    HW223127   6.466   2.141   6.689
 7410SOL     OW23128   0.283   6.979   0.382
 7410SOL    HW123129   0.320   6.997   0.291
 7410SOL    HW223130   0.289   6.881   0.402
 7411SOL     OW23131   2.592   0.172   5.823
 7411SOL    HW123132   2.680   0.216   5.806
 7411SOL    HW223133   2.520   0.240   5.826
 7412SOL     OW23134   4.697   0.183   1.830
 7412SOL    HW123135   4.699   0.168   1.928
 7412SOL    HW223136   4.772   0.132   1.787
 7413SOL     OW23137   5.205   6.066   4.004
 7413SOL    HW123138   5.186   5.990   4.066
 7413SOL    HW223139   5.119   6.108   3.976
 7414SOL     OW23140   0.449   0.549   3.965
 7414SOL    HW123141   0.520   0.500   4.017
 7414SOL    HW223142   0.491   0.594   3.886
 7415SOL     OW23143   2.288   4.720   4.319
 7415SOL    HW123144   2.365   4.765   4.273
 7415SOL    HW223145   2.243   4.786   4.379
 7416SOL     OW23146   1.911   1.062   3.043
 7416SOL    HW123147   1.907   1.084   2.945
 7416SOL    HW223148   1.846   1.120   3.093
 7417SOL     OW23149   1.912   0.701   0.056
 7417SOL    HW123150   1.923   0.688   0.155
 7417SOL    HW223151   1.843   0.638   0.022
 7418SOL     OW23152   2.661   5.727   0.636
 7418SOL    HW123153   2.713   5.697   0.715
 7418SOL    HW223154   2.717   5.789   0.580
 7419SOL     OW23155   6.142   2.697   5.051
 7419SOL    HW123156   6.185   2.703   5.141
 7419SOL    HW223157   6.194   2.634   4.993
 7420SOL     OW23158   0.622   6.799   1.570
 7420SOL    HW123159   0.589   6.711   1.534
 7420SOL    HW223160   0.635   6.863   1.494
 7421SOL     OW23161   3.488   4.169   0.486
 7421SOL    HW123162   3.584   4.190   0.464
 7421SOL    HW223163   3.435   4.254   0.482
 7422SOL     OW23164   6.740   3.345   2.604
 7422SOL    HW123165   6.780   3.254   2.615
 7422SOL    HW223166   6.735   3.391   2.693
 7423SOL     OW23167   5.789   3.644   5.221
 7423SOL    HW123168   5.786   3.548   5.194
 7423SOL    HW223169   5.744   3.654   5.310
 7424SOL     OW23170   6.661   6.651   5.943
 7424SOL    HW123171   6.760   6.639   5.949
 7424SOL    HW223172   6.635   6.736   5.989
 7425SOL     OW23173   4.329   5.783   6.621
 7425SOL    HW123174   4.294   5.819   6.707
 7425SOL    HW223175   4.428   5.766   6.629
 7426SOL     OW23176   3.287   1.553   5.558
 7426SOL    HW123177   3.223   1.476   5.545
 7426SOL    HW223178   3.321   1.552   5.652
 7427SOL     OW23179   4.108   0.273   3.415
 7427SOL    HW123180   4.073   0.180   3.424
 7427SOL    HW223181   4.206   0.274   3.435
 7428SOL     OW23182   4.323   1.953   5.773
 7428SOL    HW123183   4.241   1.993   5.814
 7428SOL    HW223184   4.404   1.979   5.827
 7429SOL     OW23185   0.316   6.891   4.229
 7429SOL    HW123186   0.332   6.941   4.314
 7429SOL    HW223187   0.360   6.938   4.153
 7430SOL     OW23188   1.065   2.529   0.155
 7430SOL    HW123189   1.004   2.462   0.197
 7430SOL    HW223190   1.158   2.517   0.192
 7431SOL     OW23191   1.478   3.018   3.360
 7431SOL    HW123192   1.452   2.932   3.403
 7431SOL    HW223193   1.531   3.000   3.278
 7432SOL     OW23194   1.283   1.057   2.696
 7432SOL    HW123195   1.194   1.075   2.738
 7432SOL    HW223196   1.341   1.138   2.707
 7433SOL     OW23197   4.720   6.373   6.066
 7433SOL    HW123198   4.663   6.429   6.006
 7433SOL    HW223199   4.778   6.312   6.011
 7434SOL     OW23200   5.372   5.939   5.968
 7434SOL    HW123201   5.338   6.033   5.963
 7434SOL    HW223202   5.472   5.939   5.960
 7435SOL     OW23203   3.763   5.577   0.506
 7435SOL    HW123204   3.781   5.539   0.597
 7435SOL    HW223205   3.671   5.617   0.505
 7436SOL     OW23206   5.109   3.706   6.291
 7436SOL    HW123207   5.203   3.737   6.298
 7436SOL    HW223208   5.103   3.634   6.221
 7437SOL     OW23209   1.226   6.004   6.974
 7437SOL    HW123210   1.213   6.102   6.982
 7437SOL    HW223211   1.191   5.959   0.031
 7438SOL     OW23212   1.145   6.077   6.617
 7438SOL    HW123213   1.184   6.154   6.668
 7438SOL    HW223214   1.211   6.047   6.548
 7439SOL     OW23215   2.102   5.713   5.865
 7439SOL    HW123216   2.005   5.725   5.885
 7439SOL    HW223217   2.154   5.789   5.905
 7440SOL     OW23218   6.519   3.357   3.711
 7440SOL    HW123219   6.560   3.392   3.626
 7440SOL    HW223220   6.591   3.324   3.772
 7441SOL     OW23221   5.401   6.430   4.065
 7441SOL    HW123222   5.471   6.479   4.117
 7441SOL    HW223223   5.410   6.332   4.082
 7442SOL     OW23224   6.441   1.196   6.152
 7442SOL    HW123225   6.475   1.274   6.099
 7442SOL    HW223226   6.472   1.111   6.109
 7443SOL     OW23227   6.979   6.324   1.983
 7443SOL    HW123228   6.939   6.248   2.035
 7443SOL    HW223229   7.018   6.288   1.898
 7444SOL     OW23230   5.669   2.486   5.671
 7444SOL    HW123231   5.680   2.578   5.634
 7444SOL    HW223232   5.579   2.479   5.716
 7445SOL     OW23233   3.830   0.731   1.016
 7445SOL    HW123234   3.747   0.769   0.976
 7445SOL    HW223235   3.812   0.639   1.050
 7446SOL     OW23236   5.435   2.946   0.438
 7446SOL    HW123237   5.531   2.920   0.444
 7446SOL    HW223238   5.421   3.007   0.360
 7447SOL     OW23239   0.552   3.510   6.708
 7447SOL    HW123240   0.542   3.539   6.613
 7447SOL    HW223241   0.476   3.450   6.733
 7448SOL     OW23242   6.442   6.397   5.334
 7448SOL    HW123243   6.449   6.339   5.253
 7448SOL    HW223244   6.486   6.485   5.316
 7449SOL     OW23245   0.359   3.643   2.050
 7449SOL    HW123246   0.411   3.571   2.097
 7449SOL    HW223247   0.303   3.692   2.117
 7450SOL     OW23248   5.252   2.425   4.377
 7450SOL    HW123249   5.269   2.333   4.343
 7450SOL    HW223250   5.233   2.486   4.300
 7451SOL     OW23251   6.795   0.087   3.129
 7451SOL    HW123252   6.719   0.127   3.077
 7451SOL    HW223253   6.828   0.005   3.082
 7452SOL     OW23254   0.103   6.755   4.496
 7452SOL    HW123255   0.007   6.782   4.507
 7452SOL    HW223256   0.111   6.656   4.505
 7453SOL     OW23257   5.053   0.363   6.119
 7453SOL    HW123258   5.010   0.417   6.191
 7453SOL    HW223259   5.148   0.344   6.144
 7454SOL     OW23260   0.306   2.347   2.345
 7454SOL    HW123261   0.372   2.397   2.401
 7454SOL    HW223262   0.219   2.396   2.345
 7455SOL     OW23263   7.025   2.219   2.572
 7455SOL    HW123264   0.054   2.295   2.607
 7455SOL    HW223265   6.954   2.254   2.511
 7456SOL     OW23266   0.996   1.599   3.943
 7456SOL    HW123267   1.062   1.525   3.956
 7456SOL    HW223268   0.907   1.570   3.978
 7457SOL     OW23269   3.795   0.569   6.122
 7457SOL    HW123270   3.721   0.592   6.186
 7457SOL    HW223271   3.867   0.638   6.129
 7458SOL     OW23272   1.800   6.637   5.745
 7458SOL    HW123273   1.738   6.656   5.821
 7458SOL    HW223274   1.779   6.547   5.707
 7459SOL     OW23275   4.564   0.403   2.188
 7459SOL    HW123276   4.558   0.475   2.257
 7459SOL    HW223277   4.624   0.433   2.114
 7460SOL     OW23278   1.297   5.277   0.654
 7460SOL    HW123279   1.346   5.363   0.664
 7460SOL    HW223280   1.211   5.293   0.607
 7461SOL     OW23281   5.490   1.258   6.656
 7461SOL    HW123282   5.549   1.244   6.576
 7461SOL    HW223283   5.444   1.346   6.648
 7462SOL     OW23284   2.086   3.947   2.439
 7462SOL    HW123285   2.072   3.897   2.353
 7462SOL    HW223286   2.069   3.885   2.516
 7463SOL     OW23287   2.394   4.654   0.342
 7463SOL    HW123288   2.447   4.708   0.276
 7463SOL    HW223289   2.455   4.617   0.412
 7464SOL     OW23290   5.181   0.359   6.679
 7464SOL    HW123291   5.091   0.315   6.675
 7464SOL    HW223292   5.235   0.317   6.753
 7465SOL     OW23293   1.166   5.687   6.629
 7465SOL    HW123294   1.247   5.669   6.573
 7465SOL    HW223295   1.193   5.692   6.726
 7466SOL     OW23296   6.976   0.470   5.101
 7466SOL    HW123297   6.880   0.498   5.092
 7466SOL    HW223298   6.987   0.377   5.064
 7467SOL     OW23299   0.574   1.359   1.220
 7467SOL    HW123300   0.521   1.415   1.283
 7467SOL    HW223301   0.533   1.362   1.129
 7468SOL     OW23302   5.759   3.116   3.615
 7468SOL    HW123303   5.797   3.203   3.647
 7468SOL    HW223304   5.666   3.131   3.580
 7469SOL     OW23305   7.016   1.095   0.711
 7469SOL    HW123306   7.013   1.139   0.801
 7469SOL    HW223307   0.008   1.164   0.641
 7470SOL     OW23308   6.265   3.561   3.728
 7470SOL    HW123309   6.305   3.475   3.696
 7470SOL    HW223310   6.181   3.541   3.779
 7471SOL     OW23311   5.750   6.511   6.396
 7471SOL    HW123312   5.813   6.555   6.332
 7471SOL    HW223313   5.724   6.577   6.467
 7472SOL     OW23314   6.486   6.760   4.651
 7472SOL    HW123315   6.499   6.796   4.744
 7472SOL    HW223316   6.404   6.703   4.648
 7473SOL     OW23317   5.761   5.100   3.690
 7473SOL    HW123318   5.729   5.188   3.655
 7473SOL    HW223319   5.728   5.087   3.783
 7474SOL     OW23320   1.187   1.576   5.418
 7474SOL    HW123321   1.105   1.633   5.410
 7474SOL    HW223322   1.197   1.544   5.512
 7475SOL     OW23323   4.886   2.175   2.129
 7475SOL    HW123324   4.871   2.183   2.227
 7475SOL    HW223325   4.872   2.265   2.086
 7476SOL     OW23326   3.234   0.453   3.520
 7476SOL    HW123327   3.281   0.368   3.546
 7476SOL    HW223328   3.301   0.526   3.511
 7477SOL     OW23329   0.325   1.007   5.199
 7477SOL    HW123330   0.373   0.984   5.114
 7477SOL    HW223331   0.389   1.046   5.264
 7478SOL     OW23332   5.021   4.904   5.906
 7478SOL    HW123333   5.098   4.945   5.859
 7478SOL    HW223334   4.963   4.976   5.944
 7479SOL     OW23335   4.270   2.328   2.263
 7479SOL    HW123336   4.192   2.316   2.325
 7479SOL    HW223337   4.304   2.421   2.271
 7480SOL     OW23338   0.420   3.952   2.058
 7480SOL    HW123339   0.394   3.858   2.081
 7480SOL    HW223340   0.499   3.951   1.997
 7481SOL     OW23341   6.368   5.916   1.254
 7481SOL    HW123342   6.413   5.966   1.329
 7481SOL    HW223343   6.307   5.847   1.293
 7482SOL     OW23344   4.706   2.694   2.849
 7482SOL    HW123345   4.766   2.692   2.769
 7482SOL    HW223346   4.730   2.773   2.906
 7483SOL     OW23347   4.759   2.834   4.068
 7483SOL    HW123348   4.660   2.830   4.081
 7483SOL    HW223349   4.783   2.793   3.980
 7484SOL     OW23350   1.625   6.917   4.313
 7484SOL    HW123351   1.698   6.906   4.245
 7484SOL    HW223352   1.576   7.002   4.295
 7485SOL     OW23353   3.618   0.064   4.844
 7485SOL    HW123354   3.646   7.009   4.897
 7485SOL    HW223355   3.555   0.036   4.772
 7486SOL     OW23356   1.877   6.586   0.681
 7486SOL    HW123357   1.859   6.514   0.748
 7486SOL    HW223358   1.905   6.669   0.728
 7487SOL     OW23359   1.713   6.696   3.553
 7487SOL    HW123360   1.696   6.635   3.631
 7487SOL    HW223361   1.653   6.776   3.560
 7488SOL     OW23362   2.668   0.149   3.741
 7488SOL    HW123363   2.688   0.065   3.690
 7488SOL    HW223364   2.590   0.134   3.802
 7489SOL     OW23365   4.880   2.690   5.309
 7489SOL    HW123366   4.828   2.773   5.290
 7489SOL    HW223367   4.926   2.698   5.397
 7490SOL     OW23368   1.277   0.451   2.414
 7490SOL    HW123369   1.289   0.405   2.502
 7490SOL    HW223370   1.195   0.415   2.368
 7491SOL     OW23371   5.359   2.546   6.441
 7491SOL    HW123372   5.389   2.556   6.536
 7491SOL    HW223373   5.261   2.562   6.436
 7492SOL     OW23374   2.047   0.488   3.390
 7492SOL    HW123375   2.022   0.585   3.385
 7492SOL    HW223376   1.999   0.438   3.318
 7493SOL     OW23377   0.676   3.640   6.930
 7493SOL    HW123378   0.632   3.713   6.983
 7493SOL    HW223379   0.606   3.589   6.879
 7494SOL     OW23380   5.234   1.175   2.642
 7494SOL    HW123381   5.279   1.262   2.622
 7494SOL    HW223382   5.190   1.140   2.559
 7495SOL     OW23383   1.586   2.274   6.425
 7495SOL    HW123384   1.666   2.228   6.463
 7495SOL    HW223385   1.518   2.287   6.498
 7496SOL     OW23386   6.048   3.435   5.152
 7496SOL    HW123387   6.066   3.510   5.088
 7496SOL    HW223388   5.999   3.362   5.106
 7497SOL     OW23389   2.647   4.245   6.093
 7497SOL    HW123390   2.626   4.297   6.010
 7497SOL    HW223391   2.687   4.307   6.161
 7498SOL     OW23392   3.379   0.419   5.262
 7498SOL    HW123393   3.440   0.400   5.185
 7498SOL    HW223394   3.284   0.417   5.231
 7499SOL     OW23395   3.172   1.510   2.763
 7499SOL    HW123396   3.258   1.500   2.714
 7499SOL    HW223397   3.159   1.606   2.789
 7500SOL     OW23398   3.594   5.675   2.831
 7500SOL    HW123399   3.502   5.712   2.815
 7500SOL    HW223400   3.589   5.575   2.832
 7501SOL     OW23401   5.175   3.749   4.803
 7501SOL    HW123402   5.076   3.756   4.813
 7501SOL    HW223403   5.206   3.662   4.843
 7502SOL     OW23404   3.235   0.508   4.258
 7502SOL    HW123405   3.151   0.560   4.244
 7502SOL    HW223406   3.226   0.451   4.339
 7503SOL     OW23407   1.685   0.417   1.548
 7503SOL    HW123408   1.748   0.493   1.563
 7503SOL    HW223409   1.657   0.380   1.637
 7504SOL     OW23410   1.409   6.903   3.390
 7504SOL    HW123411   1.393   7.000   3.374
 7504SOL    HW223412   1.367   6.850   3.316
 7505SOL     OW23413   1.425   2.645   5.926
 7505SOL    HW123414   1.429   2.702   5.844
 7505SOL    HW223415   1.344   2.667   5.979
 7506SOL     OW23416   5.021   1.061   3.181
 7506SOL    HW123417   5.059   0.972   3.157
 7506SOL    HW223418   5.054   1.130   3.117
 7507SOL     OW23419   0.260   1.481   2.708
 7507SOL    HW123420   0.343   1.498   2.654
 7507SOL    HW223421   0.210   1.567   2.718
 7508SOL     OW23422   1.178   6.847   1.663
 7508SOL    HW123423   1.123   6.924   1.698
 7508SOL    HW223424   1.137   6.813   1.578
 7509SOL     OW23425   6.178   4.651   0.434
 7509SOL    HW123426   6.151   4.738   0.477
 7509SOL    HW223427   6.228   4.670   0.350
 7510SOL     OW23428   4.055   3.694   5.769
 7510SOL    HW123429   3.977   3.703   5.831
 7510SOL    HW223430   4.140   3.714   5.819
 7511SOL     OW23431   2.344   6.299   3.552
 7511SOL    HW123432   2.289   6.364   3.500
 7511SOL    HW223433   2.417   6.264   3.494
 7512SOL     OW23434   3.091   6.766   0.061
 7512SOL    HW123435   3.107   6.730   0.153
 7512SOL    HW223436   3.102   6.866   0.062
 7513SOL     OW23437   2.067   0.783   1.358
 7513SOL    HW123438   2.075   0.711   1.426
 7513SOL    HW223439   2.133   0.856   1.378
 7514SOL     OW23440   2.635   5.867   1.576
 7514SOL    HW123441   2.684   5.943   1.532
 7514SOL    HW223442   2.671   5.780   1.542
 7515SOL     OW23443   6.663   5.097   3.627
 7515SOL    HW123444   6.737   5.094   3.560
 7515SOL    HW223445   6.702   5.101   3.719
 7516SOL     OW23446   0.148   6.351   5.544
 7516SOL    HW123447   0.210   6.301   5.605
 7516SOL    HW223448   0.179   6.339   5.449
 7517SOL     OW23449   0.378   2.684   0.567
 7517SOL    HW123450   0.347   2.695   0.472
 7517SOL    HW223451   0.439   2.760   0.591
 7518SOL     OW23452   4.396   4.880   3.737
 7518SOL    HW123453   4.444   4.920   3.659
 7518SOL    HW223454   4.408   4.938   3.817
 7519SOL     OW23455   0.490   6.263   3.479
 7519SOL    HW123456   0.417   6.219   3.531
 7519SOL    HW223457   0.527   6.199   3.412
 7520SOL     OW23458   2.433   6.830   2.142
 7520SOL    HW123459   2.368   6.872   2.078
 7520SOL    HW223460   2.402   6.738   2.164
 7521SOL     OW23461   4.958   4.289   5.796
 7521SOL    HW123462   4.870   4.301   5.842
 7521SOL    HW223463   5.029   4.273   5.864
 7522SOL     OW23464   1.635   1.267   6.200
 7522SOL    HW123465   1.679   1.349   6.238
 7522SOL    HW223466   1.644   1.268   6.101
 7523SOL     OW23467   5.869   0.471   6.278
 7523SOL    HW123468   5.937   0.509   6.215
 7523SOL    HW223469   5.831   0.544   6.334
 7524SOL     OW23470   1.453   2.613   5.475
 7524SOL    HW123471   1.390   2.536   5.476
 7524SOL    HW223472   1.438   2.669   5.557
 7525SOL     OW23473   3.667   1.147   6.046
 7525SOL    HW123474   3.743   1.142   5.981
 7525SOL    HW223475   3.679   1.227   6.104
 7526SOL     OW23476   3.165   3.414   1.408
 7526SOL    HW123477   3.160   3.325   1.453
 7526SOL    HW223478   3.139   3.486   1.474
 7527SOL     OW23479   3.062   5.917   3.084
 7527SOL    HW123480   3.140   5.895   3.143
 7527SOL    HW223481   2.978   5.880   3.124
 7528SOL     OW23482   5.778   2.406   0.697
 7528SOL    HW123483   5.846   2.396   0.625
 7528SOL    HW223484   5.788   2.333   0.764
 7529SOL     OW23485   4.924   1.489   4.853
 7529SOL    HW123486   4.911   1.427   4.776
 7529SOL    HW223487   4.899   1.582   4.825
 7530SOL     OW23488   0.095   3.018   2.368
 7530SOL    HW123489   0.168   3.080   2.399
 7530SOL    HW223490   0.131   2.959   2.296
 7531SOL     OW23491   5.289   3.034   4.887
 7531SOL    HW123492   5.357   2.965   4.863
 7531SOL    HW223493   5.256   3.078   4.803
 7532SOL     OW23494   4.598   5.870   6.696
 7532SOL    HW123495   4.656   5.951   6.689
 7532SOL    HW223496   4.646   5.791   6.658
 7533SOL     OW23497   3.017   0.908   1.363
 7533SOL    HW123498   3.100   0.852   1.360
 7533SOL    HW223499   2.955   0.873   1.433
 7534SOL     OW23500   4.712   6.757   5.506
 7534SOL    HW123501   4.671   6.844   5.535
 7534SOL    HW223502   4.649   6.709   5.446
 7535SOL     OW23503   2.048   0.570   4.907
 7535SOL    HW123504   1.973   0.597   4.968
 7535SOL    HW223505   2.105   0.503   4.954
 7536SOL     OW23506   4.529   4.952   4.381
 7536SOL    HW123507   4.466   4.941   4.305
 7536SOL    HW223508   4.549   4.863   4.422
 7537SOL     OW23509   2.947   5.586   1.481
 7537SOL    HW123510   2.900   5.498   1.472
 7537SOL    HW223511   2.938   5.620   1.574
 7538SOL     OW23512   1.563   2.356   1.378
 7538SOL    HW123513   1.656   2.325   1.398
 7538SOL    HW223514   1.565   2.419   1.300
 7539SOL     OW23515   1.694   3.798   3.789
 7539SOL    HW123516   1.661   3.710   3.822
 7539SOL    HW223517   1.622   3.843   3.736
 7540SOL     OW23518   4.352   0.478   4.412
 7540SOL    HW123519   4.315   0.438   4.328
 7540SOL    HW223520   4.331   0.419   4.489
 7541SOL     OW23521   0.506   4.757   5.209
 7541SOL    HW123522   0.444   4.820   5.257
 7541SOL    HW223523   0.473   4.663   5.221
 7542SOL     OW23524   1.126   5.185   6.679
 7542SOL    HW123525   1.214   5.168   6.723
 7542SOL    HW223526   1.132   5.164   6.582
 7543SOL     OW23527   4.016   1.948   6.519
 7543SOL    HW123528   4.107   1.911   6.502
 7543SOL    HW223529   3.999   2.024   6.457
 7544SOL     OW23530   6.874   2.547   2.843
 7544SOL    HW123531   6.934   2.539   2.763
 7544SOL    HW223532   6.832   2.458   2.862
 7545SOL     OW23533   0.373   5.260   0.338
 7545SOL    HW123534   0.364   5.310   0.423
 7545SOL    HW223535   0.319   5.305   0.267
 7546SOL     OW23536   3.552   2.602   1.772
 7546SOL    HW123537   3.637   2.652   1.754
 7546SOL    HW223538   3.573   2.508   1.798
 7547SOL     OW23539   4.932   1.932   0.242
 7547SOL    HW123540   4.924   1.858   0.176
 7547SOL    HW223541   4.841   1.969   0.263
 7548SOL     OW23542   4.971   1.341   6.584
 7548SOL    HW123543   4.880   1.381   6.574
 7548SOL    HW223544   4.968   1.268   6.653
 7549SOL     OW23545   3.784   2.838   6.793
 7549SOL    HW123546   3.831   2.752   6.814
 7549SOL    HW223547   3.849   2.902   6.753
 7550SOL     OW23548   2.479   5.092   3.172
 7550SOL    HW123549   2.434   5.098   3.261
 7550SOL    HW223550   2.545   5.166   3.163
 7551SOL     OW23551   5.378   3.828   6.419
 7551SOL    HW123552   5.361   3.927   6.416
 7551SOL    HW223553   5.403   3.802   6.512
 7552SOL     OW23554   1.401   5.774   2.879
 7552SOL    HW123555   1.357   5.689   2.848
 7552SOL    HW223556   1.499   5.759   2.887
 7553SOL     OW23557   4.465   6.515   5.634
 7553SOL    HW123558   4.536   6.549   5.696
 7553SOL    HW223559   4.384   6.492   5.687
 7554SOL     OW23560   4.657   1.063   0.293
 7554SOL    HW123561   4.560   1.074   0.269
 7554SOL    HW223562   4.674   1.102   0.384
 7555SOL     OW23563   2.359   4.757   6.150
 7555SOL    HW123564   2.401   4.679   6.104
 7555SOL    HW223565   2.406   4.841   6.123
 7556SOL     OW23566   2.457   2.755   0.424
 7556SOL    HW123567   2.359   2.739   0.434
 7556SOL    HW223568   2.496   2.781   0.513
 7557SOL     OW23569   5.434   1.264   5.544
 7557SOL    HW123570   5.414   1.225   5.634
 7557SOL    HW223571   5.359   1.326   5.518
 7558SOL     OW23572   1.588   2.281   4.216
 7558SOL    HW123573   1.675   2.233   4.221
 7558SOL    HW223574   1.596   2.361   4.158
 7559SOL     OW23575   5.171   3.873   0.457
 7559SOL    HW123576   5.227   3.826   0.524
 7559SOL    HW223577   5.230   3.927   0.396
 7560SOL     OW23578   5.510   6.850   1.313
 7560SOL    HW123579   5.593   6.841   1.367
 7560SOL    HW223580   5.442   6.901   1.365
 7561SOL     OW23581   0.945   2.937   6.871
 7561SOL    HW123582   1.017   2.886   6.824
 7561SOL    HW223583   0.917   3.015   6.815
 7562SOL     OW23584   0.102   5.665   4.156
 7562SOL    HW123585   0.033   5.686   4.225
 7562SOL    HW223586   0.111   5.566   4.146
 7563SOL     OW23587   3.105   6.992   1.236
 7563SOL    HW123588   3.103   6.938   1.320
 7563SOL    HW223589   3.031   0.034   1.238
 7564SOL     OW23590   4.046   6.731   2.926
 7564SOL    HW123591   3.986   6.660   2.962
 7564SOL    HW223592   3.993   6.815   2.912
 7565SOL     OW23593   5.287   2.751   0.353
 7565SOL    HW123594   5.336   2.665   0.337
 7565SOL    HW223595   5.348   2.817   0.396
 7566SOL     OW23596   6.673   4.356   3.092
 7566SOL    HW123597   6.662   4.446   3.049
 7566SOL    HW223598   6.649   4.362   3.189
 7567SOL     OW23599   1.797   1.796   5.171
 7567SOL    HW123600   1.703   1.782   5.139
 7567SOL    HW223601   1.795   1.829   5.265
 7568SOL     OW23602   4.913   6.243   3.482
 7568SOL    HW123603   4.851   6.290   3.419
 7568SOL    HW223604   4.991   6.302   3.501
 7569SOL     OW23605   3.830   4.877   6.033
 7569SOL    HW123606   3.814   4.895   6.130
 7569SOL    HW223607   3.899   4.942   5.998
 7570SOL     OW23608   5.274   3.620   5.136
 7570SOL    HW123609   5.255   3.549   5.205
 7570SOL    HW223610   5.308   3.702   5.182
 7571SOL     OW23611   4.141   4.911   3.565
 7571SOL    HW123612   4.157   4.967   3.484
 7571SOL    HW223613   4.216   4.846   3.576
 7572SOL     OW23614   4.134   1.104   1.491
 7572SOL    HW123615   4.145   1.087   1.393
 7572SOL    HW223616   4.142   1.202   1.508
 7573SOL     OW23617   0.528   0.551   5.127
 7573SOL    HW123618   0.450   0.585   5.179
 7573SOL    HW223619   0.613   0.572   5.176
 7574SOL     OW23620   5.336   0.423   5.328
 7574SOL    HW123621   5.251   0.417   5.276
 7574SOL    HW223622   5.412   0.392   5.272
 7575SOL     OW23623   5.499   0.943   6.056
 7575SOL    HW123624   5.451   0.977   5.975
 7575SOL    HW223625   5.462   0.853   6.081
 7576SOL     OW23626   4.587   3.515   0.460
 7576SOL    HW123627   4.517   3.579   0.429
 7576SOL    HW223628   4.670   3.528   0.405
 7577SOL     OW23629   0.950   6.724   6.993
 7577SOL    HW123630   0.956   6.672   6.908
 7577SOL    HW223631   1.038   6.765   7.014
 7578SOL     OW23632   2.491   4.837   1.483
 7578SOL    HW123633   2.536   4.825   1.395
 7578SOL    HW223634   2.398   4.801   1.478
 7579SOL     OW23635   0.597   1.173   2.760
 7579SOL    HW123636   0.674   1.140   2.705
 7579SOL    HW223637   0.622   1.168   2.857
 7580SOL     OW23638   0.606   4.024   4.590
 7580SOL    HW123639   0.558   3.956   4.534
 7580SOL    HW223640   0.703   4.002   4.594
 7581SOL     OW23641   7.009   1.558   2.287
 7581SOL    HW123642   6.995   1.596   2.196
 7581SOL    HW223643   0.007   1.631   2.351
 7582SOL     OW23644   3.971   1.140   1.709
 7582SOL    HW123645   3.894   1.198   1.680
 7582SOL    HW223646   4.027   1.118   1.629
 7583SOL     OW23647   5.931   3.046   2.238
 7583SOL    HW123648   5.834   3.051   2.262
 7583SOL    HW223649   5.973   2.967   2.283
 7584SOL     OW23650   3.559   0.120   1.977
 7584SOL    HW123651   3.566   0.192   1.908
 7584SOL    HW223652   3.520   0.157   2.061
 7585SOL     OW23653   1.937   2.841   6.864
 7585SOL    HW123654   2.015   2.878   6.814
 7585SOL    HW223655   1.943   2.868   6.960
 7586SOL     OW23656   2.996   0.385   3.444
 7586SOL    HW123657   3.017   0.316   3.375
 7586SOL    HW223658   3.078   0.408   3.495
 7587SOL     OW23659   2.518   2.547   6.875
 7587SOL    HW123660   2.450   2.612   6.842
 7587SOL    HW223661   2.488   2.506   6.962
 7588SOL     OW23662   1.133   2.863   3.850
 7588SOL    HW123663   1.073   2.883   3.927
 7588SOL    HW223664   1.199   2.937   3.839
 7589SOL     OW23665   0.501   0.566   2.653
 7589SOL    HW123666   0.594   0.600   2.645
 7589SOL    HW223667   0.436   0.637   2.625
 7590SOL     OW23668   3.583   2.288   6.248
 7590SOL    HW123669   3.610   2.299   6.344
 7590SOL    HW223670   3.621   2.364   6.194
 7591SOL     OW23671   6.912   3.397   0.876
 7591SOL    HW123672   6.978   3.468   0.851
 7591SOL    HW223673   6.951   3.307   0.855
 7592SOL     OW23674   6.964   5.366   4.784
 7592SOL    HW123675   6.917   5.444   4.826
 7592SOL    HW223676   6.944   5.283   4.836
 7593SOL     OW23677   6.067   3.171   0.249
 7593SOL    HW123678   6.125   3.220   0.184
 7593SOL    HW223679   6.094   3.195   0.342
 7594SOL     OW23680   1.352   4.670   2.163
 7594SOL    HW123681   1.347   4.641   2.259
 7594SOL    HW223682   1.448   4.670   2.135
 7595SOL     OW23683   6.313   2.816   6.082
 7595SOL    HW123684   6.285   2.882   6.152
 7595SOL    HW223685   6.256   2.828   6.001
 7596SOL     OW23686   3.925   6.253   3.539
 7596SOL    HW123687   3.900   6.182   3.473
 7596SOL    HW223688   4.020   6.279   3.527
 7597SOL     OW23689   2.232   6.734   3.154
 7597SOL    HW123690   2.248   6.636   3.169
 7597SOL    HW223691   2.317   6.778   3.128
 7598SOL     OW23692   0.191   0.941   3.281
 7598SOL    HW123693   0.146   0.865   3.329
 7598SOL    HW223694   0.124   1.011   3.259
 7599SOL     OW23695   5.492   1.921   2.515
 7599SOL    HW123696   5.489   1.998   2.579
 7599SOL    HW223697   5.563   1.939   2.446
 7600SOL     OW23698   1.549   1.583   3.229
 7600SOL    HW123699   1.598   1.667   3.204
 7600SOL    HW223700   1.450   1.602   3.232
 7601SOL     OW23701   1.862   4.497   2.138
 7601SOL    HW123702   1.901   4.557   2.208
 7601SOL    HW223703   1.837   4.409   2.180
 7602SOL     OW23704   2.398   3.615   6.593
 7602SOL    HW123705   2.336   3.597   6.517
 7602SOL    HW223706   2.491   3.629   6.558
 7603SOL     OW23707   1.332   5.453   5.930
 7603SOL    HW123708   1.385   5.369   5.944
 7603SOL    HW223709   1.384   5.531   5.964
 7604SOL     OW23710   2.211   3.832   4.735
 7604SOL    HW123711   2.207   3.932   4.739
 7604SOL    HW223712   2.298   3.800   4.773
 7605SOL     OW23713   1.479   0.731   1.840
 7605SOL    HW123714   1.396   0.690   1.880
 7605SOL    HW223715   1.558   0.709   1.897
 7606SOL     OW23716   6.101   4.408   4.928
 7606SOL    HW123717   6.183   4.406   4.985
 7606SOL    HW223718   6.056   4.496   4.938
 7607SOL     OW23719   3.383   5.555   6.745
 7607SOL    HW123720   3.361   5.635   6.801
 7607SOL    HW223721   3.467   5.573   6.693
 7608SOL     OW23722   3.793   4.021   1.516
 7608SOL    HW123723   3.696   4.031   1.538
 7608SOL    HW223724   3.828   3.938   1.560
 7609SOL     OW23725   1.246   2.781   4.685
 7609SOL    HW123726   1.278   2.816   4.597
 7609SOL    HW223727   1.324   2.743   4.736
 7610SOL     OW23728   4.418   4.579   6.233
 7610SOL    HW123729   4.482   4.575   6.156
 7610SOL    HW223730   4.421   4.670   6.273
 7611SOL     OW23731   5.928   3.806   1.663
 7611SOL    HW123732   5.854   3.739   1.651
 7611SOL    HW223733   5.951   3.813   1.760
 7612SOL     OW23734   4.937   3.152   2.016
 7612SOL    HW123735   4.852   3.106   1.990
 7612SOL    HW223736   4.987   3.095   2.081
 7613SOL     OW23737   6.869   2.806   0.913
 7613SOL    HW123738   6.930   2.878   0.944
 7613SOL    HW223739   6.880   2.726   0.972
 7614SOL     OW23740   5.126   3.695   0.910
 7614SOL    HW123741   5.062   3.719   0.983
 7614SOL    HW223742   5.081   3.633   0.846
 7615SOL     OW23743   3.823   5.215   6.931
 7615SOL    HW123744   3.748   5.249   6.874
 7615SOL    HW223745   3.786   5.181   7.018
 7616SOL     OW23746   6.173   6.437   4.233
 7616SOL    HW123747   6.225   6.460   4.151
 7616SOL    HW223748   6.076   6.457   4.218
 7617SOL     OW23749   4.164   6.516   2.409
 7617SOL    HW123750   4.255   6.547   2.436
 7617SOL    HW223751   4.114   6.484   2.489
 7618SOL     OW23752   6.989   1.897   5.510
 7618SOL    HW123753   0.010   1.861   5.590
 7618SOL    HW223754   6.905   1.846   5.493
 7619SOL     OW23755   6.267   3.048   5.196
 7619SOL    HW123756   6.340   3.008   5.141
 7619SOL    HW223757   6.179   3.016   5.162
 7620SOL     OW23758   3.995   5.764   1.332
 7620SOL    HW123759   3.911   5.801   1.291
 7620SOL    HW223760   4.014   5.674   1.291
 7621SOL     OW23761   6.577   1.220   1.332
 7621SOL    HW123762   6.611   1.313   1.320
 7621SOL    HW223763   6.653   1.155   1.321
 7622SOL     OW23764   4.430   5.066   6.780
 7622SOL    HW123765   4.443   5.162   6.806
 7622SOL    HW223766   4.512   5.033   6.732
 7623SOL     OW23767   5.052   3.314   6.785
 7623SOL    HW123768   5.151   3.303   6.795
 7623SOL    HW223769   5.012   3.226   6.760
 7624SOL     OW23770   0.050   3.555   4.812
 7624SOL    HW123771   0.101   3.590   4.891
 7624SOL    HW223772   0.054   3.456   4.810
 7625SOL     OW23773   5.223   0.616   1.447
 7625SOL    HW123774   5.126   0.606   1.425
 7625SOL    HW223775   5.233   0.632   1.545
 7626SOL     OW23776   6.482   0.089   4.201
 7626SOL    HW123777   6.578   0.083   4.174
 7626SOL    HW223778   6.455   0.005   4.246
 7627SOL     OW23779   5.011   3.377   0.047
 7627SOL    HW123780   5.039   3.380   6.977
 7627SOL    HW223781   4.911   3.388   0.054
 7628SOL     OW23782   3.442   2.202   1.805
 7628SOL    HW123783   3.523   2.256   1.782
 7628SOL    HW223784   3.464   2.138   1.879
 7629SOL     OW23785   0.434   5.399   3.211
 7629SOL    HW123786   0.504   5.394   3.281
 7629SOL    HW223787   0.469   5.361   3.125
 7630SOL     OW23788   0.620   0.007   1.410
 7630SOL    HW123789   0.718   0.004   1.432
 7630SOL    HW223790   0.582   0.095   1.438
 7631SOL     OW23791   0.903   1.150   5.999
 7631SOL    HW123792   0.934   1.058   6.023
 7631SOL    HW223793   0.908   1.209   6.080
 7632SOL     OW23794   4.690   4.299   1.383
 7632SOL    HW123795   4.674   4.318   1.480
 7632SOL    HW223796   4.783   4.265   1.371
 7633SOL     OW23797   5.468   0.105   1.711
 7633SOL    HW123798   5.500   0.012   1.728
 7633SOL    HW223799   5.398   0.129   1.777
 7634SOL     OW23800   1.802   1.653   2.196
 7634SOL    HW123801   1.744   1.631   2.118
 7634SOL    HW223802   1.883   1.704   2.164
 7635SOL     OW23803   3.503   5.238   5.376
 7635SOL    HW123804   3.531   5.167   5.441
 7635SOL    HW223805   3.422   5.207   5.327
 7636SOL     OW23806   1.789   2.743   4.192
 7636SOL    HW123807   1.848   2.796   4.253
 7636SOL    HW223808   1.740   2.674   4.245
 7637SOL     OW23809   2.804   5.783   2.265
 7637SOL    HW123810   2.903   5.798   2.268
 7637SOL    HW223811   2.757   5.872   2.262
 7638SOL     OW23812   2.485   6.044   1.305
 7638SOL    HW123813   2.463   5.947   1.300
 7638SOL    HW223814   2.545   6.060   1.384
 7639SOL     OW23815   0.376   1.669   1.007
 7639SOL    HW123816   0.408   1.576   0.989
 7639SOL    HW223817   0.438   1.714   1.071
 7640SOL     OW23818   2.824   1.339   5.645
 7640SOL    HW123819   2.917   1.346   5.609
 7640SOL    HW223820   2.783   1.253   5.617
 7641SOL     OW23821   1.760   3.423   2.279
 7641SOL    HW123822   1.741   3.350   2.213
 7641SOL    HW223823   1.682   3.432   2.341
 7642SOL     OW23824   3.700   1.932   2.953
 7642SOL    HW123825   3.761   1.953   2.876
 7642SOL    HW223826   3.721   1.994   3.029
 7643SOL     OW23827   4.537   2.436   3.250
 7643SOL    HW123828   4.581   2.373   3.185
 7643SOL    HW223829   4.540   2.529   3.213
 7644SOL     OW23830   4.756   2.189   1.588
 7644SOL    HW123831   4.763   2.285   1.560
 7644SOL    HW223832   4.680   2.145   1.540
 7645SOL     OW23833   4.886   4.081   5.450
 7645SOL    HW123834   4.864   3.987   5.475
 7645SOL    HW223835   4.982   4.099   5.470
 7646SOL     OW23836   1.690   3.249   3.785
 7646SOL    HW123837   1.631   3.249   3.866
 7646SOL    HW223838   1.642   3.203   3.710
 7647SOL     OW23839   6.317   2.576   3.300
 7647SOL    HW123840   6.343   2.670   3.324
 7647SOL    HW223841   6.398   2.517   3.304
 7648SOL     OW23842   3.127   1.452   3.210
 7648SOL    HW123843   3.090   1.441   3.118
 7648SOL    HW223844   3.197   1.383   3.227
 7649SOL     OW23845   0.981   0.710   3.738
 7649SOL    HW123846   1.026   0.668   3.816
 7649SOL    HW223847   0.976   0.809   3.751
 7650SOL     OW23848   5.459   1.369   0.487
 7650SOL    HW123849   5.467   1.310   0.407
 7650SOL    HW223850   5.483   1.463   0.462
 7651SOL     OW23851   2.092   0.697   3.641
 7651SOL    HW123852   2.079   0.598   3.649
 7651SOL    HW223853   2.174   0.716   3.586
 7652SOL     OW23854   5.433   3.309   5.307
 7652SOL    HW123855   5.435   3.277   5.212
 7652SOL    HW223856   5.414   3.233   5.368
 7653SOL     OW23857   0.775   2.011   6.753
 7653SOL    HW123858   0.723   1.946   6.808
 7653SOL    HW223859   0.823   2.075   6.813
 7654SOL     OW23860   4.840   3.048   4.235
 7654SOL    HW123861   4.839   2.997   4.321
 7654SOL    HW223862   4.788   2.998   4.166
 7655SOL     OW23863   4.359   6.668   3.163
 7655SOL    HW123864   4.260   6.677   3.171
 7655SOL    HW223865   4.403   6.756   3.182
 7656SOL     OW23866   3.709   3.946   6.657
 7656SOL    HW123867   3.781   3.947   6.587
 7656SOL    HW223868   3.681   3.851   6.673
 7657SOL     OW23869   1.111   2.201   3.679
 7657SOL    HW123870   1.141   2.268   3.747
 7657SOL    HW223871   1.084   2.248   3.595
 7658SOL     OW23872   3.349   0.283   6.703
 7658SOL    HW123873   3.266   0.338   6.706
 7658SOL    HW223874   3.354   0.225   6.784
 7659SOL     OW23875   5.776   4.858   6.756
 7659SOL    HW123876   5.798   4.833   6.662
 7659SOL    HW223877   5.740   4.778   6.804
 7660SOL     OW23878   0.261   5.717   3.489
 7660SOL    HW123879   0.297   5.767   3.410
 7660SOL    HW223880   0.217   5.781   3.552
 7661SOL     OW23881   5.166   2.291   4.859
 7661SOL    HW123882   5.248   2.294   4.917
 7661SOL    HW223883   5.192   2.262   4.767
 7662SOL     OW23884   1.391   2.874   4.492
 7662SOL    HW123885   1.420   2.942   4.559
 7662SOL    HW223886   1.439   2.788   4.508
 7663SOL     OW23887   6.768   5.644   5.623
 7663SOL    HW123888   6.742   5.694   5.705
 7663SOL    HW223889   6.696   5.653   5.554
 7664SOL     OW23890   4.033   0.349   1.501
 7664SOL    HW123891   4.120   0.299   1.495
 7664SOL    HW223892   4.051   0.447   1.506
 7665SOL     OW23893   6.067   0.726   4.270
 7665SOL    HW123894   6.077   0.762   4.177
 7665SOL    HW223895   6.152   0.681   4.298
 7666SOL     OW23896   0.479   5.527   1.710
 7666SOL    HW123897   0.530   5.612   1.697
 7666SOL    HW223898   0.381   5.547   1.715
 7667SOL     OW23899   4.151   6.923   2.162
 7667SOL    HW123900   4.146   7.022   2.154
 7667SOL    HW223901   4.080   6.890   2.223
 7668SOL     OW23902   3.317   4.890   0.678
 7668SOL    HW123903   3.261   4.824   0.628
 7668SOL    HW223904   3.402   4.845   0.707
 7669SOL     OW23905   4.735   1.310   5.176
 7669SOL    HW123906   4.808   1.278   5.117
 7669SOL    HW223907   4.649   1.310   5.126
 7670SOL     OW23908   0.789   4.572   0.619
 7670SOL    HW123909   0.880   4.602   0.647
 7670SOL    HW223910   0.739   4.539   0.700
 7671SOL     OW23911   3.772   1.421   1.659
 7671SOL    HW123912   3.766   1.521   1.664
 7671SOL    HW223913   3.686   1.385   1.623
 7672SOL     OW23914   0.232   6.568   2.454
 7672SOL    HW123915   0.154   6.631   2.448
 7672SOL    HW223916   0.315   6.615   2.426
 7673SOL     OW23917   1.143   6.568   1.071
 7673SOL    HW123918   1.191   6.650   1.104
 7673SOL    HW223919   1.122   6.579   0.974
 7674SOL     OW23920   4.995   0.675   3.338
 7674SOL    HW123921   5.063   0.602   3.340
 7674SOL    HW223922   4.989   0.717   3.428
 7675SOL     OW23923   6.044   6.708   2.806
 7675SOL    HW123924   5.975   6.770   2.767
 7675SOL    HW223925   6.000   6.623   2.834
 7676SOL     OW23926   2.415   2.269   0.487
 7676SOL    HW123927   2.391   2.296   0.580
 7676SOL    HW223928   2.383   2.176   0.470
 7677SOL     OW23929   0.859   4.958   1.451
 7677SOL    HW123930   0.777   4.930   1.500
 7677SOL    HW223931   0.850   4.935   1.354
 7678SOL     OW23932   2.386   2.757   5.221
 7678SOL    HW123933   2.429   2.845   5.200
 7678SOL    HW223934   2.411   2.691   5.150
 7679SOL     OW23935   3.492   6.500   5.836
 7679SOL    HW123936   3.420   6.468   5.898
 7679SOL    HW223937   3.473   6.596   5.811
 7680SOL     OW23938   1.498   1.061   0.539
 7680SOL    HW123939   1.437   1.004   0.593
 7680SOL    HW223940   1.557   1.003   0.482
 7681SOL     OW23941   2.609   0.632   0.936
 7681SOL    HW123942   2.646   0.608   0.847
 7681SOL    HW223943   2.524   0.683   0.925
 7682SOL     OW23944   3.489   0.381   1.630
 7682SOL    HW123945   3.455   0.357   1.539
 7682SOL    HW223946   3.411   0.401   1.690
 7683SOL     OW23947   5.774   2.345   4.448
 7683SOL    HW123948   5.676   2.357   4.431
 7683SOL    HW223949   5.789   2.327   4.545
 7684SOL     OW23950   3.575   1.757   1.276
 7684SOL    HW123951   3.607   1.772   1.370
 7684SOL    HW223952   3.507   1.826   1.252
 7685SOL     OW23953   2.764   1.991   5.714
 7685SOL    HW123954   2.793   1.896   5.721
 7685SOL    HW223955   2.828   2.049   5.764
 7686SOL     OW23956   0.034   6.635   2.990
 7686SOL    HW123957   7.012   6.558   2.948
 7686SOL    HW223958   7.025   6.648   3.083
 7687SOL     OW23959   6.141   5.025   3.798
 7687SOL    HW123960   6.064   5.037   3.861
 7687SOL    HW223961   6.189   5.112   3.787
 7688SOL     OW23962   1.069   6.365   4.838
 7688SOL    HW123963   1.168   6.364   4.853
 7688SOL    HW223964   1.046   6.434   4.769
 7689SOL     OW23965   5.550   6.467   2.378
 7689SOL    HW123966   5.531   6.373   2.405
 7689SOL    HW223967   5.464   6.518   2.375
 7690SOL     OW23968   5.742   4.591   0.582
 7690SOL    HW123969   5.782   4.645   0.509
 7690SOL    HW223970   5.786   4.614   0.669
 7691SOL     OW23971   4.838   3.854   4.337
 7691SOL    HW123972   4.914   3.791   4.320
 7691SOL    HW223973   4.752   3.804   4.337
 7692SOL     OW23974   0.857   6.271   1.946
 7692SOL    HW123975   0.898   6.300   2.032
 7692SOL    HW223976   0.761   6.301   1.943
 7693SOL     OW23977   3.378   6.696   1.465
 7693SOL    HW123978   3.309   6.759   1.501
 7693SOL    HW223979   3.353   6.667   1.373
 7694SOL     OW23980   5.285   4.042   4.200
 7694SOL    HW123981   5.349   4.024   4.126
 7694SOL    HW223982   5.331   4.095   4.272
 7695SOL     OW23983   4.793   6.831   0.737
 7695SOL    HW123984   4.862   6.903   0.744
 7695SOL    HW223985   4.705   6.870   0.711
 7696SOL     OW23986   0.332   0.527   6.158
 7696SOL    HW123987   0.386   0.575   6.227
 7696SOL    HW223988   0.393   0.478   6.096
 7697SOL     OW23989   2.479   6.853   3.068
 7697SOL    HW123990   2.561   6.910   3.070
 7697SOL    HW223991   2.482   6.793   2.988
 7698SOL     OW23992   5.834   1.640   4.338
 7698SOL    HW123993   5.780   1.648   4.254
 7698SOL    HW223994   5.817   1.551   4.380
 7699SOL     OW23995   3.464   5.913   6.179
 7699SOL    HW123996   3.509   5.888   6.265
 7699SOL    HW223997   3.382   5.856   6.167
 7700SOL     OW23998   4.617   5.720   2.891
 7700SOL    HW123999   4.555   5.669   2.951
 7700SOL    HW224000   4.690   5.761   2.946
 7701SOL     OW24001   6.338   2.215   0.609
 7701SOL    HW124002   6.430   2.253   0.595
 7701SOL    HW224003   6.333   2.125   0.567
 7702SOL     OW24004   3.651   6.270   4.882
 7702SOL    HW124005   3.636   6.200   4.812
 7702SOL    HW224006   3.563   6.309   4.909
 7703SOL     OW24007   6.281   5.925   6.327
 7703SOL    HW124008   6.242   5.832   6.326
 7703SOL    HW224009   6.358   5.929   6.263
 7704SOL     OW24010   5.906   0.476   4.760
 7704SOL    HW124011   5.990   0.427   4.735
 7704SOL    HW224012   5.886   0.544   4.690
 7705SOL     OW24013   2.515   6.174   0.628
 7705SOL    HW124014   2.476   6.082   0.638
 7705SOL    HW224015   2.562   6.180   0.539
 7706SOL     OW24016   3.786   3.703   4.696
 7706SOL    HW124017   3.876   3.746   4.705
 7706SOL    HW224018   3.745   3.728   4.609
 7707SOL     OW24019   0.200   4.733   5.796
 7707SOL    HW124020   0.210   4.830   5.773
 7707SOL    HW224021   0.237   4.716   5.887
 7708SOL     OW24022   1.003   6.790   5.862
 7708SOL    HW124023   1.054   6.869   5.825
 7708SOL    HW224024   0.993   6.801   5.961
 7709SOL     OW24025   6.792   4.414   2.372
 7709SOL    HW124026   6.775   4.320   2.343
 7709SOL    HW224027   6.880   4.444   2.336
 7710SOL     OW24028   3.021   2.181   0.198
 7710SOL    HW124029   3.107   2.200   0.246
 7710SOL    HW224030   2.980   2.267   0.167
 7711SOL     OW24031   5.399   6.557   6.195
 7711SOL    HW124032   5.391   6.465   6.156
 7711SOL    HW224033   5.392   6.625   6.122
 7712SOL     OW24034   0.244   5.160   1.905
 7712SOL    HW124035   0.338   5.156   1.939
 7712SOL    HW224036   0.210   5.068   1.887
 7713SOL     OW24037   1.472   4.133   0.889
 7713SOL    HW124038   1.419   4.196   0.832
 7713SOL    HW224039   1.478   4.169   0.982
 7714SOL     OW24040   0.060   4.241   4.989
 7714SOL    HW124041   0.008   4.193   4.919
 7714SOL    HW224042   0.090   4.177   5.060
 7715SOL     OW24043   3.205   2.580   0.335
 7715SOL    HW124044   3.253   2.650   0.282
 7715SOL    HW224045   3.228   2.490   0.300
 7716SOL     OW24046   0.184   4.889   1.858
 7716SOL    HW124047   0.096   4.869   1.901
 7716SOL    HW224048   0.245   4.811   1.869
 7717SOL     OW24049   1.942   0.763   6.094
 7717SOL    HW124050   1.988   0.842   6.053
 7717SOL    HW224051   1.973   0.679   6.051
 7718SOL     OW24052   6.484   3.766   3.480
 7718SOL    HW124053   6.455   3.783   3.386
 7718SOL    HW224054   6.405   3.768   3.541
 7719SOL     OW24055   0.174   4.302   5.422
 7719SOL    HW124056   0.263   4.340   5.398
 7719SOL    HW224057   0.120   4.371   5.471
 7720SOL     OW24058   6.649   1.650   6.503
 7720SOL    HW124059   6.610   1.595   6.577
 7720SOL    HW224060   6.580   1.714   6.469
 7721SOL     OW24061   0.362   5.682   2.089
 7721SOL    HW124062   0.421   5.759   2.112
 7721SOL    HW224063   0.382   5.605   2.150
 7722SOL     OW24064   1.317   4.043   3.564
 7722SOL    HW124065   1.305   4.115   3.496
 7722SOL    HW224066   1.289   3.955   3.524
 7723SOL     OW24067   4.747   3.578   6.260
 7723SOL    HW124068   4.663   3.603   6.211
 7723SOL    HW224069   4.798   3.511   6.206
 7724SOL     OW24070   2.794   3.649   1.044
 7724SOL    HW124071   2.878   3.631   0.994
 7724SOL    HW224072   2.794   3.597   1.130
 7725SOL     OW24073   6.427   1.789   2.362
 7725SOL    HW124074   6.500   1.812   2.298
 7725SOL    HW224075   6.465   1.786   2.455
 7726SOL     OW24076   1.734   5.346   5.879
 7726SOL    HW124077   1.753   5.428   5.825
 7726SOL    HW224078   1.815   5.322   5.933
 7727SOL     OW24079   0.126   2.397   2.774
 7727SOL    HW124080   0.190   2.320   2.771
 7727SOL    HW224081   0.170   2.475   2.818
 7728SOL     OW24082   2.160   2.977   5.178
 7728SOL    HW124083   2.170   3.037   5.257
 7728SOL    HW224084   2.246   2.976   5.127
 7729SOL     OW24085   6.175   2.047   1.734
 7729SOL    HW124086   6.217   2.136   1.750
 7729SOL    HW224087   6.079   2.058   1.709
 7730SOL     OW24088   6.965   4.855   0.173
 7730SOL    HW124089   0.018   4.863   0.112
 7730SOL    HW224090   6.968   4.930   0.240
 7731SOL     OW24091   6.032   1.336   6.987
 7731SOL    HW124092   5.934   1.344   7.000
 7731SOL    HW224093   6.062   1.245   7.016
 7732SOL     OW24094   4.910   6.747   0.146
 7732SOL    HW124095   4.903   6.780   0.240
 7732SOL    HW224096   4.833   6.688   0.125
 7733SOL     OW24097   5.197   5.921   2.460
 7733SOL    HW124098   5.284   5.945   2.503
 7733SOL    HW224099   5.133   5.890   2.530
 7734SOL     OW24100   1.193   5.061   4.106
 7734SOL    HW124101   1.270   5.122   4.125
 7734SOL    HW224102   1.117   5.085   4.166
 7735SOL     OW24103   5.150   6.413   6.444
 7735SOL    HW124104   5.226   6.419   6.508
 7735SOL    HW224105   5.066   6.441   6.490
 7736SOL     OW24106   2.749   2.986   6.763
 7736SOL    HW124107   2.708   2.965   6.674
 7736SOL    HW224108   2.828   2.927   6.778
 7737SOL     OW24109   2.717   6.508   2.776
 7737SOL    HW124110   2.734   6.411   2.794
 7737SOL    HW224111   2.723   6.525   2.678
 7738SOL     OW24112   3.000   5.559   0.212
 7738SOL    HW124113   2.994   5.500   0.132
 7738SOL    HW224114   2.985   5.504   0.295
 7739SOL     OW24115   6.843   1.999   1.614
 7739SOL    HW124116   6.924   2.024   1.560
 7739SOL    HW224117   6.869   1.994   1.710
 7740SOL     OW24118   2.638   1.112   3.148
 7740SOL    HW124119   2.723   1.127   3.097
 7740SOL    HW224120   2.560   1.139   3.092
 7741SOL     OW24121   0.115   5.029   6.070
 7741SOL    HW124122   0.107   5.115   6.019
 7741SOL    HW224123   0.049   4.963   6.036
 7742SOL     OW24124   3.900   2.056   2.808
 7742SOL    HW124125   3.981   2.021   2.761
 7742SOL    HW224126   3.927   2.125   2.874
 7743SOL     OW24127   5.176   1.965   0.127
 7743SOL    HW124128   5.199   1.882   0.076
 7743SOL    HW224129   5.085   1.956   0.167
 7744SOL     OW24130   0.620   0.264   4.427
 7744SOL    HW124131   0.537   0.209   4.416
 7744SOL    HW224132   0.629   0.292   4.523
 7745SOL     OW24133   4.056   1.391   6.755
 7745SOL    HW124134   4.146   1.420   6.786
 7745SOL    HW224135   3.989   1.463   6.774
 7746SOL     OW24136   0.713   0.512   0.622
 7746SOL    HW124137   0.672   0.443   0.563
 7746SOL    HW224138   0.666   0.599   0.609
 7747SOL     OW24139   5.864   6.003   1.280
 7747SOL    HW124140   5.921   5.925   1.255
 7747SOL    HW224141   5.831   6.049   1.198
 7748SOL     OW24142   2.956   3.913   4.684
 7748SOL    HW124143   2.861   3.926   4.654
 7748SOL    HW224144   3.013   3.889   4.605
 7749SOL     OW24145   3.453   3.663   5.427
 7749SOL    HW124146   3.544   3.675   5.466
 7749SOL    HW224147   3.384   3.688   5.495
 7750SOL     OW24148   6.982   5.789   0.588
 7750SOL    HW124149   6.987   5.886   0.565
 7750SOL    HW224150   7.021   5.735   0.514
 7751SOL     OW24151   2.003   2.892   2.552
 7751SOL    HW124152   2.061   2.972   2.538
 7751SOL    HW224153   2.031   2.820   2.488
 7752SOL     OW24154   5.981   6.516   5.558
 7752SOL    HW124155   6.072   6.511   5.519
 7752SOL    HW224156   5.930   6.590   5.514
 7753SOL     OW24157   1.942   0.516   4.496
 7753SOL    HW124158   1.935   0.494   4.593
 7753SOL    HW224159   1.933   0.614   4.483
 7754SOL     OW24160   4.387   6.512   1.816
 7754SOL    HW124161   4.320   6.585   1.804
 7754SOL    HW224162   4.373   6.468   1.905
 7755SOL     OW24163   0.976   2.028   6.046
 7755SOL    HW124164   1.023   2.084   6.114
 7755SOL    HW224165   1.023   1.940   6.037
 7756SOL     OW24166   2.932   6.156   1.971
 7756SOL    HW124167   2.953   6.059   1.960
 7756SOL    HW224168   2.917   6.197   1.881
 7757SOL     OW24169   5.938   5.748   5.617
 7757SOL    HW124170   5.870   5.821   5.610
 7757SOL    HW224171   5.986   5.756   5.704
 7758SOL     OW24172   1.460   1.532   5.798
 7758SOL    HW124173   1.380   1.552   5.855
 7758SOL    HW224174   1.435   1.541   5.701
 7759SOL     OW24175   0.928   1.716   5.413
 7759SOL    HW124176   0.936   1.790   5.346
 7759SOL    HW224177   0.922   1.755   5.505
 7760SOL     OW24178   5.443   3.505   2.704
 7760SOL    HW124179   5.407   3.556   2.626
 7760SOL    HW224180   5.420   3.408   2.693
 7761SOL     OW24181   0.917   0.528   5.636
 7761SOL    HW124182   0.877   0.502   5.548
 7761SOL    HW224183   1.000   0.475   5.653
 7762SOL     OW24184   4.662   0.605   3.665
 7762SOL    HW124185   4.675   0.645   3.756
 7762SOL    HW224186   4.648   0.506   3.673
 7763SOL     OW24187   0.933   1.031   6.795
 7763SOL    HW124188   0.911   0.941   6.758
 7763SOL    HW224189   1.031   1.036   6.813
 7764SOL     OW24190   3.478   3.144   3.307
 7764SOL    HW124191   3.516   3.073   3.367
 7764SOL    HW224192   3.534   3.151   3.225
 7765SOL     OW24193   6.227   2.953   4.562
 7765SOL    HW124194   6.299   2.959   4.630
 7765SOL    HW224195   6.199   2.857   4.551
 7766SOL     OW24196   6.268   3.033   6.974
 7766SOL    HW124197   6.222   2.996   6.893
 7766SOL    HW224198   6.357   3.069   6.947
 7767SOL     OW24199   4.621   5.622   2.439
 7767SOL    HW124200   4.524   5.644   2.437
 7767SOL    HW224201   4.663   5.649   2.353
 7768SOL     OW24202   4.334   4.615   2.297
 7768SOL    HW124203   4.428   4.586   2.276
 7768SOL    HW224204   4.271   4.567   2.236
 7769SOL     OW24205   4.844   2.901   3.039
 7769SOL    HW124206   4.858   2.992   3.078
 7769SOL    HW224207   4.799   2.842   3.106
 7770SOL     OW24208   1.610   4.211   2.800
 7770SOL    HW124209   1.516   4.203   2.766
 7770SOL    HW224210   1.639   4.123   2.839
 7771SOL     OW24211   3.364   2.308   5.411
 7771SOL    HW124212   3.316   2.331   5.326
 7771SOL    HW224213   3.411   2.389   5.446
 7772SOL     OW24214   5.256   0.157   1.961
 7772SOL    HW124215   5.312   0.162   2.044
 7772SOL    HW224216   5.159   0.160   1.985
 7773SOL     OW24217   2.521   6.138   5.149
 7773SOL    HW124218   2.567   6.205   5.207
 7773SOL    HW224219   2.589   6.082   5.102
 7774SOL     OW24220   5.804   2.227   5.621
 7774SOL    HW124221   5.817   2.209   5.524
 7774SOL    HW224222   5.750   2.310   5.633
 7775SOL     OW24223   5.104   5.740   1.307
 7775SOL    HW124224   5.093   5.785   1.219
 7775SOL    HW224225   5.163   5.795   1.366
 7776SOL     OW24226   1.778   5.087   6.657
 7776SOL    HW124227   1.691   5.065   6.701
 7776SOL    HW224228   1.853   5.045   6.709
 7777SOL     OW24229   0.217   6.919   4.697
 7777SOL    HW124230   0.145   6.854   4.671
 7777SOL    HW224231   0.306   6.877   4.679
 7778SOL     OW24232   5.399   3.872   1.124
 7778SOL    HW124233   5.469   3.815   1.082
 7778SOL    HW224234   5.443   3.943   1.179
 7779SOL     OW24235   2.548   2.667   1.788
 7779SOL    HW124236   2.590   2.748   1.747
 7779SOL    HW224237   2.610   2.589   1.779
 7780SOL     OW24238   0.790   4.431   5.006
 7780SOL    HW124239   0.835   4.468   5.088
 7780SOL    HW224240   0.753   4.340   5.026
 7781SOL     OW24241   1.264   4.617   0.127
 7781SOL    HW124242   1.250   4.542   0.192
 7781SOL    HW224243   1.176   4.660   0.107
 7782SOL     OW24244   6.350   5.023   4.249
 7782SOL    HW124245   6.375   5.044   4.344
 7782SOL    HW224246   6.331   4.925   4.240
 7783SOL     OW24247   1.156   6.000   5.185
 7783SOL    HW124248   1.181   6.063   5.112
 7783SOL    HW224249   1.190   5.908   5.163
 7784SOL     OW24250   3.215   2.298   1.676
 7784SOL    HW124251   3.255   2.230   1.738
 7784SOL    HW224252   3.116   2.300   1.687
 7785SOL     OW24253   2.420   5.775   4.694
 7785SOL    HW124254   2.443   5.678   4.706
 7785SOL    HW224255   2.501   5.826   4.669
 7786SOL     OW24256   2.960   6.463   0.390
 7786SOL    HW124257   3.037   6.492   0.334
 7786SOL    HW224258   2.942   6.530   0.461
 7787SOL     OW24259   1.999   2.915   6.500
 7787SOL    HW124260   2.063   2.927   6.424
 7787SOL    HW224261   1.905   2.927   6.467
 7788SOL     OW24262   2.463   5.124   1.005
 7788SOL    HW124263   2.428   5.213   1.034
 7788SOL    HW224264   2.488   5.128   0.908
 7789SOL     OW24265   2.066   6.615   6.407
 7789SOL    HW124266   1.994   6.548   6.419
 7789SOL    HW224267   2.036   6.685   6.342
 7790SOL     OW24268   5.885   5.865   3.436
 7790SOL    HW124269   5.927   5.779   3.465
 7790SOL    HW224270   5.861   5.919   3.517
 7791SOL     OW24271   2.473   5.186   3.447
 7791SOL    HW124272   2.443   5.182   3.542
 7791SOL    HW224273   2.458   5.278   3.410
 7792SOL     OW24274   1.962   5.389   4.990
 7792SOL    HW124275   1.950   5.470   4.932
 7792SOL    HW224276   1.900   5.395   5.068
 7793SOL     OW24277   3.229   0.955   0.807
 7793SOL    HW124278   3.209   0.874   0.863
 7793SOL    HW224279   3.251   0.926   0.714
 7794SOL     OW24280   5.992   3.860   3.206
 7794SOL    HW124281   5.913   3.810   3.172
 7794SOL    HW224282   5.963   3.924   3.278
 7795SOL     OW24283   2.128   4.286   5.957
 7795SOL    HW124284   2.109   4.384   5.962
 7795SOL    HW224285   2.129   4.257   5.861
 7796SOL     OW24286   3.743   3.230   3.602
 7796SOL    HW124287   3.686   3.150   3.620
 7796SOL    HW224288   3.837   3.210   3.629
 7797SOL     OW24289   1.586   6.851   2.835
 7797SOL    HW124290   1.626   6.901   2.758
 7797SOL    HW224291   1.550   6.916   2.902
 7798SOL     OW24292   1.914   3.969   5.321
 7798SOL    HW124293   1.951   3.976   5.228
 7798SOL    HW224294   1.938   3.881   5.360
 7799SOL     OW24295   1.117   6.139   2.916
 7799SOL    HW124296   1.198   6.091   2.950
 7799SOL    HW224297   1.144   6.204   2.845
 7800SOL     OW24298   0.619   5.473   1.219
 7800SOL    HW124299   0.642   5.405   1.149
 7800SOL    HW224300   0.673   5.555   1.205
 7801SOL     OW24301   2.336   1.939   2.011
 7801SOL    HW124302   2.404   1.989   1.957
 7801SOL    HW224303   2.379   1.864   2.059
 7802SOL     OW24304   5.758   2.729   0.725
 7802SOL    HW124305   5.790   2.788   0.800
 7802SOL    HW224306   5.720   2.645   0.764
 7803SOL     OW24307   4.832   1.981   5.907
 7803SOL    HW124308   4.819   1.901   5.848
 7803SOL    HW224309   4.810   2.064   5.855
 7804SOL     OW24310   4.606   1.861   3.929
 7804SOL    HW124311   4.676   1.884   3.997
 7804SOL    HW224312   4.519   1.844   3.975
 7805SOL     OW24313   5.589   2.966   1.516
 7805SOL    HW124314   5.613   3.054   1.475
 7805SOL    HW224315   5.671   2.910   1.526
 7806SOL     OW24316   6.085   2.020   0.414
 7806SOL    HW124317   6.102   1.941   0.473
 7806SOL    HW224318   6.158   2.026   0.346
 7807SOL     OW24319   1.147   5.043   5.449
 7807SOL    HW124320   1.187   4.989   5.375
 7807SOL    HW224321   1.127   4.984   5.527
 7808SOL     OW24322   6.334   3.551   4.046
 7808SOL    HW124323   6.284   3.464   4.046
 7808SOL    HW224324   6.321   3.596   3.958
 7809SOL     OW24325   3.152   4.914   4.232
 7809SOL    HW124326   3.142   4.822   4.270
 7809SOL    HW224327   3.237   4.919   4.180
 7810SOL     OW24328   3.629   0.216   4.362
 7810SOL    HW124329   3.640   0.118   4.380
 7810SOL    HW224330   3.559   0.229   4.293
 7811SOL     OW24331   1.803   5.327   2.187
 7811SOL    HW124332   1.859   5.301   2.108
 7811SOL    HW224333   1.844   5.288   2.271
 7812SOL     OW24334   6.761   1.941   4.130
 7812SOL    HW124335   6.780   1.853   4.085
 7812SOL    HW224336   6.666   1.968   4.113
 7813SOL     OW24337   5.107   2.476   7.002
 7813SOL    HW124338   5.150   2.398   6.956
 7813SOL    HW224339   5.027   2.445   0.027
 7814SOL     OW24340   0.549   3.759   3.423
 7814SOL    HW124341   0.582   3.711   3.504
 7814SOL    HW224342   0.576   3.710   3.341
 7815SOL     OW24343   5.690   1.482   5.261
 7815SOL    HW124344   5.773   1.479   5.206
 7815SOL    HW224345   5.703   1.429   5.345
 7816SOL     OW24346   1.701   2.414   6.227
 7816SOL    HW124347   1.716   2.513   6.236
 7816SOL    HW224348   1.667   2.377   6.314
 7817SOL     OW24349   4.923   4.574   3.399
 7817SOL    HW124350   4.881   4.652   3.354
 7817SOL    HW224351   4.858   4.532   3.462
 7818SOL     OW24352   4.374   1.163   1.811
 7818SOL    HW124353   4.345   1.248   1.768
 7818SOL    HW224354   4.337   1.085   1.761
 7819SOL     OW24355   0.023   3.422   2.362
 7819SOL    HW124356   0.043   3.486   2.437
 7819SOL    HW224357   0.105   3.409   2.307
 7820SOL     OW24358   0.969   1.488   5.670
 7820SOL    HW124359   1.038   1.551   5.703
 7820SOL    HW224360   0.885   1.500   5.723
 7821SOL     OW24361   5.698   5.517   0.525
 7821SOL    HW124362   5.635   5.535   0.449
 7821SOL    HW224363   5.690   5.589   0.593
 7822SOL     OW24364   2.075   2.215   6.256
 7822SOL    HW124365   1.990   2.230   6.307
 7822SOL    HW224366   2.059   2.146   6.185
 7823SOL     OW24367   2.513   3.543   5.394
 7823SOL    HW124368   2.554   3.452   5.397
 7823SOL    HW224369   2.583   3.609   5.365
 7824SOL     OW24370   5.991   0.475   3.791
 7824SOL    HW124371   5.905   0.498   3.747
 7824SOL    HW224372   6.033   0.397   3.746
 7825SOL     OW24373   1.434   2.783   0.965
 7825SOL    HW124374   1.371   2.791   1.042
 7825SOL    HW224375   1.397   2.833   0.887
 7826SOL     OW24376   6.041   1.319   0.682
 7826SOL    HW124377   6.086   1.244   0.729
 7826SOL    HW224378   5.961   1.348   0.735
 7827SOL     OW24379   3.020   4.971   1.143
 7827SOL    HW124380   2.988   5.058   1.107
 7827SOL    HW224381   2.942   4.910   1.159
 7828SOL     OW24382   1.020   4.436   6.751
 7828SOL    HW124383   0.965   4.476   6.678
 7828SOL    HW224384   1.071   4.357   6.716
 7829SOL     OW24385   2.533   3.154   1.376
 7829SOL    HW124386   2.459   3.220   1.389
 7829SOL    HW224387   2.581   3.173   1.291
 7830SOL     OW24388   2.301   4.431   5.659
 7830SOL    HW124389   2.292   4.419   5.560
 7830SOL    HW224390   2.297   4.342   5.705
 7831SOL     OW24391   1.638   6.106   1.301
 7831SOL    HW124392   1.656   6.024   1.246
 7831SOL    HW224393   1.563   6.158   1.260
 7832SOL     OW24394   5.067   1.307   3.061
 7832SOL    HW124395   5.011   1.381   3.024
 7832SOL    HW224396   5.072   1.232   2.994
 7833SOL     OW24397   0.708   0.873   6.511
 7833SOL    HW124398   0.805   0.890   6.527
 7833SOL    HW224399   0.685   0.896   6.417
 7834SOL     OW24400   6.327   1.705   4.235
 7834SOL    HW124401   6.245   1.670   4.281
 7834SOL    HW224402   6.394   1.631   4.226
 7835SOL     OW24403   3.143   1.894   5.559
 7835SOL    HW124404   3.233   1.851   5.569
 7835SOL    HW224405   3.075   1.824   5.538
 7836SOL     OW24406   3.206   2.977   4.750
 7836SOL    HW124407   3.300   2.959   4.780
 7836SOL    HW224408   3.153   3.013   4.826
 7837SOL     OW24409   6.532   5.596   0.787
 7837SOL    HW124410   6.626   5.599   0.752
 7837SOL    HW224411   6.531   5.549   0.876
 7838SOL     OW24412   4.111   6.689   0.129
 7838SOL    HW124413   4.056   6.688   0.212
 7838SOL    HW224414   4.188   6.752   0.140
 7839SOL     OW24415   6.348   5.024   4.528
 7839SOL    HW124416   6.404   4.942   4.524
 7839SOL    HW224417   6.367   5.074   4.612
 7840SOL     OW24418   6.093   2.796   3.768
 7840SOL    HW124419   6.000   2.816   3.736
 7840SOL    HW224420   6.103   2.697   3.778
 7841SOL     OW24421   3.818   2.061   6.697
 7841SOL    HW124422   3.828   2.126   6.772
 7841SOL    HW224423   3.908   2.041   6.658
 7842SOL     OW24424   2.096   1.861   2.939
 7842SOL    HW124425   2.093   1.862   2.840
 7842SOL    HW224426   2.018   1.912   2.976
 7843SOL     OW24427   6.250   5.505   2.637
 7843SOL    HW124428   6.155   5.498   2.669
 7843SOL    HW224429   6.307   5.442   2.689
 7844SOL     OW24430   3.841   6.406   2.173
 7844SOL    HW124431   3.790   6.395   2.088
 7844SOL    HW224432   3.893   6.491   2.171
 7845SOL     OW24433   5.097   1.905   3.854
 7845SOL    HW124434   5.081   1.961   3.772
 7845SOL    HW224435   5.063   1.813   3.838
 7846SOL     OW24436   1.005   0.872   2.573
 7846SOL    HW124437   0.976   0.887   2.478
 7846SOL    HW224438   1.092   0.824   2.574
 7847SOL     OW24439   0.174   1.898   3.065
 7847SOL    HW124440   0.125   1.823   3.109
 7847SOL    HW224441   0.245   1.862   3.005
 7848SOL     OW24442   3.498   3.285   0.399
 7848SOL    HW124443   3.436   3.362   0.418
 7848SOL    HW224444   3.477   3.247   0.309
 7849SOL     OW24445   5.709   4.370   3.447
 7849SOL    HW124446   5.764   4.343   3.368
 7849SOL    HW224447   5.746   4.327   3.530
 7850SOL     OW24448   0.201   2.386   5.573
 7850SOL    HW124449   0.113   2.339   5.574
 7850SOL    HW224450   0.267   2.335   5.628
 7851SOL     OW24451   6.826   1.393   2.124
 7851SOL    HW124452   6.862   1.347   2.042
 7851SOL    HW224453   6.902   1.434   2.175
 7852SOL     OW24454   2.584   1.674   5.968
 7852SOL    HW124455   2.609   1.637   5.878
 7852SOL    HW224456   2.649   1.746   5.993
 7853SOL     OW24457   4.454   2.158   1.028
 7853SOL    HW124458   4.479   2.202   0.941
 7853SOL    HW224459   4.410   2.070   1.009
 7854SOL     OW24460   3.840   3.636   0.113
 7854SOL    HW124461   3.796   3.715   0.069
 7854SOL    HW224462   3.895   3.667   0.190
 7855SOL     OW24463   4.625   5.558   4.497
 7855SOL    HW124464   4.541   5.511   4.524
 7855SOL    HW224465   4.674   5.587   4.579
 7856SOL     OW24466   6.232   4.806   5.080
 7856SOL    HW124467   6.320   4.810   5.032
 7856SOL    HW224468   6.229   4.877   5.150
 7857SOL     OW24469   5.757   1.958   5.424
 7857SOL    HW124470   5.674   1.988   5.471
 7857SOL    HW224471   5.739   1.874   5.373
 7858SOL     OW24472   5.314   6.021   4.346
 7858SOL    HW124473   5.364   6.052   4.427
 7858SOL    HW224474   5.231   6.076   4.335
 7859SOL     OW24475   4.706   2.720   6.562
 7859SOL    HW124476   4.606   2.720   6.570
 7859SOL    HW224477   4.740   2.627   6.570
 7860SOL     OW24478   3.748   0.047   2.487
 7860SOL    HW124479   3.658   0.076   2.519
 7860SOL    HW224480   3.740   0.012   2.393
 7861SOL     OW24481   3.589   4.840   1.668
 7861SOL    HW124482   3.650   4.915   1.696
 7861SOL    HW224483   3.594   4.766   1.735
 7862SOL     OW24484   2.517   3.456   1.429
 7862SOL    HW124485   2.428   3.500   1.439
 7862SOL    HW224486   2.554   3.435   1.520
 7863SOL     OW24487   0.899   5.261   3.932
 7863SOL    HW124488   0.986   5.264   3.882
 7863SOL    HW224489   0.916   5.280   4.029
 7864SOL     OW24490   0.557   5.500   5.121
 7864SOL    HW124491   0.526   5.542   5.036
 7864SOL    HW224492   0.534   5.403   5.121
 7865SOL     OW24493   5.998   6.441   3.763
 7865SOL    HW124494   6.081   6.401   3.723
 7865SOL    HW224495   5.922   6.376   3.753
 7866SOL     OW24496   1.431   1.275   6.486
 7866SOL    HW124497   1.497   1.349   6.477
 7866SOL    HW224498   1.462   1.196   6.434
 7867SOL     OW24499   6.067   6.246   3.432
 7867SOL    HW124500   6.050   6.229   3.335
 7867SOL    HW224501   5.980   6.264   3.478
 7868SOL     OW24502   5.763   6.666   1.857
 7868SOL    HW124503   5.720   6.756   1.857
 7868SOL    HW224504   5.699   6.598   1.892
 7869SOL     OW24505   6.319   3.808   0.232
 7869SOL    HW124506   6.381   3.829   0.308
 7869SOL    HW224507   6.348   3.723   0.188
 7870SOL     OW24508   4.056   4.791   3.814
 7870SOL    HW124509   4.136   4.737   3.839
 7870SOL    HW224510   4.063   4.820   3.719
 7871SOL     OW24511   4.858   2.863   2.298
 7871SOL    HW124512   4.785   2.843   2.233
 7871SOL    HW224513   4.946   2.863   2.251
 7872SOL     OW24514   2.294   4.605   3.490
 7872SOL    HW124515   2.346   4.634   3.410
 7872SOL    HW224516   2.289   4.680   3.556
 7873SOL     OW24517   5.644   0.684   5.899
 7873SOL    HW124518   5.644   0.703   5.801
 7873SOL    HW224519   5.681   0.763   5.948
 7874SOL     OW24520   5.346   2.152   0.190
 7874SOL    HW124521   5.289   2.074   0.164
 7874SOL    HW224522   5.441   2.122   0.200
 7875SOL     OW24523   5.261   2.790   6.760
 7875SOL    HW124524   5.306   2.789   6.849
 7875SOL    HW224525   5.163   2.774   6.773
 7876SOL     OW24526   0.839   0.253   4.686
 7876SOL    HW124527   0.834   0.165   4.639
 7876SOL    HW224528   0.747   0.290   4.699
 7877SOL     OW24529   0.856   2.443   3.223
 7877SOL    HW124530   0.955   2.430   3.217
 7877SOL    HW224531   0.815   2.365   3.271
 7878SOL     OW24532   5.865   4.936   4.585
 7878SOL    HW124533   5.791   4.889   4.535
 7878SOL    HW224534   5.868   5.032   4.559
 7879SOL     OW24535   4.728   4.902   3.997
 7879SOL    HW124536   4.688   4.810   3.993
 7879SOL    HW224537   4.797   4.905   4.069
 7880SOL     OW24538   1.801   4.888   0.938
 7880SOL    HW124539   1.712   4.931   0.920
 7880SOL    HW224540   1.788   4.810   1.000
 7881SOL     OW24541   6.200   4.488   4.495
 7881SOL    HW124542   6.173   4.584   4.500
 7881SOL    HW224543   6.171   4.450   4.408
 7882SOL     OW24544   1.040   3.015   1.870
 7882SOL    HW124545   0.994   2.988   1.954
 7882SOL    HW224546   0.978   3.002   1.792
 7883SOL     OW24547   1.066   0.653   0.718
 7883SOL    HW124548   1.075   0.709   0.635
 7883SOL    HW224549   1.022   0.566   0.695
 7884SOL     OW24550   2.013   3.822   4.075
 7884SOL    HW124551   2.041   3.766   3.997
 7884SOL    HW224552   2.086   3.888   4.097
 7885SOL     OW24553   6.594   4.919   1.936
 7885SOL    HW124554   6.624   4.927   2.031
 7885SOL    HW224555   6.557   4.827   1.921
 7886SOL     OW24556   3.591   5.310   6.809
 7886SOL    HW124557   3.499   5.283   6.837
 7886SOL    HW224558   3.589   5.402   6.771
 7887SOL     OW24559   3.325   2.664   5.311
 7887SOL    HW124560   3.305   2.665   5.409
 7887SOL    HW224561   3.285   2.583   5.269
 7888SOL     OW24562   6.649   0.087   4.874
 7888SOL    HW124563   6.695   0.126   4.954
 7888SOL    HW224564   6.677   0.138   4.792
 7889SOL     OW24565   1.460   5.020   0.326
 7889SOL    HW124566   1.524   5.097   0.328
 7889SOL    HW224567   1.488   4.955   0.257
 7890SOL     OW24568   1.131   2.933   3.536
 7890SOL    HW124569   1.105   3.030   3.539
 7890SOL    HW224570   1.086   2.884   3.611
 7891SOL     OW24571   2.444   4.469   3.684
 7891SOL    HW124572   2.498   4.549   3.713
 7891SOL    HW224573   2.392   4.492   3.602
 7892SOL     OW24574   1.926   1.084   3.888
 7892SOL    HW124575   1.910   1.011   3.821
 7892SOL    HW224576   1.961   1.165   3.840
 7893SOL     OW24577   6.602   6.484   2.522
 7893SOL    HW124578   6.579   6.529   2.435
 7893SOL    HW224579   6.690   6.438   2.513
 7894SOL     OW24580   3.817   6.776   0.226
 7894SOL    HW124581   3.778   6.736   0.309
 7894SOL    HW224582   3.798   6.716   0.148
 7895SOL     OW24583   5.746   0.499   5.191
 7895SOL    HW124584   5.769   0.530   5.098
 7895SOL    HW224585   5.773   0.569   5.257
 7896SOL     OW24586   4.235   3.498   1.282
 7896SOL    HW124587   4.259   3.559   1.358
 7896SOL    HW224588   4.227   3.404   1.316
 7897SOL     OW24589   3.312   3.699   0.623
 7897SOL    HW124590   3.234   3.731   0.676
 7897SOL    HW224591   3.305   3.601   0.608
 7898SOL     OW24592   4.076   1.759   2.925
 7898SOL    HW124593   4.050   1.675   2.974
 7898SOL    HW224594   3.995   1.801   2.885
 7899SOL     OW24595   5.622   0.128   1.411
 7899SOL    HW124596   5.607   0.215   1.457
 7899SOL    HW224597   5.559   0.120   1.333
 7900SOL     OW24598   1.482   4.889   2.421
 7900SOL    HW124599   1.421   4.872   2.344
 7900SOL    HW224600   1.535   4.972   2.404
 7901SOL     OW24601   4.982   1.752   6.340
 7901SOL    HW124602   4.969   1.849   6.360
 7901SOL    HW224603   5.018   1.742   6.247
 7902SOL     OW24604   5.984   6.640   1.416
 7902SOL    HW124605   6.016   6.652   1.510
 7902SOL    HW224606   6.024   6.711   1.358
 7903SOL     OW24607   5.212   1.222   1.198
 7903SOL    HW124608   5.232   1.142   1.253
 7903SOL    HW224609   5.289   1.240   1.136
 7904SOL     OW24610   5.589   6.998   3.407
 7904SOL    HW124611   5.606   0.057   3.357
 7904SOL    HW224612   5.638   6.999   3.494
 7905SOL     OW24613   5.018   2.698   0.063
 7905SOL    HW124614   4.923   2.667   0.051
 7905SOL    HW224615   5.079   2.619   0.061
 7906SOL     OW24616   0.749   5.755   0.677
 7906SOL    HW124617   0.831   5.701   0.697
 7906SOL    HW224618   0.741   5.767   0.578
 7907SOL     OW24619   5.218   2.236   2.631
 7907SOL    HW124620   5.125   2.210   2.657
 7907SOL    HW224621   5.230   2.225   2.533
 7908SOL     OW24622   1.611   1.357   5.927
 7908SOL    HW124623   1.677   1.429   5.947
 7908SOL    HW224624   1.539   1.393   5.867
 7909SOL     OW24625   5.707   4.630   4.556
 7909SOL    HW124626   5.737   4.547   4.510
 7909SOL    HW224627   5.757   4.640   4.642
 7910SOL     OW24628   2.963   3.448   5.803
 7910SOL    HW124629   2.981   3.420   5.898
 7910SOL    HW224630   2.892   3.518   5.802
 7911SOL     OW24631   2.085   3.923   0.090
 7911SOL    HW124632   2.062   3.835   0.048
 7911SOL    HW224633   2.109   3.909   0.186
 7912SOL     OW24634   0.088   5.148   0.926
 7912SOL    HW124635   0.142   5.183   1.002
 7912SOL    HW224636   0.095   5.210   0.848
 7913SOL     OW24637   1.826   4.380   0.844
 7913SOL    HW124638   1.726   4.374   0.835
 7913SOL    HW224639   1.868   4.304   0.794
 7914SOL     OW24640   0.483   4.194   0.427
 7914SOL    HW124641   0.500   4.203   0.329
 7914SOL    HW224642   0.389   4.163   0.443
 7915SOL     OW24643   4.829   2.449   1.530
 7915SOL    HW124644   4.758   2.517   1.512
 7915SOL    HW224645   4.905   2.461   1.467
 7916SOL     OW24646   0.763   4.060   5.041
 7916SOL    HW124647   0.841   4.088   4.985
 7916SOL    HW224648   0.685   4.039   4.982
 7917SOL     OW24649   4.144   3.653   4.767
 7917SOL    HW124650   4.183   3.650   4.859
 7917SOL    HW224651   4.089   3.737   4.757
 7918SOL     OW24652   0.081   1.215   5.465
 7918SOL    HW124653   0.015   1.282   5.431
 7918SOL    HW224654   0.137   1.256   5.536
 7919SOL     OW24655   2.165   4.107   3.192
 7919SOL    HW124656   2.086   4.166   3.209
 7919SOL    HW224657   2.240   4.135   3.252
 7920SOL     OW24658   0.221   6.469   0.633
 7920SOL    HW124659   0.187   6.377   0.652
 7920SOL    HW224660   0.321   6.469   0.637
 7921SOL     OW24661   5.402   6.604   0.973
 7921SOL    HW124662   5.312   6.597   0.930
 7921SOL    HW224663   5.391   6.620   1.071
 7922SOL     OW24664   6.999   6.667   0.665
 7922SOL    HW124665   6.994   6.622   0.576
 7922SOL    HW224666   0.058   6.640   0.712
 7923SOL     OW24667   3.612   6.926   1.663
 7923SOL    HW124668   3.603   6.905   1.565
 7923SOL    HW224669   3.522   6.923   1.706
 7924SOL     OW24670   4.418   6.926   1.614
 7924SOL    HW124671   4.396   6.879   1.700
 7924SOL    HW224672   4.337   6.975   1.582
 7925SOL     OW24673   0.880   1.735   6.353
 7925SOL    HW124674   0.883   1.660   6.286
 7925SOL    HW224675   0.819   1.710   6.428
 7926SOL     OW24676   4.821   1.723   5.485
 7926SOL    HW124677   4.868   1.805   5.517
 7926SOL    HW224678   4.780   1.741   5.396
 7927SOL     OW24679   4.143   5.409   2.213
 7927SOL    HW124680   4.231   5.452   2.194
 7927SOL    HW224681   4.076   5.480   2.237
 7928SOL     OW24682   1.384   1.933   4.741
 7928SOL    HW124683   1.336   1.880   4.811
 7928SOL    HW224684   1.320   1.960   4.669
 7929SOL     OW24685   4.310   4.807   5.865
 7929SOL    HW124686   4.272   4.888   5.908
 7929SOL    HW224687   4.387   4.773   5.919
 7930SOL     OW24688   4.307   5.204   4.543
 7930SOL    HW124689   4.367   5.195   4.623
 7930SOL    HW224690   4.260   5.117   4.527
 7931SOL     OW24691   2.196   2.608   0.063
 7931SOL    HW124692   2.156   2.568   0.145
 7931SOL    HW224693   2.290   2.574   0.052
 7932SOL     OW24694   1.428   6.436   6.305
 7932SOL    HW124695   1.497   6.466   6.371
 7932SOL    HW224696   1.337   6.444   6.346
 7933SOL     OW24697   0.338   6.005   5.855
 7933SOL    HW124698   0.428   6.003   5.897
 7933SOL    HW224699   0.281   6.074   5.902
 7934SOL     OW24700   2.696   5.124   6.964
 7934SOL    HW124701   2.710   5.038   6.914
 7934SOL    HW224702   2.618   5.173   6.927
 7935SOL     OW24703   6.030   5.753   0.580
 7935SOL    HW124704   6.099   5.825   0.581
 7935SOL    HW224705   6.073   5.665   0.558
 7936SOL     OW24706   3.999   6.163   2.136
 7936SOL    HW124707   4.008   6.120   2.046
 7936SOL    HW224708   3.929   6.234   2.132
 7937SOL     OW24709   6.823   6.277   3.231
 7937SOL    HW124710   6.921   6.293   3.242
 7937SOL    HW224711   6.801   6.184   3.262
 7938SOL     OW24712   6.320   5.260   3.849
 7938SOL    HW124713   6.350   5.245   3.944
 7938SOL    HW224714   6.339   5.354   3.822
 7939SOL     OW24715   1.475   2.815   5.694
 7939SOL    HW124716   1.572   2.826   5.672
 7939SOL    HW224717   1.436   2.904   5.719
 7940SOL     OW24718   1.761   3.162   2.145
 7940SOL    HW124719   1.669   3.183   2.113
 7940SOL    HW224720   1.817   3.131   2.068
 7941SOL     OW24721   5.357   1.370   0.873
 7941SOL    HW124722   5.374   1.276   0.901
 7941SOL    HW224723   5.294   1.370   0.795
 7942SOL     OW24724   6.513   6.084   2.611
 7942SOL    HW124725   6.512   6.137   2.695
 7942SOL    HW224726   6.432   6.105   2.556
 7943SOL     OW24727   6.258   3.403   0.529
 7943SOL    HW124728   6.346   3.419   0.485
 7943SOL    HW224729   6.184   3.417   0.463
 7944SOL     OW24730   0.146   2.363   1.460
 7944SOL    HW124731   0.053   2.328   1.467
 7944SOL    HW224732   0.200   2.303   1.401
 7945SOL     OW24733   5.983   5.446   1.540
 7945SOL    HW124734   5.990   5.356   1.498
 7945SOL    HW224735   6.047   5.509   1.496
 7946SOL     OW24736   2.249   1.149   5.240
 7946SOL    HW124737   2.260   1.118   5.146
 7946SOL    HW224738   2.233   1.248   5.241
 7947SOL     OW24739   4.044   1.805   6.145
 7947SOL    HW124740   4.141   1.819   6.167
 7947SOL    HW224741   4.014   1.875   6.080
 7948SOL     OW24742   1.058   6.986   0.972
 7948SOL    HW124743   1.148   6.941   0.969
 7948SOL    HW224744   0.993   6.926   1.020
 7949SOL     OW24745   4.369   4.766   4.916
 7949SOL    HW124746   4.457   4.807   4.939
 7949SOL    HW224747   4.357   4.681   4.968
 7950SOL     OW24748   5.499   5.186   4.440
 7950SOL    HW124749   5.419   5.155   4.389
 7950SOL    HW224750   5.573   5.120   4.429
 7951SOL     OW24751   2.200   4.037   1.784
 7951SOL    HW124752   2.256   4.103   1.734
 7951SOL    HW224753   2.253   3.954   1.802
 7952SOL     OW24754   0.824   3.489   0.072
 7952SOL    HW124755   0.881   3.435   0.010
 7952SOL    HW224756   0.790   3.570   0.024
 7953SOL     OW24757   2.125   2.429   4.227
 7953SOL    HW124758   2.119   2.471   4.317
 7953SOL    HW224759   2.204   2.466   4.178
 7954SOL     OW24760   4.315   4.222   6.018
 7954SOL    HW124761   4.246   4.280   6.060
 7954SOL    HW224762   4.365   4.275   5.949
 7955SOL     OW24763   1.538   6.696   6.780
 7955SOL    HW124764   1.527   6.705   6.681
 7955SOL    HW224765   1.506   6.606   6.810
 7956SOL     OW24766   3.784   5.961   2.624
 7956SOL    HW124767   3.880   5.984   2.635
 7956SOL    HW224768   3.731   6.004   2.698
 7957SOL     OW24769   1.181   0.664   1.923
 7957SOL    HW124770   1.114   0.616   1.866
 7957SOL    HW224771   1.196   0.756   1.886
 7958SOL     OW24772   3.613   4.924   4.643
 7958SOL    HW124773   3.613   4.830   4.674
 7958SOL    HW224774   3.603   4.986   4.721
 7959SOL     OW24775   4.337   5.818   0.846
 7959SOL    HW124776   4.353   5.906   0.890
 7959SOL    HW224777   4.308   5.751   0.915
 7960SOL     OW24778   2.600   1.165   0.104
 7960SOL    HW124779   2.539   1.092   0.075
 7960SOL    HW224780   2.666   1.185   0.032
 7961SOL     OW24781   7.006   0.908   1.061
 7961SOL    HW124782   7.011   1.000   1.022
 7961SOL    HW224783   0.011   0.910   1.156
 7962SOL     OW24784   1.122   0.612   6.848
 7962SOL    HW124785   1.114   0.518   6.882
 7962SOL    HW224786   1.135   0.675   6.925
 7963SOL     OW24787   6.597   6.798   3.897
 7963SOL    HW124788   6.548   6.733   3.956
 7963SOL    HW224789   6.695   6.792   3.915
 7964SOL     OW24790   0.378   4.865   3.614
 7964SOL    HW124791   0.465   4.836   3.653
 7964SOL    HW224792   0.353   4.803   3.539
 7965SOL     OW24793   3.666   2.452   6.059
 7965SOL    HW124794   3.653   2.357   6.029
 7965SOL    HW224795   3.763   2.475   6.054
 7966SOL     OW24796   1.048   2.790   5.541
 7966SOL    HW124797   0.969   2.795   5.602
 7966SOL    HW224798   1.107   2.870   5.555
 7967SOL     OW24799   2.615   6.475   3.469
 7967SOL    HW124800   2.536   6.482   3.530
 7967SOL    HW224801   2.627   6.379   3.441
 7968SOL     OW24802   1.940   2.840   3.822
 7968SOL    HW124803   1.945   2.789   3.736
 7968SOL    HW224804   2.026   2.829   3.871
 7969SOL     OW24805   3.952   6.029   0.668
 7969SOL    HW124806   4.049   6.011   0.680
 7969SOL    HW224807   3.939   6.092   0.591
 7970SOL     OW24808   6.649   2.752   2.767
 7970SOL    HW124809   6.561   2.721   2.729
 7970SOL    HW224810   6.683   2.683   2.831
 7971SOL     OW24811   4.146   1.987   0.509
 7971SOL    HW124812   4.201   1.998   0.427
 7971SOL    HW224813   4.198   2.018   0.589
 7972SOL     OW24814   1.870   3.131   0.814
 7972SOL    HW124815   1.948   3.126   0.751
 7972SOL    HW224816   1.873   3.054   0.877
 7973SOL     OW24817   4.346   4.973   4.169
 7973SOL    HW124818   4.306   5.062   4.192
 7973SOL    HW224819   4.422   4.986   4.105
 7974SOL     OW24820   6.201   1.684   5.506
 7974SOL    HW124821   6.158   1.749   5.443
 7974SOL    HW224822   6.164   1.592   5.490
 7975SOL     OW24823   6.031   1.220   2.369
 7975SOL    HW124824   5.942   1.251   2.338
 7975SOL    HW224825   6.085   1.299   2.400
 7976SOL     OW24826   0.920   0.746   6.241
 7976SOL    HW124827   0.975   0.719   6.321
 7976SOL    HW224828   0.861   0.823   6.266
 7977SOL     OW24829   4.821   6.239   1.809
 7977SOL    HW124830   4.890   6.255   1.880
 7977SOL    HW224831   4.832   6.307   1.736
 7978SOL     OW24832   6.187   3.578   6.831
 7978SOL    HW124833   6.179   3.479   6.829
 7978SOL    HW224834   6.204   3.612   6.739
 7979SOL     OW24835   4.361   6.220   5.270
 7979SOL    HW124836   4.302   6.139   5.266
 7979SOL    HW224837   4.329   6.282   5.342
 7980SOL     OW24838   2.697   5.194   6.532
 7980SOL    HW124839   2.682   5.201   6.433
 7980SOL    HW224840   2.693   5.098   6.559
 7981SOL     OW24841   0.659   5.744   1.710
 7981SOL    HW124842   0.599   5.815   1.746
 7981SOL    HW224843   0.733   5.786   1.657
 7982SOL     OW24844   0.229   1.592   6.925
 7982SOL    HW124845   0.200   1.630   7.013
 7982SOL    HW224846   0.301   1.525   6.940
 7983SOL     OW24847   5.965   1.928   1.914
 7983SOL    HW124848   5.956   1.839   1.868
 7983SOL    HW224849   5.875   1.959   1.944
 7984SOL     OW24850   1.552   1.114   0.918
 7984SOL    HW124851   1.571   1.210   0.901
 7984SOL    HW224852   1.536   1.099   1.015
 7985SOL     OW24853   2.788   0.775   3.573
 7985SOL    HW124854   2.711   0.750   3.632
 7985SOL    HW224855   2.815   0.870   3.592
 7986SOL     OW24856   3.110   1.400   6.816
 7986SOL    HW124857   3.120   1.399   6.915
 7986SOL    HW224858   3.128   1.492   6.781
 7987SOL     OW24859   1.476   2.888   6.420
 7987SOL    HW124860   1.520   2.835   6.349
 7987SOL    HW224861   1.448   2.977   6.384
 7988SOL     OW24862   0.813   2.447   4.024
 7988SOL    HW124863   0.909   2.439   4.052
 7988SOL    HW224864   0.808   2.463   3.926
 7989SOL     OW24865   3.493   2.906   5.567
 7989SOL    HW124866   3.545   2.846   5.628
 7989SOL    HW224867   3.536   2.996   5.564
 7990SOL     OW24868   6.938   2.953   3.748
 7990SOL    HW124869   6.928   3.003   3.834
 7990SOL    HW224870   6.960   3.018   3.675
 7991SOL     OW24871   5.941   6.718   3.825
 7991SOL    HW124872   5.956   6.621   3.804
 7991SOL    HW224873   6.007   6.774   3.775
 7992SOL     OW24874   1.746   6.316   1.761
 7992SOL    HW124875   1.730   6.323   1.860
 7992SOL    HW224876   1.664   6.344   1.712
 7993SOL     OW24877   0.322   6.858   6.353
 7993SOL    HW124878   0.305   6.955   6.338
 7993SOL    HW224879   0.316   6.837   6.451
 7994SOL     OW24880   4.474   6.494   2.964
 7994SOL    HW124881   4.449   6.540   3.049
 7994SOL    HW224882   4.470   6.395   2.977
 7995SOL     OW24883   4.704   5.273   3.756
 7995SOL    HW124884   4.778   5.222   3.712
 7995SOL    HW224885   4.730   5.294   3.850
 7996SOL     OW24886   3.420   7.011   4.674
 7996SOL    HW124887   3.337   6.954   4.666
 7996SOL    HW224888   3.395   0.082   4.667
 7997SOL     OW24889   0.620   1.572   1.594
 7997SOL    HW124890   0.712   1.601   1.620
 7997SOL    HW224891   0.597   1.488   1.644
 7998SOL     OW24892   2.990   5.785   1.285
 7998SOL    HW124893   2.981   5.762   1.382
 7998SOL    HW224894   3.044   5.715   1.239
 7999SOL     OW24895   0.383   0.006   6.030
 7999SOL    HW124896   0.354   0.093   5.989
 7999SOL    HW224897   0.481   0.009   6.049
 8000SOL     OW24898   5.312   0.332   6.953
 8000SOL    HW124899   5.336   0.395   0.001
 8000SOL    HW224900   5.227   0.285   6.976
 8001SOL     OW24901   3.322   5.955   1.260
 8001SOL    HW124902   3.225   5.981   1.258
 8001SOL    HW224903   3.375   6.028   1.302
 8002SOL     OW24904   0.812   2.383   6.086
 8002SOL    HW124905   0.834   2.368   6.183
 8002SOL    HW224906   0.892   2.422   6.040
 8003SOL     OW24907   3.238   5.084   2.674
 8003SOL    HW124908   3.171   5.018   2.638
 8003SOL    HW224909   3.315   5.036   2.714
 8004SOL     OW24910   2.098   3.176   3.856
 8004SOL    HW124911   2.153   3.093   3.870
 8004SOL    HW224912   2.003   3.150   3.840
 8005SOL     OW24913   3.383   0.460   2.009
 8005SOL    HW124914   3.289   0.425   2.003
 8005SOL    HW224915   3.413   0.457   2.105
 8006SOL     OW24916   2.072   0.128   6.628
 8006SOL    HW124917   2.003   0.058   6.645
 8006SOL    HW224918   2.113   0.156   6.715
 8007SOL     OW24919   6.443   0.880   4.436
 8007SOL    HW124920   6.524   0.843   4.483
 8007SOL    HW224921   6.470   0.953   4.374
 8008SOL     OW24922   4.618   5.954   5.833
 8008SOL    HW124923   4.525   5.974   5.803
 8008SOL    HW224924   4.659   6.037   5.871
 8009SOL     OW24925   5.881   1.190   3.095
 8009SOL    HW124926   5.901   1.257   3.024
 8009SOL    HW224927   5.809   1.128   3.062
 8010SOL     OW24928   0.699   1.120   6.911
 8010SOL    HW124929   0.789   1.102   6.871
 8010SOL    HW224930   0.710   1.158   7.002
 8011SOL     OW24931   3.347   2.357   0.727
 8011SOL    HW124932   3.255   2.384   0.699
 8011SOL    HW224933   3.413   2.390   0.659
 8012SOL     OW24934   1.826   3.893   1.365
 8012SOL    HW124935   1.910   3.863   1.319
 8012SOL    HW224936   1.821   3.853   1.456
 8013SOL     OW24937   1.168   5.167   3.603
 8013SOL    HW124938   1.252   5.204   3.562
 8013SOL    HW224939   1.134   5.092   3.546
 8014SOL     OW24940   1.345   6.660   5.236
 8014SOL    HW124941   1.340   6.747   5.187
 8014SOL    HW224942   1.258   6.611   5.226
 8015SOL     OW24943   2.332   0.749   0.234
 8015SOL    HW124944   2.341   0.843   0.267
 8015SOL    HW224945   2.345   0.747   0.135
 8016SOL     OW24946   5.707   0.437   5.963
 8016SOL    HW124947   5.772   0.443   6.038
 8016SOL    HW224948   5.673   0.528   5.940
 8017SOL     OW24949   6.170   6.913   0.817
 8017SOL    HW124950   6.249   6.972   0.834
 8017SOL    HW224951   6.162   6.844   0.889
 8018SOL     OW24952   3.195   2.172   5.586
 8018SOL    HW124953   3.229   2.217   5.504
 8018SOL    HW224954   3.140   2.092   5.560
 8019SOL     OW24955   2.204   4.384   6.335
 8019SOL    HW124956   2.170   4.307   6.282
 8019SOL    HW224957   2.181   4.469   6.288
 8020SOL     OW24958   5.948   0.008   0.688
 8020SOL    HW124959   6.021   6.986   0.737
 8020SOL    HW224960   5.910   0.080   0.747
 8021SOL     OW24961   1.587   2.164   1.178
 8021SOL    HW124962   1.573   2.254   1.219
 8021SOL    HW224963   1.665   2.168   1.116
 8022SOL     OW24964   5.304   6.449   2.869
 8022SOL    HW124965   5.279   6.362   2.828
 8022SOL    HW224966   5.273   6.451   2.964
 8023SOL     OW24967   6.154   5.332   2.927
 8023SOL    HW124968   6.171   5.327   3.026
 8023SOL    HW224969   6.162   5.240   2.888
 8024SOL     OW24970   2.948   5.137   6.731
 8024SOL    HW124971   2.859   5.176   6.708
 8024SOL    HW224972   2.982   5.180   6.815
 8025SOL     OW24973   2.434   6.562   0.223
 8025SOL    HW124974   2.470   6.614   0.300
 8025SOL    HW224975   2.509   6.534   0.163
 8026SOL     OW24976   0.737   4.279   6.659
 8026SOL    HW124977   0.823   4.236   6.686
 8026SOL    HW224978   0.686   4.217   6.599
 8027SOL     OW24979   4.721   0.958   5.498
 8027SOL    HW124980   4.755   0.980   5.406
 8027SOL    HW224981   4.799   0.947   5.560
 8028SOL     OW24982   3.152   5.168   4.685
 8028SOL    HW124983   3.115   5.140   4.597
 8028SOL    HW224984   3.081   5.213   4.739
 8029SOL     OW24985   4.822   3.122   1.320
 8029SOL    HW124986   4.827   3.036   1.370
 8029SOL    HW224987   4.727   3.151   1.313
 8030SOL     OW24988   4.219   4.619   0.452
 8030SOL    HW124989   4.123   4.646   0.454
 8030SOL    HW224990   4.243   4.588   0.359
 8031SOL     OW24991   5.387   6.832   2.518
 8031SOL    HW124992   5.295   6.793   2.512
 8031SOL    HW224993   5.453   6.759   2.536
 8032SOL     OW24994   6.545   5.078   0.249
 8032SOL    HW124995   6.640   5.104   0.270
 8032SOL    HW224996   6.499   5.051   0.333
 8033SOL     OW24997   5.108   2.413   5.789
 8033SOL    HW124998   5.148   2.479   5.725
 8033SOL    HW224999   5.179   2.349   5.820
 8034SOL     OW25000   5.982   6.897   5.012
 8034SOL    HW125001   5.947   6.825   5.073
 8034SOL    HW225002   5.926   6.979   5.021
 8035SOL     OW25003   5.075   1.897   4.398
 8035SOL    HW125004   5.025   1.886   4.312
 8035SOL    HW225005   5.168   1.927   4.378
 8036SOL     OW25006   0.731   4.269   2.838
 8036SOL    HW125007   0.637   4.237   2.828
 8036SOL    HW225008   0.736   4.339   2.909
 8037SOL     OW25009   1.689   2.971   1.234
 8037SOL    HW125010   1.603   3.000   1.276
 8037SOL    HW225011   1.697   3.012   1.143
 8038SOL     OW25012   3.609   0.388   2.544
 8038SOL    HW125013   3.701   0.359   2.518
 8038SOL    HW225014   3.549   0.384   2.464
 8039SOL     OW25015   0.526   2.037   4.336
 8039SOL    HW125016   0.551   2.000   4.425
 8039SOL    HW225017   0.606   2.082   4.296
 8040SOL     OW25018   1.793   6.132   0.014
 8040SOL    HW125019   1.699   6.159   0.037
 8040SOL    HW225020   1.804   6.034   0.030
 8041SOL     OW25021   2.979   0.998   2.023
 8041SOL    HW125022   3.035   0.991   1.941
 8041SOL    HW225023   2.900   1.057   2.005
 8042SOL     OW25024   2.941   3.425   3.687
 8042SOL    HW125025   2.866   3.368   3.720
 8042SOL    HW225026   2.915   3.521   3.691
 8043SOL     OW25027   3.934   6.846   2.302
 8043SOL    HW125028   3.847   6.878   2.263
 8043SOL    HW225029   3.919   6.817   2.397
 8044SOL     OW25030   3.930   2.777   1.166
 8044SOL    HW125031   4.003   2.709   1.161
 8044SOL    HW225032   3.966   2.861   1.206
 8045SOL     OW25033   5.119   1.183   1.915
 8045SOL    HW125034   5.219   1.182   1.920
 8045SOL    HW225035   5.088   1.276   1.896
 8046SOL     OW25036   0.455   5.416   0.875
 8046SOL    HW125037   0.411   5.467   0.802
 8046SOL    HW225038   0.398   5.420   0.958
 8047SOL     OW25039   3.958   5.692   4.384
 8047SOL    HW125040   4.021   5.742   4.444
 8047SOL    HW225041   3.980   5.595   4.388
 8048SOL     OW25042   5.426   1.164   5.808
 8048SOL    HW125043   5.416   1.235   5.879
 8048SOL    HW225044   5.357   1.093   5.821
 8049SOL     OW25045   0.607   0.305   6.798
 8049SOL    HW125046   0.621   0.210   6.770
 8049SOL    HW225047   0.510   0.321   6.818
 8050SOL     OW25048   1.745   3.683   3.087
 8050SOL    HW125049   1.657   3.715   3.123
 8050SOL    HW225050   1.812   3.758   3.090
 8051SOL     OW25051   4.303   5.617   2.784
 8051SOL    HW125052   4.248   5.567   2.717
 8051SOL    HW225053   4.326   5.557   2.860
 8052SOL     OW25054   4.552   1.877   1.880
 8052SOL    HW125055   4.586   1.938   1.808
 8052SOL    HW225056   4.461   1.844   1.856
 8053SOL     OW25057   2.928   3.774   3.128
 8053SOL    HW125058   2.981   3.853   3.159
 8053SOL    HW225059   2.878   3.736   3.206
 8054SOL     OW25060   4.998   0.434   4.740
 8054SOL    HW125061   4.998   0.338   4.770
 8054SOL    HW225062   4.928   0.446   4.670
 8055SOL     OW25063   0.365   0.160   5.263
 8055SOL    HW125064   0.322   0.245   5.294
 8055SOL    HW225065   0.456   0.152   5.305
 8056SOL     OW25066   3.351   1.961   4.239
 8056SOL    HW125067   3.303   1.953   4.326
 8056SOL    HW225068   3.377   2.056   4.224
 8057SOL     OW25069   2.795   1.737   3.262
 8057SOL    HW125070   2.867   1.779   3.207
 8057SOL    HW225071   2.735   1.683   3.203
 8058SOL     OW25072   4.528   0.590   1.705
 8058SOL    HW125073   4.450   0.593   1.643
 8058SOL    HW225074   4.569   0.681   1.712
 8059SOL     OW25075   4.000   1.475   4.747
 8059SOL    HW125076   3.935   1.551   4.754
 8059SOL    HW225077   3.988   1.429   4.659
 8060SOL     OW25078   6.412   2.273   3.797
 8060SOL    HW125079   6.382   2.296   3.705
 8060SOL    HW225080   6.504   2.233   3.793
 8061SOL     OW25081   0.528   1.284   3.065
 8061SOL    HW125082   0.620   1.281   3.104
 8061SOL    HW225083   0.496   1.191   3.048
 8062SOL     OW25084   3.414   5.290   4.357
 8062SOL    HW125085   3.317   5.314   4.353
 8062SOL    HW225086   3.424   5.191   4.343
 8063SOL     OW25087   0.937   2.119   1.331
 8063SOL    HW125088   0.903   2.186   1.397
 8063SOL    HW225089   1.037   2.120   1.330
 8064SOL     OW25090   0.632   4.183   1.931
 8064SOL    HW125091   0.674   4.099   1.900
 8064SOL    HW225092   0.563   4.212   1.865
 8065SOL     OW25093   2.980   5.843   3.914
 8065SOL    HW125094   2.979   5.893   4.001
 8065SOL    HW225095   2.887   5.821   3.887
 8066SOL     OW25096   0.031   2.141   5.643
 8066SOL    HW125097   6.983   2.168   5.705
 8066SOL    HW225098   0.005   2.058   5.594
 8067SOL     OW25099   4.536   2.734   1.816
 8067SOL    HW125100   4.544   2.830   1.843
 8067SOL    HW225101   4.585   2.677   1.882
 8068SOL     OW25102   0.229   4.287   0.972
 8068SOL    HW125103   0.171   4.368   0.985
 8068SOL    HW225104   0.313   4.314   0.925
 8069SOL     OW25105   1.810   6.309   1.148
 8069SOL    HW125106   1.756   6.224   1.149
 8069SOL    HW225107   1.862   6.314   1.063
 8070SOL     OW25108   3.393   3.227   0.152
 8070SOL    HW125109   3.404   3.325   0.137
 8070SOL    HW225110   3.297   3.208   0.174
 8071SOL     OW25111   2.694   6.196   4.864
 8071SOL    HW125112   2.644   6.177   4.779
 8071SOL    HW225113   2.697   6.113   4.920
 8072SOL     OW25114   3.262   0.869   0.105
 8072SOL    HW125115   3.212   0.784   0.095
 8072SOL    HW225116   3.202   0.938   0.145
 8073SOL     OW25117   3.443   5.930   4.894
 8073SOL    HW125118   3.440   5.922   4.794
 8073SOL    HW225119   3.538   5.937   4.924
 8074SOL     OW25120   3.896   2.397   0.634
 8074SOL    HW125121   3.839   2.457   0.691
 8074SOL    HW225122   3.965   2.353   0.692
 8075SOL     OW25123   0.204   0.958   0.584
 8075SOL    HW125124   0.114   0.987   0.616
 8075SOL    HW225125   0.202   0.862   0.559
 8076SOL     OW25126   6.072   1.969   5.541
 8076SOL    HW125127   5.998   1.928   5.489
 8076SOL    HW225128   6.143   2.001   5.479
 8077SOL     OW25129   2.638   5.594   1.499
 8077SOL    HW125130   2.557   5.588   1.441
 8077SOL    HW225131   2.645   5.511   1.556
 8078SOL     OW25132   6.539   1.620   0.455
 8078SOL    HW125133   6.536   1.689   0.382
 8078SOL    HW225134   6.566   1.532   0.416
 8079SOL     OW25135   4.738   1.327   3.162
 8079SOL    HW125136   4.752   1.422   3.135
 8079SOL    HW225137   4.746   1.319   3.261
 8080SOL     OW25138   0.405   3.057   0.397
 8080SOL    HW125139   0.391   2.975   0.343
 8080SOL    HW225140   0.446   3.033   0.485
 8081SOL     OW25141   5.277   6.600   4.650
 8081SOL    HW125142   5.243   6.518   4.697
 8081SOL    HW225143   5.298   6.671   4.717
 8082SOL     OW25144   4.962   6.514   1.973
 8082SOL    HW125145   4.874   6.555   1.949
 8082SOL    HW225146   4.947   6.420   2.006
 8083SOL     OW25147   5.071   4.144   2.652
 8083SOL    HW125148   5.153   4.093   2.626
 8083SOL    HW225149   5.094   4.210   2.724
 8084SOL     OW25150   4.905   0.273   0.472
 8084SOL    HW125151   4.920   0.268   0.374
 8084SOL    HW225152   4.846   0.350   0.494
 8085SOL     OW25153   5.993   6.402   2.217
 8085SOL    HW125154   5.903   6.371   2.188
 8085SOL    HW225155   5.989   6.500   2.239
 8086SOL     OW25156   4.737   0.727   3.167
 8086SOL    HW125157   4.821   0.696   3.212
 8086SOL    HW225158   4.724   0.824   3.184
 8087SOL     OW25159   2.575   1.276   0.442
 8087SOL    HW125160   2.615   1.289   0.532
 8087SOL    HW225161   2.477   1.296   0.445
 8088SOL     OW25162   5.270   2.707   1.691
 8088SOL    HW125163   5.240   2.782   1.632
 8088SOL    HW225164   5.207   2.701   1.769
 8089SOL     OW25165   5.254   2.224   0.711
 8089SOL    HW125166   5.204   2.165   0.648
 8089SOL    HW225167   5.343   2.247   0.671
 8090SOL     OW25168   4.920   1.703   0.064
 8090SOL    HW125169   4.945   1.621   0.116
 8090SOL    HW225170   4.938   1.688   6.993
 8091SOL     OW25171   2.474   3.698   6.005
 8091SOL    HW125172   2.423   3.616   6.032
 8091SOL    HW225173   2.550   3.712   6.069
 8092SOL     OW25174   6.656   2.683   5.050
 8092SOL    HW125175   6.650   2.614   5.122
 8092SOL    HW225176   6.711   2.648   4.975
 8093SOL     OW25177   4.521   5.216   2.803
 8093SOL    HW125178   4.609   5.226   2.850
 8093SOL    HW225179   4.534   5.163   2.719
 8094SOL     OW25180   1.525   3.733   5.033
 8094SOL    HW125181   1.590   3.659   5.015
 8094SOL    HW225182   1.574   3.813   5.069
 8095SOL     OW25183   6.512   4.371   5.315
 8095SOL    HW125184   6.490   4.421   5.399
 8095SOL    HW225185   6.499   4.431   5.236
 8096SOL     OW25186   2.594   6.190   3.420
 8096SOL    HW125187   2.599   6.141   3.508
 8096SOL    HW225188   2.603   6.124   3.345
 8097SOL     OW25189   4.465   6.826   3.741
 8097SOL    HW125190   4.559   6.793   3.754
 8097SOL    HW225191   4.402   6.762   3.785
 8098SOL     OW25192   1.886   6.907   3.712
 8098SOL    HW125193   1.868   6.833   3.648
 8098SOL    HW225194   1.854   6.993   3.672
 8099SOL     OW25195   4.625   0.426   4.062
 8099SOL    HW125196   4.540   0.378   4.083
 8099SOL    HW225197   4.630   0.511   4.114
 8100SOL     OW25198   5.740   6.966   0.458
 8100SOL    HW125199   5.785   6.934   0.542
 8100SOL    HW225200   5.715   0.037   0.469
 8101SOL     OW25201   2.123   0.432   3.632
 8101SOL    HW125202   2.093   0.344   3.669
 8101SOL    HW225203   2.090   0.442   3.538
 8102SOL     OW25204   0.657   5.019   4.118
 8102SOL    HW125205   0.647   5.114   4.149
 8102SOL    HW225206   0.750   4.988   4.137
 8103SOL     OW25207   4.152   0.241   1.250
 8103SOL    HW125208   4.222   0.292   1.300
 8103SOL    HW225209   4.062   0.280   1.269
 8104SOL     OW25210   3.097   0.518   6.005
 8104SOL    HW125211   3.160   0.503   5.929
 8104SOL    HW225212   3.143   0.571   6.076
 8105SOL     OW25213   0.829   2.346   3.595
 8105SOL    HW125214   0.757   2.333   3.527
 8105SOL    HW225215   0.806   2.423   3.654
 8106SOL     OW25216   2.051   6.126   2.936
 8106SOL    HW125217   2.091   6.153   2.849
 8106SOL    HW225218   2.020   6.031   2.931
 8107SOL     OW25219   0.327   5.564   4.530
 8107SOL    HW125220   0.383   5.484   4.511
 8107SOL    HW225221   0.354   5.639   4.469
 8108SOL     OW25222   6.147   3.247   5.350
 8108SOL    HW125223   6.203   3.171   5.318
 8108SOL    HW225224   6.117   3.301   5.272
 8109SOL     OW25225   1.784   3.940   4.047
 8109SOL    HW125226   1.749   3.914   3.957
 8109SOL    HW225227   1.881   3.914   4.053
 8110SOL     OW25228   3.127   6.280   0.623
 8110SOL    HW125229   3.063   6.327   0.685
 8110SOL    HW225230   3.101   6.298   0.528
 8111SOL     OW25231   3.930   0.514   4.473
 8111SOL    HW125232   3.911   0.565   4.389
 8111SOL    HW225233   3.900   0.419   4.462
 8112SOL     OW25234   2.246   2.401   4.611
 8112SOL    HW125235   2.214   2.310   4.636
 8112SOL    HW225236   2.320   2.393   4.544
 8113SOL     OW25237   3.151   3.205   1.026
 8113SOL    HW125238   3.190   3.113   1.021
 8113SOL    HW225239   3.052   3.200   1.014
 8114SOL     OW25240   2.271   3.791   1.859
 8114SOL    HW125241   2.288   3.709   1.803
 8114SOL    HW225242   2.211   3.767   1.935
 8115SOL     OW25243   3.469   0.257   0.294
 8115SOL    HW125244   3.501   0.297   0.208
 8115SOL    HW225245   3.373   0.231   0.285
 8116SOL     OW25246   4.740   6.015   5.561
 8116SOL    HW125247   4.732   5.915   5.569
 8116SOL    HW225248   4.659   6.058   5.600
 8117SOL     OW25249   1.863   1.104   4.165
 8117SOL    HW125250   1.869   1.202   4.185
 8117SOL    HW225251   1.893   1.087   4.071
 8118SOL     OW25252   5.703   3.725   5.970
 8118SOL    HW125253   5.754   3.667   6.033
 8118SOL    HW225254   5.638   3.782   6.021
 8119SOL     OW25255   6.167   6.321   5.330
 8119SOL    HW125256   6.109   6.401   5.313
 8119SOL    HW225257   6.263   6.347   5.324
 8120SOL     OW25258   2.454   4.783   6.736
 8120SOL    HW125259   2.406   4.704   6.696
 8120SOL    HW225260   2.505   4.831   6.664
 8121SOL     OW25261   0.426   4.581   1.619
 8121SOL    HW125262   0.515   4.537   1.628
 8121SOL    HW225263   0.396   4.578   1.524
 8122SOL     OW25264   1.762   5.806   2.176
 8122SOL    HW125265   1.723   5.833   2.088
 8122SOL    HW225266   1.833   5.737   2.160
 8123SOL     OW25267   6.905   0.569   7.002
 8123SOL    HW125268   6.919   0.480   0.020
 8123SOL    HW225269   6.993   0.604   6.969
 8124SOL     OW25270   0.114   6.072   1.023
 8124SOL    HW125271   0.150   6.128   1.098
 8124SOL    HW225272   0.045   6.009   1.058
 8125SOL     OW25273   1.209   0.649   3.905
 8125SOL    HW125274   1.295   0.672   3.860
 8125SOL    HW225275   1.175   0.728   3.954
 8126SOL     OW25276   5.579   4.530   2.607
 8126SOL    HW125277   5.587   4.521   2.707
 8126SOL    HW225278   5.665   4.563   2.570
 8127SOL     OW25279   2.810   6.551   6.860
 8127SOL    HW125280   2.860   6.493   6.924
 8127SOL    HW225281   2.870   6.577   6.784
 8128SOL     OW25282   2.711   2.225   1.577
 8128SOL    HW125283   2.709   2.275   1.490
 8128SOL    HW225284   2.674   2.282   1.650
 8129SOL     OW25285   4.450   0.714   6.135
 8129SOL    HW125286   4.369   0.747   6.087
 8129SOL    HW225287   4.524   0.699   6.070
 8130SOL     OW25288   0.399   4.061   0.103
 8130SOL    HW125289   0.324   4.096   0.160
 8130SOL    HW225290   0.410   4.120   0.024
 8131SOL     OW25291   3.383   1.758   0.863
 8131SOL    HW125292   3.428   1.689   0.807
 8131SOL    HW225293   3.299   1.789   0.818
 8132SOL     OW25294   5.577   6.264   6.027
 8132SOL    HW125295   5.671   6.258   6.061
 8132SOL    HW225296   5.515   6.284   6.103
 8133SOL     OW25297   2.858   4.806   1.563
 8133SOL    HW125298   2.857   4.906   1.559
 8133SOL    HW225299   2.793   4.775   1.633
 8134SOL     OW25300   0.981   2.517   5.384
 8134SOL    HW125301   1.049   2.589   5.378
 8134SOL    HW225302   0.907   2.545   5.446
 8135SOL     OW25303   2.282   6.060   0.927
 8135SOL    HW125304   2.270   6.081   1.024
 8135SOL    HW225305   2.192   6.047   0.885
 8136SOL     OW25306   5.040   5.007   3.081
 8136SOL    HW125307   5.039   5.091   3.135
 8136SOL    HW225308   5.102   4.940   3.122
 8137SOL     OW25309   2.971   1.245   4.660
 8137SOL    HW125310   2.938   1.263   4.568
 8137SOL    HW225311   2.897   1.208   4.716
 8138SOL     OW25312   5.595   2.367   0.302
 8138SOL    HW125313   5.684   2.397   0.268
 8138SOL    HW225314   5.581   2.404   0.394
 8139SOL     OW25315   1.482   1.380   4.277
 8139SOL    HW125316   1.458   1.403   4.371
 8139SOL    HW225317   1.423   1.306   4.245
 8140SOL     OW25318   4.534   0.111   1.066
 8140SOL    HW125319   4.567   0.199   1.101
 8140SOL    HW225320   4.609   0.044   1.068
 8141SOL     OW25321   4.455   6.747   5.171
 8141SOL    HW125322   4.452   6.701   5.260
 8141SOL    HW225323   4.365   6.741   5.128
 8142SOL     OW25324   1.666   5.193   0.077
 8142SOL    HW125325   1.710   5.223   0.161
 8142SOL    HW225326   1.729   5.136   0.024
 8143SOL     OW25327   6.681   4.847   0.147
 8143SOL    HW125328   6.779   4.847   0.170
 8143SOL    HW225329   6.652   4.940   0.127
 8144SOL     OW25330   0.293   6.827   5.854
 8144SOL    HW125331   0.363   6.897   5.863
 8144SOL    HW225332   0.306   6.778   5.768
 8145SOL     OW25333   5.788   4.982   0.896
 8145SOL    HW125334   5.693   4.981   0.865
 8145SOL    HW225335   5.849   4.970   0.818
 8146SOL     OW25336   5.645   0.686   5.626
 8146SOL    HW125337   5.597   0.629   5.560
 8146SOL    HW225338   5.742   0.659   5.630
 8147SOL     OW25339   6.481   1.195   2.250
 8147SOL    HW125340   6.505   1.291   2.258
 8147SOL    HW225341   6.407   1.184   2.184
 8148SOL     OW25342   5.358   4.747   0.729
 8148SOL    HW125343   5.378   4.805   0.650
 8148SOL    HW225344   5.401   4.657   0.716
 8149SOL     OW25345   2.168   6.486   3.416
 8149SOL    HW125346   2.207   6.477   3.325
 8149SOL    HW225347   2.079   6.531   3.411
 8150SOL     OW25348   2.183   3.254   0.813
 8150SOL    HW125349   2.217   3.347   0.818
 8150SOL    HW225350   2.161   3.231   0.718
 8151SOL     OW25351   5.920   4.903   3.047
 8151SOL    HW125352   5.933   4.998   3.078
 8151SOL    HW225353   5.882   4.849   3.122
 8152SOL     OW25354   6.517   3.101   3.131
 8152SOL    HW125355   6.530   3.002   3.132
 8152SOL    HW225356   6.421   3.122   3.149
 8153SOL     OW25357   1.057   1.762   4.164
 8153SOL    HW125358   1.151   1.792   4.144
 8153SOL    HW225359   1.022   1.708   4.087
 8154SOL     OW25360   3.475   6.088   2.316
 8154SOL    HW125361   3.513   6.089   2.408
 8154SOL    HW225362   3.393   6.145   2.313
 8155SOL     OW25363   1.518   3.310   2.090
 8155SOL    HW125364   1.427   3.280   2.118
 8155SOL    HW225365   1.510   3.371   2.011
 8156SOL     OW25366   4.761   6.403   0.675
 8156SOL    HW125367   4.717   6.322   0.637
 8156SOL    HW225368   4.809   6.379   0.759
 8157SOL     OW25369   6.652   4.702   6.012
 8157SOL    HW125370   6.586   4.773   5.987
 8157SOL    HW225371   6.735   4.713   5.957
 8158SOL     OW25372   4.847   4.263   0.320
 8158SOL    HW125373   4.894   4.175   0.317
 8158SOL    HW225374   4.828   4.294   0.227
 8159SOL     OW25375   2.522   5.453   2.946
 8159SOL    HW125376   2.520   5.475   2.849
 8159SOL    HW225377   2.436   5.408   2.972
 8160SOL     OW25378   5.447   0.759   3.864
 8160SOL    HW125379   5.427   0.731   3.958
 8160SOL    HW225380   5.513   0.834   3.865
 8161SOL     OW25381   6.204   3.192   6.479
 8161SOL    HW125382   6.131   3.257   6.499
 8161SOL    HW225383   6.266   3.186   6.557
 8162SOL     OW25384   5.877   6.627   6.738
 8162SOL    HW125385   5.945   6.620   6.811
 8162SOL    HW225386   5.839   6.537   6.719
 8163SOL     OW25387   2.551   4.586   5.092
 8163SOL    HW125388   2.582   4.560   5.183
 8163SOL    HW225389   2.629   4.615   5.037
 8164SOL     OW25390   5.141   2.299   0.392
 8164SOL    HW125391   5.197   2.258   0.320
 8164SOL    HW225392   5.132   2.397   0.376
 8165SOL     OW25393   0.314   3.887   5.957
 8165SOL    HW125394   0.368   3.842   5.886
 8165SOL    HW225395   0.235   3.831   5.980
 8166SOL     OW25396   1.245   0.276   4.036
 8166SOL    HW125397   1.297   0.204   3.989
 8166SOL    HW225398   1.306   0.353   4.056
 8167SOL     OW25399   6.934   0.495   3.821
 8167SOL    HW125400   6.882   0.414   3.795
 8167SOL    HW225401   6.935   0.504   3.921
 8168SOL     OW25402   2.585   1.631   2.457
 8168SOL    HW125403   2.660   1.691   2.485
 8168SOL    HW225404   2.592   1.612   2.359
 8169SOL     OW25405   4.698   2.433   0.322
 8169SOL    HW125406   4.738   2.440   0.413
 8169SOL    HW225407   4.606   2.394   0.329
 8170SOL     OW25408   1.200   5.474   2.032
 8170SOL    HW125409   1.280   5.451   1.977
 8170SOL    HW225410   1.150   5.391   2.055
 8171SOL     OW25411   1.715   1.926   6.176
 8171SOL    HW125412   1.684   2.021   6.176
 8171SOL    HW225413   1.655   1.872   6.117
 8172SOL     OW25414   0.363   1.808   2.907
 8172SOL    HW125415   0.400   1.749   2.836
 8172SOL    HW225416   0.421   1.803   2.988
 8173SOL     OW25417   5.725   1.983   2.047
 8173SOL    HW125418   5.726   1.976   2.147
 8173SOL    HW225419   5.665   1.913   2.009
 8174SOL     OW25420   6.525   1.228   2.614
 8174SOL    HW125421   6.556   1.307   2.559
 8174SOL    HW225422   6.510   1.150   2.553
 8175SOL     OW25423   0.316   3.480   6.187
 8175SOL    HW125424   0.410   3.453   6.207
 8175SOL    HW225425   0.253   3.432   6.248
 8176SOL     OW25426   2.031   4.843   1.242
 8176SOL    HW125427   2.076   4.855   1.330
 8176SOL    HW225428   2.028   4.931   1.194
 8177SOL     OW25429   3.488   6.654   3.498
 8177SOL    HW125430   3.498   6.630   3.595
 8177SOL    HW225431   3.530   6.584   3.442
 8178SOL     OW25432   3.006   6.865   0.508
 8178SOL    HW125433   3.006   6.788   0.572
 8178SOL    HW225434   3.057   6.941   0.547
 8179SOL     OW25435   4.808   1.766   4.689
 8179SOL    HW125436   4.838   1.830   4.760
 8179SOL    HW225437   4.742   1.811   4.629
 8180SOL     OW25438   6.401   0.976   5.501
 8180SOL    HW125439   6.350   0.953   5.418
 8180SOL    HW225440   6.358   1.054   5.546
 8181SOL     OW25441   1.334   1.650   0.383
 8181SOL    HW125442   1.303   1.731   0.434
 8181SOL    HW225443   1.432   1.658   0.364
 8182SOL     OW25444   3.503   3.433   5.805
 8182SOL    HW125445   3.513   3.337   5.834
 8182SOL    HW225446   3.419   3.470   5.843
 8183SOL     OW25447   6.388   2.670   4.690
 8183SOL    HW125448   6.316   2.666   4.621
 8183SOL    HW225449   6.352   2.639   4.778
 8184SOL     OW25450   6.668   0.574   0.697
 8184SOL    HW125451   6.762   0.601   0.677
 8184SOL    HW225452   6.608   0.607   0.625
 8185SOL     OW25453   1.757   0.148   0.019
 8185SOL    HW125454   1.675   0.108   7.003
 8185SOL    HW225455   1.819   0.074   0.047
 8186SOL     OW25456   3.510   4.484   5.387
 8186SOL    HW125457   3.427   4.530   5.356
 8186SOL    HW225458   3.487   4.393   5.421
 8187SOL     OW25459   2.189   1.701   5.327
 8187SOL    HW125460   2.197   1.708   5.427
 8187SOL    HW225461   2.135   1.778   5.293
 8188SOL     OW25462   5.637   2.914   3.340
 8188SOL    HW125463   5.719   2.969   3.323
 8188SOL    HW225464   5.656   2.846   3.411
 8189SOL     OW25465   5.189   5.418   2.960
 8189SOL    HW125466   5.144   5.404   3.048
 8189SOL    HW225467   5.119   5.432   2.889
 8190SOL     OW25468   4.812   4.619   4.453
 8190SOL    HW125469   4.719   4.610   4.418
 8190SOL    HW225470   4.877   4.612   4.377
 8191SOL     OW25471   3.724   6.243   1.770
 8191SOL    HW125472   3.742   6.156   1.815
 8191SOL    HW225473   3.804   6.270   1.716
 8192SOL     OW25474   3.517   5.245   0.657
 8192SOL    HW125475   3.479   5.323   0.705
 8192SOL    HW225476   3.511   5.164   0.714
 8193SOL     OW25477   6.816   6.035   5.662
 8193SOL    HW125478   6.802   6.049   5.760
 8193SOL    HW225479   6.807   6.123   5.615
 8194SOL     OW25480   4.871   2.239   0.821
 8194SOL    HW125481   4.812   2.280   0.891
 8194SOL    HW225482   4.824   2.161   0.780
 8195SOL     OW25483   1.473   0.039   2.943
 8195SOL    HW125484   1.471   0.092   2.859
 8195SOL    HW225485   1.514   0.093   3.017
 8196SOL     OW25486   4.240   5.860   5.930
 8196SOL    HW125487   4.237   5.845   6.029
 8196SOL    HW225488   4.170   5.806   5.886
 8197SOL     OW25489   4.525   1.809   0.263
 8197SOL    HW125490   4.527   1.718   0.220
 8197SOL    HW225491   4.478   1.803   0.351
 8198SOL     OW25492   2.897   6.751   2.746
 8198SOL    HW125493   2.954   6.731   2.825
 8198SOL    HW225494   2.806   6.710   2.759
 8199SOL     OW25495   6.002   3.362   6.502
 8199SOL    HW125496   5.976   3.432   6.568
 8199SOL    HW225497   5.966   3.386   6.411
 8200SOL     OW25498   5.922   5.047   1.712
 8200SOL    HW125499   5.904   4.995   1.796
 8200SOL    HW225500   6.014   5.025   1.680
 8201SOL     OW25501   5.840   0.751   4.077
 8201SOL    HW125502   5.797   0.831   4.035
 8201SOL    HW225503   5.930   0.737   4.036
 8202SOL     OW25504   0.224   5.764   3.940
 8202SOL    HW125505   0.295   5.700   3.912
 8202SOL    HW225506   0.179   5.730   4.023
 8203SOL     OW25507   3.907   2.654   6.986
 8203SOL    HW125508   3.902   2.554   6.985
 8203SOL    HW225509   4.002   2.683   6.995
 8204SOL     OW25510   3.337   4.964   6.641
 8204SOL    HW125511   3.350   4.890   6.575
 8204SOL    HW225512   3.276   5.033   6.602
 8205SOL     OW25513   0.692   4.746   0.999
 8205SOL    HW125514   0.676   4.658   0.953
 8205SOL    HW225515   0.686   4.820   0.932
 8206SOL     OW25516   5.072   2.572   6.345
 8206SOL    HW125517   5.026   2.491   6.309
 8206SOL    HW225518   5.089   2.637   6.271
 8207SOL     OW25519   3.148   4.063   4.178
 8207SOL    HW125520   3.101   4.151   4.187
 8207SOL    HW225521   3.237   4.069   4.221
 8208SOL     OW25522   1.772   0.165   1.404
 8208SOL    HW125523   1.694   0.128   1.353
 8208SOL    HW225524   1.745   0.251   1.448
 8209SOL     OW25525   0.568   1.110   5.315
 8209SOL    HW125526   0.663   1.138   5.302
 8209SOL    HW225527   0.563   1.049   5.395
 8210SOL     OW25528   2.034   1.342   1.331
 8210SOL    HW125529   1.969   1.286   1.280
 8210SOL    HW225530   2.000   1.436   1.337
 8211SOL     OW25531   3.768   4.244   1.758
 8211SOL    HW125532   3.682   4.287   1.731
 8211SOL    HW225533   3.756   4.197   1.846
 8212SOL     OW25534   2.097   1.530   2.169
 8212SOL    HW125535   2.101   1.470   2.249
 8212SOL    HW225536   2.137   1.618   2.192
 8213SOL     OW25537   7.008   4.467   2.690
 8213SOL    HW125538   0.008   4.403   2.763
 8213SOL    HW225539   6.939   4.425   2.631
 8214SOL     OW25540   6.710   5.660   5.162
 8214SOL    HW125541   6.808   5.671   5.180
 8214SOL    HW225542   6.695   5.641   5.065
 8215SOL     OW25543   2.639   5.945   6.246
 8215SOL    HW125544   2.590   5.992   6.173
 8215SOL    HW225545   2.589   5.955   6.332
 8216SOL     OW25546   5.190   5.421   3.787
 8216SOL    HW125547   5.289   5.409   3.788
 8216SOL    HW225548   5.146   5.336   3.819
 8217SOL     OW25549   1.935   3.664   0.860
 8217SOL    HW125550   1.895   3.720   0.933
 8217SOL    HW225551   1.930   3.567   0.885
 8218SOL     OW25552   0.107   0.067   5.351
 8218SOL    HW125553   0.180   0.115   5.301
 8218SOL    HW225554   0.070   7.019   5.295
 8219SOL     OW25555   3.735   3.439   0.383
 8219SOL    HW125556   3.654   3.402   0.428
 8219SOL    HW225557   3.811   3.441   0.449
 8220SOL     OW25558   2.963   3.861   4.139
 8220SOL    HW125559   2.928   3.835   4.229
 8220SOL    HW225560   3.026   3.938   4.149
 8221SOL     OW25561   5.800   6.274   3.281
 8221SOL    HW125562   5.886   6.277   3.230
 8221SOL    HW225563   5.750   6.359   3.266
 8222SOL     OW25564   5.192   1.627   0.937
 8222SOL    HW125565   5.154   1.633   0.845
 8222SOL    HW225566   5.252   1.548   0.945
 8223SOL     OW25567   0.670   4.198   5.250
 8223SOL    HW125568   0.682   4.132   5.176
 8223SOL    HW225569   0.733   4.176   5.324
 8224SOL     OW25570   5.250   2.104   2.362
 8224SOL    HW125571   5.244   2.016   2.315
 8224SOL    HW225572   5.346   2.124   2.383
 8225SOL     OW25573   3.244   1.533   1.385
 8225SOL    HW125574   3.159   1.492   1.417
 8225SOL    HW225575   3.224   1.601   1.315
 8226SOL     OW25576   3.753   6.284   0.064
 8226SOL    HW125577   3.835   6.336   0.088
 8226SOL    HW225578   3.673   6.345   0.064
 8227SOL     OW25579   0.640   1.347   2.343
 8227SOL    HW125580   0.607   1.257   2.313
 8227SOL    HW225581   0.598   1.372   2.430
 8228SOL     OW25582   6.583   1.888   5.801
 8228SOL    HW125583   6.587   1.795   5.764
 8228SOL    HW225584   6.662   1.904   5.860
 8229SOL     OW25585   4.703   3.526   1.009
 8229SOL    HW125586   4.783   3.495   1.061
 8229SOL    HW225587   4.620   3.511   1.063
 8230SOL     OW25588   3.517   0.316   4.988
 8230SOL    HW125589   3.549   0.403   4.950
 8230SOL    HW225590   3.550   0.241   4.930
 8231SOL     OW25591   2.883   3.207   0.967
 8231SOL    HW125592   2.834   3.204   1.054
 8231SOL    HW225593   2.848   3.136   0.907
 8232SOL     OW25594   4.380   2.089   1.800
 8232SOL    HW125595   4.433   2.102   1.716
 8232SOL    HW225596   4.304   2.154   1.801
 8233SOL     OW25597   0.648   6.666   5.964
 8233SOL    HW125598   0.580   6.714   6.020
 8233SOL    HW225599   0.672   6.579   6.009
 8234SOL     OW25600   2.807   3.362   6.648
 8234SOL    HW125601   2.905   3.360   6.669
 8234SOL    HW225602   2.756   3.324   6.725
 8235SOL     OW25603   0.780   2.593   0.027
 8235SOL    HW125604   0.794   2.505   7.007
 8235SOL    HW225605   0.738   2.657   6.989
 8236SOL     OW25606   0.742   4.486   0.875
 8236SOL    HW125607   0.643   4.477   0.880
 8236SOL    HW225608   0.782   4.469   0.965
 8237SOL     OW25609   4.897   6.242   5.647
 8237SOL    HW125610   4.892   6.306   5.569
 8237SOL    HW225611   4.847   6.159   5.624
 8238SOL     OW25612   0.633   5.359   6.419
 8238SOL    HW125613   0.596   5.433   6.477
 8238SOL    HW225614   0.577   5.351   6.337
 8239SOL     OW25615   0.478   0.937   5.562
 8239SOL    HW125616   0.382   0.955   5.540
 8239SOL    HW225617   0.496   0.839   5.560
 8240SOL     OW25618   3.679   3.816   2.565
 8240SOL    HW125619   3.704   3.825   2.661
 8240SOL    HW225620   3.581   3.835   2.554
 8241SOL     OW25621   3.360   6.221   5.802
 8241SOL    HW125622   3.337   6.263   5.890
 8241SOL    HW225623   3.317   6.131   5.796
 8242SOL     OW25624   0.015   4.127   6.150
 8242SOL    HW125625   0.111   4.100   6.138
 8242SOL    HW225626   0.008   4.226   6.146
 8243SOL     OW25627   0.619   3.238   0.741
 8243SOL    HW125628   0.552   3.312   0.747
 8243SOL    HW225629   0.607   3.176   0.818
 8244SOL     OW25630   0.272   1.066   3.995
 8244SOL    HW125631   0.249   0.979   4.040
 8244SOL    HW225632   0.299   1.132   4.064
 8245SOL     OW25633   3.985   2.233   1.899
 8245SOL    HW125634   3.890   2.231   1.932
 8245SOL    HW225635   4.044   2.186   1.964
 8246SOL     OW25636   1.020   3.538   5.893
 8246SOL    HW125637   0.961   3.521   5.814
 8246SOL    HW225638   1.042   3.635   5.897
 8247SOL     OW25639   2.029   0.583   3.048
 8247SOL    HW125640   1.970   0.664   3.055
 8247SOL    HW225641   1.985   0.507   3.095
 8248SOL     OW25642   6.739   5.020   4.589
 8248SOL    HW125643   6.687   5.099   4.621
 8248SOL    HW225644   6.825   5.050   4.548
 8249SOL     OW25645   1.635   2.491   5.806
 8249SOL    HW125646   1.537   2.509   5.816
 8249SOL    HW225647   1.677   2.564   5.752
 8250SOL     OW25648   2.924   2.947   1.553
 8250SOL    HW125649   2.933   3.041   1.521
 8250SOL    HW225650   3.009   2.919   1.597
 8251SOL     OW25651   5.013   3.257   4.559
 8251SOL    HW125652   4.973   3.168   4.584
 8251SOL    HW225653   4.996   3.322   4.633
 8252SOL     OW25654   3.431   1.496   5.800
 8252SOL    HW125655   3.455   1.418   5.741
 8252SOL    HW225656   3.514   1.545   5.826
 8253SOL     OW25657   4.458   5.435   6.123
 8253SOL    HW125658   4.366   5.398   6.139
 8253SOL    HW225659   4.485   5.419   6.028
 8254SOL     OW25660   4.415   4.379   5.345
 8254SOL    HW125661   4.361   4.334   5.417
 8254SOL    HW225662   4.361   4.384   5.261
 8255SOL     OW25663   1.647   6.715   5.154
 8255SOL    HW125664   1.691   6.630   5.124
 8255SOL    HW225665   1.553   6.696   5.183
 8256SOL     OW25666   7.006   6.258   1.683
 8256SOL    HW125667   6.997   6.160   1.666
 8256SOL    HW225668   7.014   6.307   1.596
 8257SOL     OW25669   5.325   4.090   2.550
 8257SOL    HW125670   5.387   4.011   2.558
 8257SOL    HW225671   5.378   4.172   2.528
 8258SOL     OW25672   5.090   2.969   1.024
 8258SOL    HW125673   5.090   2.925   0.934
 8258SOL    HW225674   5.159   2.925   1.083
 8259SOL     OW25675   3.814   1.682   4.811
 8259SOL    HW125676   3.894   1.717   4.859
 8259SOL    HW225677   3.731   1.717   4.854
 8260SOL     OW25678   1.941   6.665   1.032
 8260SOL    HW125679   2.025   6.620   1.063
 8260SOL    HW225680   1.953   6.764   1.036
 8261SOL     OW25681   5.240   6.574   2.413
 8261SOL    HW125682   5.153   6.621   2.400
 8261SOL    HW225683   5.223   6.482   2.449
 8262SOL     OW25684   0.627   2.883   0.239
 8262SOL    HW125685   0.672   2.926   0.317
 8262SOL    HW225686   0.663   2.790   0.226
 8263SOL     OW25687   0.229   2.581   6.224
 8263SOL    HW125688   0.243   2.679   6.236
 8263SOL    HW225689   0.131   2.560   6.233
 8264SOL     OW25690   2.005   5.944   1.178
 8264SOL    HW125691   1.950   5.978   1.102
 8264SOL    HW225692   2.038   5.852   1.157
 8265SOL     OW25693   6.805   0.772   1.336
 8265SOL    HW125694   6.888   0.739   1.291
 8265SOL    HW225695   6.802   0.872   1.331
 8266SOL     OW25696   2.171   1.220   4.687
 8266SOL    HW125697   2.187   1.121   4.690
 8266SOL    HW225698   2.233   1.266   4.751
 8267SOL     OW25699   1.802   3.770   1.077
 8267SOL    HW125700   1.705   3.793   1.066
 8267SOL    HW225701   1.815   3.717   1.161
 8268SOL     OW25702   2.158   6.711   6.079
 8268SOL    HW125703   2.221   6.657   6.134
 8268SOL    HW225704   2.098   6.764   6.138
 8269SOL     OW25705   4.277   1.450   2.084
 8269SOL    HW125706   4.289   1.354   2.109
 8269SOL    HW225707   4.334   1.507   2.142
 8270SOL     OW25708   3.113   6.427   4.590
 8270SOL    HW125709   3.195   6.395   4.636
 8270SOL    HW225710   3.094   6.522   4.617
 8271SOL     OW25711   0.581   6.834   3.044
 8271SOL    HW125712   0.535   6.890   3.112
 8271SOL    HW225713   0.561   6.737   3.060
 8272SOL     OW25714   6.464   1.552   2.923
 8272SOL    HW125715   6.424   1.577   2.835
 8272SOL    HW225716   6.405   1.486   2.969
 8273SOL     OW25717   2.406   1.071   0.969
 8273SOL    HW125718   2.326   1.090   1.026
 8273SOL    HW225719   2.382   1.081   0.873
 8274SOL     OW25720   4.322   5.283   4.271
 8274SOL    HW125721   4.396   5.300   4.206
 8274SOL    HW225722   4.355   5.298   4.364
 8275SOL     OW25723   5.552   0.779   4.517
 8275SOL    HW125724   5.595   0.690   4.527
 8275SOL    HW225725   5.606   0.835   4.454
 8276SOL     OW25726   0.219   1.993   4.928
 8276SOL    HW125727   0.203   1.916   4.867
 8276SOL    HW225728   0.223   2.078   4.874
 8277SOL     OW25729   0.858   6.233   6.248
 8277SOL    HW125730   0.855   6.135   6.228
 8277SOL    HW225731   0.779   6.258   6.304
 8278SOL     OW25732   3.309   1.240   6.693
 8278SOL    HW125733   3.246   1.204   6.761
 8278SOL    HW225734   3.288   1.336   6.675
 8279SOL     OW25735   0.999   6.472   4.457
 8279SOL    HW125736   1.044   6.383   4.469
 8279SOL    HW225737   0.987   6.490   4.359
 8280SOL     OW25738   2.828   2.865   0.451
 8280SOL    HW125739   2.743   2.888   0.499
 8280SOL    HW225740   2.816   2.779   0.401
 8281SOL     OW25741   2.170   4.326   1.517
 8281SOL    HW125742   2.072   4.333   1.499
 8281SOL    HW225743   2.212   4.267   1.448
 8282SOL     OW25744   4.603   4.101   0.073
 8282SOL    HW125745   4.676   4.039   0.103
 8282SOL    HW225746   4.605   4.107   6.999
 8283SOL     OW25747   1.421   5.161   5.096
 8283SOL    HW125748   1.367   5.190   5.175
 8283SOL    HW225749   1.515   5.140   5.126
 8284SOL     OW25750   0.806   3.477   1.672
 8284SOL    HW125751   0.818   3.523   1.584
 8284SOL    HW225752   0.755   3.537   1.734
 8285SOL     OW25753   3.559   4.101   4.558
 8285SOL    HW125754   3.588   4.118   4.652
 8285SOL    HW225755   3.461   4.116   4.550
 8286SOL     OW25756   5.168   1.936   4.828
 8286SOL    HW125757   5.240   1.899   4.887
 8286SOL    HW225758   5.082   1.939   4.877
 8287SOL     OW25759   1.243   4.922   4.548
 8287SOL    HW125760   1.182   4.881   4.616
 8287SOL    HW225761   1.281   5.007   4.583
 8288SOL     OW25762   2.715   2.283   2.269
 8288SOL    HW125763   2.736   2.187   2.288
 8288SOL    HW225764   2.771   2.316   2.193
 8289SOL     OW25765   0.733   6.772   6.319
 8289SOL    HW125766   0.673   6.799   6.244
 8289SOL    HW225767   0.701   6.813   6.405
 8290SOL     OW25768   5.420   1.784   1.025
 8290SOL    HW125769   5.419   1.881   0.999
 8290SOL    HW225770   5.340   1.739   0.988
 8291SOL     OW25771   4.851   5.275   5.015
 8291SOL    HW125772   4.810   5.185   5.004
 8291SOL    HW225773   4.949   5.270   4.998
 8292SOL     OW25774   3.215   6.455   6.363
 8292SOL    HW125775   3.220   6.540   6.414
 8292SOL    HW225776   3.187   6.381   6.424
 8293SOL     OW25777   1.781   5.263   0.958
 8293SOL    HW125778   1.791   5.205   0.878
 8293SOL    HW225779   1.725   5.343   0.934
 8294SOL     OW25780   5.637   4.000   5.349
 8294SOL    HW125781   5.566   4.040   5.406
 8294SOL    HW225782   5.656   3.907   5.378
 8295SOL     OW25783   5.154   4.399   1.838
 8295SOL    HW125784   5.161   4.321   1.777
 8295SOL    HW225785   5.096   4.375   1.916
 8296SOL     OW25786   2.484   4.757   0.108
 8296SOL    HW125787   2.542   4.825   0.062
 8296SOL    HW225788   2.442   4.698   0.039
 8297SOL     OW25789   0.223   3.127   2.789
 8297SOL    HW125790   0.144   3.187   2.780
 8297SOL    HW225791   0.261   3.136   2.881
 8298SOL     OW25792   6.233   1.752   1.200
 8298SOL    HW125793   6.188   1.689   1.262
 8298SOL    HW225794   6.261   1.704   1.117
 8299SOL     OW25795   1.078   2.238   2.517
 8299SOL    HW125796   1.121   2.306   2.458
 8299SOL    HW225797   1.023   2.284   2.587
 8300SOL     OW25798   0.095   5.834   3.710
 8300SOL    HW125799   0.019   5.771   3.724
 8300SOL    HW225800   0.144   5.846   3.797
 8301SOL     OW25801   3.807   0.826   0.584
 8301SOL    HW125802   3.737   0.808   0.653
 8301SOL    HW225803   3.897   0.802   0.622
 8302SOL     OW25804   5.411   6.674   6.451
 8302SOL    HW125805   5.503   6.697   6.484
 8302SOL    HW225806   5.418   6.610   6.375
 8303SOL     OW25807   5.785   0.585   3.668
 8303SOL    HW125808   5.757   0.625   3.580
 8303SOL    HW225809   5.706   0.543   3.712
 8304SOL     OW25810   5.735   3.534   1.408
 8304SOL    HW125811   5.814   3.484   1.443
 8304SOL    HW225812   5.731   3.625   1.451
 8305SOL     OW25813   4.568   4.652   3.708
 8305SOL    HW125814   4.471   4.676   3.711
 8305SOL    HW225815   4.622   4.735   3.691
 8306SOL     OW25816   5.470   1.581   4.306
 8306SOL    HW125817   5.493   1.621   4.217
 8306SOL    HW225818   5.443   1.486   4.294
 8307SOL     OW25819   3.469   5.158   1.616
 8307SOL    HW125820   3.496   5.089   1.683
 8307SOL    HW225821   3.537   5.162   1.542
 8308SOL     OW25822   2.183   5.242   0.337
 8308SOL    HW125823   2.257   5.265   0.401
 8308SOL    HW225824   2.180   5.143   0.324
 8309SOL     OW25825   6.715   5.759   3.166
 8309SOL    HW125826   6.631   5.720   3.128
 8309SOL    HW225827   6.789   5.750   3.100
 8310SOL     OW25828   0.740   5.684   1.375
 8310SOL    HW125829   0.766   5.589   1.395
 8310SOL    HW225830   0.822   5.741   1.371
 8311SOL     OW25831   6.913   2.434   5.633
 8311SOL    HW125832   6.931   2.340   5.604
 8311SOL    HW225833   6.824   2.438   5.679
 8312SOL     OW25834   4.414   0.486   0.213
 8312SOL    HW125835   4.399   0.488   0.114
 8312SOL    HW225836   4.453   0.574   0.242
 8313SOL     OW25837   5.630   6.957   6.736
 8313SOL    HW125838   5.623   6.952   6.835
 8313SOL    HW225839   5.547   6.997   6.698
 8314SOL     OW25840   5.649   6.717   6.589
 8314SOL    HW125841   5.641   6.813   6.615
 8314SOL    HW225842   5.718   6.673   6.645
 8315SOL     OW25843   4.037   3.324   2.132
 8315SOL    HW125844   3.954   3.336   2.186
 8315SOL    HW225845   4.044   3.398   2.065
 8316SOL     OW25846   1.395   2.658   2.347
 8316SOL    HW125847   1.378   2.657   2.248
 8316SOL    HW225848   1.489   2.630   2.365
 8317SOL     OW25849   1.421   2.527   2.846
 8317SOL    HW125850   1.447   2.598   2.780
 8317SOL    HW225851   1.470   2.541   2.932
 8318SOL     OW25852   4.098   2.102   5.838
 8318SOL    HW125853   4.035   2.085   5.913
 8318SOL    HW225854   4.047   2.135   5.758
 8319SOL     OW25855   1.067   1.286   1.303
 8319SOL    HW125856   1.092   1.252   1.393
 8319SOL    HW225857   1.083   1.215   1.234
 8320SOL     OW25858   2.955   3.901   2.578
 8320SOL    HW125859   2.930   3.861   2.667
 8320SOL    HW225860   2.886   3.969   2.552
 8321SOL     OW25861   6.315   6.740   6.614
 8321SOL    HW125862   6.320   6.840   6.608
 8321SOL    HW225863   6.271   6.714   6.700
 8322SOL     OW25864   6.554   0.346   0.802
 8322SOL    HW125865   6.603   0.330   0.887
 8322SOL    HW225866   6.595   0.425   0.754
 8323SOL     OW25867   5.023   5.080   2.043
 8323SOL    HW125868   4.945   5.030   2.079
 8323SOL    HW225869   5.086   5.103   2.117
 8324SOL     OW25870   6.008   6.658   1.708
 8324SOL    HW125871   6.049   6.746   1.685
 8324SOL    HW225872   5.929   6.673   1.768
 8325SOL     OW25873   1.737   3.532   5.011
 8325SOL    HW125874   1.785   3.516   4.925
 8325SOL    HW225875   1.802   3.529   5.087
 8326SOL     OW25876   4.559   3.783   5.898
 8326SOL    HW125877   4.580   3.879   5.920
 8326SOL    HW225878   4.645   3.733   5.886
 8327SOL     OW25879   0.270   0.361   5.437
 8327SOL    HW125880   0.330   0.344   5.515
 8327SOL    HW225881   0.229   0.451   5.445
 8328SOL     OW25882   2.635   5.956   6.913
 8328SOL    HW125883   2.734   5.957   6.900
 8328SOL    HW225884   2.601   5.862   6.899
 8329SOL     OW25885   0.888   2.776   5.890
 8329SOL    HW125886   0.958   2.703   5.891
 8329SOL    HW225887   0.920   2.852   5.833
 8330SOL     OW25888   2.658   1.080   6.203
 8330SOL    HW125889   2.601   1.010   6.247
 8330SOL    HW225890   2.732   1.107   6.265
 8331SOL     OW25891   3.238   0.728   1.017
 8331SOL    HW125892   3.269   0.637   1.043
 8331SOL    HW225893   3.276   0.796   1.080
 8332SOL     OW25894   5.458   5.549   2.583
 8332SOL    HW125895   5.539   5.607   2.591
 8332SOL    HW225896   5.481   5.468   2.530
 8333SOL     OW25897   0.482   5.243   6.211
 8333SOL    HW125898   0.461   5.164   6.269
 8333SOL    HW225899   0.476   5.216   6.115
 8334SOL     OW25900   3.763   1.572   4.403
 8334SOL    HW125901   3.749   1.669   4.424
 8334SOL    HW225902   3.860   1.553   4.391
 8335SOL     OW25903   5.229   1.019   0.510
 8335SOL    HW125904   5.313   1.049   0.464
 8335SOL    HW225905   5.182   0.953   0.451
 8336SOL     OW25906   0.815   5.022   3.299
 8336SOL    HW125907   0.891   5.049   3.242
 8336SOL    HW225908   0.778   4.934   3.266
 8337SOL     OW25909   1.610   5.919   3.499
 8337SOL    HW125910   1.587   5.962   3.586
 8337SOL    HW225911   1.626   5.822   3.513
 8338SOL     OW25912   3.851   5.110   1.826
 8338SOL    HW125913   3.764   5.075   1.860
 8338SOL    HW225914   3.866   5.078   1.733
 8339SOL     OW25915   6.737   0.811   1.606
 8339SOL    HW125916   6.762   0.771   1.518
 8339SOL    HW225917   6.745   0.742   1.678
 8340SOL     OW25918   5.258   3.462   1.015
 8340SOL    HW125919   5.226   3.556   1.011
 8340SOL    HW225920   5.210   3.408   0.945
 8341SOL     OW25921   3.015   0.171   6.981
 8341SOL    HW125922   2.968   0.248   7.023
 8341SOL    HW225923   3.094   0.204   6.930
 8342SOL     OW25924   4.705   6.565   0.054
 8342SOL    HW125925   4.721   6.467   0.055
 8342SOL    HW225926   4.649   6.590   0.133
 8343SOL     OW25927   0.466   5.485   4.144
 8343SOL    HW125928   0.434   5.497   4.050
 8343SOL    HW225929   0.521   5.402   4.151
 8344SOL     OW25930   5.559   6.344   4.762
 8344SOL    HW125931   5.616   6.346   4.680
 8344SOL    HW225932   5.603   6.287   4.832
 8345SOL     OW25933   3.963   2.017   2.280
 8345SOL    HW125934   3.867   2.036   2.262
 8345SOL    HW225935   3.971   1.942   2.345
 8346SOL     OW25936   3.960   4.850   6.890
 8346SOL    HW125937   3.871   4.862   6.934
 8346SOL    HW225938   3.968   4.756   6.856
 8347SOL     OW25939   3.792   6.380   3.939
 8347SOL    HW125940   3.838   6.314   3.880
 8347SOL    HW225941   3.693   6.366   3.934
 8348SOL     OW25942   2.318   1.277   1.274
 8348SOL    HW125943   2.220   1.296   1.270
 8348SOL    HW225944   2.362   1.312   1.192
 8349SOL     OW25945   6.619   6.917   2.049
 8349SOL    HW125946   6.582   6.876   1.966
 8349SOL    HW225947   6.562   6.993   2.077
 8350SOL     OW25948   3.150   7.004   6.154
 8350SOL    HW125949   3.176   0.001   6.060
 8350SOL    HW225950   3.052   7.017   6.165
 8351SOL     OW25951   5.860   5.221   4.818
 8351SOL    HW125952   5.861   5.221   4.718
 8351SOL    HW225953   5.766   5.216   4.851
 8352SOL     OW25954   6.943   6.949   3.743
 8352SOL    HW125955   6.896   6.902   3.669
 8352SOL    HW225956   6.917   6.908   3.830
 8353SOL     OW25957   6.862   3.629   1.393
 8353SOL    HW125958   6.892   3.724   1.395
 8353SOL    HW225959   6.797   3.613   1.467
 8354SOL     OW25960   3.994   0.388   5.013
 8354SOL    HW125961   3.907   0.398   4.965
 8354SOL    HW225962   4.024   0.293   5.010
 8355SOL     OW25963   2.752   0.807   6.048
 8355SOL    HW125964   2.687   0.883   6.053
 8355SOL    HW225965   2.826   0.829   5.985
 8356SOL     OW25966   0.336   0.192   1.401
 8356SOL    HW125967   0.352   0.104   1.447
 8356SOL    HW225968   0.271   0.246   1.453
 8357SOL     OW25969   3.641   6.970   5.317
 8357SOL    HW125970   3.667   6.952   5.412
 8357SOL    HW225971   3.707   6.927   5.256
 8358SOL     OW25972   1.547   4.562   4.773
 8358SOL    HW125973   1.483   4.638   4.767
 8358SOL    HW225974   1.638   4.596   4.797
 8359SOL     OW25975   3.292   0.487   4.815
 8359SOL    HW125976   3.295   0.501   4.716
 8359SOL    HW225977   3.357   0.548   4.860
 8360SOL     OW25978   3.678   6.179   0.649
 8360SOL    HW125979   3.731   6.255   0.688
 8360SOL    HW225980   3.736   6.128   0.585
 8361SOL     OW25981   3.415   6.960   1.845
 8361SOL    HW125982   3.369   6.905   1.915
 8361SOL    HW225983   3.478   7.024   1.889
 8362SOL     OW25984   4.004   1.302   1.270
 8362SOL    HW125985   4.026   1.375   1.205
 8362SOL    HW225986   4.021   1.335   1.363
 8363SOL     OW25987   5.248   3.118   6.783
 8363SOL    HW125988   5.161   3.081   6.750
 8363SOL    HW225989   5.294   3.050   6.840
 8364SOL     OW25990   0.766   2.520   3.783
 8364SOL    HW125991   0.671   2.553   3.788
 8364SOL    HW225992   0.827   2.597   3.762
 8365SOL     OW25993   1.735   2.928   2.278
 8365SOL    HW125994   1.728   2.923   2.378
 8365SOL    HW225995   1.759   3.021   2.251
 8366SOL     OW25996   1.870   5.531   1.388
 8366SOL    HW125997   1.938   5.483   1.444
 8366SOL    HW225998   1.853   5.622   1.427
 8367SOL     OW25999   4.832   6.181   4.550
 8367SOL    HW126000   4.853   6.087   4.525
 8367SOL    HW226001   4.733   6.190   4.567
 8368SOL     OW26002   1.313   6.992   6.614
 8368SOL    HW126003   1.226   7.018   6.571
 8368SOL    HW226004   1.379   6.967   6.543
 8369SOL     OW26005   0.839   0.090   6.314
 8369SOL    HW126006   0.761   0.110   6.373
 8369SOL    HW226007   0.923   0.095   6.368
 8370SOL     OW26008   3.044   1.165   5.790
 8370SOL    HW126009   2.953   1.178   5.749
 8370SOL    HW226010   3.042   1.192   5.886
 8371SOL     OW26011   2.180   4.455   0.423
 8371SOL    HW126012   2.247   4.525   0.401
 8371SOL    HW226013   2.088   4.492   0.414
 8372SOL     OW26014   1.210   4.657   1.854
 8372SOL    HW126015   1.169   4.749   1.849
 8372SOL    HW226016   1.274   4.653   1.931
 8373SOL     OW26017   1.901   0.406   4.241
 8373SOL    HW126018   1.917   0.419   4.339
 8373SOL    HW226019   1.929   0.489   4.191
 8374SOL     OW26020   0.149   0.910   4.947
 8374SOL    HW126021   0.113   0.828   4.992
 8374SOL    HW226022   0.146   0.987   5.010
 8375SOL     OW26023   3.291   6.517   5.311
 8375SOL    HW126024   3.353   6.589   5.344
 8375SOL    HW226025   3.278   6.449   5.383
 8376SOL     OW26026   0.169   1.161   4.350
 8376SOL    HW126027   0.115   1.241   4.376
 8376SOL    HW226028   0.257   1.191   4.311
 8377SOL     OW26029   4.875   5.892   0.824
 8377SOL    HW126030   4.776   5.896   0.842
 8377SOL    HW226031   4.917   5.977   0.855
 8378SOL     OW26032   4.784   5.252   2.894
 8378SOL    HW126033   4.792   5.314   2.971
 8378SOL    HW226034   4.852   5.275   2.825
 8379SOL     OW26035   5.271   3.118   1.291
 8379SOL    HW126036   5.321   3.106   1.206
 8379SOL    HW226037   5.267   3.031   1.340
 8380SOL     OW26038   0.539   0.815   2.917
 8380SOL    HW126039   0.639   0.819   2.916
 8380SOL    HW226040   0.505   0.819   2.823
 8381SOL     OW26041   7.008   3.218   4.502
 8381SOL    HW126042   6.968   3.283   4.439
 8381SOL    HW226043   0.080   3.206   4.481
 8382SOL     OW26044   2.608   6.962   2.671
 8382SOL    HW126045   2.563   6.940   2.757
 8382SOL    HW226046   2.707   6.972   2.687
 8383SOL     OW26047   2.784   6.771   5.869
 8383SOL    HW126048   2.724   6.801   5.795
 8383SOL    HW226049   2.774   6.672   5.882
 8384SOL     OW26050   6.554   0.995   1.553
 8384SOL    HW126051   6.618   0.923   1.578
 8384SOL    HW226052   6.553   1.006   1.453
 8385SOL     OW26053   5.573   2.514   0.537
 8385SOL    HW126054   5.641   2.471   0.597
 8385SOL    HW226055   5.520   2.580   0.591
 8386SOL     OW26056   1.829   5.570   1.868
 8386SOL    HW126057   1.844   5.565   1.967
 8386SOL    HW226058   1.908   5.611   1.824
 8387SOL     OW26059   1.205   1.260   1.540
 8387SOL    HW126060   1.282   1.198   1.526
 8387SOL    HW226061   1.150   1.229   1.618
 8388SOL     OW26062   2.008   6.557   0.437
 8388SOL    HW126063   1.964   6.567   0.526
 8388SOL    HW226064   1.977   6.472   0.393
 8389SOL     OW26065   0.115   3.745   3.289
 8389SOL    HW126066   0.052   3.669   3.273
 8389SOL    HW226067   0.195   3.736   3.229
 8390SOL     OW26068   4.481   0.762   0.216
 8390SOL    HW126069   4.581   0.769   0.207
 8390SOL    HW226070   4.439   0.846   0.184
 8391SOL     OW26071   6.299   5.016   0.887
 8391SOL    HW126072   6.375   4.955   0.909
 8391SOL    HW226073   6.334   5.097   0.840
 8392SOL     OW26074   6.819   4.597   5.097
 8392SOL    HW126075   6.889   4.545   5.146
 8392SOL    HW226076   6.776   4.538   5.029
 8393SOL     OW26077   0.544   7.022   2.819
 8393SOL    HW126078   0.576   6.956   2.886
 8393SOL    HW226079   0.481   0.061   2.864
 8394SOL     OW26080   6.335   2.782   2.181
 8394SOL    HW126081   6.424   2.737   2.177
 8394SOL    HW226082   6.264   2.713   2.194
 8395SOL     OW26083   1.884   6.587   5.033
 8395SOL    HW126084   1.849   6.607   4.942
 8395SOL    HW226085   1.950   6.657   5.059
 8396SOL     OW26086   4.199   5.253   2.495
 8396SOL    HW126087   4.131   5.314   2.534
 8396SOL    HW226088   4.283   5.304   2.477
 8397SOL     OW26089   2.454   0.223   2.764
 8397SOL    HW126090   2.407   0.135   2.764
 8397SOL    HW226091   2.392   0.294   2.797
 8398SOL     OW26092   4.409   1.737   6.707
 8398SOL    HW126093   4.507   1.758   6.696
 8398SOL    HW226094   4.386   1.742   6.804
 8399SOL     OW26095   5.932   5.915   0.087
 8399SOL    HW126096   5.910   5.842   0.152
 8399SOL    HW226097   5.849   5.944   0.040
 8400SOL     OW26098   1.413   1.432   4.553
 8400SOL    HW126099   1.373   1.510   4.602
 8400SOL    HW226100   1.452   1.368   4.619
 8401SOL     OW26101   2.940   1.485   6.423
 8401SOL    HW126102   2.900   1.542   6.494
 8401SOL    HW226103   2.908   1.516   6.333
 8402SOL     OW26104   4.027   1.764   5.424
 8402SOL    HW126105   4.126   1.774   5.414
 8402SOL    HW226106   3.998   1.677   5.385
 8403SOL     OW26107   0.813   2.205   4.565
 8403SOL    HW126108   0.772   2.114   4.556
 8403SOL    HW226109   0.909   2.195   4.593
 8404SOL     OW26110   4.558   6.999   5.596
 8404SOL    HW126111   4.485   6.932   5.608
 8404SOL    HW226112   4.519   0.061   5.569
 8405SOL     OW26113   2.098   0.450   5.496
 8405SOL    HW126114   2.154   0.476   5.575
 8405SOL    HW226115   2.084   0.529   5.437
 8406SOL     OW26116   5.629   0.148   0.564
 8406SOL    HW126117   5.633   0.114   0.659
 8406SOL    HW226118   5.712   0.200   0.544
 8407SOL     OW26119   3.370   6.268   3.714
 8407SOL    HW126120   3.272   6.289   3.708
 8407SOL    HW226121   3.406   6.249   3.623
 8408SOL     OW26122   5.667   3.710   1.957
 8408SOL    HW126123   5.748   3.741   2.007
 8408SOL    HW226124   5.619   3.641   2.011
 8409SOL     OW26125   5.541   2.474   3.619
 8409SOL    HW126126   5.626   2.458   3.668
 8409SOL    HW226127   5.496   2.556   3.656
 8410SOL     OW26128   5.492   0.916   2.001
 8410SOL    HW126129   5.396   0.888   1.997
 8410SOL    HW226130   5.524   0.941   1.909
 8411SOL     OW26131   0.574   4.488   0.011
 8411SOL    HW126132   0.490   4.540   0.008
 8411SOL    HW226133   0.631   4.510   6.958
 8412SOL     OW26134   2.878   1.257   1.221
 8412SOL    HW126135   2.870   1.227   1.126
 8412SOL    HW226136   2.818   1.202   1.279
 8413SOL     OW26137   4.439   5.408   6.772
 8413SOL    HW126138   4.500   5.368   6.703
 8413SOL    HW226139   4.344   5.398   6.742
 8414SOL     OW26140   3.551   4.936   3.410
 8414SOL    HW126141   3.562   4.896   3.319
 8414SOL    HW226142   3.456   4.964   3.422
 8415SOL     OW26143   6.868   6.000   4.130
 8415SOL    HW126144   6.872   6.098   4.147
 8415SOL    HW226145   6.840   5.984   4.035
 8416SOL     OW26146   5.319   3.610   2.089
 8416SOL    HW126147   5.410   3.571   2.100
 8416SOL    HW226148   5.308   3.645   1.996
 8417SOL     OW26149   1.378   4.096   5.904
 8417SOL    HW126150   1.429   4.141   5.977
 8417SOL    HW226151   1.433   4.023   5.865
 8418SOL     OW26152   6.034   4.905   0.784
 8418SOL    HW126153   6.085   4.972   0.838
 8418SOL    HW226154   6.058   4.813   0.813
 8419SOL     OW26155   5.410   0.151   2.192
 8419SOL    HW126156   5.441   0.069   2.240
 8419SOL    HW226157   5.439   0.232   2.243
 8420SOL     OW26158   4.549   0.076   0.354
 8420SOL    HW126159   4.530   7.023   0.294
 8420SOL    HW226160   4.488   0.072   0.433
 8421SOL     OW26161   1.197   5.445   6.855
 8421SOL    HW126162   1.271   5.414   6.796
 8421SOL    HW226163   1.231   5.516   6.917
 8422SOL     OW26164   3.968   1.471   0.874
 8422SOL    HW126165   3.919   1.386   0.855
 8422SOL    HW226166   3.924   1.546   0.825
 8423SOL     OW26167   3.225   4.378   5.694
 8423SOL    HW126168   3.166   4.328   5.758
 8423SOL    HW226169   3.238   4.324   5.611
 8424SOL     OW26170   2.100   2.383   2.468
 8424SOL    HW126171   2.051   2.395   2.554
 8424SOL    HW226172   2.178   2.445   2.465
 8425SOL     OW26173   5.009   4.974   6.373
 8425SOL    HW126174   4.952   4.980   6.455
 8425SOL    HW226175   5.090   5.032   6.385
 8426SOL     OW26176   3.492   3.618   3.398
 8426SOL    HW126177   3.558   3.551   3.362
 8426SOL    HW226178   3.411   3.618   3.340
 8427SOL     OW26179   3.974   3.903   4.721
 8427SOL    HW126180   3.932   3.981   4.767
 8427SOL    HW226181   4.028   3.935   4.643
 8428SOL     OW26182   0.633   4.903   1.582
 8428SOL    HW126183   0.612   4.814   1.622
 8428SOL    HW226184   0.654   4.968   1.655
 8429SOL     OW26185   1.714   5.749   4.416
 8429SOL    HW126186   1.707   5.656   4.451
 8429SOL    HW226187   1.811   5.775   4.410
 8430SOL     OW26188   3.733   5.176   3.512
 8430SOL    HW126189   3.698   5.086   3.485
 8430SOL    HW226190   3.733   5.236   3.433
 8431SOL     OW26191   2.948   4.604   0.433
 8431SOL    HW126192   2.931   4.700   0.410
 8431SOL    HW226193   2.877   4.546   0.392
 8432SOL     OW26194   5.559   6.842   6.247
 8432SOL    HW126195   5.502   6.813   6.324
 8432SOL    HW226196   5.616   6.766   6.216
 8433SOL     OW26197   4.776   2.761   0.625
 8433SOL    HW126198   4.793   2.850   0.668
 8433SOL    HW226199   4.814   2.761   0.532
 8434SOL     OW26200   2.818   6.418   4.951
 8434SOL    HW126201   2.745   6.439   5.016
 8434SOL    HW226202   2.795   6.334   4.902
 8435SOL     OW26203   6.210   1.139   2.086
 8435SOL    HW126204   6.206   1.092   2.174
 8435SOL    HW226205   6.129   1.117   2.032
 8436SOL     OW26206   3.430   6.927   3.547
 8436SOL    HW126207   3.454   6.832   3.530
 8436SOL    HW226208   3.348   6.951   3.495
 8437SOL     OW26209   2.322   0.648   4.371
 8437SOL    HW126210   2.245   0.598   4.330
 8437SOL    HW226211   2.349   0.722   4.310
 8438SOL     OW26212   2.410   4.464   2.261
 8438SOL    HW126213   2.419   4.517   2.345
 8438SOL    HW226214   2.474   4.499   2.192
 8439SOL     OW26215   6.778   5.094   2.515
 8439SOL    HW126216   6.748   5.000   2.497
 8439SOL    HW226217   6.870   5.107   2.478
 8440SOL     OW26218   1.283   2.345   3.999
 8440SOL    HW126219   1.355   2.402   4.040
 8440SOL    HW226220   1.198   2.358   4.050
 8441SOL     OW26221   5.913   6.500   0.530
 8441SOL    HW126222   5.821   6.529   0.504
 8441SOL    HW226223   5.972   6.581   0.536
 8442SOL     OW26224   3.160   1.528   4.973
 8442SOL    HW126225   3.258   1.534   4.959
 8442SOL    HW226226   3.113   1.516   4.885
 8443SOL     OW26227   2.624   4.995   3.810
 8443SOL    HW126228   2.682   5.051   3.869
 8443SOL    HW226229   2.545   5.048   3.780
 8444SOL     OW26230   2.622   6.102   4.057
 8444SOL    HW126231   2.607   6.165   3.980
 8444SOL    HW226232   2.553   6.117   4.127
 8445SOL     OW26233   3.976   6.545   0.838
 8445SOL    HW126234   4.044   6.524   0.909
 8445SOL    HW226235   3.915   6.467   0.826
 8446SOL     OW26236   4.710   4.435   6.723
 8446SOL    HW126237   4.794   4.414   6.674
 8446SOL    HW226238   4.635   4.445   6.658
 8447SOL     OW26239   5.060   2.012   1.999
 8447SOL    HW126240   5.056   2.039   1.902
 8447SOL    HW226241   5.015   2.082   2.055
 8448SOL     OW26242   4.142   5.837   4.553
 8448SOL    HW126243   4.223   5.800   4.507
 8448SOL    HW226244   4.136   5.935   4.535
 8449SOL     OW26245   6.727   2.730   3.612
 8449SOL    HW126246   6.697   2.782   3.532
 8449SOL    HW226247   6.647   2.703   3.666
 8450SOL     OW26248   0.659   6.331   0.774
 8450SOL    HW126249   0.753   6.324   0.806
 8450SOL    HW226250   0.635   6.248   0.723
 8451SOL     OW26251   3.930   1.625   0.382
 8451SOL    HW126252   3.894   1.563   0.312
 8451SOL    HW226253   3.900   1.718   0.363
 8452SOL     OW26254   5.723   1.799   2.597
 8452SOL    HW126255   5.769   1.735   2.535
 8452SOL    HW226256   5.628   1.809   2.570
 8453SOL     OW26257   0.285   4.318   6.743
 8453SOL    HW126258   0.362   4.289   6.799
 8453SOL    HW226259   0.202   4.321   6.798
 8454SOL     OW26260   6.807   6.625   1.656
 8454SOL    HW126261   6.859   6.593   1.736
 8454SOL    HW226262   6.796   6.549   1.592
 8455SOL     OW26263   6.201   2.575   1.975
 8455SOL    HW126264   6.195   2.671   1.949
 8455SOL    HW226265   6.297   2.546   1.975
 8456SOL     OW26266   3.979   5.676   2.894
 8456SOL    HW126267   4.054   5.733   2.928
 8456SOL    HW226268   3.947   5.712   2.806
 8457SOL     OW26269   6.829   6.716   4.787
 8457SOL    HW126270   6.888   6.637   4.773
 8457SOL    HW226271   6.751   6.711   4.725
 8458SOL     OW26272   3.433   1.526   6.751
 8458SOL    HW126273   3.467   1.598   6.812
 8458SOL    HW226274   3.465   1.437   6.784
 8459SOL     OW26275   2.705   5.643   2.050
 8459SOL    HW126276   2.742   5.683   2.134
 8459SOL    HW226277   2.660   5.714   1.996
 8460SOL     OW26278   4.249   4.171   5.429
 8460SOL    HW126279   4.161   4.137   5.397
 8460SOL    HW226280   4.310   4.094   5.448
 8461SOL     OW26281   0.299   4.154   4.150
 8461SOL    HW126282   0.226   4.085   4.155
 8461SOL    HW226283   0.372   4.130   4.214
 8462SOL     OW26284   2.881   2.981   6.360
 8462SOL    HW126285   2.787   2.989   6.395
 8462SOL    HW226286   2.945   2.997   6.435
 8463SOL     OW26287   6.592   0.118   1.259
 8463SOL    HW126288   6.526   0.055   1.219
 8463SOL    HW226289   6.576   0.210   1.225
 8464SOL     OW26290   5.536   3.205   4.776
 8464SOL    HW126291   5.449   3.222   4.731
 8464SOL    HW226292   5.539   3.254   4.863
 8465SOL     OW26293   0.828   2.756   0.720
 8465SOL    HW126294   0.907   2.711   0.761
 8465SOL    HW226295   0.779   2.690   0.662
 8466SOL     OW26296   0.050   7.001   4.288
 8466SOL    HW126297   0.080   0.065   4.319
 8466SOL    HW226298   0.129   6.941   4.275
 8467SOL     OW26299   4.573   6.945   0.658
 8467SOL    HW126300   4.525   6.862   0.686
 8467SOL    HW226301   4.515   7.000   0.599
 8468SOL     OW26302   3.667   2.277   6.540
 8468SOL    HW126303   3.705   2.367   6.561
 8468SOL    HW226304   3.726   2.207   6.580
 8469SOL     OW26305   3.432   1.664   6.504
 8469SOL    HW126306   3.337   1.638   6.485
 8469SOL    HW226307   3.461   1.620   6.589
 8470SOL     OW26308   1.631   3.629   0.040
 8470SOL    HW126309   1.615   3.587   0.130
 8470SOL    HW226310   1.655   3.725   0.051
 8471SOL     OW26311   3.490   1.077   3.413
 8471SOL    HW126312   3.589   1.087   3.412
 8471SOL    HW226313   3.465   0.987   3.376
 8472SOL     OW26314   6.925   0.844   5.166
 8472SOL    HW126315   6.907   0.862   5.262
 8472SOL    HW226316   6.900   0.749   5.144
 8473SOL     OW26317   6.405   5.770   7.019
 8473SOL    HW126318   6.439   5.784   6.926
 8473SOL    HW226319   6.313   5.809   0.001
 8474SOL     OW26320   3.514   2.897   1.542
 8474SOL    HW126321   3.551   2.986   1.516
 8474SOL    HW226322   3.414   2.898   1.531
 8475SOL     OW26323   6.829   2.433   3.544
 8475SOL    HW126324   6.781   2.464   3.626
 8475SOL    HW226325   6.772   2.369   3.494
 8476SOL     OW26326   6.867   1.933   1.181
 8476SOL    HW126327   6.890   1.878   1.101
 8476SOL    HW226328   6.777   1.975   1.168
 8477SOL     OW26329   5.160   6.620   0.829
 8477SOL    HW126330   5.086   6.590   0.768
 8477SOL    HW226331   5.121   6.677   0.902
 8478SOL     OW26332   1.014   6.516   5.787
 8478SOL    HW126333   0.992   6.448   5.857
 8478SOL    HW226334   1.021   6.606   5.830
 8479SOL     OW26335   0.828   2.287   1.128
 8479SOL    HW126336   0.870   2.359   1.182
 8479SOL    HW226337   0.816   2.205   1.185
 8480SOL     OW26338   4.534   1.528   0.169
 8480SOL    HW126339   4.582   1.539   0.257
 8480SOL    HW226340   4.458   1.464   0.181
 8481SOL     OW26341   4.037   2.238   4.104
 8481SOL    HW126342   4.129   2.276   4.114
 8481SOL    HW226343   4.015   2.229   4.007
 8482SOL     OW26344   4.481   5.868   1.682
 8482SOL    HW126345   4.510   5.786   1.632
 8482SOL    HW226346   4.432   5.929   1.620
 8483SOL     OW26347   4.621   6.269   2.539
 8483SOL    HW126348   4.634   6.296   2.443
 8483SOL    HW226349   4.672   6.332   2.597
 8484SOL     OW26350   0.652   5.888   3.506
 8484SOL    HW126351   0.725   5.829   3.471
 8484SOL    HW226352   0.624   5.952   3.434
 8485SOL     OW26353   3.794   3.232   0.062
 8485SOL    HW126354   3.787   3.214   0.160
 8485SOL    HW226355   3.745   3.160   0.011
 8486SOL     OW26356   3.415   0.729   2.862
 8486SOL    HW126357   3.412   0.644   2.915
 8486SOL    HW226358   3.497   0.780   2.886
 8487SOL     OW26359   5.548   1.847   6.012
 8487SOL    HW126360   5.568   1.771   6.073
 8487SOL    HW226361   5.629   1.907   6.006
 8488SOL     OW26362   5.612   5.704   6.910
 8488SOL    HW126363   5.532   5.666   6.956
 8488SOL    HW226364   5.694   5.682   6.964
 8489SOL     OW26365   6.087   1.857   1.469
 8489SOL    HW126366   6.161   1.864   1.536
 8489SOL    HW226367   6.072   1.761   1.447
 8490SOL     OW26368   4.306   6.701   3.932
 8490SOL    HW126369   4.209   6.699   3.958
 8490SOL    HW226370   4.356   6.634   3.986
 8491SOL     OW26371   2.369   5.946   0.325
 8491SOL    HW126372   2.406   6.038   0.338
 8491SOL    HW226373   2.444   5.879   0.330
 8492SOL     OW26374   4.652   3.988   6.406
 8492SOL    HW126375   4.729   3.930   6.377
 8492SOL    HW226376   4.625   4.047   6.330
 8493SOL     OW26377   2.505   2.457   6.475
 8493SOL    HW126378   2.532   2.422   6.564
 8493SOL    HW226379   2.422   2.410   6.444
 8494SOL     OW26380   3.393   5.345   0.915
 8494SOL    HW126381   3.334   5.267   0.938
 8494SOL    HW226382   3.389   5.413   0.989
 8495SOL     OW26383   6.517   5.008   2.222
 8495SOL    HW126384   6.609   5.046   2.236
 8495SOL    HW226385   6.452   5.082   2.205
 8496SOL     OW26386   0.720   2.053   2.079
 8496SOL    HW126387   0.714   2.007   1.990
 8496SOL    HW226388   0.629   2.083   2.107
 8497SOL     OW26389   6.123   1.184   3.246
 8497SOL    HW126390   6.113   1.146   3.338
 8497SOL    HW226391   6.034   1.182   3.200
 8498SOL     OW26392   0.155   6.954   2.656
 8498SOL    HW126393   0.156   6.919   2.750
 8498SOL    HW226394   0.128   0.024   2.657
 8499SOL     OW26395   2.276   4.617   6.596
 8499SOL    HW126396   2.338   4.594   6.521
 8499SOL    HW226397   2.189   4.650   6.559
 8500SOL     OW26398   1.852   6.382   5.376
 8500SOL    HW126399   1.823   6.360   5.469
 8500SOL    HW226400   1.853   6.481   5.364
 8501SOL     OW26401   0.695   1.556   6.956
 8501SOL    HW126402   0.792   1.569   6.976
 8501SOL    HW226403   0.683   1.472   6.903
 8502SOL     OW26404   1.479   4.128   1.176
 8502SOL    HW126405   1.569   4.152   1.210
 8502SOL    HW226406   1.426   4.086   1.249
 8503SOL     OW26407   2.000   0.134   4.205
 8503SOL    HW126408   2.000   0.104   4.109
 8503SOL    HW226409   1.970   0.229   4.211
 8504SOL     OW26410   2.603   5.320   2.285
 8504SOL    HW126411   2.617   5.334   2.187
 8504SOL    HW226412   2.687   5.284   2.326
 8505SOL     OW26413   4.887   3.277   3.718
 8505SOL    HW126414   4.839   3.364   3.731
 8505SOL    HW226415   4.938   3.279   3.633
 8506SOL     OW26416   6.859   1.277   6.496
 8506SOL    HW126417   6.949   1.243   6.468
 8506SOL    HW226418   6.809   1.204   6.543
 8507SOL     OW26419   3.604   1.008   5.453
 8507SOL    HW126420   3.703   0.996   5.443
 8507SOL    HW226421   3.569   1.059   5.375
 8508SOL     OW26422   6.267   2.039   5.343
 8508SOL    HW126423   6.307   2.024   5.253
 8508SOL    HW226424   6.338   2.065   5.408
 8509SOL     OW26425   4.244   1.719   3.557
 8509SOL    HW126426   4.257   1.755   3.464
 8509SOL    HW226427   4.150   1.737   3.586
 8510SOL     OW26428   5.872   4.012   3.408
 8510SOL    HW126429   5.797   3.968   3.358
 8510SOL    HW226430   5.872   4.110   3.387
 8511SOL     OW26431   6.490   3.702   1.767
 8511SOL    HW126432   6.445   3.709   1.678
 8511SOL    HW226433   6.470   3.784   1.820
 8512SOL     OW26434   3.481   2.094   1.546
 8512SOL    HW126435   3.479   1.995   1.562
 8512SOL    HW226436   3.458   2.142   1.630
 8513SOL     OW26437   5.440   4.266   1.206
 8513SOL    HW126438   5.468   4.175   1.237
 8513SOL    HW226439   5.483   4.335   1.264
 8514SOL     OW26440   2.550   2.298   3.900
 8514SOL    HW126441   2.521   2.357   3.825
 8514SOL    HW226442   2.495   2.214   3.899
 8515SOL     OW26443   5.776   1.990   0.933
 8515SOL    HW126444   5.805   1.934   1.011
 8515SOL    HW226445   5.709   2.058   0.963
 8516SOL     OW26446   6.552   2.417   1.461
 8516SOL    HW126447   6.635   2.397   1.409
 8516SOL    HW226448   6.495   2.481   1.408
 8517SOL     OW26449   1.724   3.106   6.187
 8517SOL    HW126450   1.753   3.134   6.279
 8517SOL    HW226451   1.657   3.032   6.195
 8518SOL     OW26452   4.793   3.907   0.197
 8518SOL    HW126453   4.818   3.845   0.122
 8518SOL    HW226454   4.875   3.953   0.230
 8519SOL     OW26455   1.120   4.083   1.614
 8519SOL    HW126456   1.121   4.133   1.700
 8519SOL    HW226457   1.158   3.991   1.629
 8520SOL     OW26458   3.709   3.013   6.966
 8520SOL    HW126459   3.615   2.986   6.989
 8520SOL    HW226460   3.749   2.945   6.905
 8521SOL     OW26461   1.999   4.911   6.321
 8521SOL    HW126462   1.958   4.882   6.235
 8521SOL    HW226463   1.940   4.978   6.366
 8522SOL     OW26464   1.503   6.379   1.671
 8522SOL    HW126465   1.441   6.443   1.624
 8522SOL    HW226466   1.451   6.298   1.699
 8523SOL     OW26467   1.843   6.566   6.685
 8523SOL    HW126468   1.933   6.595   6.717
 8523SOL    HW226469   1.794   6.645   6.648
 8524SOL     OW26470   0.372   2.520   4.861
 8524SOL    HW126471   0.393   2.603   4.810
 8524SOL    HW226472   0.304   2.540   4.931
 8525SOL     OW26473   5.913   3.871   2.830
 8525SOL    HW126474   5.895   3.959   2.786
 8525SOL    HW226475   5.956   3.809   2.765
 8526SOL     OW26476   3.958   5.799   6.485
 8526SOL    HW126477   4.032   5.736   6.463
 8526SOL    HW226478   3.966   5.881   6.428
 8527SOL     OW26479   2.891   1.182   6.340
 8527SOL    HW126480   2.967   1.123   6.367
 8527SOL    HW226481   2.868   1.243   6.415
 8528SOL     OW26482   3.663   1.623   6.265
 8528SOL    HW126483   3.661   1.722   6.278
 8528SOL    HW226484   3.748   1.586   6.303
 8529SOL     OW26485   1.215   0.568   1.156
 8529SOL    HW126486   1.215   0.503   1.080
 8529SOL    HW226487   1.124   0.609   1.166
 8530SOL     OW26488   3.155   3.911   4.889
 8530SOL    HW126489   3.180   3.814   4.881
 8530SOL    HW226490   3.082   3.931   4.824
 8531SOL     OW26491   6.485   5.383   2.335
 8531SOL    HW126492   6.408   5.446   2.325
 8531SOL    HW226493   6.554   5.403   2.266
 8532SOL     OW26494   3.866   4.902   4.519
 8532SOL    HW126495   3.871   4.855   4.431
 8532SOL    HW226496   3.770   4.910   4.547
 8533SOL     OW26497   1.525   0.247   6.529
 8533SOL    HW126498   1.519   0.261   6.628
 8533SOL    HW226499   1.494   0.329   6.482
 8534SOL     OW26500   6.332   2.957   3.887
 8534SOL    HW126501   6.362   2.913   3.971
 8534SOL    HW226502   6.238   2.928   3.865
 8535SOL     OW26503   6.528   1.584   4.639
 8535SOL    HW126504   6.571   1.650   4.701
 8535SOL    HW226505   6.504   1.501   4.689
 8536SOL     OW26506   6.492   2.877   5.142
 8536SOL    HW126507   6.546   2.801   5.105
 8536SOL    HW226508   6.421   2.841   5.203
 8537SOL     OW26509   5.432   1.447   2.219
 8537SOL    HW126510   5.498   1.426   2.291
 8537SOL    HW226511   5.369   1.518   2.251
 8538SOL     OW26512   0.448   1.003   6.794
 8538SOL    HW126513   0.464   0.925   6.855
 8538SOL    HW226514   0.519   1.072   6.810
 8539SOL     OW26515   5.571   0.769   2.234
 8539SOL    HW126516   5.546   0.831   2.160
 8539SOL    HW226517   5.490   0.744   2.286
 8540SOL     OW26518   4.718   0.683   6.943
 8540SOL    HW126519   4.713   0.727   0.007
 8540SOL    HW226520   4.804   0.632   6.936
 8541SOL     OW26521   2.712   1.727   4.772
 8541SOL    HW126522   2.805   1.689   4.766
 8541SOL    HW226523   2.646   1.656   4.745
 8542SOL     OW26524   4.119   4.853   6.538
 8542SOL    HW126525   4.060   4.902   6.602
 8542SOL    HW226526   4.062   4.808   6.469
 8543SOL     OW26527   3.334   0.402   0.682
 8543SOL    HW126528   3.241   0.437   0.679
 8543SOL    HW226529   3.398   0.474   0.656
 8544SOL     OW26530   5.273   3.202   4.669
 8544SOL    HW126531   5.193   3.159   4.628
 8544SOL    HW226532   5.287   3.293   4.630
 8545SOL     OW26533   4.637   6.648   4.984
 8545SOL    HW126534   4.574   6.655   5.061
 8545SOL    HW226535   4.609   6.710   4.911
 8546SOL     OW26536   0.310   0.797   3.586
 8546SOL    HW126537   0.212   0.814   3.598
 8546SOL    HW226538   0.325   0.699   3.576
 8547SOL     OW26539   1.150   6.494   6.413
 8547SOL    HW126540   1.099   6.563   6.363
 8547SOL    HW226541   1.087   6.442   6.472
 8548SOL     OW26542   6.157   3.591   5.338
 8548SOL    HW126543   6.112   3.516   5.290
 8548SOL    HW226544   6.248   3.562   5.367
 8549SOL     OW26545   1.118   3.157   4.471
 8549SOL    HW126546   1.197   3.095   4.470
 8549SOL    HW226547   1.038   3.109   4.506
 8550SOL     OW26548   1.805   4.803   6.894
 8550SOL    HW126549   1.773   4.815   6.800
 8550SOL    HW226550   1.859   4.882   6.922
 8551SOL     OW26551   2.895   3.589   6.502
 8551SOL    HW126552   2.982   3.608   6.456
 8551SOL    HW226553   2.895   3.495   6.536
 8552SOL     OW26554   2.574   0.682   3.738
 8552SOL    HW126555   2.529   0.598   3.706
 8552SOL    HW226556   2.630   0.661   3.819
 8553SOL     OW26557   4.307   3.895   6.781
 8553SOL    HW126558   4.353   3.906   6.693
 8553SOL    HW226559   4.376   3.890   6.854
 8554SOL     OW26560   1.071   4.616   0.452
 8554SOL    HW126561   1.039   4.690   0.393
 8554SOL    HW226562   1.147   4.567   0.408
 8555SOL     OW26563   2.279   1.304   3.668
 8555SOL    HW126564   2.290   1.319   3.569
 8555SOL    HW226565   2.327   1.376   3.718
 8556SOL     OW26566   1.465   5.956   5.012
 8556SOL    HW126567   1.549   5.996   5.049
 8556SOL    HW226568   1.405   6.029   4.979
 8557SOL     OW26569   5.674   6.725   2.717
 8557SOL    HW126570   5.726   6.660   2.662
 8557SOL    HW226571   5.594   6.679   2.756
 8558SOL     OW26572   2.602   4.629   2.966
 8558SOL    HW126573   2.606   4.729   2.962
 8558SOL    HW226574   2.627   4.598   3.058
 8559SOL     OW26575   1.445   0.123   2.592
 8559SOL    HW126576   1.411   0.087   2.505
 8559SOL    HW226577   1.369   0.166   2.641
 8560SOL     OW26578   6.729   6.289   1.678
 8560SOL    HW126579   6.701   6.278   1.582
 8560SOL    HW226580   6.828   6.290   1.684
 8561SOL     OW26581   3.225   0.507   2.504
 8561SOL    HW126582   3.136   0.519   2.459
 8561SOL    HW226583   3.257   0.596   2.538
 8562SOL     OW26584   4.262   6.422   5.824
 8562SOL    HW126585   4.280   6.504   5.879
 8562SOL    HW226586   4.301   6.342   5.870
 8563SOL     OW26587   1.469   4.435   0.120
 8563SOL    HW126588   1.402   4.509   0.119
 8563SOL    HW226589   1.556   4.468   0.082
 8564SOL     OW26590   3.454   0.816   4.914
 8564SOL    HW126591   3.491   0.894   4.863
 8564SOL    HW226592   3.354   0.821   4.915
 8565SOL     OW26593   3.750   5.350   1.218
 8565SOL    HW126594   3.672   5.412   1.229
 8565SOL    HW226595   3.830   5.402   1.189
 8566SOL     OW26596   2.046   0.320   1.320
 8566SOL    HW126597   1.965   0.263   1.334
 8566SOL    HW226598   2.019   0.417   1.319
 8567SOL     OW26599   0.785   2.505   2.968
 8567SOL    HW126600   0.805   2.483   3.063
 8567SOL    HW226601   0.757   2.601   2.961
 8568SOL     OW26602   5.227   1.163   6.676
 8568SOL    HW126603   5.152   1.138   6.615
 8568SOL    HW226604   5.312   1.171   6.624
 8569SOL     OW26605   5.082   0.933   6.144
 8569SOL    HW126606   5.008   0.866   6.146
 8569SOL    HW226607   5.097   0.969   6.236
 8570SOL     OW26608   1.540   1.764   5.093
 8570SOL    HW126609   1.469   1.833   5.106
 8570SOL    HW226610   1.514   1.679   5.139
 8571SOL     OW26611   1.681   6.027   5.193
 8571SOL    HW126612   1.636   6.000   5.278
 8571SOL    HW226613   1.727   5.947   5.153
 8572SOL     OW26614   3.332   4.558   6.382
 8572SOL    HW126615   3.334   4.539   6.284
 8572SOL    HW226616   3.360   4.653   6.399
 8573SOL     OW26617   3.160   6.067   6.795
 8573SOL    HW126618   3.064   6.044   6.782
 8573SOL    HW226619   3.167   6.159   6.835
 8574SOL     OW26620   7.008   5.896   6.058
 8574SOL    HW126621   0.064   5.840   6.041
 8574SOL    HW226622   6.952   5.852   6.128
 8575SOL     OW26623   2.121   2.922   4.563
 8575SOL    HW126624   2.059   2.894   4.490
 8575SOL    HW226625   2.143   3.019   4.552
 8576SOL     OW26626   1.515   5.297   6.066
 8576SOL    HW126627   1.547   5.206   6.090
 8576SOL    HW226628   1.571   5.334   5.992
 8577SOL     OW26629   0.656   6.528   5.076
 8577SOL    HW126630   0.660   6.482   5.165
 8577SOL    HW226631   0.597   6.477   5.014
 8578SOL     OW26632   5.453   6.760   3.839
 8578SOL    HW126633   5.455   6.726   3.933
 8578SOL    HW226634   5.544   6.754   3.799
 8579SOL     OW26635   1.909   6.729   2.326
 8579SOL    HW126636   1.979   6.754   2.393
 8579SOL    HW226637   1.863   6.646   2.357
 8580SOL     OW26638   2.162   5.902   2.065
 8580SOL    HW126639   2.128   5.940   2.151
 8580SOL    HW226640   2.099   5.924   1.991
 8581SOL     OW26641   3.347   3.967   1.944
 8581SOL    HW126642   3.393   3.891   1.990
 8581SOL    HW226643   3.258   3.936   1.911
 8582SOL     OW26644   4.300   4.663   3.514
 8582SOL    HW126645   4.356   4.583   3.491
 8582SOL    HW226646   4.219   4.665   3.455
 8583SOL     OW26647   5.674   0.542   4.104
 8583SOL    HW126648   5.717   0.456   4.076
 8583SOL    HW226649   5.738   0.617   4.089
 8584SOL     OW26650   1.203   4.611   5.576
 8584SOL    HW126651   1.149   4.590   5.657
 8584SOL    HW226652   1.237   4.705   5.582
 8585SOL     OW26653   0.792   6.345   5.620
 8585SOL    HW126654   0.753   6.404   5.690
 8585SOL    HW226655   0.810   6.255   5.658
 8586SOL     OW26656   2.746   6.600   2.141
 8586SOL    HW126657   2.716   6.689   2.175
 8586SOL    HW226658   2.801   6.554   2.210
 8587SOL     OW26659   1.195   6.676   3.965
 8587SOL    HW126660   1.125   6.605   3.967
 8587SOL    HW226661   1.284   6.635   3.948
 8588SOL     OW26662   2.770   1.396   0.299
 8588SOL    HW126663   2.682   1.348   0.300
 8588SOL    HW226664   2.809   1.397   0.391
 8589SOL     OW26665   4.627   3.057   5.396
 8589SOL    HW126666   4.561   3.116   5.443
 8589SOL    HW226667   4.679   3.005   5.464
 8590SOL     OW26668   6.833   5.952   3.862
 8590SOL    HW126669   6.817   6.029   3.800
 8590SOL    HW226670   6.767   5.880   3.843
 8591SOL     OW26671   0.797   3.956   0.108
 8591SOL    HW126672   0.892   3.928   0.120
 8591SOL    HW226673   0.781   4.039   0.161
 8592SOL     OW26674   6.414   3.303   6.319
 8592SOL    HW126675   6.351   3.239   6.364
 8592SOL    HW226676   6.388   3.312   6.223
 8593SOL     OW26677   2.314   0.582   1.235
 8593SOL    HW126678   2.350   0.491   1.210
 8593SOL    HW226679   2.228   0.572   1.285
 8594SOL     OW26680   4.405   2.394   5.439
 8594SOL    HW126681   4.428   2.311   5.490
 8594SOL    HW226682   4.477   2.462   5.454
 8595SOL     OW26683   0.384   2.041   3.169
 8595SOL    HW126684   0.372   2.137   3.194
 8595SOL    HW226685   0.296   2.001   3.145
 8596SOL     OW26686   0.888   5.439   3.402
 8596SOL    HW126687   0.985   5.431   3.378
 8596SOL    HW226688   0.874   5.412   3.497
 8597SOL     OW26689   3.877   1.609   1.317
 8597SOL    HW126690   3.954   1.574   1.264
 8597SOL    HW226691   3.795   1.556   1.294
 8598SOL     OW26692   5.956   0.184   0.954
 8598SOL    HW126693   6.001   0.121   1.017
 8598SOL    HW226694   5.857   0.182   0.970
 8599SOL     OW26695   0.850   2.772   4.707
 8599SOL    HW126696   0.878   2.765   4.802
 8599SOL    HW226697   0.775   2.708   4.689
 8600SOL     OW26698   5.268   5.183   4.787
 8600SOL    HW126699   5.265   5.117   4.712
 8600SOL    HW226700   5.278   5.134   4.873
 8601SOL     OW26701   1.091   1.018   4.394
 8601SOL    HW126702   1.146   1.044   4.473
 8601SOL    HW226703   1.044   0.932   4.414
 8602SOL     OW26704   2.854   5.020   1.990
 8602SOL    HW126705   2.895   4.934   1.959
 8602SOL    HW226706   2.856   5.087   1.917
 8603SOL     OW26707   4.373   5.999   0.639
 8603SOL    HW126708   4.337   5.928   0.699
 8603SOL    HW226709   4.355   6.089   0.680
 8604SOL     OW26710   0.381   3.033   5.396
 8604SOL    HW126711   0.448   2.961   5.413
 8604SOL    HW226712   0.326   3.009   5.316
 8605SOL     OW26713   2.857   6.297   3.899
 8605SOL    HW126714   2.803   6.346   3.968
 8605SOL    HW226715   2.880   6.206   3.933
 8606SOL     OW26716   1.538   3.720   6.575
 8606SOL    HW126717   1.618   3.742   6.520
 8606SOL    HW226718   1.565   3.705   6.670
 8607SOL     OW26719   3.602   5.955   0.868
 8607SOL    HW126720   3.610   6.039   0.814
 8607SOL    HW226721   3.626   5.974   0.964
 8608SOL     OW26722   3.904   4.853   2.691
 8608SOL    HW126723   3.836   4.925   2.684
 8608SOL    HW226724   3.969   4.859   2.615
 8609SOL     OW26725   5.003   0.689   2.788
 8609SOL    HW126726   5.071   0.645   2.846
 8609SOL    HW226727   4.914   0.685   2.833
 8610SOL     OW26728   1.945   2.253   3.033
 8610SOL    HW126729   1.935   2.242   3.132
 8610SOL    HW226730   1.871   2.205   2.986
 8611SOL     OW26731   2.951   1.421   5.122
 8611SOL    HW126732   2.871   1.467   5.159
 8611SOL    HW226733   3.001   1.483   5.062
 8612SOL     OW26734   3.141   3.029   1.270
 8612SOL    HW126735   3.120   3.109   1.214
 8612SOL    HW226736   3.056   2.984   1.299
 8613SOL     OW26737   2.131   1.980   1.767
 8613SOL    HW126738   2.097   2.033   1.689
 8613SOL    HW226739   2.209   2.028   1.808
 8614SOL     OW26740   0.895   2.669   2.399
 8614SOL    HW126741   0.973   2.612   2.425
 8614SOL    HW226742   0.821   2.611   2.367
 8615SOL     OW26743   4.681   1.479   5.387
 8615SOL    HW126744   4.724   1.564   5.417
 8615SOL    HW226745   4.720   1.451   5.299
 8616SOL     OW26746   3.012   4.594   1.634
 8616SOL    HW126747   2.970   4.542   1.709
 8616SOL    HW226748   2.967   4.683   1.625
 8617SOL     OW26749   6.449   1.174   6.755
 8617SOL    HW126750   6.361   1.126   6.754
 8617SOL    HW226751   6.502   1.144   6.834
 8618SOL     OW26752   5.782   5.773   0.715
 8618SOL    HW126753   5.762   5.809   0.807
 8618SOL    HW226754   5.875   5.799   0.689
 8619SOL     OW26755   3.752   4.908   2.179
 8619SOL    HW126756   3.850   4.891   2.178
 8619SOL    HW226757   3.708   4.856   2.105
 8620SOL     OW26758   1.662   0.767   3.666
 8620SOL    HW126759   1.680   0.677   3.707
 8620SOL    HW226760   1.571   0.766   3.624
 8621SOL     OW26761   5.458   1.764   3.005
 8621SOL    HW126762   5.468   1.672   3.043
 8621SOL    HW226763   5.471   1.832   3.078
 8622SOL     OW26764   5.270   3.485   0.565
 8622SOL    HW126765   5.215   3.496   0.482
 8622SOL    HW226766   5.273   3.572   0.615
 8623SOL     OW26767   1.184   3.770   4.625
 8623SOL    HW126768   1.216   3.859   4.592
 8623SOL    HW226769   1.249   3.734   4.692
 8624SOL     OW26770   1.322   3.729   4.865
 8624SOL    HW126771   1.243   3.722   4.924
 8624SOL    HW226772   1.406   3.732   4.920
 8625SOL     OW26773   4.608   0.676   5.904
 8625SOL    HW126774   4.552   0.685   5.821
 8625SOL    HW226775   4.703   0.658   5.878
 8626SOL     OW26776   3.796   3.254   5.520
 8626SOL    HW126777   3.819   3.171   5.468
 8626SOL    HW226778   3.839   3.333   5.477
 8627SOL     OW26779   1.071   1.348   3.685
 8627SOL    HW126780   0.989   1.295   3.709
 8627SOL    HW226781   1.141   1.333   3.754
 8628SOL     OW26782   6.687   6.383   0.627
 8628SOL    HW126783   6.775   6.347   0.658
 8628SOL    HW226784   6.657   6.454   0.691
 8629SOL     OW26785   1.298   5.766   5.097
 8629SOL    HW126786   1.258   5.707   5.027
 8629SOL    HW226787   1.346   5.842   5.053
 8630SOL     OW26788   5.448   4.310   3.531
 8630SOL    HW126789   5.451   4.240   3.603
 8630SOL    HW226790   5.541   4.345   3.515
 8631SOL     OW26791   0.876   4.910   6.272
 8631SOL    HW126792   0.813   4.920   6.348
 8631SOL    HW226793   0.912   4.817   6.269
 8632SOL     OW26794   3.785   5.546   4.199
 8632SOL    HW126795   3.797   5.608   4.276
 8632SOL    HW226796   3.723   5.586   4.132
 8633SOL     OW26797   5.324   1.573   5.761
 8633SOL    HW126798   5.252   1.533   5.704
 8633SOL    HW226799   5.359   1.504   5.825
 8634SOL     OW26800   5.287   3.755   0.690
 8634SOL    HW126801   5.341   3.833   0.724
 8634SOL    HW226802   5.226   3.723   0.762
 8635SOL     OW26803   5.293   4.371   6.264
 8635SOL    HW126804   5.207   4.321   6.270
 8635SOL    HW226805   5.303   4.430   6.344
 8636SOL     OW26806   5.150   5.459   0.698
 8636SOL    HW126807   5.110   5.394   0.763
 8636SOL    HW226808   5.086   5.535   0.684
 8637SOL     OW26809   2.065   1.320   0.330
 8637SOL    HW126810   2.031   1.260   0.258
 8637SOL    HW226811   2.038   1.415   0.311
 8638SOL     OW26812   2.619   3.020   5.755
 8638SOL    HW126813   2.543   3.085   5.753
 8638SOL    HW226814   2.705   3.070   5.750
 8639SOL     OW26815   5.602   2.648   1.095
 8639SOL    HW126816   5.693   2.656   1.136
 8639SOL    HW226817   5.573   2.738   1.063
 8640SOL     OW26818   4.505   3.831   7.000
 8640SOL    HW126819   4.516   3.904   0.042
 8640SOL    HW226820   4.590   3.778   6.995
 8641SOL     OW26821   4.975   4.809   4.292
 8641SOL    HW126822   5.057   4.812   4.348
 8641SOL    HW226823   4.916   4.886   4.315
 8642SOL     OW26824   2.022   6.277   3.165
 8642SOL    HW126825   2.017   6.229   3.078
 8642SOL    HW226826   2.050   6.213   3.237
 8643SOL     OW26827   3.046   0.017   6.596
 8643SOL    HW126828   2.999   6.989   6.526
 8643SOL    HW226829   2.996   0.010   6.682
 8644SOL     OW26830   5.533   2.260   5.186
 8644SOL    HW126831   5.482   2.323   5.128
 8644SOL    HW226832   5.518   2.166   5.155
 8645SOL     OW26833   4.401   4.514   1.531
 8645SOL    HW126834   4.439   4.581   1.467
 8645SOL    HW226835   4.474   4.459   1.570
 8646SOL     OW26836   6.774   1.716   1.602
 8646SOL    HW126837   6.793   1.733   1.505
 8646SOL    HW226838   6.759   1.804   1.648
 8647SOL     OW26839   3.127   5.643   6.489
 8647SOL    HW126840   3.034   5.675   6.471
 8647SOL    HW226841   3.126   5.577   6.564
 8648SOL     OW26842   6.417   0.779   3.250
 8648SOL    HW126843   6.355   0.806   3.176
 8648SOL    HW226844   6.508   0.816   3.233
 8649SOL     OW26845   5.379   5.331   5.850
 8649SOL    HW126846   5.395   5.426   5.824
 8649SOL    HW226847   5.467   5.285   5.861
 8650SOL     OW26848   2.420   5.186   4.831
 8650SOL    HW126849   2.330   5.222   4.803
 8650SOL    HW226850   2.422   5.087   4.816
 8651SOL     OW26851   3.768   0.116   6.989
 8651SOL    HW126852   3.731   0.060   6.916
 8651SOL    HW226853   3.700   0.183   7.019
 8652SOL     OW26854   1.886   4.742   4.117
 8652SOL    HW126855   1.910   4.835   4.142
 8652SOL    HW226856   1.913   4.724   4.022
 8653SOL     OW26857   5.698   0.247   6.337
 8653SOL    HW126858   5.783   0.298   6.325
 8653SOL    HW226859   5.696   0.208   6.429
 8654SOL     OW26860   1.106   5.024   1.595
 8654SOL    HW126861   1.155   5.107   1.568
 8654SOL    HW226862   1.026   5.012   1.536
 8655SOL     OW26863   6.815   1.401   4.102
 8655SOL    HW126864   6.842   1.329   4.039
 8655SOL    HW226865   6.875   1.400   4.182
 8656SOL     OW26866   6.582   0.375   1.128
 8656SOL    HW126867   6.672   0.359   1.087
 8656SOL    HW226868   6.564   0.473   1.132
 8657SOL     OW26869   5.468   4.519   0.617
 8657SOL    HW126870   5.559   4.557   0.603
 8657SOL    HW226871   5.473   4.420   0.625
 8658SOL     OW26872   5.396   6.670   0.131
 8658SOL    HW126873   5.352   6.629   0.211
 8658SOL    HW226874   5.327   6.692   0.063
 8659SOL     OW26875   4.589   1.979   2.428
 8659SOL    HW126876   4.555   2.063   2.386
 8659SOL    HW226877   4.567   1.901   2.369
 8660SOL     OW26878   6.660   4.321   1.856
 8660SOL    HW126879   6.702   4.252   1.797
 8660SOL    HW226880   6.566   4.295   1.876
 8661SOL     OW26881   6.291   3.914   1.085
 8661SOL    HW126882   6.388   3.935   1.093
 8661SOL    HW226883   6.249   3.917   1.176
 8662SOL     OW26884   4.410   5.424   1.481
 8662SOL    HW126885   4.355   5.413   1.564
 8662SOL    HW226886   4.503   5.390   1.498
 8663SOL     OW26887   3.506   5.970   1.636
 8663SOL    HW126888   3.443   6.046   1.655
 8663SOL    HW226889   3.452   5.888   1.615
 8664SOL     OW26890   1.427   5.972   0.685
 8664SOL    HW126891   1.466   6.057   0.652
 8664SOL    HW226892   1.387   5.986   0.776
 8665SOL     OW26893   5.307   6.291   4.961
 8665SOL    HW126894   5.315   6.353   5.039
 8665SOL    HW226895   5.251   6.333   4.890
 8666SOL     OW26896   5.014   1.625   3.769
 8666SOL    HW126897   4.997   1.628   3.671
 8666SOL    HW226898   4.928   1.613   3.818
 8667SOL     OW26899   4.297   2.278   3.198
 8667SOL    HW126900   4.329   2.193   3.156
 8667SOL    HW226901   4.376   2.335   3.222
 8668SOL     OW26902   4.884   3.533   3.043
 8668SOL    HW126903   4.837   3.457   2.997
 8668SOL    HW226904   4.949   3.496   3.110
 8669SOL     OW26905   1.637   6.571   6.419
 8669SOL    HW126906   1.658   6.649   6.479
 8669SOL    HW226907   1.721   6.542   6.373
 8670SOL     OW26908   3.912   4.200   5.130
 8670SOL    HW126909   3.958   4.271   5.183
 8670SOL    HW226910   3.936   4.110   5.166
 8671SOL     OW26911   4.953   1.354   2.532
 8671SOL    HW126912   5.017   1.407   2.587
 8671SOL    HW226913   4.997   1.272   2.497
 8672SOL     OW26914   1.890   5.005   4.591
 8672SOL    HW126915   1.802   4.973   4.559
 8672SOL    HW226916   1.912   5.093   4.548
 8673SOL     OW26917   6.213   2.860   0.169
 8673SOL    HW126918   6.160   2.943   0.182
 8673SOL    HW226919   6.254   2.860   0.078
 8674SOL     OW26920   5.813   6.013   3.218
 8674SOL    HW126921   5.825   5.952   3.296
 8674SOL    HW226922   5.814   6.108   3.249
 8675SOL     OW26923   3.050   2.172   4.017
 8675SOL    HW126924   3.036   2.230   4.098
 8675SOL    HW226925   2.963   2.162   3.968
 8676SOL     OW26926   4.568   0.167   2.302
 8676SOL    HW126927   4.554   0.255   2.257
 8676SOL    HW226928   4.563   0.179   2.401
 8677SOL     OW26929   2.271   5.488   5.935
 8677SOL    HW126930   2.194   5.542   5.899
 8677SOL    HW226931   2.238   5.400   5.968
 8678SOL     OW26932   6.916   0.594   1.669
 8678SOL    HW126933   6.997   0.594   1.611
 8678SOL    HW226934   6.846   0.534   1.628
 8679SOL     OW26935   6.962   2.156   3.383
 8679SOL    HW126936   6.972   2.078   3.445
 8679SOL    HW226937   7.006   2.236   3.423
 8680SOL     OW26938   1.002   3.708   0.859
 8680SOL    HW126939   0.933   3.781   0.863
 8680SOL    HW226940   1.091   3.746   0.884
 8681SOL     OW26941   5.061   5.351   0.430
 8681SOL    HW126942   5.007   5.294   0.369
 8681SOL    HW226943   5.012   5.435   0.450
 8682SOL     OW26944   4.934   6.267   2.304
 8682SOL    HW126945   4.844   6.304   2.328
 8682SOL    HW226946   4.937   6.170   2.325
 8683SOL     OW26947   1.528   2.163   3.578
 8683SOL    HW126948   1.452   2.157   3.643
 8683SOL    HW226949   1.569   2.254   3.583
 8684SOL     OW26950   6.751   2.969   5.271
 8684SOL    HW126951   6.720   2.878   5.298
 8684SOL    HW226952   6.674   3.033   5.275
 8685SOL     OW26953   0.479   1.672   6.474
 8685SOL    HW126954   0.437   1.756   6.507
 8685SOL    HW226955   0.440   1.647   6.385
 8686SOL     OW26956   6.976   1.774   2.485
 8686SOL    HW126957   0.036   1.749   2.531
 8686SOL    HW226958   6.946   1.864   2.514
 8687SOL     OW26959   4.610   4.892   1.592
 8687SOL    HW126960   4.583   4.970   1.648
 8687SOL    HW226961   4.609   4.809   1.647
 8688SOL     OW26962   2.509   5.270   6.836
 8688SOL    HW126963   2.468   5.245   6.748
 8688SOL    HW226964   2.446   5.328   6.887
 8689SOL     OW26965   3.938   3.774   1.640
 8689SOL    HW126966   3.965   3.692   1.589
 8689SOL    HW226967   4.017   3.833   1.653
 8690SOL     OW26968   1.570   3.707   3.383
 8690SOL    HW126969   1.488   3.707   3.441
 8690SOL    HW226970   1.591   3.613   3.355
 8691SOL     OW26971   2.874   1.715   5.663
 8691SOL    HW126972   2.889   1.708   5.564
 8691SOL    HW226973   2.787   1.672   5.686
 8692SOL     OW26974   2.535   1.519   4.762
 8692SOL    HW126975   2.556   1.421   4.763
 8692SOL    HW226976   2.438   1.533   4.746
 8693SOL     OW26977   6.139   1.070   0.059
 8693SOL    HW126978   6.077   1.000   0.024
 8693SOL    HW226979   6.192   1.032   0.135
 8694SOL     OW26980   4.796   1.028   5.211
 8694SOL    HW126981   4.794   1.128   5.214
 8694SOL    HW226982   4.744   0.996   5.132
 8695SOL     OW26983   3.982   3.119   6.010
 8695SOL    HW126984   3.954   3.213   5.992
 8695SOL    HW226985   3.906   3.057   5.992
 8696SOL     OW26986   2.025   4.958   6.718
 8696SOL    HW126987   2.113   4.960   6.765
 8696SOL    HW226988   2.019   4.875   6.662
 8697SOL     OW26989   6.787   3.011   6.232
 8697SOL    HW126990   6.755   3.094   6.276
 8697SOL    HW226991   6.725   2.935   6.254
 8698SOL     OW26992   5.346   6.308   5.585
 8698SOL    HW126993   5.369   6.403   5.608
 8698SOL    HW226994   5.427   6.261   5.551
 8699SOL     OW26995   1.709   2.654   5.443
 8699SOL    HW126996   1.613   2.630   5.458
 8699SOL    HW226997   1.717   2.705   5.357
 8700SOL     OW26998   1.133   1.205   4.183
 8700SOL    HW126999   1.056   1.268   4.188
 8700SOL    HW227000   1.117   1.128   4.245
 8701SOL     OW27001   0.757   1.126   0.658
 8701SOL    HW127002   0.786   1.198   0.595
 8701SOL    HW227003   0.837   1.077   0.692
 8702SOL     OW27004   5.697   5.195   1.805
 8702SOL    HW127005   5.749   5.262   1.857
 8702SOL    HW227006   5.758   5.143   1.745
 8703SOL     OW27007   2.843   4.886   6.430
 8703SOL    HW127008   2.927   4.832   6.429
 8703SOL    HW227009   2.866   4.983   6.422
 8704SOL     OW27010   0.440   3.851   3.082
 8704SOL    HW127011   0.538   3.866   3.092
 8704SOL    HW227012   0.424   3.755   3.058
 8705SOL     OW27013   5.712   1.206   6.472
 8705SOL    HW127014   5.804   1.245   6.470
 8705SOL    HW227015   5.659   1.243   6.395
 8706SOL     OW27016   4.734   1.860   7.015
 8706SOL    HW127017   4.660   1.875   0.056
 8706SOL    HW227018   4.795   1.789   0.024
 8707SOL     OW27019   6.855   1.523   6.396
 8707SOL    HW127020   6.862   1.436   6.445
 8707SOL    HW227021   6.785   1.580   6.438
 8708SOL     OW27022   4.421   2.002   2.966
 8708SOL    HW127023   4.333   1.965   2.996
 8708SOL    HW227024   4.427   1.997   2.867
 8709SOL     OW27025   6.983   6.678   0.167
 8709SOL    HW127026   0.032   6.681   0.100
 8709SOL    HW227027   6.955   6.771   0.191
 8710SOL     OW27028   2.045   3.434   3.948
 8710SOL    HW127029   2.080   3.341   3.943
 8710SOL    HW227030   2.080   3.480   4.029
 8711SOL     OW27031   1.750   6.923   3.141
 8711SOL    HW127032   1.829   6.896   3.085
 8711SOL    HW227033   1.675   6.859   3.126
 8712SOL     OW27034   4.167   2.260   4.854
 8712SOL    HW127035   4.198   2.335   4.912
 8712SOL    HW227036   4.090   2.213   4.898
 8713SOL     OW27037   6.332   3.234   3.860
 8713SOL    HW127038   6.389   3.280   3.792
 8713SOL    HW227039   6.356   3.137   3.864
 8714SOL     OW27040   0.717   0.548   6.169
 8714SOL    HW127041   0.780   0.609   6.219
 8714SOL    HW227042   0.769   0.473   6.129
 8715SOL     OW27043   4.774   0.192   0.778
 8715SOL    HW127044   4.757   0.124   0.849
 8715SOL    HW227045   4.760   0.150   0.688
 8716SOL     OW27046   6.896   6.877   1.550
 8716SOL    HW127047   6.852   6.787   1.543
 8716SOL    HW227048   6.829   6.948   1.529
 8717SOL     OW27049   3.322   3.175   4.316
 8717SOL    HW127050   3.287   3.099   4.371
 8717SOL    HW227051   3.404   3.212   4.358
 8718SOL     OW27052   1.418   4.089   5.016
 8718SOL    HW127053   1.400   4.089   5.115
 8718SOL    HW227054   1.514   4.066   5.000
 8719SOL     OW27055   3.479   0.589   6.680
 8719SOL    HW127056   3.474   0.523   6.606
 8719SOL    HW227057   3.566   0.640   6.674
 8720SOL     OW27058   6.868   5.310   5.734
 8720SOL    HW127059   6.926   5.378   5.688
 8720SOL    HW227060   6.868   5.225   5.682
 8721SOL     OW27061   6.660   3.087   2.193
 8721SOL    HW127062   6.736   3.141   2.230
 8721SOL    HW227063   6.602   3.056   2.268
 8722SOL     OW27064   3.742   1.497   0.014
 8722SOL    HW127065   3.716   1.427   6.973
 8722SOL    HW227066   3.707   1.586   7.011
 8723SOL     OW27067   5.485   6.020   1.086
 8723SOL    HW127068   5.391   5.986   1.092
 8723SOL    HW227069   5.538   5.962   1.024
 8724SOL     OW27070   4.827   0.125   5.246
 8724SOL    HW127071   4.782   0.181   5.316
 8724SOL    HW227072   4.767   0.048   5.223
 8725SOL     OW27073   1.794   6.164   6.312
 8725SOL    HW127074   1.709   6.169   6.261
 8725SOL    HW227075   1.793   6.084   6.372
 8726SOL     OW27076   6.970   1.055   3.271
 8726SOL    HW127077   6.962   1.088   3.177
 8726SOL    HW227078   6.941   1.127   3.334
 8727SOL     OW27079   6.296   6.573   2.035
 8727SOL    HW127080   6.333   6.486   2.068
 8727SOL    HW227081   6.216   6.556   1.977
 8728SOL     OW27082   6.479   0.760   2.335
 8728SOL    HW127083   6.564   0.709   2.344
 8728SOL    HW227084   6.401   0.698   2.348
 8729SOL     OW27085   4.326   5.936   4.995
 8729SOL    HW127086   4.291   5.996   5.067
 8729SOL    HW227087   4.255   5.921   4.926
 8730SOL     OW27088   6.689   4.193   2.673
 8730SOL    HW127089   6.623   4.129   2.635
 8730SOL    HW227090   6.693   4.182   2.772
 8731SOL     OW27091   1.830   2.483   2.718
 8731SOL    HW127092   1.756   2.416   2.720
 8731SOL    HW227093   1.913   2.443   2.757
 8732SOL     OW27094   6.205   5.089   1.737
 8732SOL    HW127095   6.284   5.103   1.798
 8732SOL    HW227096   6.223   5.011   1.677
 8733SOL     OW27097   1.351   5.202   1.571
 8733SOL    HW127098   1.318   5.285   1.617
 8733SOL    HW227099   1.447   5.186   1.595
 8734SOL     OW27100   1.284   4.320   2.262
 8734SOL    HW127101   1.189   4.349   2.266
 8734SOL    HW227102   1.288   4.224   2.235
 8735SOL     OW27103   1.373   2.447   0.585
 8735SOL    HW127104   1.439   2.434   0.659
 8735SOL    HW227105   1.406   2.519   0.524
 8736SOL     OW27106   0.359   5.726   6.708
 8736SOL    HW127107   0.374   5.734   6.610
 8736SOL    HW227108   0.263   5.746   6.728
 8737SOL     OW27109   1.617   6.390   6.635
 8737SOL    HW127110   1.601   6.454   6.560
 8737SOL    HW227111   1.708   6.406   6.675
 8738SOL     OW27112   2.850   5.612   4.683
 8738SOL    HW127113   2.942   5.649   4.693
 8738SOL    HW227114   2.809   5.598   4.773
 8739SOL     OW27115   5.523   5.430   6.193
 8739SOL    HW127116   5.598   5.474   6.244
 8739SOL    HW227117   5.451   5.497   6.176
 8740SOL     OW27118   4.982   1.352   4.629
 8740SOL    HW127119   5.067   1.397   4.600
 8740SOL    HW227120   4.962   1.276   4.567
 8741SOL     OW27121   2.776   1.353   2.720
 8741SOL    HW127122   2.703   1.317   2.777
 8741SOL    HW227123   2.857   1.370   2.777
 8742SOL     OW27124   6.009   5.909   1.628
 8742SOL    HW127125   6.047   5.874   1.542
 8742SOL    HW227126   5.915   5.878   1.638
 8743SOL     OW27127   1.357   0.008   2.313
 8743SOL    HW127128   1.424   6.991   2.252
 8743SOL    HW227129   1.292   0.061   2.259
 8744SOL     OW27130   3.845   2.771   6.249
 8744SOL    HW127131   3.923   2.708   6.243
 8744SOL    HW227132   3.789   2.745   6.328
 8745SOL     OW27133   6.140   2.775   6.859
 8745SOL    HW127134   6.223   2.747   6.907
 8745SOL    HW227135   6.164   2.802   6.765
 8746SOL     OW27136   4.808   5.260   4.262
 8746SOL    HW127137   4.895   5.281   4.307
 8746SOL    HW227138   4.735   5.257   4.330
 8747SOL     OW27139   0.807   2.933   3.109
 8747SOL    HW127140   0.866   2.941   3.189
 8747SOL    HW227141   0.837   2.998   3.039
 8748SOL     OW27142   6.209   1.664   4.893
 8748SOL    HW127143   6.268   1.665   4.973
 8748SOL    HW227144   6.230   1.742   4.834
 8749SOL     OW27145   2.522   0.648   5.024
 8749SOL    HW127146   2.478   0.700   4.950
 8749SOL    HW227147   2.490   0.553   5.021
 8750SOL     OW27148   3.382   3.825   5.188
 8750SOL    HW127149   3.469   3.804   5.145
 8750SOL    HW227150   3.378   3.782   5.279
 8751SOL     OW27151   5.581   1.263   2.405
 8751SOL    HW127152   5.523   1.194   2.360
 8751SOL    HW227153   5.565   1.259   2.503
 8752SOL     OW27154   2.896   3.256   0.246
 8752SOL    HW127155   2.927   3.309   0.167
 8752SOL    HW227156   2.811   3.296   0.281
 8753SOL     OW27157   4.252   2.328   5.943
 8753SOL    HW127158   4.260   2.239   5.899
 8753SOL    HW227159   4.315   2.392   5.899
 8754SOL     OW27160   1.873   3.310   5.727
 8754SOL    HW127161   1.911   3.395   5.763
 8754SOL    HW227162   1.878   3.239   5.797
 8755SOL     OW27163   1.796   0.552   0.605
 8755SOL    HW127164   1.737   0.629   0.631
 8755SOL    HW227165   1.881   0.557   0.656
 8756SOL     OW27166   0.685   2.997   3.880
 8756SOL    HW127167   0.618   3.053   3.833
 8756SOL    HW227168   0.691   3.024   3.976
 8757SOL     OW27169   4.195   5.676   6.420
 8757SOL    HW127170   4.271   5.711   6.474
 8757SOL    HW227171   4.193   5.576   6.426
 8758SOL     OW27172   5.432   5.978   2.090
 8758SOL    HW127173   5.448   5.919   2.169
 8758SOL    HW227174   5.391   5.925   2.016
 8759SOL     OW27175   4.570   2.635   0.115
 8759SOL    HW127176   4.597   2.629   0.211
 8759SOL    HW227177   4.645   2.674   0.062
 8760SOL     OW27178   2.056   0.938   5.028
 8760SOL    HW127179   2.054   0.870   4.955
 8760SOL    HW227180   2.063   0.891   5.117
 8761SOL     OW27181   6.159   1.955   2.111
 8761SOL    HW127182   6.247   1.955   2.065
 8761SOL    HW227183   6.089   1.916   2.051
 8762SOL     OW27184   1.620   3.959   2.991
 8762SOL    HW127185   1.640   4.013   3.073
 8762SOL    HW227186   1.521   3.942   2.986
 8763SOL     OW27187   6.932   6.571   5.937
 8763SOL    HW127188   6.927   6.539   5.842
 8763SOL    HW227189   6.993   6.650   5.942
 8764SOL     OW27190   5.059   0.636   4.924
 8764SOL    HW127191   5.133   0.699   4.901
 8764SOL    HW227192   5.052   0.566   4.853
 8765SOL     OW27193   5.112   6.700   3.484
 8765SOL    HW127194   5.208   6.720   3.506
 8765SOL    HW227195   5.055   6.724   3.563
 8766SOL     OW27196   4.646   4.424   3.908
 8766SOL    HW127197   4.631   4.483   3.828
 8766SOL    HW227198   4.640   4.328   3.880
 8767SOL     OW27199   4.820   5.785   3.069
 8767SOL    HW127200   4.919   5.788   3.057
 8767SOL    HW227201   4.794   5.839   3.149
 8768SOL     OW27202   1.380   2.157   0.493
 8768SOL    HW127203   1.280   2.167   0.500
 8768SOL    HW227204   1.423   2.243   0.520
 8769SOL     OW27205   0.047   0.629   4.264
 8769SOL    HW127206   6.988   0.594   4.225
 8769SOL    HW227207   0.108   0.553   4.286
 8770SOL     OW27208   4.745   4.312   2.416
 8770SOL    HW127209   4.671   4.357   2.365
 8770SOL    HW227210   4.820   4.377   2.429
 8771SOL     OW27211   0.953   1.491   6.654
 8771SOL    HW127212   1.047   1.455   6.654
 8771SOL    HW227213   0.889   1.416   6.635
 8772SOL     OW27214   5.367   0.728   6.109
 8772SOL    HW127215   5.337   0.653   6.050
 8772SOL    HW227216   5.288   0.768   6.156
 8773SOL     OW27217   4.507   2.456   3.530
 8773SOL    HW127218   4.475   2.374   3.579
 8773SOL    HW227219   4.510   2.436   3.432
 8774SOL     OW27220   1.208   0.763   0.045
 8774SOL    HW127221   1.133   0.796   0.101
 8774SOL    HW227222   1.275   0.716   0.102
 8775SOL     OW27223   5.725   7.024   5.301
 8775SOL    HW127224   5.632   6.996   5.328
 8775SOL    HW227225   5.727   0.097   5.287
 8776SOL     OW27226   3.654   2.727   6.454
 8776SOL    HW127227   3.591   2.665   6.408
 8776SOL    HW227228   3.712   2.676   6.517
 8777SOL     OW27229   0.333   4.191   2.144
 8777SOL    HW127230   0.370   4.101   2.119
 8777SOL    HW227231   0.401   4.261   2.121
 8778SOL     OW27232   5.343   2.869   5.182
 8778SOL    HW127233   5.391   2.820   5.256
 8778SOL    HW227234   5.371   2.965   5.183
 8779SOL     OW27235   2.820   5.187   2.374
 8779SOL    HW127236   2.753   5.113   2.380
 8779SOL    HW227237   2.898   5.156   2.320
 8780SOL     OW27238   1.023   6.333   2.511
 8780SOL    HW127239   1.010   6.432   2.512
 8780SOL    HW227240   0.970   6.290   2.584
 8781SOL     OW27241   5.578   1.300   3.355
 8781SOL    HW127242   5.551   1.339   3.443
 8781SOL    HW227243   5.498   1.262   3.309
 8782SOL     OW27244   6.566   6.231   1.407
 8782SOL    HW127245   6.510   6.174   1.466
 8782SOL    HW227246   6.522   6.320   1.394
 8783SOL     OW27247   6.422   4.478   3.438
 8783SOL    HW127248   6.520   4.489   3.456
 8783SOL    HW227249   6.398   4.526   3.354
 8784SOL     OW27250   6.453   4.025   6.195
 8784SOL    HW127251   6.425   3.929   6.197
 8784SOL    HW227252   6.466   4.054   6.100
 8785SOL     OW27253   5.693   3.978   0.267
 8785SOL    HW127254   5.750   4.049   0.308
 8785SOL    HW227255   5.742   3.891   0.267
 8786SOL     OW27256   2.086   0.313   0.580
 8786SOL    HW127257   2.175   0.326   0.538
 8786SOL    HW227258   2.026   0.265   0.516
 8787SOL     OW27259   3.629   2.198   1.304
 8787SOL    HW127260   3.726   2.182   1.325
 8787SOL    HW227261   3.572   2.154   1.373
 8788SOL     OW27262   6.714   1.548   5.879
 8788SOL    HW127263   6.738   1.614   5.808
 8788SOL    HW227264   6.709   1.456   5.838
 8789SOL     OW27265   6.496   6.897   4.908
 8789SOL    HW127266   6.412   6.922   4.957
 8789SOL    HW227267   6.553   6.979   4.898
 8790SOL     OW27268   0.965   0.482   6.603
 8790SOL    HW127269   0.946   0.386   6.582
 8790SOL    HW227270   0.939   0.501   6.697
 8791SOL     OW27271   5.397   6.751   4.915
 8791SOL    HW127272   5.302   6.740   4.946
 8791SOL    HW227273   5.441   6.823   4.968
 8792SOL     OW27274   2.408   6.256   3.099
 8792SOL    HW127275   2.506   6.237   3.095
 8792SOL    HW227276   2.358   6.182   3.053
 8793SOL     OW27277   1.231   4.188   3.352
 8793SOL    HW127278   1.148   4.243   3.362
 8793SOL    HW227279   1.217   4.121   3.279
 8794SOL     OW27280   4.952   0.012   2.493
 8794SOL    HW127281   5.019   0.013   2.568
 8794SOL    HW227282   4.947   0.103   2.452
 8795SOL     OW27283   1.499   5.338   5.435
 8795SOL    HW127284   1.421   5.276   5.448
 8795SOL    HW227285   1.479   5.426   5.478
 8796SOL     OW27286   3.821   2.029   4.770
 8796SOL    HW127287   3.723   2.046   4.779
 8796SOL    HW227288   3.836   1.934   4.743
 8797SOL     OW27289   6.787   6.972   6.857
 8797SOL    HW127290   6.712   6.912   6.884
 8797SOL    HW227291   6.860   6.966   6.925
 8798SOL     OW27292   4.958   5.724   6.092
 8798SOL    HW127293   5.008   5.720   6.179
 8798SOL    HW227294   4.976   5.811   6.048
 8799SOL     OW27295   2.580   4.712   3.711
 8799SOL    HW127296   2.674   4.738   3.689
 8799SOL    HW227297   2.518   4.753   3.644
 8800SOL     OW27298   6.085   3.917   5.569
 8800SOL    HW127299   6.029   3.994   5.600
 8800SOL    HW227300   6.052   3.886   5.480
 8801SOL     OW27301   6.903   1.457   4.975
 8801SOL    HW127302   6.943   1.541   5.011
 8801SOL    HW227303   6.903   1.387   5.047
 8802SOL     OW27304   2.035   6.708   0.200
 8802SOL    HW127305   2.031   6.674   0.294
 8802SOL    HW227306   2.023   6.632   0.136
 8803SOL     OW27307   6.433   6.343   6.984
 8803SOL    HW127308   6.421   6.360   6.886
 8803SOL    HW227309   6.371   6.270   7.013
 8804SOL     OW27310   2.531   6.416   2.040
 8804SOL    HW127311   2.614   6.458   2.078
 8804SOL    HW227312   2.451   6.468   2.068
 8805SOL     OW27313   2.699   6.463   4.092
 8805SOL    HW127314   2.696   6.521   4.011
 8805SOL    HW227315   2.776   6.489   4.149
 8806SOL     OW27316   3.260   5.751   2.507
 8806SOL    HW127317   3.229   5.722   2.597
 8806SOL    HW227318   3.219   5.692   2.437
 8807SOL     OW27319   4.743   0.492   0.479
 8807SOL    HW127320   4.705   0.494   0.386
 8807SOL    HW227321   4.778   0.583   0.502
 8808SOL     OW27322   5.911   2.957   6.921
 8808SOL    HW127323   5.811   2.948   6.916
 8808SOL    HW227324   5.953   2.870   6.897
 8809SOL     OW27325   5.242   5.760   3.567
 8809SOL    HW127326   5.194   5.692   3.512
 8809SOL    HW227327   5.285   5.827   3.507
 8810SOL     OW27328   6.124   1.019   5.136
 8810SOL    HW127329   6.174   0.985   5.215
 8810SOL    HW227330   6.129   0.951   5.062
 8811SOL     OW27331   3.092   0.808   2.789
 8811SOL    HW127332   3.025   0.809   2.864
 8811SOL    HW227333   3.146   0.891   2.791
 8812SOL     OW27334   1.646   0.392   1.069
 8812SOL    HW127335   1.611   0.426   1.156
 8812SOL    HW227336   1.668   0.470   1.010
 8813SOL     OW27337   2.509   4.524   1.602
 8813SOL    HW127338   2.600   4.565   1.607
 8813SOL    HW227339   2.448   4.584   1.550
 8814SOL     OW27340   5.352   0.007   1.433
 8814SOL    HW127341   5.337   6.969   1.509
 8814SOL    HW227342   5.429   0.068   1.456
 8815SOL     OW27343   5.656   0.261   1.026
 8815SOL    HW127344   5.702   0.346   1.052
 8815SOL    HW227345   5.592   0.235   1.099
 8816SOL     OW27346   1.030   6.475   0.055
 8816SOL    HW127347   1.075   6.433   0.133
 8816SOL    HW227348   1.007   6.570   0.076
 8817SOL     OW27349   0.212   5.136   3.861
 8817SOL    HW127350   0.275   5.147   3.937
 8817SOL    HW227351   0.164   5.223   3.845
 8818SOL     OW27352   0.335   4.766   4.510
 8818SOL    HW127353   0.347   4.668   4.524
 8818SOL    HW227354   0.277   4.782   4.430
 8819SOL     OW27355   5.757   5.333   5.192
 8819SOL    HW127356   5.807   5.400   5.138
 8819SOL    HW227357   5.801   5.244   5.184
 8820SOL     OW27358   2.258   0.425   5.118
 8820SOL    HW127359   2.332   0.417   5.052
 8820SOL    HW227360   2.276   0.503   5.178
 8821SOL     OW27361   1.430   5.913   1.021
 8821SOL    HW127362   1.424   6.007   1.055
 8821SOL    HW227363   1.523   5.879   1.034
 8822SOL     OW27364   0.931   6.794   4.311
 8822SOL    HW127365   0.887   6.772   4.398
 8822SOL    HW227366   0.997   6.868   4.324
 8823SOL     OW27367   2.452   1.001   2.421
 8823SOL    HW127368   2.475   1.080   2.478
 8823SOL    HW227369   2.400   1.031   2.341
 8824SOL     OW27370   1.275   1.859   0.577
 8824SOL    HW127371   1.368   1.888   0.556
 8824SOL    HW227372   1.244   1.903   0.662
 8825SOL     OW27373   2.521   1.427   1.672
 8825SOL    HW127374   2.485   1.374   1.749
 8825SOL    HW227375   2.550   1.517   1.705
 8826SOL     OW27376   6.636   3.550   0.238
 8826SOL    HW127377   6.724   3.540   0.284
 8826SOL    HW227378   6.652   3.572   0.142
 8827SOL     OW27379   4.162   1.844   2.034
 8827SOL    HW127380   4.065   1.825   2.020
 8827SOL    HW227381   4.173   1.939   2.064
 8828SOL     OW27382   4.518   6.243   5.630
 8828SOL    HW127383   4.437   6.186   5.637
 8828SOL    HW227384   4.492   6.339   5.640
 8829SOL     OW27385   5.154   3.207   0.921
 8829SOL    HW127386   5.241   3.206   0.871
 8829SOL    HW227387   5.144   3.121   0.970
 8830SOL     OW27388   1.693   1.716   2.888
 8830SOL    HW127389   1.689   1.617   2.877
 8830SOL    HW227390   1.605   1.756   2.860
 8831SOL     OW27391   3.866   2.102   4.345
 8831SOL    HW127392   3.941   2.135   4.287
 8831SOL    HW227393   3.894   2.105   4.441
 8832SOL     OW27394   0.287   6.323   3.046
 8832SOL    HW127395   0.353   6.322   3.121
 8832SOL    HW227396   0.229   6.243   3.052
 8833SOL     OW27397   2.621   5.123   5.870
 8833SOL    HW127398   2.593   5.212   5.908
 8833SOL    HW227399   2.610   5.124   5.771
 8834SOL     OW27400   5.404   3.895   4.587
 8834SOL    HW127401   5.353   3.883   4.502
 8834SOL    HW227402   5.349   3.947   4.652
 8835SOL     OW27403   5.055   1.156   5.493
 8835SOL    HW127404   5.020   1.072   5.451
 8835SOL    HW227405   4.978   1.213   5.521
 8836SOL     OW27406   5.112   2.503   0.679
 8836SOL    HW127407   5.151   2.411   0.675
 8836SOL    HW227408   5.092   2.534   0.586
 8837SOL     OW27409   0.232   6.245   2.247
 8837SOL    HW127410   0.183   6.249   2.334
 8837SOL    HW227411   0.276   6.333   2.229
 8838SOL     OW27412   2.069   5.359   3.537
 8838SOL    HW127413   2.073   5.261   3.554
 8838SOL    HW227414   2.022   5.404   3.612
 8839SOL     OW27415   6.019   5.440   2.362
 8839SOL    HW127416   5.984   5.351   2.334
 8839SOL    HW227417   6.096   5.466   2.303
 8840SOL     OW27418   6.869   1.995   2.584
 8840SOL    HW127419   6.773   2.005   2.609
 8840SOL    HW227420   6.912   2.085   2.583
 8841SOL     OW27421   0.720   0.806   5.029
 8841SOL    HW127422   0.629   0.834   4.998
 8841SOL    HW227423   0.754   0.734   4.968
 8842SOL     OW27424   3.383   2.879   2.630
 8842SOL    HW127425   3.431   2.851   2.546
 8842SOL    HW227426   3.434   2.845   2.709
 8843SOL     OW27427   1.841   3.619   5.388
 8843SOL    HW127428   1.880   3.544   5.335
 8843SOL    HW227429   1.914   3.666   5.438
 8844SOL     OW27430   0.145   1.313   6.329
 8844SOL    HW127431   0.073   1.330   6.262
 8844SOL    HW227432   0.161   1.397   6.382
 8845SOL     OW27433   3.530   3.504   1.000
 8845SOL    HW127434   3.437   3.472   0.985
 8845SOL    HW227435   3.576   3.443   1.065
 8846SOL     OW27436   3.647   5.669   3.948
 8846SOL    HW127437   3.708   5.741   3.982
 8846SOL    HW227438   3.674   5.644   3.855
 8847SOL     OW27439   2.675   0.764   3.100
 8847SOL    HW127440   2.694   0.862   3.106
 8847SOL    HW227441   2.580   0.751   3.072
 8848SOL     OW27442   2.796   2.004   2.305
 8848SOL    HW127443   2.828   1.911   2.288
 8848SOL    HW227444   2.737   2.005   2.386
 8849SOL     OW27445   2.758   6.702   3.402
 8849SOL    HW127446   2.698   6.628   3.434
 8849SOL    HW227447   2.765   6.772   3.473
 8850SOL     OW27448   1.126   1.637   7.025
 8850SOL    HW127449   1.090   1.680   6.942
 8850SOL    HW227450   1.103   1.693   0.079
 8851SOL     OW27451   1.502   4.479   2.647
 8851SOL    HW127452   1.472   4.387   2.672
 8851SOL    HW227453   1.437   4.546   2.683
 8852SOL     OW27454   5.384   3.121   5.477
 8852SOL    HW127455   5.474   3.091   5.508
 8852SOL    HW227456   5.313   3.071   5.527
 8853SOL     OW27457   2.676   1.085   0.904
 8853SOL    HW127458   2.724   1.169   0.928
 8853SOL    HW227459   2.590   1.080   0.956
 8854SOL     OW27460   3.151   2.391   5.829
 8854SOL    HW127461   3.187   2.320   5.769
 8854SOL    HW227462   3.065   2.427   5.792
 8855SOL     OW27463   0.043   5.637   1.489
 8855SOL    HW127464   0.017   5.676   1.401
 8855SOL    HW227465   0.139   5.655   1.508
 8856SOL     OW27466   0.225   6.295   6.344
 8856SOL    HW127467   0.227   6.275   6.442
 8856SOL    HW227468   0.203   6.392   6.331
 8857SOL     OW27469   6.428   1.822   4.501
 8857SOL    HW127470   6.358   1.800   4.432
 8857SOL    HW227471   6.517   1.791   4.469
 8858SOL     OW27472   0.713   3.230   5.597
 8858SOL    HW127473   0.617   3.254   5.584
 8858SOL    HW227474   0.725   3.132   5.581
 8859SOL     OW27475   0.311   0.319   4.033
 8859SOL    HW127476   0.347   0.404   3.994
 8859SOL    HW227477   0.384   0.272   4.083
 8860SOL     OW27478   6.955   2.715   3.040
 8860SOL    HW127479   6.928   2.640   2.979
 8860SOL    HW227480   6.978   2.795   2.985
 8861SOL     OW27481   4.415   1.545   6.024
 8861SOL    HW127482   4.335   1.486   6.031
 8861SOL    HW227483   4.485   1.514   6.088
 8862SOL     OW27484   5.450   0.304   3.962
 8862SOL    HW127485   5.543   0.292   3.997
 8862SOL    HW227486   5.417   0.216   3.926
 8863SOL     OW27487   2.056   4.797   4.504
 8863SOL    HW127488   1.987   4.866   4.527
 8863SOL    HW227489   2.025   4.743   4.426
 8864SOL     OW27490   3.075   4.746   6.436
 8864SOL    HW127491   3.142   4.718   6.504
 8864SOL    HW227492   3.108   4.721   6.344
 8865SOL     OW27493   3.067   0.193   5.764
 8865SOL    HW127494   3.027   0.204   5.855
 8865SOL    HW227495   2.997   0.164   5.699
 8866SOL     OW27496   5.324   0.341   2.905
 8866SOL    HW127497   5.300   0.295   2.819
 8866SOL    HW227498   5.329   0.273   2.979
 8867SOL     OW27499   5.779   4.169   3.030
 8867SOL    HW127500   5.728   4.240   3.080
 8867SOL    HW227501   5.720   4.090   3.015
 8868SOL     OW27502   6.515   2.443   1.130
 8868SOL    HW127503   6.509   2.539   1.105
 8868SOL    HW227504   6.435   2.418   1.186
 8869SOL     OW27505   4.284   5.653   4.970
 8869SOL    HW127506   4.188   5.645   4.941
 8869SOL    HW227507   4.300   5.745   5.007
 8870SOL     OW27508   2.784   0.318   0.885
 8870SOL    HW127509   2.758   0.368   0.802
 8870SOL    HW227510   2.707   0.260   0.914
 8871SOL     OW27511   2.617   1.242   4.175
 8871SOL    HW127512   2.635   1.333   4.213
 8871SOL    HW227513   2.667   1.231   4.090
 8872SOL     OW27514   1.180   4.475   4.927
 8872SOL    HW127515   1.120   4.438   4.857
 8872SOL    HW227516   1.270   4.494   4.888
 8873SOL     OW27517   0.521   6.611   1.855
 8873SOL    HW127518   0.586   6.687   1.856
 8873SOL    HW227519   0.440   6.637   1.803
 8874SOL     OW27520   2.047   6.488   2.853
 8874SOL    HW127521   2.066   6.492   2.951
 8874SOL    HW227522   1.953   6.517   2.836
 8875SOL     OW27523   0.078   3.692   5.042
 8875SOL    HW127524   0.141   3.760   5.078
 8875SOL    HW227525   0.107   3.601   5.069
 8876SOL     OW27526   2.257   6.366   5.402
 8876SOL    HW127527   2.237   6.269   5.389
 8876SOL    HW227528   2.193   6.420   5.347
 8877SOL     OW27529   3.011   2.206   4.515
 8877SOL    HW127530   2.964   2.281   4.469
 8877SOL    HW227531   2.987   2.205   4.611
 8878SOL     OW27532   6.440   4.800   0.295
 8878SOL    HW127533   6.517   4.845   0.251
 8878SOL    HW227534   6.405   4.728   0.236
 8879SOL     OW27535   5.014   4.971   2.805
 8879SOL    HW127536   5.019   4.969   2.905
 8879SOL    HW227537   5.004   5.066   2.774
 8880SOL     OW27538   5.123   6.437   4.843
 8880SOL    HW127539   5.043   6.379   4.826
 8880SOL    HW227540   5.099   6.506   4.912
 8881SOL     OW27541   4.916   6.795   3.857
 8881SOL    HW127542   4.999   6.739   3.851
 8881SOL    HW227543   4.893   6.811   3.953
 8882SOL     OW27544   5.014   1.104   0.971
 8882SOL    HW127545   5.113   1.103   0.985
 8882SOL    HW227546   4.970   1.144   1.052
 8883SOL     OW27547   1.563   6.226   6.189
 8883SOL    HW127548   1.511   6.299   6.234
 8883SOL    HW227549   1.503   6.148   6.173
 8884SOL     OW27550   6.457   4.111   5.434
 8884SOL    HW127551   6.449   4.071   5.343
 8884SOL    HW227552   6.456   4.210   5.428
 8885SOL     OW27553   5.932   4.294   1.731
 8885SOL    HW127554   5.876   4.284   1.813
 8885SOL    HW227555   5.907   4.379   1.685
 8886SOL     OW27556   2.803   6.313   4.526
 8886SOL    HW127557   2.902   6.296   4.521
 8886SOL    HW227558   2.776   6.378   4.455
 8887SOL     OW27559   3.787   0.483   0.135
 8887SOL    HW127560   3.787   0.397   0.186
 8887SOL    HW227561   3.831   0.470   0.046
 8888SOL     OW27562   2.034   1.519   5.717
 8888SOL    HW127563   2.052   1.461   5.638
 8888SOL    HW227564   2.119   1.563   5.746
 8889SOL     OW27565   6.676   0.336   0.063
 8889SOL    HW127566   6.658   0.429   0.032
 8889SOL    HW227567   6.678   0.274   7.010
 8890SOL     OW27568   0.101   5.763   5.001
 8890SOL    HW127569   0.161   5.838   5.029
 8890SOL    HW227570   0.048   5.732   5.080
 8891SOL     OW27571   4.188   3.100   6.864
 8891SOL    HW127572   4.138   3.152   6.794
 8891SOL    HW227573   4.169   3.138   6.954
 8892SOL     OW27574   3.836   5.412   2.774
 8892SOL    HW127575   3.895   5.492   2.779
 8892SOL    HW227576   3.840   5.372   2.683
 8893SOL     OW27577   0.962   5.555   3.966
 8893SOL    HW127578   0.930   5.466   3.997
 8893SOL    HW227579   1.056   5.568   3.997
 8894SOL     OW27580   3.454   2.564   6.431
 8894SOL    HW127581   3.436   2.469   6.457
 8894SOL    HW227582   3.424   2.578   6.336
 8895SOL     OW27583   6.564   2.999   2.446
 8895SOL    HW127584   6.466   2.979   2.458
 8895SOL    HW227585   6.617   2.917   2.466
 8896SOL     OW27586   2.656   3.299   5.394
 8896SOL    HW127587   2.644   3.202   5.371
 8896SOL    HW227588   2.752   3.324   5.384
 8897SOL     OW27589   2.136   3.053   3.044
 8897SOL    HW127590   2.048   3.074   3.000
 8897SOL    HW227591   2.211   3.075   2.982
 8898SOL     OW27592   5.207   3.543   2.326
 8898SOL    HW127593   5.247   3.593   2.249
 8898SOL    HW227594   5.158   3.463   2.291
 8899SOL     OW27595   1.442   4.940   1.975
 8899SOL    HW127596   1.480   4.869   2.035
 8899SOL    HW227597   1.393   5.007   2.030
 8900SOL     OW27598   5.482   2.825   2.593
 8900SOL    HW127599   5.442   2.816   2.502
 8900SOL    HW227600   5.513   2.735   2.625
 8901SOL     OW27601   1.820   0.870   4.693
 8901SOL    HW127602   1.801   0.848   4.789
 8901SOL    HW227603   1.746   0.926   4.656
 8902SOL     OW27604   1.606   6.485   0.520
 8902SOL    HW127605   1.613   6.485   0.421
 8902SOL    HW227606   1.688   6.527   0.559
 8903SOL     OW27607   0.148   1.758   4.449
 8903SOL    HW127608   0.135   1.667   4.488
 8903SOL    HW227609   0.231   1.758   4.393
 8904SOL     OW27610   6.480   0.408   4.306
 8904SOL    HW127611   6.454   0.323   4.354
 8904SOL    HW227612   6.543   0.386   4.231
 8905SOL     OW27613   1.898   4.091   3.514
 8905SOL    HW127614   1.886   4.082   3.612
 8905SOL    HW227615   1.834   4.031   3.466
 8906SOL     OW27616   0.311   6.170   6.895
 8906SOL    HW127617   0.360   6.083   6.897
 8906SOL    HW227618   0.213   6.153   6.902
 8907SOL     OW27619   2.885   2.729   5.389
 8907SOL    HW127620   2.950   2.801   5.411
 8907SOL    HW227621   2.802   2.742   5.444
 8908SOL     OW27622   1.321   5.021   6.863
 8908SOL    HW127623   1.275   5.051   6.947
 8908SOL    HW227624   1.315   4.921   6.857
 8909SOL     OW27625   2.346   1.315   5.811
 8909SOL    HW127626   2.396   1.258   5.745
 8909SOL    HW227627   2.382   1.297   5.903
 8910SOL     OW27628   0.387   2.982   5.768
 8910SOL    HW127629   0.289   2.966   5.759
 8910SOL    HW227630   0.435   2.953   5.685
 8911SOL     OW27631   4.417   2.173   4.848
 8911SOL    HW127632   4.325   2.213   4.852
 8911SOL    HW227633   4.483   2.245   4.824
 8912SOL     OW27634   3.609   3.688   6.654
 8912SOL    HW127635   3.539   3.719   6.590
 8912SOL    HW227636   3.566   3.657   6.738
 8913SOL     OW27637   4.709   5.392   5.534
 8913SOL    HW127638   4.692   5.298   5.563
 8913SOL    HW227639   4.636   5.422   5.473
 8914SOL     OW27640   4.326   0.274   4.807
 8914SOL    HW127641   4.413   0.310   4.772
 8914SOL    HW227642   4.321   0.176   4.789
 8915SOL     OW27643   0.689   2.732   4.041
 8915SOL    HW127644   0.590   2.724   4.028
 8915SOL    HW227645   0.725   2.645   4.075
 8916SOL     OW27646   6.631   2.830   0.785
 8916SOL    HW127647   6.726   2.828   0.817
 8916SOL    HW227648   6.596   2.923   0.790
 8917SOL     OW27649   6.364   3.496   0.227
 8917SOL    HW127650   6.364   3.413   0.171
 8917SOL    HW227651   6.459   3.521   0.250
 8918SOL     OW27652   6.798   3.934   1.125
 8918SOL    HW127653   6.773   3.864   1.191
 8918SOL    HW227654   6.823   4.018   1.173
 8919SOL     OW27655   3.872   4.300   0.814
 8919SOL    HW127656   3.821   4.222   0.778
 8919SOL    HW227657   3.887   4.289   0.912
 8920SOL     OW27658   0.157   1.297   0.029
 8920SOL    HW127659   0.142   1.224   6.988
 8920SOL    HW227660   0.253   1.324   0.028
 8921SOL     OW27661   1.993   2.303   1.898
 8921SOL    HW127662   2.004   2.402   1.910
 8921SOL    HW227663   1.977   2.260   1.987
 8922SOL     OW27664   4.412   4.858   1.322
 8922SOL    HW127665   4.364   4.779   1.285
 8922SOL    HW227666   4.430   4.844   1.420
 8923SOL     OW27667   1.999   2.365   6.536
 8923SOL    HW127668   1.905   2.400   6.540
 8923SOL    HW227669   2.040   2.367   6.627
 8924SOL     OW27670   4.170   5.755   5.292
 8924SOL    HW127671   4.197   5.667   5.252
 8924SOL    HW227672   4.137   5.740   5.385
 8925SOL     OW27673   1.087   1.355   3.096
 8925SOL    HW127674   1.154   1.428   3.109
 8925SOL    HW227675   1.000   1.382   3.137
 8926SOL     OW27676   6.412   3.143   5.826
 8926SOL    HW127677   6.446   3.203   5.753
 8926SOL    HW227678   6.468   3.060   5.829
 8927SOL     OW27679   0.108   0.978   4.547
 8927SOL    HW127680   0.111   1.040   4.468
 8927SOL    HW227681   0.083   1.030   4.629
 8928SOL     OW27682   0.970   6.640   6.285
 8928SOL    HW127683   1.010   6.686   6.205
 8928SOL    HW227684   0.873   6.664   6.292
 8929SOL     OW27685   5.733   2.027   4.540
 8929SOL    HW127686   5.827   2.061   4.534
 8929SOL    HW227687   5.723   1.971   4.622
 8930SOL     OW27688   2.173   3.379   4.741
 8930SOL    HW127689   2.082   3.399   4.778
 8930SOL    HW227690   2.215   3.305   4.793
 8931SOL     OW27691   2.556   3.193   0.759
 8931SOL    HW127692   2.485   3.125   0.779
 8931SOL    HW227693   2.536   3.237   0.672
 8932SOL     OW27694   6.113   1.283   1.361
 8932SOL    HW127695   6.140   1.203   1.416
 8932SOL    HW227696   6.182   1.299   1.290
 8933SOL     OW27697   2.099   2.575   6.377
 8933SOL    HW127698   2.074   2.489   6.422
 8933SOL    HW227699   2.161   2.556   6.301
 8934SOL     OW27700   3.006   5.112   4.376
 8934SOL    HW127701   3.039   5.035   4.321
 8934SOL    HW227702   2.908   5.103   4.391
 8935SOL     OW27703   0.314   4.513   0.579
 8935SOL    HW127704   0.380   4.577   0.541
 8935SOL    HW227705   0.328   4.504   0.677
 8936SOL     OW27706   1.463   3.141   2.460
 8936SOL    HW127707   1.398   3.083   2.410
 8936SOL    HW227708   1.523   3.084   2.515
 8937SOL     OW27709   0.639   0.097   5.568
 8937SOL    HW127710   0.575   0.055   5.632
 8937SOL    HW227711   0.671   0.028   5.503
 8938SOL     OW27712   0.114   6.460   1.138
 8938SOL    HW127713   0.043   6.405   1.182
 8938SOL    HW227714   0.180   6.400   1.093
 8939SOL     OW27715   5.585   3.936   4.122
 8939SOL    HW127716   5.623   3.894   4.205
 8939SOL    HW227717   5.589   3.871   4.047
 8940SOL     OW27718   7.016   0.826   1.752
 8940SOL    HW127719   6.979   0.833   1.845
 8940SOL    HW227720   6.976   0.745   1.707
 8941SOL     OW27721   5.409   2.479   4.959
 8941SOL    HW127722   5.499   2.505   4.994
 8941SOL    HW227723   5.373   2.553   4.902
 8942SOL     OW27724   6.316   5.522   5.727
 8942SOL    HW127725   6.408   5.491   5.705
 8942SOL    HW227726   6.259   5.520   5.645
 8943SOL     OW27727   3.709   5.460   0.077
 8943SOL    HW127728   3.745   5.502   7.019
 8943SOL    HW227729   3.713   5.361   0.068
 8944SOL     OW27730   5.472   5.556   5.735
 8944SOL    HW127731   5.421   5.641   5.747
 8944SOL    HW227732   5.570   5.575   5.746
 8945SOL     OW27733   1.389   0.773   3.342
 8945SOL    HW127734   1.447   0.854   3.334
 8945SOL    HW227735   1.327   0.784   3.420
 8946SOL     OW27736   2.567   1.654   5.019
 8946SOL    HW127737   2.639   1.681   5.084
 8946SOL    HW227738   2.606   1.649   4.927
 8947SOL     OW27739   2.376   3.143   6.079
 8947SOL    HW127740   2.394   3.199   5.998
 8947SOL    HW227741   2.416   3.187   6.159
 8948SOL     OW27742   5.819   6.258   4.617
 8948SOL    HW127743   5.794   6.162   4.603
 8948SOL    HW227744   5.806   6.309   4.531
 8949SOL     OW27745   3.088   6.167   0.246
 8949SOL    HW127746   3.143   6.083   0.247
 8949SOL    HW227747   3.018   6.161   0.317
 8950SOL     OW27748   4.711   3.983   6.698
 8950SOL    HW127749   4.778   3.910   6.682
 8950SOL    HW227750   4.641   3.980   6.627
 8951SOL     OW27751   1.700   1.384   5.007
 8951SOL    HW127752   1.782   1.348   4.962
 8951SOL    HW227753   1.726   1.463   5.064
 8952SOL     OW27754   1.441   6.060   2.247
 8952SOL    HW127755   1.385   6.007   2.312
 8952SOL    HW227756   1.537   6.034   2.257
 8953SOL     OW27757   1.517   3.963   6.888
 8953SOL    HW127758   1.559   3.899   6.824
 8953SOL    HW227759   1.472   3.912   6.961
 8954SOL     OW27760   0.731   6.715   4.599
 8954SOL    HW127761   0.774   6.675   4.679
 8954SOL    HW227762   0.632   6.703   4.605
 8955SOL     OW27763   0.331   5.325   2.696
 8955SOL    HW127764   0.424   5.348   2.723
 8955SOL    HW227765   0.299   5.246   2.747
 8956SOL     OW27766   2.014   1.144   6.746
 8956SOL    HW127767   2.094   1.200   6.724
 8956SOL    HW227768   1.960   1.189   6.817
 8957SOL     OW27769   2.454   4.388   0.958
 8957SOL    HW127770   2.483   4.335   0.878
 8957SOL    HW227771   2.369   4.435   0.937
 8958SOL     OW27772   0.161   1.840   4.709
 8958SOL    HW127773   0.183   1.746   4.734
 8958SOL    HW227774   0.152   1.847   4.610
 8959SOL     OW27775   1.677   4.254   2.258
 8959SOL    HW127776   1.592   4.261   2.309
 8959SOL    HW227777   1.731   4.178   2.294
 8960SOL     OW27778   4.271   5.096   2.909
 8960SOL    HW127779   4.202   5.160   2.879
 8960SOL    HW227780   4.357   5.114   2.862
 8961SOL     OW27781   2.853   1.037   3.603
 8961SOL    HW127782   2.756   1.061   3.603
 8961SOL    HW227783   2.889   1.044   3.696
 8962SOL     OW27784   6.717   5.476   2.720
 8962SOL    HW127785   6.738   5.564   2.676
 8962SOL    HW227786   6.619   5.460   2.717
 8963SOL     OW27787   4.001   6.730   4.721
 8963SOL    HW127788   4.035   6.675   4.797
 8963SOL    HW227789   4.046   6.703   4.637
 8964SOL     OW27790   5.293   3.808   2.874
 8964SOL    HW127791   5.271   3.903   2.895
 8964SOL    HW227792   5.236   3.777   2.798
 8965SOL     OW27793   2.711   4.591   0.730
 8965SOL    HW127794   2.786   4.525   0.736
 8965SOL    HW227795   2.630   4.546   0.692
 8966SOL     OW27796   0.027   4.266   0.370
 8966SOL    HW127797   7.011   4.354   0.395
 8966SOL    HW227798   0.067   4.224   0.452
 8967SOL     OW27799   4.300   6.914   0.996
 8967SOL    HW127800   4.323   6.818   1.012
 8967SOL    HW227801   4.378   6.972   1.023
 8968SOL     OW27802   4.460   5.549   3.057
 8968SOL    HW127803   4.414   5.589   3.136
 8968SOL    HW227804   4.474   5.452   3.072
 8969SOL     OW27805   5.988   0.939   4.456
 8969SOL    HW127806   6.018   0.863   4.399
 8969SOL    HW227807   6.066   1.001   4.473
 8970SOL     OW27808   2.724   3.212   6.938
 8970SOL    HW127809   2.742   3.116   6.916
 8970SOL    HW227810   2.626   3.231   6.925
 8971SOL     OW27811   6.149   4.924   1.537
 8971SOL    HW127812   6.217   4.903   1.467
 8971SOL    HW227813   6.099   4.841   1.562
 8972SOL     OW27814   5.080   3.878   0.059
 8972SOL    HW127815   5.172   3.841   0.074
 8972SOL    HW227816   5.018   3.804   0.035
 8973SOL     OW27817   0.689   3.312   3.148
 8973SOL    HW127818   0.770   3.321   3.091
 8973SOL    HW227819   0.647   3.402   3.161
 8974SOL     OW27820   1.012   4.351   4.743
 8974SOL    HW127821   0.972   4.442   4.748
 8974SOL    HW227822   1.048   4.336   4.651
 8975SOL     OW27823   1.400   6.626   5.916
 8975SOL    HW127824   1.485   6.635   5.967
 8975SOL    HW227825   1.406   6.678   5.830
 8976SOL     OW27826   7.009   5.524   5.640
 8976SOL    HW127827   0.046   5.582   5.692
 8976SOL    HW227828   6.926   5.575   5.619
 8977SOL     OW27829   6.870   3.079   6.797
 8977SOL    HW127830   6.821   3.055   6.713
 8977SOL    HW227831   6.840   3.019   6.871
 8978SOL     OW27832   5.107   6.422   3.459
 8978SOL    HW127833   5.166   6.399   3.536
 8978SOL    HW227834   5.094   6.521   3.455
 8979SOL     OW27835   0.881   3.974   4.665
 8979SOL    HW127836   0.907   4.044   4.732
 8979SOL    HW227837   0.878   3.885   4.710
 8980SOL     OW27838   3.864   2.978   5.427
 8980SOL    HW127839   3.866   2.940   5.519
 8980SOL    HW227840   3.803   2.923   5.370
 8981SOL     OW27841   4.282   1.061   6.178
 8981SOL    HW127842   4.207   1.025   6.233
 8981SOL    HW227843   4.349   0.988   6.162
 8982SOL     OW27844   1.133   1.985   1.927
 8982SOL    HW127845   1.212   1.977   1.866
 8982SOL    HW227846   1.125   1.902   1.982
 8983SOL     OW27847   0.967   5.723   6.249
 8983SOL    HW127848   0.919   5.637   6.268
 8983SOL    HW227849   0.961   5.784   6.327
 8984SOL     OW27850   6.363   6.947   3.783
 8984SOL    HW127851   6.413   6.909   3.860
 8984SOL    HW227852   6.427   6.975   3.711
 8985SOL     OW27853   2.694   2.093   0.785
 8985SOL    HW127854   2.768   2.160   0.781
 8985SOL    HW227855   2.624   2.125   0.850
 8986SOL     OW27856   4.099   5.033   1.924
 8986SOL    HW127857   4.152   5.108   1.964
 8986SOL    HW227858   4.026   5.071   1.866
 8987SOL     OW27859   5.447   6.872   0.840
 8987SOL    HW127860   5.409   6.798   0.895
 8987SOL    HW227861   5.458   6.842   0.746
 8988SOL     OW27862   1.396   4.259   6.180
 8988SOL    HW127863   1.309   4.211   6.169
 8988SOL    HW227864   1.434   4.238   6.271
 8989SOL     OW27865   5.114   4.050   2.370
 8989SOL    HW127866   5.205   4.065   2.409
 8989SOL    HW227867   5.072   3.969   2.412
 8990SOL     OW27868   2.132   5.642   2.576
 8990SOL    HW127869   2.176   5.720   2.621
 8990SOL    HW227870   2.052   5.614   2.630
 8991SOL     OW27871   1.882   2.014   0.125
 8991SOL    HW127872   1.811   2.060   0.072
 8991SOL    HW227873   1.960   2.075   0.136
 8992SOL     OW27874   6.524   2.136   0.346
 8992SOL    HW127875   6.471   2.059   0.381
 8992SOL    HW227876   6.593   2.103   0.282
 8993SOL     OW27877   4.575   2.375   1.938
 8993SOL    HW127878   4.579   2.320   2.022
 8993SOL    HW227879   4.506   2.336   1.876
 8994SOL     OW27880   1.689   5.215   4.809
 8994SOL    HW127881   1.708   5.133   4.863
 8994SOL    HW227882   1.650   5.188   4.721
 8995SOL     OW27883   0.731   2.379   6.883
 8995SOL    HW127884   0.694   2.300   6.931
 8995SOL    HW227885   0.806   2.351   6.823
 8996SOL     OW27886   6.404   5.246   1.282
 8996SOL    HW127887   6.491   5.209   1.314
 8996SOL    HW227888   6.406   5.345   1.284
 8997SOL     OW27889   4.676   1.182   6.430
 8997SOL    HW127890   4.579   1.190   6.407
 8997SOL    HW227891   4.726   1.258   6.388
 8998SOL     OW27892   6.839   3.700   5.143
 8998SOL    HW127893   6.784   3.626   5.104
 8998SOL    HW227894   6.926   3.706   5.094
 8999SOL     OW27895   5.168   6.291   0.136
 8999SOL    HW127896   5.222   6.367   0.171
 8999SOL    HW227897   5.133   6.314   0.045
 9000SOL     OW27898   2.577   3.896   0.253
 9000SOL    HW127899   2.587   3.937   0.163
 9000SOL    HW227900   2.486   3.855   0.261
 9001SOL     OW27901   1.273   5.199   2.590
 9001SOL    HW127902   1.211   5.143   2.535
 9001SOL    HW227903   1.296   5.282   2.539
 9002SOL     OW27904   7.010   4.724   5.308
 9002SOL    HW127905   0.024   4.634   5.288
 9002SOL    HW227906   6.911   4.721   5.296
 9003SOL     OW27907   5.123   2.905   1.583
 9003SOL    HW127908   5.038   2.894   1.530
 9003SOL    HW227909   5.108   2.971   1.656
 9004SOL     OW27910   4.595   6.290   1.056
 9004SOL    HW127911   4.556   6.344   0.982
 9004SOL    HW227912   4.669   6.341   1.099
 9005SOL     OW27913   4.835   2.442   4.248
 9005SOL    HW127914   4.846   2.387   4.332
 9005SOL    HW227915   4.781   2.524   4.269
 9006SOL     OW27916   2.902   6.403   0.768
 9006SOL    HW127917   2.814   6.356   0.771
 9006SOL    HW227918   2.934   6.419   0.861
 9007SOL     OW27919   4.559   0.941   4.073
 9007SOL    HW127920   4.482   0.955   4.135
 9007SOL    HW227921   4.644   0.936   4.127
 9008SOL     OW27922   0.550   5.887   2.936
 9008SOL    HW127923   0.543   5.822   3.012
 9008SOL    HW227924   0.524   5.978   2.967
 9009SOL     OW27925   2.892   1.404   0.543
 9009SOL    HW127926   2.827   1.449   0.604
 9009SOL    HW227927   2.985   1.417   0.578
 9010SOL     OW27928   1.469   6.511   3.974
 9010SOL    HW127929   1.430   6.507   4.066
 9010SOL    HW227930   1.463   6.421   3.931
 9011SOL     OW27931   4.428   2.465   1.390
 9011SOL    HW127932   4.502   2.527   1.417
 9011SOL    HW227933   4.466   2.388   1.339
 9012SOL     OW27934   2.718   4.035   1.372
 9012SOL    HW127935   2.681   3.954   1.418
 9012SOL    HW227936   2.645   4.103   1.362
 9013SOL     OW27937   0.059   6.527   5.157
 9013SOL    HW127938   6.994   6.493   5.186
 9013SOL    HW227939   0.084   6.486   5.070
 9014SOL     OW27940   0.034   1.570   0.394
 9014SOL    HW127941   0.068   1.568   0.300
 9014SOL    HW227942   0.096   1.623   0.452
 9015SOL     OW27943   5.590   1.817   1.366
 9015SOL    HW127944   5.541   1.897   1.334
 9015SOL    HW227945   5.646   1.841   1.446
 9016SOL     OW27946   0.824   6.983   6.988
 9016SOL    HW127947   0.765   7.002   0.040
 9016SOL    HW227948   0.861   6.890   6.995
 9017SOL     OW27949   4.486   2.175   2.287
 9017SOL    HW127950   4.529   2.137   2.205
 9017SOL    HW227951   4.409   2.233   2.260
 9018SOL     OW27952   4.129   2.027   6.804
 9018SOL    HW127953   4.142   1.991   6.712
 9018SOL    HW227954   4.105   2.124   6.800
 9019SOL     OW27955   1.146   0.160   2.223
 9019SOL    HW127956   1.102   0.089   2.279
 9019SOL    HW227957   1.118   0.250   2.256
 9020SOL     OW27958   0.638   3.696   1.626
 9020SOL    HW127959   0.595   3.786   1.633
 9020SOL    HW227960   0.725   3.704   1.578
 9021SOL     OW27961   6.481   0.738   3.989
 9021SOL    HW127962   6.471   0.767   3.894
 9021SOL    HW227963   6.454   0.642   3.998
 9022SOL     OW27964   2.895   1.738   7.001
 9022SOL    HW127965   2.821   1.793   6.963
 9022SOL    HW227966   2.978   1.752   6.948
 9023SOL     OW27967   3.509   3.841   2.166
 9023SOL    HW127968   3.534   3.788   2.247
 9023SOL    HW227969   3.556   3.930   2.169
 9024SOL     OW27970   0.218   5.119   4.986
 9024SOL    HW127971   0.203   5.027   4.949
 9024SOL    HW227972   0.228   5.184   4.910
 9025SOL     OW27973   0.690   5.176   0.091
 9025SOL    HW127974   0.643   5.154   0.177
 9025SOL    HW227975   0.633   5.236   0.036
 9026SOL     OW27976   4.075   3.362   0.937
 9026SOL    HW127977   4.058   3.299   1.013
 9026SOL    HW227978   4.109   3.310   0.858
 9027SOL     OW27979   1.056   2.375   4.175
 9027SOL    HW127980   1.024   2.283   4.201
 9027SOL    HW227981   1.106   2.415   4.252
 9028SOL     OW27982   2.206   3.566   5.667
 9028SOL    HW127983   2.154   3.571   5.752
 9028SOL    HW227984   2.143   3.564   5.589
 9029SOL     OW27985   3.153   6.017   4.859
 9029SOL    HW127986   3.170   6.115   4.858
 9029SOL    HW227987   3.240   5.968   4.849
 9030SOL     OW27988   2.199   2.371   3.474
 9030SOL    HW127989   2.182   2.443   3.407
 9030SOL    HW227990   2.218   2.413   3.563
 9031SOL     OW27991   4.109   5.878   4.834
 9031SOL    HW127992   4.036   5.946   4.836
 9031SOL    HW227993   4.096   5.818   4.755
 9032SOL     OW27994   3.568   3.504   0.133
 9032SOL    HW127995   3.554   3.544   0.223
 9032SOL    HW227996   3.663   3.472   0.125
 9033SOL     OW27997   1.115   4.676   3.984
 9033SOL    HW127998   1.074   4.758   3.945
 9033SOL    HW227999   1.172   4.700   4.062
 9034SOL     OW28000   3.015   0.615   5.628
 9034SOL    HW128001   2.979   0.622   5.721
 9034SOL    HW228002   3.114   0.629   5.629
 9035SOL     OW28003   1.308   4.603   6.017
 9035SOL    HW128004   1.243   4.622   5.943
 9035SOL    HW228005   1.350   4.513   6.003
 9036SOL     OW28006   2.187   0.890   5.685
 9036SOL    HW128007   2.138   0.976   5.698
 9036SOL    HW228008   2.250   0.899   5.608
 9037SOL     OW28009   1.621   3.939   5.417
 9037SOL    HW128010   1.606   3.850   5.460
 9037SOL    HW228011   1.688   3.930   5.344
 9038SOL     OW28012   4.410   6.850   5.889
 9038SOL    HW128013   4.379   6.852   5.794
 9038SOL    HW228014   4.357   6.783   5.940
 9039SOL     OW28015   3.032   4.835   5.093
 9039SOL    HW128016   2.966   4.833   5.018
 9039SOL    HW228017   3.032   4.747   5.140
 9040SOL     OW28018   3.132   2.155   2.950
 9040SOL    HW128019   3.118   2.143   2.852
 9040SOL    HW228020   3.043   2.154   2.997
 9041SOL     OW28021   1.022   2.209   1.783
 9041SOL    HW128022   1.041   2.112   1.799
 9041SOL    HW228023   0.980   2.248   1.865
 9042SOL     OW28024   3.341   0.114   4.016
 9042SOL    HW128025   3.414   0.169   4.056
 9042SOL    HW228026   3.292   0.168   3.948
 9043SOL     OW28027   1.804   1.391   6.732
 9043SOL    HW128028   1.852   1.345   6.658
 9043SOL    HW228029   1.801   1.331   6.813
 9044SOL     OW28030   5.356   1.096   0.944
 9044SOL    HW128031   5.444   1.095   0.897
 9044SOL    HW228032   5.304   1.014   0.920
 9045SOL     OW28033   2.351   1.286   2.425
 9045SOL    HW128034   2.326   1.246   2.513
 9045SOL    HW228035   2.448   1.311   2.427
 9046SOL     OW28036   3.625   3.694   3.624
 9046SOL    HW128037   3.585   3.654   3.542
 9046SOL    HW228038   3.568   3.770   3.656
 9047SOL     OW28039   1.150   3.159   6.056
 9047SOL    HW128040   1.148   3.086   6.124
 9047SOL    HW228041   1.066   3.156   6.002
 9048SOL     OW28042   5.657   1.959   6.319
 9048SOL    HW128043   5.588   2.014   6.272
 9048SOL    HW228044   5.647   1.971   6.418
 9049SOL     OW28045   3.514   6.859   6.021
 9049SOL    HW128046   3.439   6.815   6.069
 9049SOL    HW228047   3.573   6.906   6.088
 9050SOL     OW28048   0.365   3.357   0.131
 9050SOL    HW128049   0.419   3.337   0.213
 9050SOL    HW228050   0.323   3.273   0.097
 9051SOL     OW28051   4.320   6.256   0.776
 9051SOL    HW128052   4.392   6.325   0.782
 9051SOL    HW228053   4.277   6.259   0.686
 9052SOL     OW28054   1.891   2.532   4.532
 9052SOL    HW128055   1.959   2.582   4.586
 9052SOL    HW228056   1.910   2.435   4.535
 9053SOL     OW28057   1.924   1.649   3.007
 9053SOL    HW128058   1.979   1.732   3.000
 9053SOL    HW228059   1.828   1.671   2.994
 9054SOL     OW28060   1.480   6.394   2.589
 9054SOL    HW128061   1.516   6.472   2.640
 9054SOL    HW228062   1.550   6.358   2.528
 9055SOL     OW28063   5.927   2.889   4.104
 9055SOL    HW128064   6.010   2.834   4.095
 9055SOL    HW228065   5.864   2.866   4.030
 9056SOL     OW28066   0.937   0.891   1.958
 9056SOL    HW128067   0.935   0.963   2.028
 9056SOL    HW228068   0.878   0.816   1.987
 9057SOL     OW28069   5.713   5.290   5.815
 9057SOL    HW128070   5.736   5.271   5.720
 9057SOL    HW228071   5.708   5.389   5.829
 9058SOL     OW28072   2.364   1.927   2.883
 9058SOL    HW128073   2.371   1.888   2.791
 9058SOL    HW228074   2.318   1.862   2.944
 9059SOL     OW28075   1.074   2.174   4.673
 9059SOL    HW128076   1.126   2.254   4.704
 9059SOL    HW228077   1.136   2.112   4.624
 9060SOL     OW28078   6.033   2.891   3.323
 9060SOL    HW128079   5.956   2.827   3.332
 9060SOL    HW228080   6.002   2.972   3.274
 9061SOL     OW28081   2.353   5.524   1.829
 9061SOL    HW128082   2.298   5.546   1.748
 9061SOL    HW228083   2.394   5.607   1.865
 9062SOL     OW28084   1.962   5.908   1.846
 9062SOL    HW128085   1.870   5.907   1.884
 9062SOL    HW228086   1.974   5.988   1.788
 9063SOL     OW28087   2.273   0.006   2.800
 9063SOL    HW128088   2.212   0.081   2.822
 9063SOL    HW228089   2.249   6.951   2.854
 9064SOL     OW28090   6.296   2.667   5.763
 9064SOL    HW128091   6.254   2.582   5.731
 9064SOL    HW228092   6.388   2.647   5.798
 9065SOL     OW28093   3.171   6.724   5.979
 9065SOL    HW128094   3.174   6.677   5.891
 9065SOL    HW228095   3.128   6.813   5.968
 9066SOL     OW28096   5.251   6.255   0.533
 9066SOL    HW128097   5.193   6.327   0.497
 9066SOL    HW228098   5.242   6.251   0.633
 9067SOL     OW28099   6.310   0.629   4.373
 9067SOL    HW128100   6.373   0.563   4.332
 9067SOL    HW228101   6.361   0.708   4.406
 9068SOL     OW28102   2.452   6.867   5.081
 9068SOL    HW128103   2.551   6.859   5.085
 9068SOL    HW228104   2.425   6.958   5.113
 9069SOL     OW28105   1.984   2.576   1.932
 9069SOL    HW128106   2.060   2.619   1.884
 9069SOL    HW228107   1.974   2.618   2.023
 9070SOL     OW28108   1.625   4.057   4.673
 9070SOL    HW128109   1.588   4.005   4.750
 9070SOL    HW228110   1.567   4.136   4.656
 9071SOL     OW28111   5.353   0.055   0.976
 9071SOL    HW128112   5.286   0.114   0.931
 9071SOL    HW228113   5.413   0.015   0.907
 9072SOL     OW28114   0.305   1.650   2.124
 9072SOL    HW128115   0.225   1.597   2.153
 9072SOL    HW228116   0.387   1.593   2.130
 9073SOL     OW28117   3.433   6.920   2.319
 9073SOL    HW128118   3.368   6.895   2.390
 9073SOL    HW228119   3.422   7.017   2.296
 9074SOL     OW28120   2.222   1.285   2.053
 9074SOL    HW128121   2.164   1.366   2.041
 9074SOL    HW228122   2.312   1.302   2.013
 9075SOL     OW28123   1.590   0.968   2.913
 9075SOL    HW128124   1.639   1.040   2.962
 9075SOL    HW228125   1.617   0.968   2.817
 9076SOL     OW28126   5.966   2.437   5.041
 9076SOL    HW128127   5.925   2.459   4.953
 9076SOL    HW228128   6.046   2.496   5.056
 9077SOL     OW28129   5.368   0.123   0.462
 9077SOL    HW128130   5.451   0.151   0.511
 9077SOL    HW228131   5.390   0.047   0.401
 9078SOL     OW28132   4.318   3.779   6.335
 9078SOL    HW128133   4.291   3.848   6.268
 9078SOL    HW228134   4.394   3.726   6.299
 9079SOL     OW28135   3.555   0.305   4.057
 9079SOL    HW128136   3.516   0.397   4.059
 9079SOL    HW228137   3.603   0.291   3.970
 9080SOL     OW28138   4.742   2.735   6.960
 9080SOL    HW128139   4.825   2.790   6.948
 9080SOL    HW228140   4.728   2.677   6.880
 9081SOL     OW28141   3.522   6.293   2.614
 9081SOL    HW128142   3.427   6.316   2.637
 9081SOL    HW228143   3.533   6.292   2.515
 9082SOL     OW28144   2.239   0.532   5.705
 9082SOL    HW128145   2.275   0.476   5.779
 9082SOL    HW228146   2.302   0.607   5.685
 9083SOL     OW28147   2.998   6.008   5.911
 9083SOL    HW128148   3.028   5.943   5.981
 9083SOL    HW228149   3.066   6.011   5.838
 9084SOL     OW28150   2.862   3.555   4.651
 9084SOL    HW128151   2.764   3.536   4.656
 9084SOL    HW228152   2.895   3.533   4.559
 9085SOL     OW28153   2.480   5.409   1.074
 9085SOL    HW128154   2.482   5.452   1.164
 9085SOL    HW228155   2.566   5.429   1.026
 9086SOL     OW28156   1.303   4.459   0.388
 9086SOL    HW128157   1.303   4.363   0.361
 9086SOL    HW228158   1.367   4.472   0.465
 9087SOL     OW28159   4.873   2.849   1.437
 9087SOL    HW128160   4.914   2.804   1.358
 9087SOL    HW228161   4.782   2.809   1.455
 9088SOL     OW28162   6.281   6.482   0.794
 9088SOL    HW128163   6.317   6.536   0.871
 9088SOL    HW228164   6.248   6.394   0.828
 9089SOL     OW28165   5.168   6.067   5.527
 9089SOL    HW128166   5.125   6.095   5.442
 9089SOL    HW228167   5.213   6.146   5.570
 9090SOL     OW28168   0.062   1.048   3.805
 9090SOL    HW128169   7.023   1.105   3.856
 9090SOL    HW228170   0.143   1.031   3.861
 9091SOL     OW28171   3.418   4.365   7.000
 9091SOL    HW128172   3.450   4.457   7.023
 9091SOL    HW228173   3.324   4.369   6.967
 9092SOL     OW28174   0.338   1.150   0.414
 9092SOL    HW128175   0.424   1.100   0.401
 9092SOL    HW228176   0.273   1.093   0.463
 9093SOL     OW28177   1.239   6.456   5.647
 9093SOL    HW128178   1.298   6.521   5.599
 9093SOL    HW228179   1.176   6.505   5.707
 9094SOL     OW28180   6.714   4.877   2.894
 9094SOL    HW128181   6.663   4.828   2.822
 9094SOL    HW228182   6.771   4.948   2.852
 9095SOL     OW28183   5.282   4.761   6.123
 9095SOL    HW128184   5.245   4.845   6.082
 9095SOL    HW228185   5.262   4.683   6.064
 9096SOL     OW28186   5.827   4.463   2.392
 9096SOL    HW128187   5.825   4.387   2.457
 9096SOL    HW228188   5.847   4.548   2.441
 9097SOL     OW28189   1.322   1.412   0.943
 9097SOL    HW128190   1.262   1.336   0.920
 9097SOL    HW228191   1.417   1.388   0.921
 9098SOL     OW28192   3.727   1.778   5.206
 9098SOL    HW128193   3.676   1.785   5.120
 9098SOL    HW228194   3.818   1.816   5.193
 9099SOL     OW28195   3.479   2.525   5.561
 9099SOL    HW128196   3.383   2.526   5.590
 9099SOL    HW228197   3.500   2.611   5.514
 9100SOL     OW28198   0.278   3.322   3.324
 9100SOL    HW128199   0.217   3.352   3.399
 9100SOL    HW228200   0.348   3.261   3.361
 9101SOL     OW28201   2.638   2.370   2.512
 9101SOL    HW128202   2.677   2.340   2.425
 9101SOL    HW228203   2.712   2.391   2.576
 9102SOL     OW28204   3.093   6.151   1.567
 9102SOL    HW128205   3.126   6.238   1.531
 9102SOL    HW228206   3.009   6.167   1.619
 9103SOL     OW28207   6.682   3.024   6.603
 9103SOL    HW128208   6.673   3.073   6.516
 9103SOL    HW228209   6.594   2.981   6.626
 9104SOL     OW28210   0.207   5.882   2.334
 9104SOL    HW128211   0.294   5.931   2.344
 9104SOL    HW228212   0.142   5.940   2.284
 9105SOL     OW28213   0.885   1.282   6.247
 9105SOL    HW128214   0.795   1.250   6.276
 9105SOL    HW228215   0.951   1.267   6.320
 9106SOL     OW28216   6.930   3.502   1.168
 9106SOL    HW128217   6.850   3.468   1.119
 9106SOL    HW228218   6.902   3.540   1.256
 9107SOL     OW28219   2.609   0.731   6.706
 9107SOL    HW128220   2.644   0.823   6.721
 9107SOL    HW228221   2.658   0.689   6.629
 9108SOL     OW28222   5.274   4.634   4.985
 9108SOL    HW128223   5.237   4.582   4.907
 9108SOL    HW228224   5.204   4.695   5.020
 9109SOL     OW28225   6.651   3.418   3.479
 9109SOL    HW128226   6.700   3.505   3.475
 9109SOL    HW228227   6.588   3.412   3.401
 9110SOL     OW28228   1.986   5.011   4.174
 9110SOL    HW128229   1.935   5.070   4.237
 9110SOL    HW228230   2.051   5.066   4.122
 9111SOL     OW28231   5.506   2.258   0.612
 9111SOL    HW128232   5.507   2.349   0.573
 9111SOL    HW228233   5.536   2.191   0.544
 9112SOL     OW28234   1.224   5.593   2.690
 9112SOL    HW128235   1.162   5.518   2.716
 9112SOL    HW228236   1.319   5.562   2.701
 9113SOL     OW28237   4.728   2.812   2.520
 9113SOL    HW128238   4.790   2.745   2.560
 9113SOL    HW228239   4.761   2.838   2.429
 9114SOL     OW28240   0.591   5.321   3.440
 9114SOL    HW128241   0.548   5.391   3.497
 9114SOL    HW228242   0.541   5.235   3.450
 9115SOL     OW28243   6.544   6.254   4.683
 9115SOL    HW128244   6.519   6.296   4.596
 9115SOL    HW228245   6.624   6.196   4.671
 9116SOL     OW28246   0.360   0.179   2.906
 9116SOL    HW128247   0.352   0.238   2.826
 9116SOL    HW228248   0.269   0.163   2.944
 9117SOL     OW28249   3.741   2.956   5.990
 9117SOL    HW128250   3.738   2.994   6.083
 9117SOL    HW228251   3.733   2.856   5.995
 9118SOL     OW28252   0.120   3.318   0.270
 9118SOL    HW128253   0.172   3.235   0.252
 9118SOL    HW228254   0.163   3.395   0.223
 9119SOL     OW28255   4.091   0.932   2.384
 9119SOL    HW128256   4.107   0.853   2.444
 9119SOL    HW228257   3.993   0.941   2.368
 9120SOL     OW28258   6.698   1.885   5.459
 9120SOL    HW128259   6.650   1.959   5.412
 9120SOL    HW228260   6.640   1.847   5.531
 9121SOL     OW28261   3.797   6.518   4.920
 9121SOL    HW128262   3.764   6.427   4.898
 9121SOL    HW228263   3.768   6.582   4.848
 9122SOL     OW28264   2.414   4.304   1.994
 9122SOL    HW128265   2.379   4.294   1.901
 9122SOL    HW228266   2.446   4.397   2.008
 9123SOL     OW28267   2.082   0.802   4.758
 9123SOL    HW128268   2.083   0.709   4.797
 9123SOL    HW228269   1.991   0.823   4.724
 9124SOL     OW28270   4.410   5.366   0.120
 9124SOL    HW128271   4.352   5.348   0.041
 9124SOL    HW228272   4.496   5.407   0.090
 9125SOL     OW28273   4.152   4.469   0.813
 9125SOL    HW128274   4.138   4.556   0.860
 9125SOL    HW228275   4.064   4.426   0.795
 9126SOL     OW28276   6.232   3.333   1.394
 9126SOL    HW128277   6.273   3.405   1.451
 9126SOL    HW228278   6.199   3.374   1.308
 9127SOL     OW28279   6.531   1.424   6.024
 9127SOL    HW128280   6.602   1.492   6.003
 9127SOL    HW228281   6.457   1.432   5.957
 9128SOL     OW28282   6.092   2.361   5.442
 9128SOL    HW128283   6.035   2.442   5.454
 9128SOL    HW228284   6.037   2.288   5.400
 9129SOL     OW28285   6.687   2.088   0.007
 9129SOL    HW128286   6.589   2.106   7.025
 9129SOL    HW228287   6.703   2.010   0.068
 9130SOL     OW28288   1.342   4.485   6.442
 9130SOL    HW128289   1.257   4.436   6.463
 9130SOL    HW228290   1.415   4.419   6.422
 9131SOL     OW28291   5.299   3.317   6.245
 9131SOL    HW128292   5.372   3.377   6.277
 9131SOL    HW228293   5.228   3.309   6.315
 9132SOL     OW28294   0.968   5.730   4.268
 9132SOL    HW128295   0.913   5.775   4.197
 9132SOL    HW228296   0.923   5.645   4.295
 9133SOL     OW28297   3.957   6.279   1.364
 9133SOL    HW128298   3.962   6.367   1.410
 9133SOL    HW228299   3.918   6.211   1.426
 9134SOL     OW28300   3.969   5.119   1.141
 9134SOL    HW128301   3.912   5.180   1.196
 9134SOL    HW228302   4.047   5.089   1.196
 9135SOL     OW28303   0.696   0.319   1.335
 9135SOL    HW128304   0.791   0.344   1.316
 9135SOL    HW228305   0.635   0.371   1.275
 9136SOL     OW28306   4.833   6.180   6.287
 9136SOL    HW128307   4.776   6.193   6.367
 9136SOL    HW228308   4.811   6.249   6.218
 9137SOL     OW28309   3.899   0.482   6.475
 9137SOL    HW128310   3.817   0.429   6.496
 9137SOL    HW228311   3.921   0.472   6.378
 9138SOL     OW28312   0.019   4.565   6.463
 9138SOL    HW128313   0.110   4.555   6.422
 9138SOL    HW228314   0.025   4.549   6.561
 9139SOL     OW28315   1.676   1.069   2.649
 9139SOL    HW128316   1.707   1.043   2.558
 9139SOL    HW228317   1.739   1.137   2.687
 9140SOL     OW28318   0.770   3.668   1.947
 9140SOL    HW128319   0.810   3.576   1.947
 9140SOL    HW228320   0.741   3.691   2.040
 9141SOL     OW28321   5.905   6.377   1.556
 9141SOL    HW128322   5.936   6.464   1.518
 9141SOL    HW228323   5.817   6.353   1.515
 9142SOL     OW28324   0.466   3.941   1.592
 9142SOL    HW128325   0.374   3.916   1.563
 9142SOL    HW228326   0.465   3.964   1.690
 9143SOL     OW28327   6.640   3.261   0.363
 9143SOL    HW128328   6.599   3.339   0.411
 9143SOL    HW228329   6.582   3.181   0.373
 9144SOL     OW28330   3.324   5.448   5.142
 9144SOL    HW128331   3.303   5.465   5.046
 9144SOL    HW228332   3.346   5.352   5.155
 9145SOL     OW28333   0.534   6.197   6.327
 9145SOL    HW128334   0.559   6.122   6.389
 9145SOL    HW228335   0.436   6.217   6.338
 9146SOL     OW28336   5.171   3.215   2.821
 9146SOL    HW128337   5.154   3.117   2.834
 9146SOL    HW228338   5.260   3.239   2.861
 9147SOL     OW28339   0.061   0.563   5.348
 9147SOL    HW128340   0.006   0.565   5.431
 9147SOL    HW228341   0.007   0.525   5.272
 9148SOL     OW28342   5.158   6.330   2.490
 9148SOL    HW128343   5.141   6.316   2.588
 9148SOL    HW228344   5.088   6.282   2.437
 9149SOL     OW28345   5.365   3.885   2.164
 9149SOL    HW128346   5.351   3.787   2.147
 9149SOL    HW228347   5.448   3.915   2.118
 9150SOL     OW28348   3.549   4.787   0.814
 9150SOL    HW128349   3.545   4.687   0.809
 9150SOL    HW228350   3.639   4.818   0.784
 9151SOL     OW28351   1.891   4.646   3.824
 9151SOL    HW128352   1.838   4.568   3.790
 9151SOL    HW228353   1.977   4.613   3.863
 9152SOL     OW28354   2.306   4.235   4.483
 9152SOL    HW128355   2.259   4.154   4.450
 9152SOL    HW228356   2.301   4.238   4.583
 9153SOL     OW28357   0.285   2.345   6.444
 9153SOL    HW128358   0.341   2.427   6.445
 9153SOL    HW228359   0.188   2.370   6.448
 9154SOL     OW28360   4.857   4.439   4.654
 9154SOL    HW128361   4.856   4.509   4.584
 9154SOL    HW228362   4.765   4.428   4.692
 9155SOL     OW28363   2.678   4.953   2.385
 9155SOL    HW128364   2.686   4.920   2.291
 9155SOL    HW228365   2.583   4.948   2.414
 9156SOL     OW28366   6.501   1.769   1.413
 9156SOL    HW128367   6.460   1.681   1.438
 9156SOL    HW228368   6.576   1.790   1.475
 9157SOL     OW28369   3.390   3.919   0.042
 9157SOL    HW128370   3.481   3.879   0.046
 9157SOL    HW228371   3.381   3.974   6.985
 9158SOL     OW28372   6.647   3.929   4.097
 9158SOL    HW128373   6.567   3.988   4.109
 9158SOL    HW228374   6.729   3.986   4.097
 9159SOL     OW28375   2.416   0.446   3.671
 9159SOL    HW128376   2.458   0.372   3.619
 9159SOL    HW228377   2.320   0.457   3.643
 9160SOL     OW28378   0.424   6.278   5.908
 9160SOL    HW128379   0.516   6.287   5.947
 9160SOL    HW228380   0.357   6.309   5.976
 9161SOL     OW28381   6.707   4.655   3.080
 9161SOL    HW128382   6.647   4.686   3.153
 9161SOL    HW228383   6.706   4.722   3.005
 9162SOL     OW28384   4.022   7.002   2.638
 9162SOL    HW128385   3.935   6.999   2.588
 9162SOL    HW228386   4.074   0.056   2.609
 9163SOL     OW28387   6.960   3.446   3.472
 9163SOL    HW128388   6.967   3.509   3.549
 9163SOL    HW228389   6.952   3.497   3.387
 9164SOL     OW28390   2.004   0.575   6.734
 9164SOL    HW128391   2.077   0.630   6.773
 9164SOL    HW228392   2.038   0.483   6.714
 9165SOL     OW28393   5.093   2.131   6.076
 9165SOL    HW128394   5.165   2.062   6.075
 9165SOL    HW228395   5.011   2.096   6.030
 9166SOL     OW28396   4.805   5.481   0.885
 9166SOL    HW128397   4.858   5.412   0.935
 9166SOL    HW228398   4.717   5.443   0.857
 9167SOL     OW28399   1.678   2.284   5.977
 9167SOL    HW128400   1.687   2.320   6.070
 9167SOL    HW228401   1.673   2.360   5.912
 9168SOL     OW28402   6.761   6.320   6.375
 9168SOL    HW128403   6.664   6.316   6.398
 9168SOL    HW228404   6.778   6.399   6.315
 9169SOL     OW28405   6.981   6.755   6.401
 9169SOL    HW128406   6.951   6.801   6.485
 9169SOL    HW228407   0.049   6.722   6.414
 9170SOL     OW28408   1.952   0.095   6.359
 9170SOL    HW128409   2.007   0.090   6.443
 9170SOL    HW228410   1.899   0.180   6.359
 9171SOL     OW28411   3.633   5.806   0.353
 9171SOL    HW128412   3.731   5.829   0.358
 9171SOL    HW228413   3.586   5.845   0.432
 9172SOL     OW28414   4.501   1.559   3.921
 9172SOL    HW128415   4.436   1.483   3.926
 9172SOL    HW228416   4.454   1.642   3.893
 9173SOL     OW28417   5.698   3.390   5.272
 9173SOL    HW128418   5.603   3.361   5.275
 9173SOL    HW228419   5.750   3.341   5.342
 9174SOL     OW28420   0.755   5.880   6.857
 9174SOL    HW128421   0.748   5.889   6.758
 9174SOL    HW228422   0.797   5.793   6.880
 9175SOL     OW28423   1.440   0.290   6.802
 9175SOL    HW128424   1.415   0.311   6.897
 9175SOL    HW228425   1.358   0.264   6.751
 9176SOL     OW28426   2.782   6.939   1.892
 9176SOL    HW128427   2.732   6.892   1.820
 9176SOL    HW228428   2.762   0.011   1.889
 9177SOL     OW28429   1.464   2.499   4.096
 9177SOL    HW128430   1.480   2.564   4.170
 9177SOL    HW228431   1.423   2.548   4.018
 9178SOL     OW28432   2.045   6.002   6.592
 9178SOL    HW128433   2.089   6.016   6.681
 9178SOL    HW228434   1.962   5.948   6.603
 9179SOL     OW28435   1.847   5.826   5.129
 9179SOL    HW128436   1.797   5.758   5.076
 9179SOL    HW228437   1.918   5.868   5.072
 9180SOL     OW28438   6.508   2.840   3.128
 9180SOL    HW128439   6.411   2.817   3.134
 9180SOL    HW228440   6.555   2.769   3.074
 9181SOL     OW28441   4.906   2.968   3.512
 9181SOL    HW128442   4.865   2.997   3.598
 9181SOL    HW228443   4.941   3.048   3.463
 9182SOL     OW28444   3.428   0.275   3.097
 9182SOL    HW128445   3.413   0.202   3.030
 9182SOL    HW228446   3.489   0.344   3.059
 9183SOL     OW28447   4.878   4.210   6.617
 9183SOL    HW128448   4.975   4.185   6.625
 9183SOL    HW228449   4.822   4.129   6.635
 9184SOL     OW28450   3.549   2.181   0.789
 9184SOL    HW128451   3.466   2.237   0.784
 9184SOL    HW228452   3.614   2.223   0.853
 9185SOL     OW28453   0.146   0.153   5.632
 9185SOL    HW128454   0.109   0.060   5.641
 9185SOL    HW228455   0.169   0.170   5.536
 9186SOL     OW28456   5.512   1.010   5.400
 9186SOL    HW128457   5.493   1.093   5.452
 9186SOL    HW228458   5.561   1.033   5.317
 9187SOL     OW28459   4.665   2.036   0.273
 9187SOL    HW128460   4.610   1.953   0.260
 9187SOL    HW228461   4.623   2.112   0.225
 9188SOL     OW28462   1.613   0.306   1.798
 9188SOL    HW128463   1.687   0.345   1.852
 9188SOL    HW228464   1.630   0.209   1.783
 9189SOL     OW28465   2.781   6.873   3.170
 9189SOL    HW128466   2.881   6.872   3.169
 9189SOL    HW228467   2.748   6.844   3.260
 9190SOL     OW28468   0.200   3.401   5.451
 9190SOL    HW128469   0.294   3.418   5.420
 9190SOL    HW228470   0.196   3.403   5.550
 9191SOL     OW28471   5.680   0.977   6.884
 9191SOL    HW128472   5.777   0.983   6.910
 9191SOL    HW228473   5.646   0.885   6.904
 9192SOL     OW28474   6.090   3.030   5.667
 9192SOL    HW128475   6.078   2.971   5.588
 9192SOL    HW228476   6.084   3.126   5.639
 9193SOL     OW28477   3.747   3.527   3.916
 9193SOL    HW128478   3.781   3.531   3.822
 9193SOL    HW228479   3.654   3.490   3.916
 9194SOL     OW28480   4.025   6.022   1.914
 9194SOL    HW128481   4.112   5.973   1.905
 9194SOL    HW228482   3.950   5.961   1.890
 9195SOL     OW28483   1.799   2.817   3.330
 9195SOL    HW128484   1.749   2.887   3.277
 9195SOL    HW228485   1.896   2.840   3.330
 9196SOL     OW28486   5.602   0.303   3.641
 9196SOL    HW128487   5.509   0.267   3.648
 9196SOL    HW228488   5.605   0.394   3.682
 9197SOL     OW28489   3.354   5.370   0.141
 9197SOL    HW128490   3.396   5.457   0.166
 9197SOL    HW228491   3.425   5.300   0.129
 9198SOL     OW28492   6.117   4.533   6.391
 9198SOL    HW128493   6.123   4.477   6.473
 9198SOL    HW228494   6.060   4.487   6.323
 9199SOL     OW28495   0.192   2.850   6.315
 9199SOL    HW128496   0.230   2.940   6.295
 9199SOL    HW228497   0.233   2.814   6.399
 9200SOL     OW28498   2.191   5.765   6.461
 9200SOL    HW128499   2.168   5.840   6.523
 9200SOL    HW228500   2.123   5.692   6.469
 9201SOL     OW28501   0.340   3.263   0.887
 9201SOL    HW128502   0.376   3.337   0.944
 9201SOL    HW228503   0.396   3.181   0.899
 9202SOL     OW28504   1.088   5.887   3.499
 9202SOL    HW128505   1.093   5.806   3.557
 9202SOL    HW228506   1.029   5.956   3.541
 9203SOL     OW28507   5.355   2.859   6.122
 9203SOL    HW128508   5.388   2.812   6.205
 9203SOL    HW228509   5.408   2.828   6.043
 9204SOL     OW28510   4.828   4.033   3.958
 9204SOL    HW128511   4.868   3.942   3.959
 9204SOL    HW228512   4.784   4.049   3.869
 9205SOL     OW28513   4.983   5.207   2.685
 9205SOL    HW128514   4.897   5.235   2.642
 9205SOL    HW228515   5.052   5.277   2.667
 9206SOL     OW28516   3.395   0.242   3.597
 9206SOL    HW128517   3.473   0.192   3.633
 9206SOL    HW228518   3.330   0.260   3.671
 9207SOL     OW28519   3.576   5.251   6.454
 9207SOL    HW128520   3.668   5.257   6.492
 9207SOL    HW228521   3.546   5.343   6.427
 9208SOL     OW28522   5.368   4.252   2.149
 9208SOL    HW128523   5.429   4.231   2.072
 9208SOL    HW228524   5.319   4.170   2.175
 9209SOL     OW28525   3.968   0.265   1.748
 9209SOL    HW128526   4.057   0.283   1.792
 9209SOL    HW228527   3.976   0.283   1.650
 9210SOL     OW28528   0.795   0.989   1.538
 9210SOL    HW128529   0.776   0.891   1.547
 9210SOL    HW228530   0.789   1.033   1.627
 9211SOL     OW28531   5.550   3.452   6.320
 9211SOL    HW128532   5.612   3.379   6.348
 9211SOL    HW228533   5.600   3.521   6.268
 9212SOL     OW28534   5.141   4.298   5.293
 9212SOL    HW128535   5.156   4.220   5.232
 9212SOL    HW228536   5.129   4.266   5.387
 9213SOL     OW28537   5.126   5.738   4.413
 9213SOL    HW128538   5.096   5.647   4.439
 9213SOL    HW228539   5.224   5.749   4.434
 9214SOL     OW28540   0.237   2.686   5.262
 9214SOL    HW128541   0.331   2.676   5.294
 9214SOL    HW228542   0.237   2.702   5.163
 9215SOL     OW28543   1.214   4.658   2.970
 9215SOL    HW128544   1.152   4.668   3.048
 9215SOL    HW228545   1.306   4.689   2.996
 9216SOL     OW28546   2.786   6.859   4.627
 9216SOL    HW128547   2.770   6.786   4.694
 9216SOL    HW228548   2.710   6.862   4.562
 9217SOL     OW28549   5.935   1.954   0.000
 9217SOL    HW128550   5.996   2.015   0.050
 9217SOL    HW228551   5.840   1.975   0.025
 9218SOL     OW28552   3.524   0.989   6.759
 9218SOL    HW128553   3.436   0.979   6.806
 9218SOL    HW228554   3.513   1.053   6.683
 9219SOL     OW28555   4.236   3.467   5.894
 9219SOL    HW128556   4.146   3.425   5.888
 9219SOL    HW228557   4.227   3.566   5.903
 9220SOL     OW28558   1.551   6.170   2.779
 9220SOL    HW128559   1.510   6.258   2.755
 9220SOL    HW228560   1.630   6.186   2.839
 9221SOL     OW28561   2.907   0.062   4.749
 9221SOL    HW128562   2.847   7.019   4.707
 9221SOL    HW228563   2.868   0.153   4.736
 9222SOL     OW28564   2.324   4.691   5.157
 9222SOL    HW128565   2.407   4.661   5.111
 9222SOL    HW228566   2.245   4.671   5.099
 9223SOL     OW28567   1.067   2.873   4.335
 9223SOL    HW128568   1.153   2.857   4.383
 9223SOL    HW228569   1.002   2.916   4.398
 9224SOL     OW28570   1.545   4.282   3.458
 9224SOL    HW128571   1.453   4.295   3.496
 9224SOL    HW228572   1.591   4.370   3.451
 9225SOL     OW28573   4.205   5.326   6.137
 9225SOL    HW128574   4.218   5.359   6.230
 9225SOL    HW228575   4.124   5.369   6.097
 9226SOL     OW28576   0.893   0.467   1.152
 9226SOL    HW128577   0.808   0.437   1.109
 9226SOL    HW228578   0.915   0.560   1.122
 9227SOL     OW28579   1.912   6.102   1.666
 9227SOL    HW128580   1.829   6.146   1.701
 9227SOL    HW228581   1.891   6.056   1.580
 9228SOL     OW28582   2.070   2.450   0.249
 9228SOL    HW128583   1.972   2.455   0.231
 9228SOL    HW228584   2.102   2.356   0.237
 9229SOL     OW28585   0.857   5.059   5.854
 9229SOL    HW128586   0.852   5.158   5.844
 9229SOL    HW228587   0.915   5.037   5.932
 9230SOL     OW28588   4.939   3.342   2.463
 9230SOL    HW128589   4.905   3.250   2.487
 9230SOL    HW228590   4.942   3.351   2.363
 9231SOL     OW28591   0.611   3.753   5.037
 9231SOL    HW128592   0.686   3.756   4.971
 9231SOL    HW228593   0.605   3.842   5.084
 9232SOL     OW28594   3.239   5.122   0.949
 9232SOL    HW128595   3.187   5.099   0.867
 9232SOL    HW228596   3.178   5.125   1.028
 9233SOL     OW28597   0.313   6.817   0.764
 9233SOL    HW128598   0.297   6.810   0.862
 9233SOL    HW228599   0.300   6.912   0.735
 9234SOL     OW28600   2.037   6.026   0.753
 9234SOL    HW128601   2.041   6.093   0.679
 9234SOL    HW228602   1.981   5.948   0.725
 9235SOL     OW28603   1.880   3.218   3.235
 9235SOL    HW128604   1.875   3.202   3.333
 9235SOL    HW228605   1.853   3.312   3.215
 9236SOL     OW28606   2.641   3.694   6.473
 9236SOL    HW128607   2.626   3.791   6.456
 9236SOL    HW228608   2.737   3.679   6.497
 9237SOL     OW28609   0.845   5.715   2.611
 9237SOL    HW128610   0.794   5.779   2.669
 9237SOL    HW228611   0.868   5.760   2.524
 9238SOL     OW28612   2.758   2.287   5.932
 9238SOL    HW128613   2.771   2.230   6.014
 9238SOL    HW228614   2.799   2.242   5.853
 9239SOL     OW28615   6.969   4.241   6.746
 9239SOL    HW128616   6.919   4.260   6.662
 9239SOL    HW228617   6.995   4.328   6.790
 9240SOL     OW28618   5.077   2.668   1.894
 9240SOL    HW128619   5.019   2.749   1.898
 9240SOL    HW228620   5.098   2.637   1.987
 9241SOL     OW28621   0.245   6.080   0.603
 9241SOL    HW128622   0.289   5.991   0.613
 9241SOL    HW228623   0.280   6.125   0.521
 9242SOL     OW28624   1.844   3.391   1.930
 9242SOL    HW128625   1.793   3.464   1.975
 9242SOL    HW228626   1.785   3.347   1.861
 9243SOL     OW28627   0.318   0.523   1.855
 9243SOL    HW128628   0.413   0.518   1.824
 9243SOL    HW228629   0.280   0.612   1.832
 9244SOL     OW28630   2.962   6.314   5.939
 9244SOL    HW128631   3.003   6.378   6.004
 9244SOL    HW228632   3.003   6.224   5.951
 9245SOL     OW28633   0.661   4.310   3.774
 9245SOL    HW128634   0.592   4.239   3.755
 9245SOL    HW228635   0.627   4.398   3.741
 9246SOL     OW28636   5.622   0.611   3.427
 9246SOL    HW128637   5.558   0.659   3.488
 9246SOL    HW228638   5.604   0.513   3.430
 9247SOL     OW28639   3.402   5.181   2.345
 9247SOL    HW128640   3.378   5.108   2.409
 9247SOL    HW228641   3.497   5.169   2.314
 9248SOL     OW28642   3.092   2.104   4.899
 9248SOL    HW128643   3.028   2.159   4.845
 9248SOL    HW228644   3.134   2.160   4.970
 9249SOL     OW28645   4.747   5.213   1.930
 9249SOL    HW128646   4.816   5.148   1.961
 9249SOL    HW228647   4.789   5.277   1.866
 9250SOL     OW28648   6.631   2.951   3.826
 9250SOL    HW128649   6.546   2.898   3.821
 9250SOL    HW228650   6.691   2.926   3.750
 9251SOL     OW28651   3.765   1.538   2.213
 9251SOL    HW128652   3.846   1.508   2.162
 9251SOL    HW228653   3.729   1.621   2.171
 9252SOL     OW28654   5.865   0.640   4.979
 9252SOL    HW128655   5.926   0.582   4.925
 9252SOL    HW228656   5.779   0.652   4.930
 9253SOL     OW28657   5.400   5.390   5.500
 9253SOL    HW128658   5.406   5.433   5.590
 9253SOL    HW228659   5.310   5.408   5.460
 9254SOL     OW28660   4.488   4.446   2.784
 9254SOL    HW128661   4.584   4.421   2.794
 9254SOL    HW228662   4.436   4.368   2.751
 9255SOL     OW28663   5.102   3.644   0.364
 9255SOL    HW128664   5.150   3.646   0.276
 9255SOL    HW228665   5.106   3.735   0.406
 9256SOL     OW28666   2.433   0.020   2.354
 9256SOL    HW128667   2.355   0.082   2.356
 9256SOL    HW228668   2.429   6.988   2.272
 9257SOL     OW28669   5.847   5.389   3.642
 9257SOL    HW128670   5.855   5.377   3.741
 9257SOL    HW228671   5.935   5.366   3.599
 9258SOL     OW28672   4.228   3.653   1.851
 9258SOL    HW128673   4.234   3.728   1.785
 9258SOL    HW228674   4.253   3.567   1.806
 9259SOL     OW28675   1.963   1.282   0.682
 9259SOL    HW128676   1.967   1.376   0.649
 9259SOL    HW228677   1.941   1.282   0.780
 9260SOL     OW28678   6.531   2.681   5.953
 9260SOL    HW128679   6.588   2.763   5.946
 9260SOL    HW228680   6.448   2.704   6.004
 9261SOL     OW28681   4.751   1.496   6.610
 9261SOL    HW128682   4.709   1.464   6.695
 9261SOL    HW228683   4.680   1.515   6.543
 9262SOL     OW28684   0.501   6.134   4.944
 9262SOL    HW128685   0.546   6.064   4.889
 9262SOL    HW228686   0.469   6.208   4.886
 9263SOL     OW28687   3.125   5.606   2.336
 9263SOL    HW128688   3.036   5.649   2.350
 9263SOL    HW228689   3.114   5.507   2.331
 9264SOL     OW28690   4.693   3.844   0.428
 9264SOL    HW128691   4.731   3.844   0.336
 9264SOL    HW228692   4.758   3.801   0.491
 9265SOL     OW28693   3.942   2.587   0.402
 9265SOL    HW128694   4.019   2.624   0.350
 9265SOL    HW228695   3.970   2.503   0.448
 9266SOL     OW28696   0.747   6.082   1.099
 9266SOL    HW128697   0.647   6.084   1.107
 9266SOL    HW228698   0.776   5.990   1.073
 9267SOL     OW28699   0.386   2.159   4.122
 9267SOL    HW128700   0.448   2.124   4.191
 9267SOL    HW228701   0.295   2.119   4.135
 9268SOL     OW28702   0.977   0.038   2.691
 9268SOL    HW128703   0.905   0.099   2.724
 9268SOL    HW228704   0.963   0.019   2.594
 9269SOL     OW28705   4.399   0.238   6.159
 9269SOL    HW128706   4.346   0.321   6.178
 9269SOL    HW228707   4.385   0.211   6.064
 9270SOL     OW28708   3.891   6.880   5.993
 9270SOL    HW128709   3.821   6.819   5.957
 9270SOL    HW228710   3.860   6.975   5.983
 9271SOL     OW28711   6.186   0.509   0.443
 9271SOL    HW128712   6.286   0.522   0.444
 9271SOL    HW228713   6.163   0.428   0.498
 9272SOL     OW28714   1.042   6.358   6.625
 9272SOL    HW128715   1.132   6.346   6.666
 9272SOL    HW228716   0.998   6.268   6.616
 9273SOL     OW28717   6.470   6.111   3.517
 9273SOL    HW128718   6.458   6.074   3.609
 9273SOL    HW228719   6.462   6.036   3.450
 9274SOL     OW28720   7.010   2.196   0.148
 9274SOL    HW128721   6.997   2.120   0.211
 9274SOL    HW228722   0.059   2.174   0.084
 9275SOL     OW28723   6.384   0.852   0.505
 9275SOL    HW128724   6.478   0.856   0.472
 9275SOL    HW228725   6.365   0.932   0.561
 9276SOL     OW28726   1.856   4.861   0.232
 9276SOL    HW128727   1.880   4.860   0.329
 9276SOL    HW228728   1.806   4.777   0.210
 9277SOL     OW28729   4.403   5.019   2.110
 9277SOL    HW128730   4.325   4.981   2.160
 9277SOL    HW228731   4.416   4.968   2.024
 9278SOL     OW28732   2.000   0.562   5.972
 9278SOL    HW128733   2.060   0.546   5.893
 9278SOL    HW228734   1.925   0.496   5.971
 9279SOL     OW28735   3.521   6.516   1.603
 9279SOL    HW128736   3.575   6.553   1.679
 9279SOL    HW228737   3.476   6.592   1.555
 9280SOL     OW28738   2.829   0.994   2.759
 9280SOL    HW128739   2.791   0.903   2.744
 9280SOL    HW228740   2.865   1.029   2.672
 9281SOL     OW28741   3.282   4.600   0.046
 9281SOL    HW128742   3.269   4.663   0.122
 9281SOL    HW228743   3.299   4.651   6.987
 9282SOL     OW28744   5.176   1.433   3.542
 9282SOL    HW128745   5.169   1.381   3.627
 9282SOL    HW228746   5.247   1.393   3.484
 9283SOL     OW28747   5.377   0.631   4.697
 9283SOL    HW128748   5.300   0.621   4.634
 9283SOL    HW228749   5.407   0.727   4.697
 9284SOL     OW28750   2.910   3.410   5.428
 9284SOL    HW128751   2.924   3.420   5.329
 9284SOL    HW228752   2.981   3.460   5.477
 9285SOL     OW28753   4.942   3.743   1.126
 9285SOL    HW128754   4.875   3.801   1.080
 9285SOL    HW228755   4.898   3.658   1.156
 9286SOL     OW28756   5.471   5.279   0.959
 9286SOL    HW128757   5.411   5.215   1.006
 9286SOL    HW228758   5.504   5.237   0.874
 9287SOL     OW28759   3.704   4.619   6.120
 9287SOL    HW128760   3.766   4.684   6.075
 9287SOL    HW228761   3.612   4.631   6.083
 9288SOL     OW28762   4.445   1.583   2.245
 9288SOL    HW128763   4.457   1.586   2.344
 9288SOL    HW228764   4.501   1.653   2.201
 9289SOL     OW28765   4.744   0.645   0.899
 9289SOL    HW128766   4.674   0.715   0.883
 9289SOL    HW228767   4.707   0.555   0.878
 9290SOL     OW28768   5.734   0.974   3.963
 9290SOL    HW128769   5.819   1.020   3.989
 9290SOL    HW228770   5.659   1.041   3.961
 9291SOL     OW28771   1.251   5.382   5.660
 9291SOL    HW128772   1.296   5.456   5.611
 9291SOL    HW228773   1.281   5.382   5.755
 9292SOL     OW28774   2.546   2.110   6.888
 9292SOL    HW128775   2.585   2.019   6.877
 9292SOL    HW228776   2.467   2.106   6.950
 9293SOL     OW28777   5.426   4.224   6.523
 9293SOL    HW128778   5.396   4.158   6.454
 9293SOL    HW228779   5.404   4.316   6.492
 9294SOL     OW28780   5.317   1.521   6.231
 9294SOL    HW128781   5.239   1.460   6.214
 9294SOL    HW228782   5.299   1.577   6.312
 9295SOL     OW28783   5.908   0.560   5.582
 9295SOL    HW128784   5.934   0.616   5.504
 9295SOL    HW228785   5.944   0.467   5.571
 9296SOL     OW28786   1.816   4.615   0.100
 9296SOL    HW128787   1.855   4.683   0.037
 9296SOL    HW228788   1.782   4.537   0.047
 9297SOL     OW28789   0.766   0.079   3.194
 9297SOL    HW128790   0.820   0.028   3.127
 9297SOL    HW228791   0.784   0.177   3.184
 9298SOL     OW28792   1.410   6.047   5.860
 9298SOL    HW128793   1.380   6.141   5.871
 9298SOL    HW228794   1.390   6.016   5.767
 9299SOL     OW28795   0.715   1.941   4.552
 9299SOL    HW128796   0.692   1.851   4.515
 9299SOL    HW228797   0.763   1.930   4.639
 9300SOL     OW28798   0.231   5.242   5.524
 9300SOL    HW128799   0.302   5.235   5.454
 9300SOL    HW228800   0.141   5.229   5.483
 9301SOL     OW28801   6.359   5.302   4.744
 9301SOL    HW128802   6.439   5.288   4.803
 9301SOL    HW228803   6.302   5.374   4.782
 9302SOL     OW28804   2.086   3.523   4.529
 9302SOL    HW128805   2.130   3.473   4.604
 9302SOL    HW228806   2.055   3.458   4.459
 9303SOL     OW28807   3.076   3.700   0.771
 9303SOL    HW128808   3.106   3.754   0.850
 9303SOL    HW228809   3.001   3.640   0.799
 9304SOL     OW28810   4.497   5.195   0.579
 9304SOL    HW128811   4.587   5.238   0.587
 9304SOL    HW228812   4.472   5.153   0.666
 9305SOL     OW28813   3.623   0.816   0.810
 9305SOL    HW128814   3.594   0.733   0.762
 9305SOL    HW228815   3.543   0.861   0.851
 9306SOL     OW28816   1.413   4.362   5.235
 9306SOL    HW128817   1.430   4.268   5.264
 9306SOL    HW228818   1.367   4.361   5.146
 9307SOL     OW28819   1.170   3.673   0.593
 9307SOL    HW128820   1.119   3.753   0.562
 9307SOL    HW228821   1.130   3.591   0.552
 9308SOL     OW28822   1.229   4.037   2.248
 9308SOL    HW128823   1.194   3.963   2.304
 9308SOL    HW228824   1.263   4.000   2.161
 9309SOL     OW28825   3.821   6.137   5.971
 9309SOL    HW128826   3.919   6.126   5.957
 9309SOL    HW228827   3.772   6.057   5.934
 9310SOL     OW28828   5.784   6.344   5.611
 9310SOL    HW128829   5.723   6.402   5.666
 9310SOL    HW228830   5.870   6.393   5.594
 9311SOL     OW28831   5.260   4.410   1.491
 9311SOL    HW128832   5.312   4.478   1.542
 9311SOL    HW228833   5.272   4.427   1.393
 9312SOL     OW28834   1.795   2.313   1.049
 9312SOL    HW128835   1.892   2.338   1.054
 9312SOL    HW228836   1.740   2.395   1.034
 9313SOL     OW28837   6.960   0.198   1.681
 9313SOL    HW128838   6.981   0.104   1.655
 9313SOL    HW228839   6.958   0.205   1.781
 9314SOL     OW28840   6.517   3.496   0.486
 9314SOL    HW128841   6.555   3.576   0.440
 9314SOL    HW228842   6.576   3.469   0.561
 9315SOL     OW28843   6.503   6.991   5.656
 9315SOL    HW128844   6.471   0.032   5.725
 9315SOL    HW228845   6.573   0.008   5.600
 9316SOL     OW28846   6.018   0.006   5.410
 9316SOL    HW128847   5.932   0.010   5.358
 9316SOL    HW228848   5.998   7.025   5.507
 9317SOL     OW28849   4.191   5.545   3.336
 9317SOL    HW128850   4.191   5.481   3.412
 9317SOL    HW228851   4.102   5.592   3.333
 9318SOL     OW28852   5.372   0.027   0.030
 9318SOL    HW128853   5.342   7.021   6.965
 9318SOL    HW228854   5.329   0.115   0.050
 9319SOL     OW28855   2.736   2.340   1.292
 9319SOL    HW128856   2.825   2.381   1.311
 9319SOL    HW228857   2.665   2.411   1.298
 9320SOL     OW28858   4.559   0.534   5.351
 9320SOL    HW128859   4.493   0.459   5.338
 9320SOL    HW228860   4.537   0.609   5.288
 9321SOL     OW28861   1.156   1.179   5.104
 9321SOL    HW128862   1.126   1.226   5.021
 9321SOL    HW228863   1.087   1.191   5.175
 9322SOL     OW28864   0.180   4.643   0.331
 9322SOL    HW128865   0.169   4.619   0.428
 9322SOL    HW228866   0.090   4.645   0.287
 9323SOL     OW28867   1.573   1.075   4.949
 9323SOL    HW128868   1.626   1.121   5.020
 9323SOL    HW228869   1.573   0.977   4.965
 9324SOL     OW28870   2.098   3.801   2.682
 9324SOL    HW128871   2.097   3.773   2.778
 9324SOL    HW228872   2.084   3.721   2.624
 9325SOL     OW28873   6.914   6.926   0.615
 9325SOL    HW128874   6.966   6.843   0.637
 9325SOL    HW228875   6.924   6.992   0.689
 9326SOL     OW28876   3.104   4.891   0.015
 9326SOL    HW128877   3.155   4.824   0.068
 9326SOL    HW228878   3.155   4.977   0.012
 9327SOL     OW28879   3.901   6.725   2.543
 9327SOL    HW128880   3.801   6.719   2.541
 9327SOL    HW228881   3.938   6.633   2.557
 9328SOL     OW28882   1.801   0.522   5.032
 9328SOL    HW128883   1.770   0.522   5.127
 9328SOL    HW228884   1.761   0.445   4.983
 9329SOL     OW28885   7.010   5.309   1.389
 9329SOL    HW128886   0.051   5.380   1.367
 9329SOL    HW228887   6.999   5.304   1.488
 9330SOL     OW28888   6.867   6.997   5.811
 9330SOL    HW128889   6.956   6.959   5.785
 9330SOL    HW228890   6.814   6.929   5.861
 9331SOL     OW28891   2.146   1.564   6.150
 9331SOL    HW128892   2.243   1.573   6.170
 9331SOL    HW228893   2.134   1.504   6.071
 9332SOL     OW28894   4.749   5.281   0.590
 9332SOL    HW128895   4.750   5.379   0.609
 9332SOL    HW228896   4.843   5.251   0.568
 9333SOL     OW28897   4.080   5.158   6.343
 9333SOL    HW128898   4.040   5.168   6.252
 9333SOL    HW228899   4.137   5.076   6.346
 9334SOL     OW28900   4.958   6.758   4.344
 9334SOL    HW128901   4.896   6.804   4.280
 9334SOL    HW228902   4.957   6.805   4.431
 9335SOL     OW28903   1.616   1.441   6.965
 9335SOL    HW128904   1.668   1.507   6.912
 9335SOL    HW228905   1.518   1.460   6.956
 9336SOL     OW28906   5.212   6.709   4.385
 9336SOL    HW128907   5.119   6.721   4.351
 9336SOL    HW228908   5.209   6.666   4.475
 9337SOL     OW28909   5.121   1.302   5.761
 9337SOL    HW128910   5.069   1.274   5.842
 9337SOL    HW228911   5.145   1.220   5.708
 9338SOL     OW28912   6.359   6.229   0.911
 9338SOL    HW128913   6.308   6.163   0.967
 9338SOL    HW228914   6.386   6.307   0.968
 9339SOL     OW28915   5.875   5.757   0.336
 9339SOL    HW128916   5.935   5.745   0.415
 9339SOL    HW228917   5.780   5.768   0.368
 9340SOL     OW28918   3.705   4.831   2.876
 9340SOL    HW128919   3.665   4.877   2.797
 9340SOL    HW228920   3.797   4.800   2.853
 9341SOL     OW28921   6.262   4.552   0.672
 9341SOL    HW128922   6.358   4.570   0.695
 9341SOL    HW228923   6.239   4.596   0.586
 9342SOL     OW28924   2.495   0.514   4.536
 9342SOL    HW128925   2.426   0.547   4.472
 9342SOL    HW228926   2.585   0.514   4.492
 9343SOL     OW28927   4.849   4.113   1.896
 9343SOL    HW128928   4.816   4.083   1.986
 9343SOL    HW228929   4.946   4.091   1.887
 9344SOL     OW28930   5.359   5.544   0.890
 9344SOL    HW128931   5.272   5.532   0.841
 9344SOL    HW228932   5.412   5.460   0.885
 9345SOL     OW28933   0.013   4.467   2.253
 9345SOL    HW128934   0.013   4.531   2.176
 9345SOL    HW228935   0.107   4.445   2.278
 9346SOL     OW28936   4.739   0.109   2.096
 9346SOL    HW128937   4.680   0.107   2.176
 9346SOL    HW228938   4.832   0.134   2.123
 9347SOL     OW28939   2.921   6.032   0.506
 9347SOL    HW128940   2.928   5.941   0.465
 9347SOL    HW228941   2.967   6.031   0.595
 9348SOL     OW28942   2.634   5.589   2.461
 9348SOL    HW128943   2.714   5.649   2.452
 9348SOL    HW228944   2.621   5.537   2.377
 9349SOL     OW28945   6.541   5.209   2.519
 9349SOL    HW128946   6.633   5.170   2.519
 9349SOL    HW228947   6.532   5.272   2.442
 9350SOL     OW28948   6.462   1.991   4.192
 9350SOL    HW128949   6.376   1.942   4.179
 9350SOL    HW228950   6.495   1.976   4.286
 9351SOL     OW28951   3.013   0.283   6.398
 9351SOL    HW128952   3.077   0.338   6.452
 9351SOL    HW228953   2.999   0.325   6.309
 9352SOL     OW28954   3.197   2.645   5.935
 9352SOL    HW128955   3.126   2.682   5.995
 9352SOL    HW228956   3.171   2.554   5.903
 9353SOL     OW28957   2.170   4.445   0.909
 9353SOL    HW128958   2.151   4.351   0.935
 9353SOL    HW228959   2.116   4.507   0.966
 9354SOL     OW28960   6.392   1.862   7.021
 9354SOL    HW128961   6.396   1.961   7.008
 9354SOL    HW228962   6.344   1.820   6.943
 9355SOL     OW28963   6.308   2.144   4.724
 9355SOL    HW128964   6.231   2.177   4.779
 9355SOL    HW228965   6.336   2.215   4.660
 9356SOL     OW28966   4.814   5.762   1.379
 9356SOL    HW128967   4.854   5.736   1.291
 9356SOL    HW228968   4.728   5.810   1.363
 9357SOL     OW28969   3.034   3.269   6.314
 9357SOL    HW128970   2.936   3.285   6.307
 9357SOL    HW228971   3.060   3.257   6.410
 9358SOL     OW28972   6.480   3.569   2.485
 9358SOL    HW128973   6.511   3.498   2.422
 9358SOL    HW228974   6.393   3.606   2.452
 9359SOL     OW28975   1.257   3.665   5.724
 9359SOL    HW128976   1.353   3.641   5.718
 9359SOL    HW228977   1.209   3.636   5.641
 9360SOL     OW28978   1.395   6.831   6.127
 9360SOL    HW128979   1.488   6.793   6.121
 9360SOL    HW228980   1.367   6.864   6.037
 9361SOL     OW28981   1.693   6.243   3.650
 9361SOL    HW128982   1.681   6.150   3.683
 9361SOL    HW228983   1.657   6.250   3.556
 9362SOL     OW28984   1.430   2.518   1.910
 9362SOL    HW128985   1.363   2.574   1.959
 9362SOL    HW228986   1.387   2.431   1.885
 9363SOL     OW28987   4.060   5.725   1.730
 9363SOL    HW128988   4.080   5.786   1.653
 9363SOL    HW228989   3.972   5.750   1.770
 9364SOL     OW28990   4.154   2.901   5.697
 9364SOL    HW128991   4.088   2.829   5.673
 9364SOL    HW228992   4.216   2.867   5.768
 9365SOL     OW28993   2.196   2.163   5.020
 9365SOL    HW128994   2.209   2.181   4.922
 9365SOL    HW228995   2.157   2.072   5.032
 9366SOL     OW28996   3.533   0.315   0.036
 9366SOL    HW128997   3.517   0.403   7.016
 9366SOL    HW228998   3.484   0.243   7.013
 9367SOL     OW28999   6.534   6.242   2.848
 9367SOL    HW129000   6.626   6.225   2.883
 9367SOL    HW229001   6.525   6.338   2.824
 9368SOL     OW29002   2.728   1.562   3.781
 9368SOL    HW129003   2.721   1.512   3.695
 9368SOL    HW229004   2.679   1.649   3.773
 9369SOL     OW29005   0.272   0.164   5.003
 9369SOL    HW129006   0.344   0.224   4.969
 9369SOL    HW229007   0.294   0.135   5.096
 9370SOL     OW29008   4.739   6.906   2.430
 9370SOL    HW129009   4.674   6.911   2.506
 9370SOL    HW229010   4.824   6.953   2.455
 9371SOL     OW29011   2.207   4.783   0.628
 9371SOL    HW129012   2.128   4.728   0.602
 9371SOL    HW229013   2.214   4.862   0.567
 9372SOL     OW29014   5.039   6.045   2.813
 9372SOL    HW129015   4.949   6.018   2.781
 9372SOL    HW229016   5.051   6.018   2.908
 9373SOL     OW29017   4.136   2.136   2.110
 9373SOL    HW129018   4.089   2.097   2.189
 9373SOL    HW229019   4.207   2.199   2.142
 9374SOL     OW29020   0.817   2.986   0.842
 9374SOL    HW129021   0.856   3.060   0.787
 9374SOL    HW229022   0.849   2.898   0.808
 9375SOL     OW29023   6.102   1.694   2.922
 9375SOL    HW129024   6.104   1.595   2.937
 9375SOL    HW229025   6.107   1.741   3.010
 9376SOL     OW29026   2.746   4.076   0.805
 9376SOL    HW129027   2.807   4.052   0.729
 9376SOL    HW229028   2.788   4.147   0.861
 9377SOL     OW29029   2.098   5.554   4.113
 9377SOL    HW129030   2.072   5.531   4.207
 9377SOL    HW229031   2.198   5.558   4.107
 9378SOL     OW29032   1.260   1.454   5.182
 9378SOL    HW129033   1.205   1.392   5.126
 9378SOL    HW229034   1.202   1.497   5.251
 9379SOL     OW29035   4.449   6.119   4.835
 9379SOL    HW129036   4.411   6.031   4.865
 9379SOL    HW229037   4.450   6.183   4.912
 9380SOL     OW29038   5.740   4.891   4.977
 9380SOL    HW129039   5.668   4.893   4.907
 9380SOL    HW229040   5.698   4.888   5.067
 9381SOL     OW29041   3.380   2.832   5.888
 9381SOL    HW129042   3.304   2.768   5.892
 9381SOL    HW229043   3.351   2.917   5.844
 9382SOL     OW29044   3.644   0.888   2.923
 9382SOL    HW129045   3.700   0.912   3.002
 9382SOL    HW229046   3.598   0.970   2.889
 9383SOL     OW29047   1.933   6.030   4.653
 9383SOL    HW129048   1.998   6.036   4.577
 9383SOL    HW229049   1.840   6.044   4.619
 9384SOL     OW29050   2.855   6.760   1.525
 9384SOL    HW129051   2.769   6.809   1.539
 9384SOL    HW229052   2.851   6.672   1.573
 9385SOL     OW29053   3.865   0.643   2.846
 9385SOL    HW129054   3.826   0.563   2.799
 9385SOL    HW229055   3.856   0.723   2.787
 9386SOL     OW29056   2.130   6.521   5.187
 9386SOL    HW129057   2.047   6.466   5.178
 9386SOL    HW229058   2.109   6.605   5.238
 9387SOL     OW29059   2.361   1.766   0.189
 9387SOL    HW129060   2.460   1.776   0.190
 9387SOL    HW229061   2.335   1.701   0.117
 9388SOL     OW29062   2.212   5.206   2.662
 9388SOL    HW129063   2.236   5.172   2.753
 9388SOL    HW229064   2.256   5.294   2.646
 9389SOL     OW29065   1.510   6.615   4.609
 9389SOL    HW129066   1.497   6.704   4.653
 9389SOL    HW229067   1.515   6.627   4.510
 9390SOL     OW29068   4.754   4.993   4.828
 9390SOL    HW129069   4.746   4.933   4.749
 9390SOL    HW229070   4.849   5.024   4.837
 9391SOL     OW29071   2.345   1.303   4.924
 9391SOL    HW129072   2.367   1.381   4.982
 9391SOL    HW229073   2.255   1.267   4.949
 9392SOL     OW29074   6.953   0.496   5.651
 9392SOL    HW129075   6.883   0.448   5.703
 9392SOL    HW229076   6.960   0.591   5.683
 9393SOL     OW29077   3.226   7.023   5.891
 9393SOL    HW129078   3.168   0.058   5.837
 9393SOL    HW229079   3.322   0.026   5.881
 9394SOL     OW29080   0.563   1.772   2.300
 9394SOL    HW129081   0.532   1.850   2.245
 9394SOL    HW229082   0.557   1.689   2.245
 9395SOL     OW29083   2.517   1.865   0.968
 9395SOL    HW129084   2.441   1.818   1.012
 9395SOL    HW229085   2.600   1.852   1.021
 9396SOL     OW29086   2.367   5.390   4.066
 9396SOL    HW129087   2.358   5.292   4.084
 9396SOL    HW229088   2.390   5.438   4.151
 9397SOL     OW29089   3.885   6.813   6.831
 9397SOL    HW129090   3.895   6.737   6.767
 9397SOL    HW229091   3.835   6.888   6.786
 9398SOL     OW29092   6.799   0.808   4.847
 9398SOL    HW129093   6.824   0.794   4.942
 9398SOL    HW229094   6.822   0.726   4.794
 9399SOL     OW29095   0.073   1.709   5.996
 9399SOL    HW129096   0.086   1.785   6.060
 9399SOL    HW229097   0.035   1.631   6.045
 9400SOL     OW29098   3.968   1.154   2.122
 9400SOL    HW129099   3.956   1.254   2.118
 9400SOL    HW229100   3.913   1.116   2.196
 9401SOL     OW29101   5.943   0.088   3.490
 9401SOL    HW129102   6.007   0.012   3.480
 9401SOL    HW229103   5.933   0.135   3.402
 9402SOL     OW29104   1.395   4.884   3.748
 9402SOL    HW129105   1.322   4.855   3.686
 9402SOL    HW229106   1.361   4.956   3.808
 9403SOL     OW29107   6.595   2.024   2.945
 9403SOL    HW129108   6.568   2.112   2.983
 9403SOL    HW229109   6.516   1.980   2.902
 9404SOL     OW29110   1.413   3.179   6.593
 9404SOL    HW129111   1.427   3.278   6.588
 9404SOL    HW229112   1.480   3.133   6.535
 9405SOL     OW29113   1.646   5.100   2.370
 9405SOL    HW129114   1.672   5.192   2.400
 9405SOL    HW229115   1.729   5.047   2.352
 9406SOL     OW29116   6.597   3.268   5.545
 9406SOL    HW129117   6.678   3.223   5.506
 9406SOL    HW229118   6.527   3.277   5.475
 9407SOL     OW29119   2.870   5.255   3.066
 9407SOL    HW129120   2.810   5.253   3.146
 9407SOL    HW229121   2.895   5.162   3.040
 9408SOL     OW29122   5.150   2.258   6.419
 9408SOL    HW129123   5.205   2.193   6.472
 9408SOL    HW229124   5.208   2.333   6.387
 9409SOL     OW29125   6.372   5.303   6.813
 9409SOL    HW129126   6.275   5.288   6.794
 9409SOL    HW229127   6.392   5.277   6.908
 9410SOL     OW29128   3.231   0.081   1.729
 9410SOL    HW129129   3.297   0.018   1.770
 9410SOL    HW229130   3.145   0.032   1.711
 9411SOL     OW29131   3.096   3.211   2.000
 9411SOL    HW129132   3.075   3.131   1.945
 9411SOL    HW229133   3.024   3.224   2.069
 9412SOL     OW29134   6.721   2.633   2.119
 9412SOL    HW129135   6.664   2.640   2.201
 9412SOL    HW229136   6.753   2.724   2.093
 9413SOL     OW29137   3.149   6.155   3.959
 9413SOL    HW129138   3.198   6.071   3.935
 9413SOL    HW229139   3.128   6.206   3.875
 9414SOL     OW29140   3.244   0.805   3.087
 9414SOL    HW129141   3.148   0.779   3.080
 9414SOL    HW229142   3.283   0.813   2.995
 9415SOL     OW29143   3.131   6.555   2.016
 9415SOL    HW129144   3.088   6.546   2.106
 9415SOL    HW229145   3.107   6.644   1.977
 9416SOL     OW29146   0.827   2.496   0.923
 9416SOL    HW129147   0.862   2.581   0.962
 9416SOL    HW229148   0.820   2.427   0.994
 9417SOL     OW29149   4.128   0.277   6.051
 9417SOL    HW129150   4.124   0.179   6.031
 9417SOL    HW229151   4.105   0.293   6.147
 9418SOL     OW29152   3.825   6.306   0.892
 9418SOL    HW129153   3.754   6.349   0.948
 9418SOL    HW229154   3.899   6.275   0.951
 9419SOL     OW29155   3.887   5.541   5.781
 9419SOL    HW129156   3.801   5.496   5.758
 9419SOL    HW229157   3.960   5.508   5.721
 9420SOL     OW29158   6.276   3.731   5.708
 9420SOL    HW129159   6.221   3.804   5.666
 9420SOL    HW229160   6.341   3.695   5.640
 9421SOL     OW29161   2.128   6.857   4.247
 9421SOL    HW129162   2.083   6.932   4.199
 9421SOL    HW229163   2.069   6.776   4.244
 9422SOL     OW29164   4.054   5.982   3.192
 9422SOL    HW129165   4.107   5.984   3.276
 9422SOL    HW229166   4.114   5.965   3.114
 9423SOL     OW29167   3.986   0.887   3.851
 9423SOL    HW129168   3.982   0.877   3.752
 9423SOL    HW229169   3.896   0.867   3.890
 9424SOL     OW29170   5.372   1.103   4.526
 9424SOL    HW129171   5.412   1.032   4.584
 9424SOL    HW229172   5.344   1.181   4.583
 9425SOL     OW29173   6.423   3.249   6.653
 9425SOL    HW129174   6.353   3.283   6.717
 9425SOL    HW229175   6.493   3.200   6.703
 9426SOL     OW29176   3.407   2.021   6.538
 9426SOL    HW129177   3.414   2.119   6.557
 9426SOL    HW229178   3.311   1.993   6.540
 9427SOL     OW29179   2.888   5.365   3.435
 9427SOL    HW129180   2.941   5.377   3.351
 9427SOL    HW229181   2.824   5.289   3.423
 9428SOL     OW29182   6.266   0.694   1.517
 9428SOL    HW129183   6.189   0.690   1.582
 9428SOL    HW229184   6.259   0.778   1.464
 9429SOL     OW29185   2.034   3.502   2.314
 9429SOL    HW129186   1.934   3.497   2.309
 9429SOL    HW229187   2.073   3.474   2.226
 9430SOL     OW29188   0.459   3.876   2.464
 9430SOL    HW129189   0.551   3.840   2.483
 9430SOL    HW229190   0.445   3.960   2.517
 9431SOL     OW29191   6.644   4.413   1.244
 9431SOL    HW129192   6.604   4.379   1.159
 9431SOL    HW229193   6.601   4.367   1.322
 9432SOL     OW29194   4.352   0.631   2.845
 9432SOL    HW129195   4.259   0.594   2.843
 9432SOL    HW229196   4.379   0.651   2.939
 9433SOL     OW29197   2.804   5.314   2.728
 9433SOL    HW129198   2.877   5.336   2.663
 9433SOL    HW229199   2.833   5.339   2.820
 9434SOL     OW29200   5.470   5.050   2.800
 9434SOL    HW129201   5.531   5.038   2.721
 9434SOL    HW229202   5.445   5.147   2.808
 9435SOL     OW29203   0.419   2.739   4.697
 9435SOL    HW129204   0.477   2.698   4.626
 9435SOL    HW229205   0.345   2.790   4.654
 9436SOL     OW29206   1.186   2.771   1.775
 9436SOL    HW129207   1.118   2.801   1.708
 9436SOL    HW229208   1.194   2.839   1.847
 9437SOL     OW29209   2.120   5.638   3.043
 9437SOL    HW129210   2.071   5.653   3.129
 9437SOL    HW229211   2.218   5.654   3.057
 9438SOL     OW29212   0.131   0.591   1.527
 9438SOL    HW129213   0.105   0.591   1.430
 9438SOL    HW229214   0.224   0.625   1.537
 9439SOL     OW29215   0.342   3.333   1.477
 9439SOL    HW129216   0.348   3.335   1.377
 9439SOL    HW229217   0.296   3.249   1.506
 9440SOL     OW29218   3.990   5.093   3.778
 9440SOL    HW129219   3.934   5.039   3.840
 9440SOL    HW229220   4.032   5.032   3.710
 9441SOL     OW29221   0.551   3.280   5.288
 9441SOL    HW129222   0.642   3.317   5.310
 9441SOL    HW229223   0.507   3.249   5.373
 9442SOL     OW29224   4.147   3.101   0.367
 9442SOL    HW129225   4.104   3.190   0.380
 9442SOL    HW229226   4.246   3.113   0.355
 9443SOL     OW29227   1.973   5.411   0.409
 9443SOL    HW129228   1.934   5.440   0.496
 9443SOL    HW229229   2.063   5.371   0.424
 9444SOL     OW29230   1.323   3.171   0.022
 9444SOL    HW129231   1.384   3.250   0.023
 9444SOL    HW229232   1.292   3.153   6.954
 9445SOL     OW29233   5.443   3.177   3.507
 9445SOL    HW129234   5.373   3.132   3.451
 9445SOL    HW229235   5.449   3.274   3.481
 9446SOL     OW29236   6.513   5.698   4.367
 9446SOL    HW129237   6.572   5.618   4.360
 9446SOL    HW229238   6.527   5.742   4.456
 9447SOL     OW29239   6.066   4.145   4.987
 9447SOL    HW129240   6.094   4.239   4.972
 9447SOL    HW229241   6.118   4.084   4.926
 9448SOL     OW29242   0.105   0.262   6.862
 9448SOL    HW129243   0.053   0.220   6.937
 9448SOL    HW229244   0.043   0.315   6.805
 9449SOL     OW29245   6.806   6.226   0.270
 9449SOL    HW129246   6.728   6.170   0.299
 9449SOL    HW229247   6.779   6.280   0.190
 9450SOL     OW29248   2.453   5.400   5.243
 9450SOL    HW129249   2.358   5.372   5.231
 9450SOL    HW229250   2.493   5.350   5.320
 9451SOL     OW29251   4.137   6.987   5.477
 9451SOL    HW129252   4.093   0.020   5.546
 9451SOL    HW229253   4.066   6.936   5.428
 9452SOL     OW29254   1.899   4.096   0.033
 9452SOL    HW129255   1.909   4.165   6.987
 9452SOL    HW229256   1.987   4.050   0.046
 9453SOL     OW29257   1.812   4.791   3.570
 9453SOL    HW129258   1.802   4.755   3.477
 9453SOL    HW229259   1.827   4.715   3.634
 9454SOL     OW29260   3.383   3.009   6.653
 9454SOL    HW129261   3.383   3.053   6.742
 9454SOL    HW229262   3.469   3.028   6.606
 9455SOL     OW29263   3.403   1.579   3.493
 9455SOL    HW129264   3.353   1.586   3.406
 9455SOL    HW229265   3.501   1.576   3.475
 9456SOL     OW29266   0.898   2.749   1.090
 9456SOL    HW129267   0.914   2.836   1.137
 9456SOL    HW229268   0.966   2.738   1.018
 9457SOL     OW29269   2.275   3.845   5.326
 9457SOL    HW129270   2.265   3.899   5.409
 9457SOL    HW229271   2.344   3.887   5.266
 9458SOL     OW29272   1.248   3.075   6.776
 9458SOL    HW129273   1.157   3.069   6.734
 9458SOL    HW229274   1.315   3.103   6.707
 9459SOL     OW29275   5.294   4.578   3.353
 9459SOL    HW129276   5.240   4.517   3.296
 9459SOL    HW229277   5.391   4.570   3.329
 9460SOL     OW29278   0.180   2.863   3.784
 9460SOL    HW129279   0.090   2.903   3.800
 9460SOL    HW229280   0.225   2.846   3.872
 9461SOL     OW29281   6.454   1.633   1.997
 9461SOL    HW129282   6.489   1.601   2.086
 9461SOL    HW229283   6.361   1.598   1.985
 9462SOL     OW29284   2.166   3.826   3.321
 9462SOL    HW129285   2.263   3.807   3.307
 9462SOL    HW229286   2.117   3.740   3.340
 9463SOL     OW29287   6.917   1.234   1.905
 9463SOL    HW129288   6.861   1.264   1.828
 9463SOL    HW229289   6.884   1.145   1.937
 9464SOL     OW29290   6.354   0.257   1.058
 9464SOL    HW129291   6.438   0.310   1.066
 9464SOL    HW229292   6.297   0.295   0.985
 9465SOL     OW29293   1.836   5.117   2.837
 9465SOL    HW129294   1.738   5.097   2.841
 9465SOL    HW229295   1.880   5.085   2.921
 9466SOL     OW29296   4.581   4.708   5.916
 9466SOL    HW129297   4.631   4.665   5.841
 9466SOL    HW229298   4.605   4.663   6.002
 9467SOL     OW29299   1.075   3.280   1.893
 9467SOL    HW129300   1.058   3.186   1.862
 9467SOL    HW229301   1.168   3.286   1.931
 9468SOL     OW29302   5.792   3.228   6.077
 9468SOL    HW129303   5.773   3.130   6.076
 9468SOL    HW229304   5.723   3.276   6.023
 9469SOL     OW29305   6.638   5.743   2.218
 9469SOL    HW129306   6.563   5.804   2.245
 9469SOL    HW229307   6.717   5.759   2.277
 9470SOL     OW29308   4.357   3.474   5.641
 9470SOL    HW129309   4.423   3.548   5.629
 9470SOL    HW229310   4.316   3.480   5.732
 9471SOL     OW29311   0.103   2.374   4.542
 9471SOL    HW129312   0.124   2.310   4.616
 9471SOL    HW229313   0.038   2.443   4.575
 9472SOL     OW29314   5.814   4.170   5.138
 9472SOL    HW129315   5.897   4.145   5.089
 9472SOL    HW229316   5.768   4.087   5.170
 9473SOL     OW29317   3.401   5.156   6.242
 9473SOL    HW129318   3.445   5.187   6.327
 9473SOL    HW229319   3.459   5.181   6.164
 9474SOL     OW29320   0.292   2.720   0.006
 9474SOL    HW129321   0.335   2.798   6.985
 9474SOL    HW229322   0.325   2.635   6.991
 9475SOL     OW29323   3.407   3.225   6.389
 9475SOL    HW129324   3.476   3.163   6.427
 9475SOL    HW229325   3.363   3.181   6.310
 9476SOL     OW29326   3.291   4.158   4.516
 9476SOL    HW129327   3.270   4.061   4.503
 9476SOL    HW229328   3.223   4.199   4.576
 9477SOL     OW29329   0.164   3.136   1.597
 9477SOL    HW129330   0.132   3.178   1.682
 9477SOL    HW229331   0.149   3.037   1.601
 9478SOL     OW29332   5.119   3.259   0.295
 9478SOL    HW129333   5.118   3.331   0.226
 9478SOL    HW229334   5.089   3.173   0.254
 9479SOL     OW29335   4.414   6.064   6.737
 9479SOL    HW129336   4.324   6.027   6.759
 9479SOL    HW229337   4.475   5.990   6.707
 9480SOL     OW29338   4.593   4.125   0.918
 9480SOL    HW129339   4.657   4.107   0.843
 9480SOL    HW229340   4.500   4.105   0.887
 9481SOL     OW29341   5.017   3.580   1.841
 9481SOL    HW129342   4.965   3.587   1.926
 9481SOL    HW229343   5.096   3.520   1.855
 9482SOL     OW29344   0.011   0.764   2.906
 9482SOL    HW129345   7.024   0.766   3.005
 9482SOL    HW229346   6.991   0.683   2.869
 9483SOL     OW29347   1.374   1.772   1.735
 9483SOL    HW129348   1.300   1.710   1.763
 9483SOL    HW229349   1.462   1.735   1.766
 9484SOL     OW29350   3.594   1.246   3.679
 9484SOL    HW129351   3.649   1.262   3.597
 9484SOL    HW229352   3.520   1.181   3.657
 9485SOL     OW29353   0.374   0.394   1.237
 9485SOL    HW129354   0.281   0.411   1.204
 9485SOL    HW229355   0.376   0.310   1.291
 9486SOL     OW29356   2.718   6.179   0.831
 9486SOL    HW129357   2.667   6.193   0.916
 9486SOL    HW229358   2.655   6.177   0.754
 9487SOL     OW29359   3.811   3.610   3.328
 9487SOL    HW129360   3.907   3.584   3.311
 9487SOL    HW229361   3.806   3.668   3.409
 9488SOL     OW29362   1.656   6.213   0.865
 9488SOL    HW129363   1.742   6.263   0.863
 9488SOL    HW229364   1.607   6.227   0.779
 9489SOL     OW29365   4.239   4.354   1.671
 9489SOL    HW129366   4.287   4.371   1.585
 9489SOL    HW229367   4.298   4.302   1.733
 9490SOL     OW29368   0.149   5.503   1.230
 9490SOL    HW129369   0.213   5.445   1.280
 9490SOL    HW229370   0.155   5.484   1.132
 9491SOL     OW29371   6.522   4.552   3.901
 9491SOL    HW129372   6.593   4.617   3.871
 9491SOL    HW229373   6.467   4.525   3.822
 9492SOL     OW29374   3.436   2.880   3.149
 9492SOL    HW129375   3.445   2.859   3.051
 9492SOL    HW229376   3.360   2.827   3.187
 9493SOL     OW29377   3.453   5.282   3.597
 9493SOL    HW129378   3.459   5.337   3.680
 9493SOL    HW229379   3.544   5.275   3.556
 9494SOL     OW29380   4.660   4.638   1.682
 9494SOL    HW129381   4.677   4.615   1.778
 9494SOL    HW229382   4.725   4.588   1.624
 9495SOL     OW29383   6.138   1.778   3.199
 9495SOL    HW129384   6.087   1.697   3.230
 9495SOL    HW229385   6.230   1.776   3.237
 9496SOL     OW29386   6.154   4.656   1.401
 9496SOL    HW129387   6.232   4.718   1.390
 9496SOL    HW229388   6.071   4.701   1.369
 9497SOL     OW29389   5.784   5.948   6.629
 9497SOL    HW129390   5.776   5.985   6.536
 9497SOL    HW229391   5.693   5.941   6.670
 9498SOL     OW29392   4.910   6.901   4.572
 9498SOL    HW129393   4.932   6.996   4.551
 9498SOL    HW229394   4.812   6.886   4.560
 9499SOL     OW29395   1.732   5.372   6.361
 9499SOL    HW129396   1.735   5.273   6.344
 9499SOL    HW229397   1.764   5.391   6.454
 9500SOL     OW29398   5.802   0.728   0.929
 9500SOL    HW129399   5.848   0.815   0.909
 9500SOL    HW229400   5.706   0.734   0.901
 9501SOL     OW29401   3.229   1.261   4.745
 9501SOL    HW129402   3.134   1.268   4.716
 9501SOL    HW229403   3.279   1.202   4.682
 9502SOL     OW29404   5.647   2.614   5.047
 9502SOL    HW129405   5.720   2.675   5.016
 9502SOL    HW229406   5.657   2.599   5.145
 9503SOL     OW29407   0.427   1.494   1.412
 9503SOL    HW129408   0.507   1.500   1.471
 9503SOL    HW229409   0.388   1.585   1.399
 9504SOL     OW29410   6.758   2.373   1.264
 9504SOL    HW129411   6.817   2.318   1.205
 9504SOL    HW229412   6.674   2.395   1.215
 9505SOL     OW29413   5.226   4.854   3.214
 9505SOL    HW129414   5.297   4.912   3.174
 9505SOL    HW229415   5.268   4.771   3.253
 9506SOL     OW29416   0.579   2.460   5.957
 9506SOL    HW129417   0.585   2.381   5.896
 9506SOL    HW229418   0.657   2.460   6.020
 9507SOL     OW29419   1.170   2.130   3.318
 9507SOL    HW129420   1.154   2.198   3.391
 9507SOL    HW229421   1.086   2.117   3.266
 9508SOL     OW29422   6.586   3.118   0.793
 9508SOL    HW129423   6.598   3.111   0.892
 9508SOL    HW229424   6.496   3.156   0.773
 9509SOL     OW29425   0.727   0.828   4.196
 9509SOL    HW129426   0.756   0.836   4.101
 9509SOL    HW229427   0.650   0.764   4.202
 9510SOL     OW29428   1.705   3.530   2.611
 9510SOL    HW129429   1.625   3.569   2.656
 9510SOL    HW229430   1.675   3.477   2.531
 9511SOL     OW29431   1.170   0.431   0.894
 9511SOL    HW129432   1.227   0.487   0.833
 9511SOL    HW229433   1.076   0.432   0.861
 9512SOL     OW29434   5.618   1.477   1.194
 9512SOL    HW129435   5.583   1.507   1.105
 9512SOL    HW229436   5.686   1.543   1.227
 9513SOL     OW29437   1.739   3.560   6.207
 9513SOL    HW129438   1.695   3.471   6.220
 9513SOL    HW229439   1.713   3.597   6.118
 9514SOL     OW29440   1.734   5.075   6.398
 9514SOL    HW129441   1.661   5.007   6.390
 9514SOL    HW229442   1.751   5.095   6.494
 9515SOL     OW29443   1.508   5.950   1.503
 9515SOL    HW129444   1.448   5.896   1.444
 9515SOL    HW229445   1.560   6.014   1.447
 9516SOL     OW29446   4.950   4.557   5.317
 9516SOL    HW129447   4.998   4.470   5.307
 9516SOL    HW229448   4.883   4.550   5.391
 9517SOL     OW29449   1.349   4.862   0.985
 9517SOL    HW129450   1.314   4.858   0.891
 9517SOL    HW229451   1.416   4.789   0.998
 9518SOL     OW29452   1.767   1.842   6.881
 9518SOL    HW129453   1.826   1.884   6.950
 9518SOL    HW229454   1.677   1.885   6.885
 9519SOL     OW29455   4.087   3.471   4.275
 9519SOL    HW129456   4.074   3.561   4.234
 9519SOL    HW229457   4.104   3.481   4.373
 9520SOL     OW29458   1.010   1.719   3.419
 9520SOL    HW129459   1.104   1.689   3.409
 9520SOL    HW229460   0.977   1.699   3.511
 9521SOL     OW29461   5.226   5.311   1.676
 9521SOL    HW129462   5.236   5.300   1.577
 9521SOL    HW229463   5.181   5.230   1.714
 9522SOL     OW29464   3.874   4.889   1.011
 9522SOL    HW129465   3.823   4.820   1.063
 9522SOL    HW229466   3.909   4.958   1.074
 9523SOL     OW29467   2.631   4.853   5.132
 9523SOL    HW129468   2.577   4.827   5.052
 9523SOL    HW229469   2.720   4.808   5.128
 9524SOL     OW29470   3.508   3.119   0.659
 9524SOL    HW129471   3.510   3.112   0.559
 9524SOL    HW229472   3.413   3.125   0.690
 9525SOL     OW29473   2.363   2.312   5.737
 9525SOL    HW129474   2.303   2.257   5.794
 9525SOL    HW229475   2.316   2.397   5.711
 9526SOL     OW29476   6.546   4.799   0.980
 9526SOL    HW129477   6.584   4.812   1.072
 9526SOL    HW229478   6.467   4.737   0.986
 9527SOL     OW29479   0.801   1.041   4.615
 9527SOL    HW129480   0.889   1.017   4.657
 9527SOL    HW229481   0.742   0.960   4.614
 9528SOL     OW29482   6.611   1.391   0.956
 9528SOL    HW129483   6.546   1.442   1.012
 9528SOL    HW229484   6.701   1.393   1.001
 9529SOL     OW29485   6.137   3.628   6.359
 9529SOL    HW129486   6.135   3.624   6.259
 9529SOL    HW229487   6.047   3.605   6.395
 9530SOL     OW29488   2.135   3.402   3.049
 9530SOL    HW129489   2.169   3.308   3.052
 9530SOL    HW229490   2.105   3.424   2.956
 9531SOL     OW29491   4.738   5.302   2.593
 9531SOL    HW129492   4.755   5.388   2.544
 9531SOL    HW229493   4.641   5.278   2.586
 9532SOL     OW29494   0.410   6.237   1.408
 9532SOL    HW129495   0.503   6.205   1.389
 9532SOL    HW229496   0.410   6.293   1.490
 9533SOL     OW29497   0.327   5.891   5.103
 9533SOL    HW129498   0.417   5.858   5.133
 9533SOL    HW229499   0.294   5.960   5.168
 9534SOL     OW29500   6.994   4.096   4.749
 9534SOL    HW129501   7.019   4.102   4.653
 9534SOL    HW229502   7.002   4.001   4.780
 9535SOL     OW29503   2.326   0.685   6.648
 9535SOL    HW129504   2.418   0.693   6.687
 9535SOL    HW229505   2.315   0.750   6.573
 9536SOL     OW29506   2.902   4.057   6.212
 9536SOL    HW129507   2.807   4.057   6.181
 9536SOL    HW229508   2.959   4.011   6.143
 9537SOL     OW29509   2.698   6.703   3.913
 9537SOL    HW129510   2.783   6.732   3.957
 9537SOL    HW229511   2.626   6.769   3.934
 9538SOL     OW29512   5.677   1.247   3.699
 9538SOL    HW129513   5.708   1.182   3.629
 9538SOL    HW229514   5.629   1.198   3.771
 9539SOL     OW29515   3.575   3.678   4.896
 9539SOL    HW129516   3.637   3.685   4.817
 9539SOL    HW229517   3.625   3.703   4.979
 9540SOL     OW29518   6.082   3.938   4.494
 9540SOL    HW129519   6.182   3.943   4.496
 9540SOL    HW229520   6.047   4.003   4.426
 9541SOL     OW29521   3.247   0.843   5.853
 9541SOL    HW129522   3.253   0.819   5.756
 9541SOL    HW229523   3.329   0.894   5.880
 9542SOL     OW29524   5.054   4.237   4.688
 9542SOL    HW129525   5.096   4.211   4.601
 9542SOL    HW229526   4.978   4.299   4.671
 9543SOL     OW29527   3.463   0.557   6.094
 9543SOL    HW129528   3.523   0.569   6.173
 9543SOL    HW229529   3.441   0.460   6.083
 9544SOL     OW29530   6.947   2.255   2.940
 9544SOL    HW129531   7.019   2.250   3.009
 9544SOL    HW229532   6.984   2.296   2.856
 9545SOL     OW29533   5.800   5.655   4.400
 9545SOL    HW129534   5.777   5.729   4.463
 9545SOL    HW229535   5.837   5.578   4.452
 9546SOL     OW29536   3.710   2.067   5.362
 9546SOL    HW129537   3.684   2.063   5.458
 9546SOL    HW229538   3.628   2.060   5.305
 9547SOL     OW29539   2.416   5.855   4.296
 9547SOL    HW129540   2.406   5.943   4.342
 9547SOL    HW229541   2.395   5.865   4.199
 9548SOL     OW29542   6.011   5.531   6.382
 9548SOL    HW129543   6.049   5.459   6.442
 9548SOL    HW229544   6.014   5.618   6.430
 9549SOL     OW29545   2.535   2.750   1.186
 9549SOL    HW129546   2.560   2.659   1.221
 9549SOL    HW229547   2.509   2.808   1.263
 9550SOL     OW29548   0.335   1.649   0.245
 9550SOL    HW129549   0.396   1.656   0.166
 9550SOL    HW229550   0.346   1.558   0.286
 9551SOL     OW29551   5.385   1.826   4.461
 9551SOL    HW129552   5.409   1.815   4.558
 9551SOL    HW229553   5.382   1.736   4.418
 9552SOL     OW29554   1.424   0.066   4.093
 9552SOL    HW129555   1.478   0.112   4.023
 9552SOL    HW229556   1.419   6.994   4.073
 9553SOL     OW29557   6.300   3.217   6.065
 9553SOL    HW129558   6.370   3.196   5.997
 9553SOL    HW229559   6.219   3.254   6.020
 9554SOL     OW29560   2.008   6.286   1.364
 9554SOL    HW129561   1.938   6.295   1.293
 9554SOL    HW229562   1.996   6.198   1.411
 9555SOL     OW29563   1.114   0.757   3.510
 9555SOL    HW129564   1.084   0.848   3.481
 9555SOL    HW229565   1.058   0.725   3.585
 9556SOL     OW29566   1.475   3.333   1.563
 9556SOL    HW129567   1.415   3.397   1.515
 9556SOL    HW229568   1.451   3.239   1.539
 9557SOL     OW29569   0.677   6.568   2.422
 9557SOL    HW129570   0.750   6.602   2.363
 9557SOL    HW229571   0.590   6.611   2.394
 9558SOL     OW29572   5.993   6.191   4.803
 9558SOL    HW129573   5.946   6.233   4.725
 9558SOL    HW229574   6.016   6.261   4.870
 9559SOL     OW29575   0.006   4.611   0.974
 9559SOL    HW129576   0.016   4.709   0.957
 9559SOL    HW229577   6.945   4.579   0.933
 9560SOL     OW29578   1.970   1.047   3.465
 9560SOL    HW129579   1.993   1.014   3.557
 9560SOL    HW229580   2.053   1.070   3.416
 9561SOL     OW29581   1.348   6.756   0.329
 9561SOL    HW129582   1.360   6.676   0.269
 9561SOL    HW229583   1.376   6.838   0.279
 9562SOL     OW29584   3.270   0.112   5.334
 9562SOL    HW129585   3.179   0.071   5.330
 9562SOL    HW229586   3.284   0.170   5.254
 9563SOL     OW29587   6.179   6.008   0.795
 9563SOL    HW129588   6.190   6.090   0.739
 9563SOL    HW229589   6.209   6.026   0.888
 9564SOL     OW29590   2.940   0.083   0.691
 9564SOL    HW129591   2.934   7.020   0.738
 9564SOL    HW229592   2.992   0.147   0.748
 9565SOL     OW29593   3.840   0.596   4.718
 9565SOL    HW129594   3.873   0.563   4.630
 9565SOL    HW229595   3.917   0.629   4.773
 9566SOL     OW29596   1.936   5.005   0.022
 9566SOL    HW129597   2.029   5.041   0.033
 9566SOL    HW229598   1.913   4.949   0.102
 9567SOL     OW29599   5.256   4.935   0.549
 9567SOL    HW129600   5.198   5.011   0.580
 9567SOL    HW229601   5.330   4.971   0.492
 9568SOL     OW29602   4.500   2.359   6.842
 9568SOL    HW129603   4.508   2.260   6.845
 9568SOL    HW229604   4.591   2.400   6.841
 9569SOL     OW29605   0.933   1.834   2.281
 9569SOL    HW129606   0.974   1.916   2.241
 9569SOL    HW229607   0.883   1.859   2.364
 9570SOL     OW29608   0.648   2.945   2.254
 9570SOL    HW129609   0.583   2.873   2.275
 9570SOL    HW229610   0.683   2.932   2.161
 9571SOL     OW29611   3.757   4.182   6.141
 9571SOL    HW129612   3.762   4.090   6.101
 9571SOL    HW229613   3.717   4.177   6.233
 9572SOL     OW29614   1.786   4.928   2.031
 9572SOL    HW129615   1.763   4.851   2.092
 9572SOL    HW229616   1.725   4.926   1.952
 9573SOL     OW29617   0.623   1.367   6.779
 9573SOL    HW129618   0.583   1.391   6.690
 9573SOL    HW229619   0.682   1.286   6.768
 9574SOL     OW29620   3.997   3.154   3.766
 9574SOL    HW129621   4.028   3.249   3.769
 9574SOL    HW229622   4.008   3.112   3.856
 9575SOL     OW29623   6.746   1.464   1.381
 9575SOL    HW129624   6.795   1.391   1.333
 9575SOL    HW229625   6.803   1.546   1.385
 9576SOL     OW29626   2.248   0.032   1.839
 9576SOL    HW129627   2.279   6.974   1.792
 9576SOL    HW229628   2.282   0.112   1.790
 9577SOL     OW29629   1.788   0.601   6.263
 9577SOL    HW129630   1.709   0.634   6.314
 9577SOL    HW229631   1.830   0.676   6.212
 9578SOL     OW29632   0.707   3.876   3.834
 9578SOL    HW129633   0.622   3.831   3.861
 9578SOL    HW229634   0.720   3.959   3.890
 9579SOL     OW29635   1.588   5.080   2.911
 9579SOL    HW129636   1.565   5.126   2.825
 9579SOL    HW229637   1.508   5.031   2.945
 9580SOL     OW29638   4.036   3.210   0.730
 9580SOL    HW129639   3.962   3.267   0.695
 9580SOL    HW229640   4.042   3.125   0.676
 9581SOL     OW29641   0.868   5.487   6.395
 9581SOL    HW129642   0.903   5.492   6.489
 9581SOL    HW229643   0.784   5.432   6.395
 9582SOL     OW29644   4.815   5.354   5.903
 9582SOL    HW129645   4.810   5.255   5.906
 9582SOL    HW229646   4.724   5.392   5.882
 9583SOL     OW29647   4.014   4.544   1.303
 9583SOL    HW129648   3.939   4.543   1.237
 9583SOL    HW229649   4.005   4.467   1.366
 9584SOL     OW29650   6.623   6.032   0.360
 9584SOL    HW129651   6.617   5.989   0.450
 9584SOL    HW229652   6.539   6.084   0.342
 9585SOL     OW29653   6.325   0.526   3.998
 9585SOL    HW129654   6.239   0.573   4.017
 9585SOL    HW229655   6.318   0.430   4.027
 9586SOL     OW29656   6.259   3.919   2.704
 9586SOL    HW129657   6.323   3.857   2.749
 9586SOL    HW229658   6.181   3.867   2.669
 9587SOL     OW29659   0.596   1.118   2.196
 9587SOL    HW129660   0.496   1.120   2.206
 9587SOL    HW229661   0.627   1.024   2.190
 9588SOL     OW29662   0.707   1.848   1.840
 9588SOL    HW129663   0.763   1.770   1.871
 9588SOL    HW229664   0.615   1.840   1.879
 9589SOL     OW29665   2.551   5.376   5.919
 9589SOL    HW129666   2.611   5.455   5.905
 9589SOL    HW229667   2.456   5.406   5.922
 9590SOL     OW29668   0.156   3.406   1.797
 9590SOL    HW129669   0.099   3.424   1.717
 9590SOL    HW229670   0.160   3.488   1.854
 9591SOL     OW29671   3.020   6.024   6.443
 9591SOL    HW129672   3.110   5.999   6.407
 9591SOL    HW229673   2.959   5.945   6.437
 9592SOL     OW29674   3.229   4.078   1.334
 9592SOL    HW129675   3.130   4.090   1.328
 9592SOL    HW229676   3.249   3.985   1.367
 9593SOL     OW29677   7.012   0.307   4.709
 9593SOL    HW129678   7.018   0.256   4.795
 9593SOL    HW229679   0.060   0.375   4.706
 9594SOL     OW29680   1.625   6.450   3.063
 9594SOL    HW129681   1.599   6.368   3.115
 9594SOL    HW229682   1.695   6.501   3.113
 9595SOL     OW29683   1.605   4.586   5.499
 9595SOL    HW129684   1.668   4.514   5.470
 9595SOL    HW229685   1.521   4.580   5.446
 9596SOL     OW29686   0.386   5.803   0.224
 9596SOL    HW129687   0.466   5.804   0.284
 9596SOL    HW229688   0.359   5.897   0.201
 9597SOL     OW29689   0.521   4.367   1.077
 9597SOL    HW129690   0.539   4.275   1.043
 9597SOL    HW229691   0.491   4.361   1.172
 9598SOL     OW29692   1.511   3.380   5.001
 9598SOL    HW129693   1.500   3.414   4.907
 9598SOL    HW229694   1.597   3.414   5.039
 9599SOL     OW29695   4.321   0.324   5.315
 9599SOL    HW129696   4.289   0.243   5.265
 9599SOL    HW229697   4.245   0.389   5.324
 9600SOL     OW29698   1.965   6.972   0.151
 9600SOL    HW129699   1.983   6.896   0.214
 9600SOL    HW229700   2.031   6.971   0.076
 9601SOL     OW29701   6.711   3.346   1.062
 9601SOL    HW129702   6.624   3.393   1.049
 9601SOL    HW229703   6.770   3.363   0.983
 9602SOL     OW29704   6.816   5.207   6.861
 9602SOL    HW129705   6.725   5.204   6.902
 9602SOL    HW229706   6.810   5.241   6.767
 9603SOL     OW29707   3.607   1.585   5.373
 9603SOL    HW129708   3.639   1.574   5.467
 9603SOL    HW229709   3.661   1.654   5.327
 9604SOL     OW29710   4.238   0.806   6.966
 9604SOL    HW129711   4.185   0.721   6.971
 9604SOL    HW229712   4.187   0.873   6.912
 9605SOL     OW29713   0.236   4.854   4.268
 9605SOL    HW129714   0.270   4.844   4.175
 9605SOL    HW229715   0.140   4.881   4.265
 9606SOL     OW29716   2.120   6.099   5.852
 9606SOL    HW129717   2.077   6.097   5.762
 9606SOL    HW229718   2.080   6.173   5.906
 9607SOL     OW29719   1.482   1.129   1.588
 9607SOL    HW129720   1.541   1.167   1.518
 9607SOL    HW229721   1.476   1.193   1.665
 9608SOL     OW29722   6.668   6.618   2.031
 9608SOL    HW129723   6.762   6.602   2.000
 9608SOL    HW229724   6.655   6.715   2.051
 9609SOL     OW29725   2.060   3.661   6.488
 9609SOL    HW129726   2.136   3.674   6.425
 9609SOL    HW229727   2.067   3.571   6.531
 9610SOL     OW29728   2.344   5.125   4.159
 9610SOL    HW129729   2.404   5.045   4.155
 9610SOL    HW229730   2.325   5.149   4.254
 9611SOL     OW29731   0.582   6.762   6.846
 9611SOL    HW129732   0.589   6.726   6.753
 9611SOL    HW229733   0.615   6.693   6.911
 9612SOL     OW29734   0.543   3.422   2.086
 9612SOL    HW129735   0.628   3.473   2.076
 9612SOL    HW229736   0.531   3.359   2.009
 9613SOL     OW29737   4.157   6.344   3.553
 9613SOL    HW129738   4.174   6.435   3.514
 9613SOL    HW229739   4.206   6.336   3.640
 9614SOL     OW29740   3.944   2.183   0.940
 9614SOL    HW129741   4.029   2.234   0.928
 9614SOL    HW229742   3.870   2.245   0.962
 9615SOL     OW29743   0.276   7.001   1.842
 9615SOL    HW129744   0.318   0.057   1.802
 9615SOL    HW229745   0.212   6.961   1.776
 9616SOL     OW29746   4.631   3.622   1.408
 9616SOL    HW129747   4.646   3.635   1.506
 9616SOL    HW229748   4.637   3.711   1.361
 9617SOL     OW29749   1.423   3.757   4.291
 9617SOL    HW129750   1.423   3.857   4.289
 9617SOL    HW229751   1.403   3.722   4.199
 9618SOL     OW29752   3.738   6.702   5.898
 9618SOL    HW129753   3.762   6.613   5.937
 9618SOL    HW229754   3.639   6.712   5.894
 9619SOL     OW29755   0.648   6.841   0.189
 9619SOL    HW129756   0.627   6.750   0.153
 9619SOL    HW229757   0.706   6.833   0.269
 9620SOL     OW29758   5.347   2.941   6.982
 9620SOL    HW129759   5.443   2.970   6.987
 9620SOL    HW229760   5.314   2.923   0.049
 9621SOL     OW29761   1.599   0.775   3.107
 9621SOL    HW129762   1.506   0.759   3.140
 9621SOL    HW229763   1.596   0.837   3.029
 9622SOL     OW29764   5.645   0.973   0.377
 9622SOL    HW129765   5.710   1.046   0.357
 9622SOL    HW229766   5.681   0.916   0.451
 9623SOL     OW29767   4.116   5.133   5.095
 9623SOL    HW129768   4.198   5.186   5.114
 9623SOL    HW229769   4.137   5.062   5.028
 9624SOL     OW29770   6.328   4.514   3.684
 9624SOL    HW129771   6.229   4.528   3.681
 9624SOL    HW229772   6.364   4.513   3.590
 9625SOL     OW29773   5.000   5.326   0.067
 9625SOL    HW129774   4.937   5.392   0.026
 9625SOL    HW229775   5.036   5.266   7.021
 9626SOL     OW29776   2.246   6.452   0.372
 9626SOL    HW129777   2.159   6.496   0.391
 9626SOL    HW229778   2.300   6.509   0.311
 9627SOL     OW29779   6.977   3.928   3.750
 9627SOL    HW129780   6.887   3.902   3.784
 9627SOL    HW229781   6.979   4.025   3.727
 9628SOL     OW29782   6.555   4.630   0.053
 9628SOL    HW129783   6.596   4.711   0.095
 9628SOL    HW229784   6.556   4.640   6.979
 9629SOL     OW29785   6.938   6.427   2.806
 9629SOL    HW129786   6.888   6.503   2.764
 9629SOL    HW229787   0.005   6.422   2.768
 9630SOL     OW29788   6.029   6.383   4.987
 9630SOL    HW129789   6.128   6.366   4.992
 9630SOL    HW229790   5.995   6.405   5.079
 9631SOL     OW29791   5.409   1.364   0.146
 9631SOL    HW129792   5.377   1.320   0.063
 9631SOL    HW229793   5.343   1.434   0.174
 9632SOL     OW29794   1.935   5.189   1.998
 9632SOL    HW129795   1.890   5.111   2.040
 9632SOL    HW229796   2.029   5.195   2.030
 9633SOL     OW29797   4.457   4.777   0.441
 9633SOL    HW129798   4.546   4.780   0.486
 9633SOL    HW229799   4.400   4.706   0.483
 9634SOL     OW29800   0.159   6.622   4.227
 9634SOL    HW129801   0.128   6.623   4.322
 9634SOL    HW229802   0.214   6.704   4.209
 9635SOL     OW29803   2.589   4.505   5.406
 9635SOL    HW129804   2.613   4.569   5.479
 9635SOL    HW229805   2.635   4.418   5.423
 9636SOL     OW29806   4.540   1.820   6.113
 9636SOL    HW129807   4.597   1.881   6.056
 9636SOL    HW229808   4.521   1.737   6.062
 9637SOL     OW29809   3.331   2.577   0.056
 9637SOL    HW129810   3.269   2.653   0.074
 9637SOL    HW229811   3.365   2.583   6.987
 9638SOL     OW29812   0.150   3.794   6.418
 9638SOL    HW129813   0.105   3.880   6.441
 9638SOL    HW229814   0.100   3.747   6.345
 9639SOL     OW29815   4.608   1.797   2.121
 9639SOL    HW129816   4.593   1.836   2.030
 9639SOL    HW229817   4.705   1.804   2.144
 9640SOL     OW29818   3.319   1.262   3.047
 9640SOL    HW129819   3.385   1.336   3.031
 9640SOL    HW229820   3.325   1.232   3.142
 9641SOL     OW29821   5.697   5.705   1.194
 9641SOL    HW129822   5.753   5.717   1.276
 9641SOL    HW229823   5.664   5.611   1.189
 9642SOL     OW29824   2.264   5.846   4.937
 9642SOL    HW129825   2.167   5.864   4.922
 9642SOL    HW229826   2.291   5.764   4.886
 9643SOL     OW29827   6.018   4.703   4.117
 9643SOL    HW129828   6.094   4.692   4.053
 9643SOL    HW229829   6.046   4.761   4.193
 9644SOL     OW29830   0.185   4.955   4.684
 9644SOL    HW129831   0.265   4.934   4.626
 9644SOL    HW229832   0.130   4.872   4.695
 9645SOL     OW29833   3.082   4.950   3.678
 9645SOL    HW129834   3.181   4.944   3.669
 9645SOL    HW229835   3.057   4.959   3.774
 9646SOL     OW29836   2.554   4.567   2.052
 9646SOL    HW129837   2.650   4.595   2.046
 9646SOL    HW229838   2.495   4.647   2.036
 9647SOL     OW29839   0.764   5.548   2.280
 9647SOL    HW129840   0.750   5.631   2.334
 9647SOL    HW229841   0.710   5.474   2.318
 9648SOL     OW29842   3.275   1.951   0.035
 9648SOL    HW129843   3.191   1.991   0.070
 9648SOL    HW229844   3.254   1.885   6.988
 9649SOL     OW29845   2.151   4.480   6.790
 9649SOL    HW129846   2.222   4.414   6.816
 9649SOL    HW229847   2.186   4.541   6.719
 9650SOL     OW29848   4.528   4.434   3.098
 9650SOL    HW129849   4.543   4.505   3.030
 9650SOL    HW229850   4.567   4.348   3.066
 9651SOL     OW29851   5.711   1.381   0.635
 9651SOL    HW129852   5.613   1.377   0.616
 9651SOL    HW229853   5.726   1.412   0.729
 9652SOL     OW29854   2.145   4.221   1.258
 9652SOL    HW129855   2.168   4.133   1.218
 9652SOL    HW229856   2.059   4.255   1.219
 9653SOL     OW29857   4.358   5.216   5.203
 9653SOL    HW129858   4.450   5.237   5.168
 9653SOL    HW229859   4.365   5.190   5.300
 9654SOL     OW29860   3.519   3.107   2.623
 9654SOL    HW129861   3.453   3.056   2.679
 9654SOL    HW229862   3.607   3.060   2.624
 9655SOL     OW29863   0.204   1.688   0.582
 9655SOL    HW129864   0.226   1.597   0.618
 9655SOL    HW229865   0.223   1.757   0.651
 9656SOL     OW29866   4.316   1.892   0.938
 9656SOL    HW129867   4.302   1.825   0.865
 9656SOL    HW229868   4.227   1.920   0.975
 9657SOL     OW29869   6.262   2.841   3.467
 9657SOL    HW129870   6.237   2.860   3.562
 9657SOL    HW229871   6.184   2.862   3.407
 9658SOL     OW29872   5.670   2.304   2.585
 9658SOL    HW129873   5.620   2.241   2.645
 9658SOL    HW229874   5.695   2.256   2.501
 9659SOL     OW29875   0.087   2.938   0.210
 9659SOL    HW129876   0.014   2.997   0.244
 9659SOL    HW229877   0.155   2.994   0.160
 9660SOL     OW29878   0.908   6.607   2.271
 9660SOL    HW129879   0.888   6.647   2.182
 9660SOL    HW229880   0.985   6.543   2.263
 9661SOL     OW29881   3.205   6.284   1.162
 9661SOL    HW129882   3.284   6.256   1.108
 9661SOL    HW229883   3.148   6.205   1.182
 9662SOL     OW29884   4.417   2.886   5.481
 9662SOL    HW129885   4.335   2.842   5.444
 9662SOL    HW229886   4.450   2.955   5.417
 9663SOL     OW29887   6.361   0.021   3.082
 9663SOL    HW129888   6.411   0.092   3.032
 9663SOL    HW229889   6.320   6.982   3.016
 9664SOL     OW29890   5.379   6.084   4.800
 9664SOL    HW129891   5.369   6.006   4.861
 9664SOL    HW229892   5.380   6.168   4.854
 9665SOL     OW29893   5.921   6.138   6.774
 9665SOL    HW129894   5.881   6.052   6.743
 9665SOL    HW229895   6.010   6.120   6.817
 9666SOL     OW29896   6.894   3.606   2.580
 9666SOL    HW129897   6.811   3.657   2.601
 9666SOL    HW229898   6.872   3.508   2.576
 9667SOL     OW29899   4.408   3.418   6.118
 9667SOL    HW129900   4.387   3.417   6.020
 9667SOL    HW229901   4.342   3.363   6.167
 9668SOL     OW29902   6.688   0.294   6.050
 9668SOL    HW129903   6.767   0.343   6.086
 9668SOL    HW229904   6.653   0.341   5.969
 9669SOL     OW29905   1.991   0.147   2.634
 9669SOL    HW129906   2.084   0.135   2.597
 9669SOL    HW229907   1.934   0.070   2.606
 9670SOL     OW29908   6.304   4.653   6.637
 9670SOL    HW129909   6.358   4.721   6.589
 9670SOL    HW229910   6.208   4.680   6.636
 9671SOL     OW29911   6.044   4.663   6.831
 9671SOL    HW129912   5.966   4.716   6.864
 9671SOL    HW229913   6.122   4.676   6.893
 9672SOL     OW29914   1.662   5.542   3.804
 9672SOL    HW129915   1.592   5.609   3.829
 9672SOL    HW229916   1.741   5.551   3.866
 9673SOL     OW29917   4.851   3.521   1.239
 9673SOL    HW129918   4.773   3.528   1.301
 9673SOL    HW229919   4.878   3.425   1.229
 9674SOL     OW29920   2.529   6.718   2.851
 9674SOL    HW129921   2.584   6.635   2.842
 9674SOL    HW229922   2.452   6.714   2.788
 9675SOL     OW29923   5.608   2.915   0.156
 9675SOL    HW129924   5.676   2.932   0.226
 9675SOL    HW229925   5.571   2.823   0.166
 9676SOL     OW29926   1.564   3.910   5.793
 9676SOL    HW129927   1.550   3.823   5.745
 9676SOL    HW229928   1.614   3.973   5.733
 9677SOL     OW29929   0.304   5.553   4.996
 9677SOL    HW129930   0.256   5.639   4.976
 9677SOL    HW229931   0.294   5.531   5.093
 9678SOL     OW29932   2.875   3.667   3.388
 9678SOL    HW129933   2.880   3.686   3.486
 9678SOL    HW229934   2.930   3.587   3.366
 9679SOL     OW29935   3.237   1.247   3.600
 9679SOL    HW129936   3.184   1.320   3.642
 9679SOL    HW229937   3.319   1.285   3.558
 9680SOL     OW29938   4.343   1.215   2.855
 9680SOL    HW129939   4.437   1.220   2.886
 9680SOL    HW229940   4.315   1.304   2.819
 9681SOL     OW29941   2.934   1.914   0.598
 9681SOL    HW129942   2.918   2.011   0.581
 9681SOL    HW229943   2.881   1.860   0.533
 9682SOL     OW29944   5.333   4.724   3.681
 9682SOL    HW129945   5.332   4.820   3.653
 9682SOL    HW229946   5.377   4.716   3.770
 9683SOL     OW29947   2.682   5.408   0.867
 9683SOL    HW129948   2.713   5.503   0.868
 9683SOL    HW229949   2.609   5.398   0.799
 9684SOL     OW29950   0.126   3.336   6.358
 9684SOL    HW129951   0.045   3.348   6.302
 9684SOL    HW229952   0.102   3.346   6.455
 9685SOL     OW29953   3.385   4.506   0.853
 9685SOL    HW129954   3.377   4.434   0.785
 9685SOL    HW229955   3.453   4.480   0.922
 9686SOL     OW29956   6.561   1.811   0.228
 9686SOL    HW129957   6.508   1.798   0.144
 9686SOL    HW229958   6.654   1.839   0.204
 9687SOL     OW29959   1.968   0.799   4.474
 9687SOL    HW129960   1.909   0.856   4.531
 9687SOL    HW229961   2.053   0.849   4.455
 9688SOL     OW29962   0.944   3.301   2.676
 9688SOL    HW129963   1.021   3.356   2.709
 9688SOL    HW229964   0.970   3.255   2.592
 9689SOL     OW29965   0.491   4.451   6.054
 9689SOL    HW129966   0.478   4.402   6.140
 9689SOL    HW229967   0.577   4.502   6.057
 9690SOL     OW29968   6.059   5.599   0.029
 9690SOL    HW129969   5.975   5.637   0.068
 9690SOL    HW229970   6.069   5.504   0.058
 9691SOL     OW29971   3.276   5.197   0.526
 9691SOL    HW129972   3.370   5.188   0.559
 9691SOL    HW229973   3.212   5.186   0.603
 9692SOL     OW29974   3.590   5.346   2.871
 9692SOL    HW129975   3.586   5.290   2.953
 9692SOL    HW229976   3.685   5.353   2.840
 9693SOL     OW29977   5.915   4.919   1.941
 9693SOL    HW129978   5.958   4.854   1.878
 9693SOL    HW229979   5.865   4.869   2.012
 9694SOL     OW29980   2.117   0.915   0.412
 9694SOL    HW129981   2.042   0.921   0.477
 9694SOL    HW229982   2.198   0.878   0.459
 9695SOL     OW29983   7.000   3.049   3.126
 9695SOL    HW129984   0.029   2.981   3.176
 9695SOL    HW229985   7.016   3.039   3.028
 9696SOL     OW29986   5.228   3.401   1.296
 9696SOL    HW129987   5.248   3.423   1.200
 9696SOL    HW229988   5.208   3.304   1.305
 9697SOL     OW29989   0.488   5.297   6.952
 9697SOL    HW129990   0.399   5.254   6.935
 9697SOL    HW229991   0.533   5.316   6.865
 9698SOL     OW29992   4.619   1.522   5.711
 9698SOL    HW129993   4.697   1.581   5.733
 9698SOL    HW229994   4.535   1.576   5.715
 9699SOL     OW29995   6.433   5.005   6.806
 9699SOL    HW129996   6.394   5.090   6.772
 9699SOL    HW229997   6.459   5.016   6.902
 9700SOL     OW29998   4.719   5.692   4.739
 9700SOL    HW129999   4.668   5.654   4.816
 9700SOL    HW230000   4.720   5.792   4.746
 9701SOL     OW30001   4.684   5.098   5.866
 9701SOL    HW130002   4.589   5.112   5.839
 9701SOL    HW230003   4.725   5.030   5.805
 9702SOL     OW30004   4.592   0.160   6.453
 9702SOL    HW130005   4.604   0.125   6.547
 9702SOL    HW230006   4.548   0.089   6.398
 9703SOL     OW30007   4.784   4.021   3.696
 9703SOL    HW130008   4.834   3.977   3.622
 9703SOL    HW230009   4.787   4.120   3.684
 9704SOL     OW30010   3.623   0.572   1.947
 9704SOL    HW130011   3.663   0.484   1.921
 9704SOL    HW230012   3.524   0.565   1.949
 9705SOL     OW30013   5.315   4.589   5.883
 9705SOL    HW130014   5.259   4.565   5.803
 9705SOL    HW230015   5.397   4.637   5.853
 9706SOL     OW30016   1.657   3.302   0.350
 9706SOL    HW130017   1.691   3.336   0.262
 9706SOL    HW230018   1.716   3.228   0.382
 9707SOL     OW30019   6.732   4.823   2.481
 9707SOL    HW130020   6.818   4.779   2.508
 9707SOL    HW230021   6.677   4.759   2.427
 9708SOL     OW30022   1.798   1.736   3.788
 9708SOL    HW130023   1.827   1.808   3.725
 9708SOL    HW230024   1.714   1.763   3.834
 9709SOL     OW30025   5.352   6.251   3.087
 9709SOL    HW130026   5.291   6.329   3.100
 9709SOL    HW230027   5.445   6.284   3.068
 9710SOL     OW30028   6.769   1.280   1.647
 9710SOL    HW130029   6.728   1.339   1.577
 9710SOL    HW230030   6.715   1.285   1.730
 9711SOL     OW30031   2.858   5.527   6.059
 9711SOL    HW130032   2.916   5.474   5.997
 9711SOL    HW230033   2.808   5.595   6.007
 9712SOL     OW30034   5.586   3.407   6.637
 9712SOL    HW130035   5.586   3.457   6.551
 9712SOL    HW230036   5.673   3.422   6.684
 9713SOL     OW30037   1.010   4.493   3.741
 9713SOL    HW130038   0.983   4.396   3.745
 9713SOL    HW230039   1.069   4.514   3.818
 9714SOL     OW30040   3.991   6.520   6.439
 9714SOL    HW130041   3.992   6.585   6.515
 9714SOL    HW230042   3.898   6.513   6.402
 9715SOL     OW30043   5.619   4.057   6.189
 9715SOL    HW130044   5.567   3.973   6.177
 9715SOL    HW230045   5.590   4.124   6.121
 9716SOL     OW30046   4.057   4.336   6.849
 9716SOL    HW130047   4.013   4.280   6.918
 9716SOL    HW230048   4.140   4.290   6.817
 9717SOL     OW30049   5.369   6.259   6.223
 9717SOL    HW130050   5.269   6.248   6.220
 9717SOL    HW230051   5.394   6.312   6.304
 9718SOL     OW30052   4.837   3.079   0.333
 9718SOL    HW130053   4.792   3.163   0.365
 9718SOL    HW230054   4.768   3.009   0.315
 9719SOL     OW30055   6.305   1.405   5.861
 9719SOL    HW130056   6.210   1.433   5.874
 9719SOL    HW230057   6.320   1.382   5.765
 9720SOL     OW30058   0.368   5.459   2.227
 9720SOL    HW130059   0.331   5.515   2.301
 9720SOL    HW230060   0.331   5.367   2.234
 9721SOL     OW30061   6.657   1.772   0.985
 9721SOL    HW130062   6.680   1.766   0.888
 9721SOL    HW230063   6.607   1.690   1.013
 9722SOL     OW30064   5.722   0.889   4.308
 9722SOL    HW130065   5.768   0.838   4.235
 9722SOL    HW230066   5.789   0.940   4.362
 9723SOL     OW30067   2.321   6.655   2.654
 9723SOL    HW130068   2.261   6.590   2.607
 9723SOL    HW230069   2.341   6.731   2.593
 9724SOL     OW30070   1.912   4.540   0.371
 9724SOL    HW130071   1.898   4.575   0.278
 9724SOL    HW230072   1.823   4.516   0.411
 9725SOL     OW30073   4.174   4.904   6.179
 9725SOL    HW130074   4.251   4.863   6.228
 9725SOL    HW230075   4.092   4.850   6.194
 9726SOL     OW30076   5.179   1.505   4.500
 9726SOL    HW130077   5.252   1.451   4.541
 9726SOL    HW230078   5.153   1.579   4.562
 9727SOL     OW30079   1.539   3.430   6.548
 9727SOL    HW130080   1.531   3.530   6.555
 9727SOL    HW230081   1.548   3.405   6.451
 9728SOL     OW30082   0.705   0.736   5.768
 9728SOL    HW130083   0.702   0.668   5.695
 9728SOL    HW230084   0.783   0.797   5.754
 9729SOL     OW30085   0.515   3.863   4.265
 9729SOL    HW130086   0.503   3.962   4.257
 9729SOL    HW230087   0.584   3.833   4.199
 9730SOL     OW30088   0.993   3.752   4.110
 9730SOL    HW130089   1.000   3.851   4.099
 9730SOL    HW230090   1.029   3.726   4.200
 9731SOL     OW30091   4.964   4.709   1.250
 9731SOL    HW130092   4.867   4.695   1.266
 9731SOL    HW230093   5.012   4.719   1.338
 9732SOL     OW30094   6.263   5.347   3.179
 9732SOL    HW130095   6.320   5.395   3.112
 9732SOL    HW230096   6.310   5.344   3.267
 9733SOL     OW30097   6.077   4.895   0.505
 9733SOL    HW130098   6.145   4.964   0.479
 9733SOL    HW230099   6.055   4.905   0.602
 9734SOL     OW30100   6.715   1.591   1.850
 9734SOL    HW130101   6.720   1.634   1.760
 9734SOL    HW230102   6.619   1.589   1.880
 9735SOL     OW30103   1.878   4.438   4.186
 9735SOL    HW130104   1.843   4.520   4.140
 9735SOL    HW230105   1.971   4.455   4.218
 9736SOL     OW30106   6.487   0.881   6.887
 9736SOL    HW130107   6.390   0.892   6.864
 9736SOL    HW230108   6.507   0.932   6.971
 9737SOL     OW30109   5.304   2.652   3.334
 9737SOL    HW130110   5.266   2.635   3.243
 9737SOL    HW230111   5.233   2.690   3.393
 9738SOL     OW30112   1.429   0.207   1.548
 9738SOL    HW130113   1.488   0.172   1.475
 9738SOL    HW230114   1.484   0.257   1.615
 9739SOL     OW30115   6.075   5.015   2.133
 9739SOL    HW130116   6.030   5.001   2.044
 9739SOL    HW230117   6.148   4.949   2.144
 9740SOL     OW30118   6.401   1.793   3.337
 9740SOL    HW130119   6.474   1.759   3.278
 9740SOL    HW230120   6.413   1.891   3.353
 9741SOL     OW30121   3.593   0.706   2.442
 9741SOL    HW130122   3.621   0.615   2.475
 9741SOL    HW230123   3.507   0.732   2.484
 9742SOL     OW30124   4.350   0.472   0.871
 9742SOL    HW130125   4.427   0.442   0.815
 9742SOL    HW230126   4.307   0.393   0.914
 9743SOL     OW30127   7.022   2.522   5.275
 9743SOL    HW130128   0.089   2.559   5.272
 9743SOL    HW230129   7.025   2.423   5.266
 9744SOL     OW30130   1.192   0.230   2.900
 9744SOL    HW130131   1.176   0.317   2.945
 9744SOL    HW230132   1.174   0.155   2.964
 9745SOL     OW30133   5.304   3.319   5.840
 9745SOL    HW130134   5.216   3.362   5.820
 9745SOL    HW230135   5.307   3.293   5.936
 9746SOL     OW30136   6.718   0.363   5.493
 9746SOL    HW130137   6.698   0.453   5.454
 9746SOL    HW230138   6.812   0.337   5.472
 9747SOL     OW30139   2.302   0.672   1.741
 9747SOL    HW130140   2.389   0.660   1.693
 9747SOL    HW230141   2.274   0.768   1.736
 9748SOL     OW30142   0.464   1.518   3.588
 9748SOL    HW130143   0.532   1.579   3.547
 9748SOL    HW230144   0.494   1.492   3.680
 9749SOL     OW30145   2.410   0.969   4.930
 9749SOL    HW130146   2.477   1.042   4.941
 9749SOL    HW230147   2.382   0.964   4.834
 9750SOL     OW30148   5.568   4.332   3.145
 9750SOL    HW130149   5.572   4.426   3.179
 9750SOL    HW230150   5.504   4.279   3.200
 9751SOL     OW30151   1.364   0.772   1.380
 9751SOL    HW130152   1.278   0.723   1.394
 9751SOL    HW230153   1.402   0.800   1.468
 9752SOL     OW30154   4.606   2.116   5.353
 9752SOL    HW130155   4.524   2.069   5.387
 9752SOL    HW230156   4.579   2.198   5.302
 9753SOL     OW30157   6.060   6.011   6.006
 9753SOL    HW130158   6.107   5.941   5.953
 9753SOL    HW230159   6.020   6.079   5.944
 9754SOL     OW30160   1.332   1.420   6.239
 9754SOL    HW130161   1.416   1.395   6.191
 9754SOL    HW230162   1.334   1.382   6.331
 9755SOL     OW30163   3.494   3.181   4.526
 9755SOL    HW130164   3.472   3.176   4.623
 9755SOL    HW230165   3.527   3.092   4.494
 9756SOL     OW30166   6.485   3.470   0.923
 9756SOL    HW130167   6.451   3.555   0.884
 9756SOL    HW230168   6.416   3.398   0.911
 9757SOL     OW30169   5.593   3.755   3.910
 9757SOL    HW130170   5.598   3.769   3.811
 9757SOL    HW230171   5.497   3.763   3.940
 9758SOL     OW30172   2.315   6.621   6.997
 9758SOL    HW130173   2.389   6.626   6.930
 9758SOL    HW230174   2.342   6.565   0.049
 9759SOL     OW30175   1.658   0.620   0.029
 9759SOL    HW130176   1.674   0.683   0.105
 9759SOL    HW230177   1.565   0.584   0.034
 9760SOL     OW30178   4.456   2.511   4.887
 9760SOL    HW130179   4.503   2.598   4.870
 9760SOL    HW230180   4.366   2.529   4.927
 9761SOL     OW30181   5.802   1.640   2.865
 9761SOL    HW130182   5.723   1.629   2.805
 9761SOL    HW230183   5.881   1.671   2.812
 9762SOL     OW30184   3.338   1.216   4.380
 9762SOL    HW130185   3.408   1.285   4.396
 9762SOL    HW230186   3.326   1.161   4.463
 9763SOL     OW30187   5.295   1.891   2.167
 9763SOL    HW130188   5.378   1.864   2.119
 9763SOL    HW230189   5.239   1.949   2.108
 9764SOL     OW30190   0.008   2.949   2.868
 9764SOL    HW130191   0.101   2.982   2.852
 9764SOL    HW230192   6.991   2.925   2.780
 9765SOL     OW30193   6.856   1.201   3.868
 9765SOL    HW130194   6.891   1.242   3.784
 9765SOL    HW230195   6.782   1.137   3.846
 9766SOL     OW30196   2.973   0.300   2.606
 9766SOL    HW130197   2.993   0.361   2.529
 9766SOL    HW230198   2.882   0.260   2.594
 9767SOL     OW30199   5.016   0.903   4.586
 9767SOL    HW130200   5.076   0.921   4.508
 9767SOL    HW230201   4.938   0.848   4.556
 9768SOL     OW30202   5.545   2.053   2.907
 9768SOL    HW130203   5.581   1.963   2.881
 9768SOL    HW230204   5.593   2.086   2.988
 9769SOL     OW30205   3.572   1.112   2.769
 9769SOL    HW130206   3.570   1.212   2.772
 9769SOL    HW230207   3.617   1.083   2.684
 9770SOL     OW30208   5.711   0.552   6.737
 9770SOL    HW130209   5.712   0.596   6.827
 9770SOL    HW230210   5.755   0.612   6.670
 9771SOL     OW30211   2.890   5.764   0.400
 9771SOL    HW130212   2.913   5.701   0.475
 9771SOL    HW230213   2.940   5.737   0.318
 9772SOL     OW30214   1.351   6.047   2.947
 9772SOL    HW130215   1.416   6.089   2.884
 9772SOL    HW230216   1.343   5.949   2.926
 9773SOL     OW30217   5.892   5.195   4.544
 9773SOL    HW130218   5.822   5.242   4.489
 9773SOL    HW230219   5.968   5.169   4.486
 9774SOL     OW30220   0.255   4.817   2.172
 9774SOL    HW130221   0.182   4.782   2.113
 9774SOL    HW230222   0.328   4.749   2.178
 9775SOL     OW30223   2.356   0.266   3.100
 9775SOL    HW130224   2.428   0.224   3.044
 9775SOL    HW230225   2.358   0.226   3.191
 9776SOL     OW30226   1.680   4.572   4.474
 9776SOL    HW130227   1.628   4.587   4.559
 9776SOL    HW230228   1.693   4.474   4.459
 9777SOL     OW30229   6.252   5.648   6.298
 9777SOL    HW130230   6.155   5.628   6.294
 9777SOL    HW230231   6.297   5.586   6.362
 9778SOL     OW30232   0.197   0.777   4.063
 9778SOL    HW130233   0.232   0.706   4.001
 9778SOL    HW230234   0.139   0.735   4.133
 9779SOL     OW30235   1.473   1.551   5.344
 9779SOL    HW130236   1.526   1.480   5.391
 9779SOL    HW230237   1.376   1.535   5.359
 9780SOL     OW30238   2.719   1.821   1.194
 9780SOL    HW130239   2.781   1.900   1.197
 9780SOL    HW230240   2.643   1.837   1.256
 9781SOL     OW30241   1.752   4.294   4.393
 9781SOL    HW130242   1.810   4.339   4.326
 9781SOL    HW230243   1.714   4.210   4.354
 9782SOL     OW30244   6.402   1.518   1.472
 9782SOL    HW130245   6.306   1.492   1.482
 9782SOL    HW230246   6.461   1.447   1.510
 9783SOL     OW30247   4.323   2.013   3.422
 9783SOL    HW130248   4.396   2.082   3.426
 9783SOL    HW230249   4.353   1.937   3.365
 9784SOL     OW30250   4.256   1.316   4.318
 9784SOL    HW130251   4.330   1.317   4.385
 9784SOL    HW230252   4.233   1.221   4.296
 9785SOL     OW30253   0.619   3.571   5.906
 9785SOL    HW130254   0.580   3.661   5.885
 9785SOL    HW230255   0.706   3.561   5.859
 9786SOL     OW30256   2.063   4.302   6.980
 9786SOL    HW130257   2.089   4.380   6.922
 9786SOL    HW230258   2.143   4.272   0.006
 9787SOL     OW30259   4.571   4.350   1.656
 9787SOL    HW130260   4.656   4.387   1.693
 9787SOL    HW230261   4.517   4.310   1.730
 9788SOL     OW30262   0.479   0.322   3.711
 9788SOL    HW130263   0.379   0.330   3.708
 9788SOL    HW230264   0.510   0.264   3.635
 9789SOL     OW30265   0.924   5.441   0.854
 9789SOL    HW130266   0.854   5.374   0.831
 9789SOL    HW230267   0.939   5.501   0.775
 9790SOL     OW30268   5.764   4.478   6.474
 9790SOL    HW130269   5.756   4.476   6.374
 9790SOL    HW230270   5.800   4.390   6.506
 9791SOL     OW30271   0.802   0.914   2.837
 9791SOL    HW130272   0.889   0.935   2.882
 9791SOL    HW230273   0.802   0.952   2.745
 9792SOL     OW30274   4.934   5.326   1.117
 9792SOL    HW130275   5.010   5.329   1.183
 9792SOL    HW230276   4.864   5.263   1.150
 9793SOL     OW30277   4.607   6.010   3.734
 9793SOL    HW130278   4.662   5.937   3.695
 9793SOL    HW230279   4.661   6.094   3.738
 9794SOL     OW30280   6.782   4.483   0.937
 9794SOL    HW130281   6.683   4.483   0.922
 9794SOL    HW230282   6.814   4.389   0.947
 9795SOL     OW30283   2.346   1.742   4.417
 9795SOL    HW130284   2.350   1.815   4.348
 9795SOL    HW230285   2.299   1.775   4.498
 9796SOL     OW30286   3.770   2.451   1.404
 9796SOL    HW130287   3.687   2.402   1.378
 9796SOL    HW230288   3.823   2.395   1.467
 9797SOL     OW30289   2.415   5.425   6.344
 9797SOL    HW130290   2.494   5.379   6.303
 9797SOL    HW230291   2.438   5.521   6.361
 9798SOL     OW30292   2.908   0.142   1.336
 9798SOL    HW130293   2.910   0.241   1.317
 9798SOL    HW230294   2.871   0.127   1.428
 9799SOL     OW30295   4.059   3.717   3.900
 9799SOL    HW130296   4.020   3.791   3.846
 9799SOL    HW230297   4.041   3.732   3.997
 9800SOL     OW30298   4.021   6.397   4.599
 9800SOL    HW130299   4.047   6.346   4.680
 9800SOL    HW230300   4.085   6.473   4.585
 9801SOL     OW30301   4.877   3.738   0.580
 9801SOL    HW130302   4.958   3.685   0.608
 9801SOL    HW230303   4.818   3.753   0.659
 9802SOL     OW30304   0.801   3.399   1.266
 9802SOL    HW130305   0.732   3.369   1.332
 9802SOL    HW230306   0.758   3.423   1.180
 9803SOL     OW30307   0.333   2.144   6.631
 9803SOL    HW130308   0.318   2.230   6.583
 9803SOL    HW230309   0.360   2.162   6.726
 9804SOL     OW30310   0.965   6.994   2.996
 9804SOL    HW130311   0.946   6.945   2.912
 9804SOL    HW230312   1.060   7.025   2.995
 9805SOL     OW30313   1.042   0.511   5.165
 9805SOL    HW130314   1.033   0.457   5.081
 9805SOL    HW230315   1.087   0.456   5.235
 9806SOL     OW30316   1.603   1.291   0.618
 9806SOL    HW130317   1.700   1.267   0.615
 9806SOL    HW230318   1.548   1.211   0.597
 9807SOL     OW30319   2.319   3.774   0.111
 9807SOL    HW130320   2.250   3.833   0.069
 9807SOL    HW230321   2.387   3.749   0.042
 9808SOL     OW30322   4.835   1.010   5.771
 9808SOL    HW130323   4.883   1.098   5.774
 9808SOL    HW230324   4.739   1.026   5.745
 9809SOL     OW30325   0.600   2.169   0.020
 9809SOL    HW130326   0.547   2.183   0.104
 9809SOL    HW230327   0.653   2.084   0.027
 9810SOL     OW30328   2.190   3.094   3.327
 9810SOL    HW130329   2.153   3.149   3.402
 9810SOL    HW230330   2.147   3.121   3.241
 9811SOL     OW30331   5.640   4.740   3.513
 9811SOL    HW130332   5.543   4.726   3.529
 9811SOL    HW230333   5.689   4.740   3.601
 9812SOL     OW30334   3.781   1.942   5.766
 9812SOL    HW130335   3.702   1.934   5.704
 9812SOL    HW230336   3.852   1.878   5.738
 9813SOL     OW30337   5.687   0.792   0.180
 9813SOL    HW130338   5.640   0.849   0.248
 9813SOL    HW230339   5.751   0.730   0.227
 9814SOL     OW30340   0.428   0.519   0.441
 9814SOL    HW130341   0.385   0.527   0.530
 9814SOL    HW230342   0.479   0.432   0.436
 9815SOL     OW30343   5.443   3.945   3.209
 9815SOL    HW130344   5.368   3.881   3.229
 9815SOL    HW230345   5.420   4.035   3.245
 9816SOL     OW30346   6.752   1.053   6.590
 9816SOL    HW130347   6.672   1.023   6.643
 9816SOL    HW230348   6.768   0.988   6.516
 9817SOL     OW30349   2.445   6.227   2.758
 9817SOL    HW130350   2.487   6.214   2.848
 9817SOL    HW230351   2.515   6.259   2.693
 9818SOL     OW30352   1.733   0.777   4.931
 9818SOL    HW130353   1.635   0.799   4.927
 9818SOL    HW230354   1.747   0.694   4.984
 9819SOL     OW30355   4.922   3.035   3.819
 9819SOL    HW130356   4.938   3.040   3.917
 9819SOL    HW230357   4.903   3.126   3.783
 9820SOL     OW30358   4.691   3.235   6.094
 9820SOL    HW130359   4.612   3.277   6.138
 9820SOL    HW230360   4.664   3.196   6.006
 9821SOL     OW30361   5.145   0.579   0.657
 9821SOL    HW130362   5.157   0.488   0.618
 9821SOL    HW230363   5.093   0.572   0.743
 9822SOL     OW30364   2.789   5.902   3.510
 9822SOL    HW130365   2.823   5.818   3.552
 9822SOL    HW230366   2.761   5.882   3.416
 9823SOL     OW30367   2.598   0.338   1.332
 9823SOL    HW130368   2.675   0.370   1.386
 9823SOL    HW230369   2.600   0.380   1.242
 9824SOL     OW30370   2.023   5.482   4.390
 9824SOL    HW130371   1.989   5.573   4.412
 9824SOL    HW230372   2.065   5.441   4.471
 9825SOL     OW30373   5.552   6.582   4.327
 9825SOL    HW130374   5.634   6.527   4.313
 9825SOL    HW230375   5.488   6.532   4.387
 9826SOL     OW30376   4.278   5.496   5.224
 9826SOL    HW130377   4.254   5.399   5.235
 9826SOL    HW230378   4.299   5.514   5.128
 9827SOL     OW30379   1.546   3.938   3.609
 9827SOL    HW130380   1.599   3.921   3.526
 9827SOL    HW230381   1.478   4.009   3.593
 9828SOL     OW30382   2.967   2.468   5.379
 9828SOL    HW130383   3.045   2.465   5.316
 9828SOL    HW230384   2.930   2.561   5.382
 9829SOL     OW30385   4.676   5.726   6.461
 9829SOL    HW130386   4.643   5.660   6.394
 9829SOL    HW230387   4.733   5.795   6.415
 9830SOL     OW30388   5.164   1.606   1.857
 9830SOL    HW130389   5.247   1.636   1.810
 9830SOL    HW230390   5.125   1.528   1.808
 9831SOL     OW30391   1.508   4.699   2.881
 9831SOL    HW130392   1.555   4.774   2.927
 9831SOL    HW230393   1.454   4.736   2.805
 9832SOL     OW30394   5.196   5.625   2.640
 9832SOL    HW130395   5.216   5.660   2.732
 9832SOL    HW230396   5.281   5.595   2.598
 9833SOL     OW30397   3.585   3.433   4.226
 9833SOL    HW130398   3.544   3.427   4.136
 9833SOL    HW230399   3.635   3.519   4.235
 9834SOL     OW30400   2.201   4.685   5.477
 9834SOL    HW130401   2.256   4.736   5.411
 9834SOL    HW230402   2.164   4.749   5.545
 9835SOL     OW30403   3.721   3.314   4.651
 9835SOL    HW130404   3.655   3.256   4.699
 9835SOL    HW230405   3.708   3.304   4.553
 9836SOL     OW30406   0.529   4.086   3.717
 9836SOL    HW130407   0.548   4.020   3.789
 9836SOL    HW230408   0.487   4.039   3.639
 9837SOL     OW30409   4.429   0.849   2.249
 9837SOL    HW130410   4.383   0.860   2.161
 9837SOL    HW230411   4.410   0.929   2.306
 9838SOL     OW30412   1.694   6.855   0.260
 9838SOL    HW130413   1.784   6.890   0.236
 9838SOL    HW230414   1.681   6.862   0.359
 9839SOL     OW30415   5.178   6.696   3.826
 9839SOL    HW130416   5.204   6.688   3.922
 9839SOL    HW230417   5.256   6.731   3.774
 9840SOL     OW30418   5.760   1.885   0.651
 9840SOL    HW130419   5.737   1.927   0.739
 9840SOL    HW230420   5.787   1.790   0.666
 9841SOL     OW30421   1.213   4.025   4.868
 9841SOL    HW130422   1.230   3.928   4.849
 9841SOL    HW230423   1.291   4.062   4.918
 9842SOL     OW30424   3.452   3.477   1.678
 9842SOL    HW130425   3.447   3.570   1.641
 9842SOL    HW230426   3.408   3.475   1.768
 9843SOL     OW30427   6.676   0.569   2.319
 9843SOL    HW130428   6.736   0.520   2.256
 9843SOL    HW230429   6.604   0.507   2.351
 9844SOL     OW30430   6.113   1.234   3.545
 9844SOL    HW130431   6.186   1.225   3.613
 9844SOL    HW230432   6.085   1.330   3.539
 9845SOL     OW30433   1.501   2.058   4.060
 9845SOL    HW130434   1.568   2.058   3.985
 9845SOL    HW230435   1.535   2.116   4.134
 9846SOL     OW30436   3.614   2.570   1.215
 9846SOL    HW130437   3.685   2.581   1.284
 9846SOL    HW230438   3.526   2.595   1.253
 9847SOL     OW30439   3.750   2.936   2.589
 9847SOL    HW130440   3.832   2.934   2.531
 9847SOL    HW230441   3.772   2.901   2.680
 9848SOL     OW30442   4.178   4.610   5.700
 9848SOL    HW130443   4.240   4.684   5.725
 9848SOL    HW230444   4.160   4.552   5.779
 9849SOL     OW30445   0.951   6.768   6.556
 9849SOL    HW130446   0.965   6.721   6.469
 9849SOL    HW230447   0.983   6.863   6.549
 9850SOL     OW30448   6.792   0.710   3.755
 9850SOL    HW130449   6.773   0.750   3.845
 9850SOL    HW230450   6.846   0.627   3.766
 9851SOL     OW30451   1.641   0.405   4.337
 9851SOL    HW130452   1.723   0.396   4.280
 9851SOL    HW230453   1.580   0.328   4.320
 9852SOL     OW30454   2.403   2.036   4.672
 9852SOL    HW130455   2.404   2.046   4.572
 9852SOL    HW230456   2.364   1.947   4.697
 9853SOL     OW30457   5.852   3.234   5.436
 9853SOL    HW130458   5.948   3.249   5.416
 9853SOL    HW230459   5.827   3.283   5.520
 9854SOL     OW30460   0.556   6.145   4.127
 9854SOL    HW130461   0.587   6.174   4.036
 9854SOL    HW230462   0.457   6.154   4.133
 9855SOL     OW30463   1.788   3.504   1.645
 9855SOL    HW130464   1.883   3.478   1.666
 9855SOL    HW230465   1.726   3.436   1.684
 9856SOL     OW30466   4.942   4.431   3.954
 9856SOL    HW130467   4.858   4.393   3.915
 9856SOL    HW230468   4.992   4.360   4.003
 9857SOL     OW30469   4.918   2.678   2.680
 9857SOL    HW130470   4.986   2.705   2.611
 9857SOL    HW230471   4.966   2.654   2.765
 9858SOL     OW30472   0.463   6.575   1.061
 9858SOL    HW130473   0.444   6.492   1.009
 9858SOL    HW230474   0.380   6.632   1.063
 9859SOL     OW30475   6.845   5.674   3.379
 9859SOL    HW130476   6.768   5.655   3.441
 9859SOL    HW230477   6.811   5.714   3.295
 9860SOL     OW30478   2.119   2.598   4.711
 9860SOL    HW130479   2.183   2.532   4.670
 9860SOL    HW230480   2.170   2.670   4.758
 9861SOL     OW30481   2.840   0.355   3.198
 9861SOL    HW130482   2.763   0.291   3.198
 9861SOL    HW230483   2.812   0.441   3.241
 9862SOL     OW30484   2.266   3.533   6.798
 9862SOL    HW130485   2.186   3.491   6.754
 9862SOL    HW230486   2.331   3.561   6.727
 9863SOL     OW30487   2.788   5.668   0.869
 9863SOL    HW130488   2.777   5.736   0.941
 9863SOL    HW230489   2.885   5.653   0.852
 9864SOL     OW30490   3.379   0.758   4.171
 9864SOL    HW130491   3.467   0.764   4.123
 9864SOL    HW230492   3.347   0.663   4.169
 9865SOL     OW30493   1.257   6.461   4.204
 9865SOL    HW130494   1.170   6.510   4.203
 9865SOL    HW230495   1.306   6.482   4.289
 9866SOL     OW30496   6.186   4.813   6.136
 9866SOL    HW130497   6.103   4.805   6.190
 9866SOL    HW230498   6.263   4.774   6.188
 9867SOL     OW30499   6.993   1.619   1.993
 9867SOL    HW130500   0.012   1.677   1.925
 9867SOL    HW230501   6.901   1.595   1.962
 9868SOL     OW30502   6.816   3.145   4.198
 9868SOL    HW130503   6.875   3.104   4.128
 9868SOL    HW230504   6.787   3.075   4.263
 9869SOL     OW30505   0.249   2.441   1.698
 9869SOL    HW130506   0.218   2.429   1.603
 9869SOL    HW230507   0.277   2.353   1.735
 9870SOL     OW30508   4.076   5.613   2.566
 9870SOL    HW130509   4.096   5.710   2.578
 9870SOL    HW230510   3.981   5.596   2.593
 9871SOL     OW30511   6.463   4.358   5.988
 9871SOL    HW130512   6.481   4.448   5.949
 9871SOL    HW230513   6.547   4.321   6.028
 9872SOL     OW30514   3.602   5.583   4.488
 9872SOL    HW130515   3.604   5.636   4.404
 9872SOL    HW230516   3.559   5.494   4.470
 9873SOL     OW30517   2.250   2.715   0.938
 9873SOL    HW130518   2.281   2.803   0.974
 9873SOL    HW230519   2.287   2.641   0.994
 9874SOL     OW30520   6.885   2.873   5.596
 9874SOL    HW130521   6.800   2.852   5.548
 9874SOL    HW230522   6.953   2.802   5.576
 9875SOL     OW30523   5.976   5.783   2.750
 9875SOL    HW130524   5.963   5.826   2.840
 9875SOL    HW230525   6.007   5.689   2.762
 9876SOL     OW30526   5.383   0.094   4.372
 9876SOL    HW130527   5.449   0.071   4.444
 9876SOL    HW230528   5.411   0.051   4.287
 9877SOL     OW30529   6.970   4.720   4.440
 9877SOL    HW130530   7.018   4.735   4.526
 9877SOL    HW230531   6.994   4.630   4.404
 9878SOL     OW30532   3.033   3.320   6.042
 9878SOL    HW130533   3.025   3.312   6.141
 9878SOL    HW230534   3.055   3.231   6.003
 9879SOL     OW30535   5.515   5.116   5.698
 9879SOL    HW130536   5.586   5.172   5.740
 9879SOL    HW230537   5.541   5.093   5.604
 9880SOL     OW30538   2.605   0.909   0.697
 9880SOL    HW130539   2.600   0.986   0.760
 9880SOL    HW230540   2.701   0.893   0.672
 9881SOL     OW30541   6.726   2.087   4.572
 9881SOL    HW130542   6.666   2.073   4.493
 9881SOL    HW230543   6.751   1.999   4.612
 9882SOL     OW30544   2.657   3.934   5.795
 9882SOL    HW130545   2.651   3.966   5.701
 9882SOL    HW230546   2.701   3.844   5.797
 9883SOL     OW30547   0.995   6.612   0.841
 9883SOL    HW130548   0.966   6.703   0.810
 9883SOL    HW230549   0.915   6.553   0.849
 9884SOL     OW30550   4.274   1.391   0.719
 9884SOL    HW130551   4.305   1.328   0.789
 9884SOL    HW230552   4.230   1.340   0.645
 9885SOL     OW30553   0.537   3.405   4.679
 9885SOL    HW130554   0.446   3.378   4.647
 9885SOL    HW230555   0.528   3.453   4.767
 9886SOL     OW30556   0.742   6.122   1.400
 9886SOL    HW130557   0.823   6.109   1.342
 9886SOL    HW230558   0.673   6.054   1.376
 9887SOL     OW30559   3.683   6.978   6.753
 9887SOL    HW130560   3.692   7.022   6.664
 9887SOL    HW230561   3.590   6.946   6.766
 9888SOL     OW30562   5.765   5.066   3.306
 9888SOL    HW130563   5.688   5.043   3.366
 9888SOL    HW230564   5.731   5.113   3.224
 9889SOL     OW30565   0.185   4.448   1.932
 9889SOL    HW130566   0.121   4.473   1.859
 9889SOL    HW230567   0.228   4.360   1.911
 9890SOL     OW30568   0.445   2.555   1.381
 9890SOL    HW130569   0.431   2.463   1.345
 9890SOL    HW230570   0.372   2.615   1.349
 9891SOL     OW30571   6.272   4.415   1.445
 9891SOL    HW130572   6.252   4.513   1.448
 9891SOL    HW230573   6.242   4.378   1.357
 9892SOL     OW30574   1.515   5.427   3.333
 9892SOL    HW130575   1.588   5.480   3.289
 9892SOL    HW230576   1.505   5.339   3.288
 9893SOL     OW30577   6.263   6.817   2.182
 9893SOL    HW130578   6.280   6.735   2.127
 9893SOL    HW230579   6.178   6.860   2.151
 9894SOL     OW30580   2.792   1.840   6.062
 9894SOL    HW130581   2.877   1.814   6.017
 9894SOL    HW230582   2.812   1.898   6.141
 9895SOL     OW30583   5.951   2.608   5.473
 9895SOL    HW130584   5.952   2.616   5.573
 9895SOL    HW230585   5.858   2.619   5.440
 9896SOL     OW30586   5.136   1.911   0.717
 9896SOL    HW130587   5.102   1.819   0.741
 9896SOL    HW230588   5.124   1.926   0.619
 9897SOL     OW30589   4.780   0.597   2.932
 9897SOL    HW130590   4.699   0.590   2.874
 9897SOL    HW230591   4.755   0.635   3.021
 9898SOL     OW30592   6.994   4.460   5.289
 9898SOL    HW130593   6.939   4.424   5.365
 9898SOL    HW230594   0.054   4.409   5.283
 9899SOL     OW30595   6.729   5.922   2.637
 9899SOL    HW130596   6.647   5.977   2.625
 9899SOL    HW230597   6.736   5.894   2.733
 9900SOL     OW30598   1.650   2.980   3.135
 9900SOL    HW130599   1.649   2.939   3.044
 9900SOL    HW230600   1.675   3.076   3.129
 9901SOL     OW30601   1.974   1.207   0.114
 9901SOL    HW130602   2.047   1.155   0.068
 9901SOL    HW230603   1.908   1.239   0.046
 9902SOL     OW30604   4.390   3.940   1.230
 9902SOL    HW130605   4.418   4.036   1.219
 9902SOL    HW230606   4.349   3.908   1.144
 9903SOL     OW30607   4.830   6.871   2.167
 9903SOL    HW130608   4.788   6.870   2.257
 9903SOL    HW230609   4.773   6.925   2.104
 9904SOL     OW30610   0.313   3.843   6.784
 9904SOL    HW130611   0.224   3.877   6.815
 9904SOL    HW230612   0.347   3.902   6.711
 9905SOL     OW30613   1.267   6.694   6.561
 9905SOL    HW130614   1.194   6.717   6.625
 9905SOL    HW230615   1.254   6.600   6.529
 9906SOL     OW30616   2.057   3.687   6.967
 9906SOL    HW130617   2.004   3.677   6.882
 9906SOL    HW230618   2.122   3.611   6.974
 9907SOL     OW30619   1.387   0.375   3.680
 9907SOL    HW130620   1.390   0.395   3.582
 9907SOL    HW230621   1.296   0.398   3.716
 9908SOL     OW30622   0.793   3.484   5.699
 9908SOL    HW130623   0.763   3.546   5.627
 9908SOL    HW230624   0.761   3.391   5.680
 9909SOL     OW30625   3.435   0.374   2.769
 9909SOL    HW130626   3.488   0.390   2.685
 9909SOL    HW230627   3.497   0.360   2.845
 9910SOL     OW30628   1.167   4.973   1.847
 9910SOL    HW130629   1.260   4.975   1.883
 9910SOL    HW230630   1.168   5.007   1.753
 9911SOL     OW30631   4.444   6.093   2.291
 9911SOL    HW130632   4.370   6.159   2.302
 9911SOL    HW230633   4.412   6.002   2.319
 9912SOL     OW30634   4.128   0.763   1.269
 9912SOL    HW130635   4.079   0.687   1.312
 9912SOL    HW230636   4.077   0.848   1.283
 9913SOL     OW30637   6.250   3.775   1.520
 9913SOL    HW130638   6.208   3.833   1.450
 9913SOL    HW230639   6.179   3.721   1.566
 9914SOL     OW30640   1.142   0.749   5.227
 9914SOL    HW130641   1.106   0.661   5.198
 9914SOL    HW230642   1.104   0.773   5.317
 9915SOL     OW30643   5.052   2.793   3.819
 9915SOL    HW130644   4.990   2.866   3.790
 9915SOL    HW230645   5.044   2.716   3.755
 9916SOL     OW30646   1.943   2.278   3.583
 9916SOL    HW130647   1.947   2.182   3.611
 9916SOL    HW230648   2.033   2.306   3.549
 9917SOL     OW30649   3.400   3.759   4.652
 9917SOL    HW130650   3.366   3.667   4.632
 9917SOL    HW230651   3.408   3.771   4.751
 9918SOL     OW30652   0.644   2.280   1.691
 9918SOL    HW130653   0.733   2.291   1.646
 9918SOL    HW230654   0.655   2.297   1.789
 9919SOL     OW30655   2.410   5.533   1.343
 9919SOL    HW130656   2.360   5.616   1.316
 9919SOL    HW230657   2.353   5.480   1.406
 9920SOL     OW30658   3.635   6.713   2.476
 9920SOL    HW130659   3.614   6.808   2.451
 9920SOL    HW230660   3.550   6.666   2.501
 9921SOL     OW30661   4.630   6.876   4.524
 9921SOL    HW130662   4.590   6.805   4.465
 9921SOL    HW230663   4.598   6.965   4.494
 9922SOL     OW30664   4.733   4.787   1.088
 9922SOL    HW130665   4.719   4.736   1.173
 9922SOL    HW230666   4.658   4.853   1.077
 9923SOL     OW30667   0.094   2.998   6.841
 9923SOL    HW130668   0.079   2.912   6.792
 9923SOL    HW230669   0.010   3.051   6.843
 9924SOL     OW30670   4.887   1.771   3.506
 9924SOL    HW130671   4.857   1.846   3.564
 9924SOL    HW230672   4.841   1.774   3.418
 9925SOL     OW30673   1.566   4.824   4.053
 9925SOL    HW130674   1.478   4.863   4.080
 9925SOL    HW230675   1.593   4.753   4.118
 9926SOL     OW30676   3.545   2.490   0.535
 9926SOL    HW130677   3.609   2.559   0.500
 9926SOL    HW230678   3.558   2.404   0.486
 9927SOL     OW30679   0.863   2.004   0.624
 9927SOL    HW130680   0.864   1.933   0.694
 9927SOL    HW230681   0.787   1.988   0.561
 9928SOL     OW30682   5.340   3.689   2.519
 9928SOL    HW130683   5.308   3.648   2.433
 9928SOL    HW230684   5.264   3.695   2.583
 9929SOL     OW30685   3.601   4.212   4.832
 9929SOL    HW130686   3.540   4.176   4.902
 9929SOL    HW230687   3.553   4.278   4.775
 9930SOL     OW30688   0.849   0.298   6.137
 9930SOL    HW130689   0.761   0.267   6.100
 9930SOL    HW230690   0.863   0.258   6.227
 9931SOL     OW30691   6.666   5.477   4.377
 9931SOL    HW130692   6.641   5.390   4.334
 9931SOL    HW230693   6.748   5.465   4.431
 9932SOL     OW30694   1.865   1.840   6.642
 9932SOL    HW130695   1.813   1.825   6.726
 9932SOL    HW230696   1.910   1.755   6.615
 9933SOL     OW30697   1.621   1.117   4.376
 9933SOL    HW130698   1.580   1.208   4.372
 9933SOL    HW230699   1.679   1.104   4.295
 9934SOL     OW30700   6.054   1.509   6.738
 9934SOL    HW130701   6.021   1.592   6.784
 9934SOL    HW230702   6.075   1.440   6.806
 9935SOL     OW30703   2.229   0.678   0.619
 9935SOL    HW130704   2.249   0.640   0.529
 9935SOL    HW230705   2.153   0.628   0.660
 9936SOL     OW30706   6.832   5.307   0.116
 9936SOL    HW130707   6.829   5.288   0.018
 9936SOL    HW230708   6.832   5.406   0.131
 9937SOL     OW30709   1.752   1.089   3.293
 9937SOL    HW130710   1.826   1.059   3.352
 9937SOL    HW230711   1.679   1.020   3.295
 9938SOL     OW30712   5.941   0.172   3.950
 9938SOL    HW130713   5.946   0.269   3.928
 9938SOL    HW230714   5.979   0.119   3.875
 9939SOL     OW30715   2.613   2.598   0.945
 9939SOL    HW130716   2.585   2.660   1.017
 9939SOL    HW230717   2.705   2.562   0.965
 9940SOL     OW30718   0.821   0.129   3.471
 9940SOL    HW130719   0.901   0.183   3.445
 9940SOL    HW230720   0.789   0.076   3.392
 9941SOL     OW30721   3.018   5.555   5.552
 9941SOL    HW130722   3.094   5.524   5.495
 9941SOL    HW230723   2.938   5.570   5.494
 9942SOL     OW30724   4.881   5.625   1.616
 9942SOL    HW130725   4.862   5.692   1.688
 9942SOL    HW230726   4.870   5.669   1.527
 9943SOL     OW30727   1.132   4.214   6.609
 9943SOL    HW130728   1.062   4.173   6.550
 9943SOL    HW230729   1.200   4.144   6.633
 9944SOL     OW30730   0.441   5.233   6.675
 9944SOL    HW130731   0.382   5.312   6.696
 9944SOL    HW230732   0.532   5.266   6.648
 9945SOL     OW30733   5.159   4.217   6.736
 9945SOL    HW130734   5.258   4.232   6.741
 9945SOL    HW230735   5.140   4.119   6.737
 9946SOL     OW30736   5.984   0.083   3.075
 9946SOL    HW130737   5.947   0.138   3.150
 9946SOL    HW230738   5.977   7.011   3.098
 9947SOL     OW30739   2.401   1.479   4.422
 9947SOL    HW130740   2.467   1.452   4.493
 9947SOL    HW230741   2.395   1.578   4.418
 9948SOL     OW30742   7.006   5.938   5.344
 9948SOL    HW130743   6.917   5.973   5.315
 9948SOL    HW230744   0.052   6.004   5.319
 9949SOL     OW30745   6.775   5.033   3.907
 9949SOL    HW130746   6.860   4.998   3.946
 9949SOL    HW230747   6.705   5.038   3.979
 9950SOL     OW30748   7.022   5.886   5.768
 9950SOL    HW130749   7.017   5.917   5.863
 9950SOL    HW230750   6.950   5.929   5.715
 9951SOL     OW30751   1.792   2.112   2.837
 9951SOL    HW130752   1.810   2.093   2.740
 9951SOL    HW230753   1.699   2.145   2.848
 9952SOL     OW30754   1.359   3.628   0.771
 9952SOL    HW130755   1.285   3.655   0.709
 9952SOL    HW230756   1.447   3.653   0.730
 9953SOL     OW30757   5.426   3.209   3.790
 9953SOL    HW130758   5.364   3.133   3.811
 9953SOL    HW230759   5.437   3.216   3.691
 9954SOL     OW30760   1.513   6.821   4.844
 9954SOL    HW130761   1.556   6.888   4.783
 9954SOL    HW230762   1.556   6.826   4.935
 9955SOL     OW30763   3.955   3.741   6.660
 9955SOL    HW130764   3.908   3.655   6.640
 9955SOL    HW230765   3.946   3.803   6.582
 9956SOL     OW30766   0.901   3.411   2.305
 9956SOL    HW130767   0.867   3.503   2.320
 9956SOL    HW230768   0.832   3.345   2.334
 9957SOL     OW30769   5.911   0.108   2.036
 9957SOL    HW130770   5.988   0.172   2.037
 9957SOL    HW230771   5.825   0.159   2.032
 9958SOL     OW30772   3.302   6.333   6.034
 9958SOL    HW130773   3.220   6.389   6.043
 9958SOL    HW230774   3.312   6.275   6.116
 9959SOL     OW30775   4.070   3.664   2.456
 9959SOL    HW130776   4.123   3.588   2.417
 9959SOL    HW230777   4.105   3.687   2.546
 9960SOL     OW30778   0.879   6.301   1.203
 9960SOL    HW130779   0.833   6.230   1.150
 9960SOL    HW230780   0.815   6.341   1.268
 9961SOL     OW30781   1.587   4.148   3.198
 9961SOL    HW130782   1.522   4.194   3.139
 9961SOL    HW230783   1.593   4.195   3.286
 9962SOL     OW30784   4.278   0.871   2.026
 9962SOL    HW130785   4.179   0.877   2.036
 9962SOL    HW230786   4.302   0.789   1.974
 9963SOL     OW30787   2.771   2.664   6.100
 9963SOL    HW130788   2.696   2.621   6.151
 9963SOL    HW230789   2.754   2.655   6.002
 9964SOL     OW30790   4.425   5.152   5.800
 9964SOL    HW130791   4.379   5.128   5.886
 9964SOL    HW230792   4.394   5.242   5.771
 9965SOL     OW30793   3.540   4.879   5.133
 9965SOL    HW130794   3.571   4.972   5.114
 9965SOL    HW230795   3.451   4.863   5.088
 9966SOL     OW30796   1.854   4.577   1.890
 9966SOL    HW130797   1.942   4.613   1.859
 9966SOL    HW230798   1.864   4.541   1.983
 9967SOL     OW30799   5.863   4.915   2.343
 9967SOL    HW130800   5.944   4.960   2.306
 9967SOL    HW230801   5.789   4.981   2.355
 9968SOL     OW30802   3.448   6.171   6.280
 9968SOL    HW130803   3.534   6.213   6.253
 9968SOL    HW230804   3.426   6.096   6.218
 9969SOL     OW30805   1.023   3.197   3.873
 9969SOL    HW130806   1.113   3.199   3.916
 9969SOL    HW230807   1.033   3.203   3.774
 9970SOL     OW30808   0.108   4.878   2.421
 9970SOL    HW130809   0.067   4.808   2.480
 9970SOL    HW230810   0.136   4.836   2.334
 9971SOL     OW30811   2.199   3.736   0.947
 9971SOL    HW130812   2.100   3.727   0.943
 9971SOL    HW230813   2.227   3.821   0.904
 9972SOL     OW30814   3.238   4.293   0.718
 9972SOL    HW130815   3.162   4.236   0.686
 9972SOL    HW230816   3.309   4.235   0.757
 9973SOL     OW30817   4.058   1.876   4.513
 9973SOL    HW130818   4.066   1.972   4.538
 9973SOL    HW230819   4.115   1.821   4.574
 9974SOL     OW30820   6.688   3.465   3.136
 9974SOL    HW130821   6.735   3.381   3.109
 9974SOL    HW230822   6.607   3.442   3.190
 9975SOL     OW30823   0.019   4.490   6.850
 9975SOL    HW130824   6.954   4.528   6.868
 9975SOL    HW230825   0.073   4.491   6.934
 9976SOL     OW30826   6.682   4.970   5.193
 9976SOL    HW130827   6.688   4.884   5.243
 9976SOL    HW230828   6.774   5.008   5.181
 9977SOL     OW30829   6.505   5.114   6.011
 9977SOL    HW130830   6.466   5.197   6.051
 9977SOL    HW230831   6.574   5.077   6.073
 9978SOL     OW30832   6.045   1.926   4.949
 9978SOL    HW130833   5.954   1.902   4.983
 9978SOL    HW230834   6.069   1.864   4.874
 9979SOL     OW30835   6.379   4.114   5.883
 9979SOL    HW130836   6.411   4.207   5.898
 9979SOL    HW230837   6.292   4.115   5.834
 9980SOL     OW30838   1.406   0.967   0.156
 9980SOL    HW130839   1.373   0.978   0.250
 9980SOL    HW230840   1.346   0.905   0.107
 9981SOL     OW30841   2.725   1.552   0.065
 9981SOL    HW130842   2.772   1.506   0.140
 9981SOL    HW230843   2.785   1.620   0.024
 9982SOL     OW30844   0.586   1.735   3.978
 9982SOL    HW130845   0.651   1.684   4.033
 9982SOL    HW230846   0.611   1.831   3.977
 9983SOL     OW30847   1.109   0.740   1.558
 9983SOL    HW130848   1.019   0.695   1.556
 9983SOL    HW230849   1.180   0.673   1.537
 9984SOL     OW30850   0.866   0.204   0.162
 9984SOL    HW130851   0.850   0.283   0.221
 9984SOL    HW230852   0.931   0.142   0.205
 9985SOL     OW30853   3.615   6.878   1.378
 9985SOL    HW130854   3.561   6.801   1.344
 9985SOL    HW230855   3.705   6.877   1.334
 9986SOL     OW30856   5.002   4.342   6.910
 9986SOL    HW130857   5.063   4.286   6.854
 9986SOL    HW230858   4.994   4.433   6.870
 9987SOL     OW30859   5.920   1.661   2.026
 9987SOL    HW130860   5.915   1.636   1.930
 9987SOL    HW230861   5.831   1.696   2.057
 9988SOL     OW30862   0.008   5.139   4.494
 9988SOL    HW130863   0.012   5.239   4.498
 9988SOL    HW230864   0.050   5.101   4.576
 9989SOL     OW30865   5.304   3.516   3.375
 9989SOL    HW130866   5.385   3.491   3.427
 9989SOL    HW230867   5.320   3.496   3.278
 9990SOL     OW30868   2.585   0.286   3.515
 9990SOL    HW130869   2.617   0.242   3.598
 9990SOL    HW230870   2.639   0.368   3.497
 9991SOL     OW30871   1.244   3.195   4.790
 9991SOL    HW130872   1.334   3.223   4.757
 9991SOL    HW230873   1.177   3.205   4.716
 9992SOL     OW30874   3.728   3.238   0.754
 9992SOL    HW130875   3.716   3.295   0.835
 9992SOL    HW230876   3.639   3.216   0.715
 9993SOL     OW30877   3.928   6.227   2.852
 9993SOL    HW130878   3.848   6.275   2.815
 9993SOL    HW230879   3.998   6.294   2.879
 9994SOL     OW30880   0.240   4.182   3.290
 9994SOL    HW130881   0.246   4.280   3.273
 9994SOL    HW230882   0.188   4.164   3.373
 9995SOL     OW30883   3.087   0.183   3.222
 9995SOL    HW130884   3.185   0.204   3.223
 9995SOL    HW230885   3.043   0.229   3.145
 9996SOL     OW30886   3.010   2.609   1.205
 9996SOL    HW130887   3.026   2.696   1.253
 9996SOL    HW230888   2.993   2.537   1.272
 9997SOL     OW30889   4.636   1.211   1.014
 9997SOL    HW130890   4.641   1.292   0.956
 9997SOL    HW230891   4.688   1.227   1.098
 9998SOL     OW30892   5.481   3.873   2.633
 9998SOL    HW130893   5.513   3.831   2.718
 9998SOL    HW230894   5.427   3.807   2.581
 9999SOL     OW30895   6.717   5.966   5.438
 9999SOL    HW130896   6.740   5.872   5.416
 9999SOL    HW230897   6.745   5.986   5.532
10000SOL     OW30898   6.048   2.258   6.648
10000SOL    HW130899   6.000   2.172   6.630
10000SOL    HW230900   6.059   2.270   6.747
10001SOL     OW30901   4.305   0.334   1.469
10001SOL    HW130902   4.318   0.429   1.498
10001SOL    HW230903   4.341   0.272   1.540
10002SOL     OW30904   1.446   1.283   1.813
10002SOL    HW130905   1.445   1.199   1.868
10002SOL    HW230906   1.367   1.339   1.837
10003SOL     OW30907   3.238   2.090   2.494
10003SOL    HW130908   3.177   2.120   2.421
10003SOL    HW230909   3.243   2.161   2.564
10004SOL     OW30910   5.038   2.782   4.840
10004SOL    HW130911   5.068   2.764   4.934
10004SOL    HW230912   5.055   2.702   4.783
10005SOL     OW30913   4.102   5.433   3.084
10005SOL    HW130914   4.158   5.479   3.153
10005SOL    HW230915   4.006   5.456   3.099
10006SOL     OW30916   5.373   1.823   5.255
10006SOL    HW130917   5.283   1.865   5.241
10006SOL    HW230918   5.378   1.786   5.348
10007SOL     OW30919   0.606   3.654   4.560
10007SOL    HW130920   0.594   3.562   4.598
10007SOL    HW230921   0.520   3.705   4.569
10008SOL     OW30922   4.187   1.404   2.718
10008SOL    HW130923   4.165   1.345   2.640
10008SOL    HW230924   4.104   1.419   2.772
10009SOL     OW30925   1.944   3.952   1.764
10009SOL    HW130926   1.890   3.989   1.840
10009SOL    HW230927   2.041   3.971   1.780
10010SOL     OW30928   2.094   6.244   0.550
10010SOL    HW130929   2.053   6.275   0.464
10010SOL    HW230930   2.190   6.222   0.534
10011SOL     OW30931   0.561   3.552   6.445
10011SOL    HW130932   0.590   3.529   6.352
10011SOL    HW230933   0.497   3.629   6.443
10012SOL     OW30934   4.759   6.627   2.440
10012SOL    HW130935   4.754   6.720   2.401
10012SOL    HW230936   4.757   6.560   2.366
10013SOL     OW30937   1.914   1.701   4.554
10013SOL    HW130938   1.868   1.658   4.632
10013SOL    HW230939   2.003   1.658   4.540
10014SOL     OW30940   0.298   1.753   1.514
10014SOL    HW130941   0.242   1.836   1.507
10014SOL    HW230942   0.395   1.778   1.514
10015SOL     OW30943   4.050   4.694   0.221
10015SOL    HW130944   4.125   4.703   0.155
10015SOL    HW230945   4.017   4.784   0.246
10016SOL     OW30946   2.104   0.073   4.775
10016SOL    HW130947   2.112   0.004   4.703
10016SOL    HW230948   2.194   0.094   4.811
10017SOL     OW30949   2.088   1.352   2.374
10017SOL    HW130950   2.047   1.368   2.464
10017SOL    HW230951   2.181   1.318   2.386
10018SOL     OW30952   6.431   4.851   5.961
10018SOL    HW130953   6.450   4.948   5.978
10018SOL    HW230954   6.339   4.842   5.923
10019SOL     OW30955   0.543   1.811   3.120
10019SOL    HW130956   0.615   1.797   3.188
10019SOL    HW230957   0.512   1.906   3.122
10020SOL     OW30958   0.750   1.140   1.059
10020SOL    HW130959   0.676   1.158   0.995
10020SOL    HW230960   0.738   1.198   1.140
10021SOL     OW30961   1.147   1.991   2.638
10021SOL    HW130962   1.062   1.945   2.662
10021SOL    HW230963   1.127   2.072   2.583
10022SOL     OW30964   3.903   0.043   0.979
10022SOL    HW130965   3.948   6.982   0.954
10022SOL    HW230966   3.952   0.119   0.937
10023SOL     OW30967   2.152   5.030   5.553
10023SOL    HW130968   2.124   4.969   5.627
10023SOL    HW230969   2.132   4.987   5.465
10024SOL     OW30970   2.004   6.342   2.116
10024SOL    HW130971   1.912   6.340   2.077
10024SOL    HW230972   2.039   6.436   2.112
10025SOL     OW30973   2.089   2.191   1.557
10025SOL    HW130974   2.032   2.154   1.483
10025SOL    HW230975   2.055   2.281   1.583
10026SOL     OW30976   3.845   6.131   3.311
10026SOL    HW130977   3.922   6.113   3.251
10026SOL    HW230978   3.760   6.100   3.267
10027SOL     OW30979   1.178   4.253   5.078
10027SOL    HW130980   1.134   4.328   5.029
10027SOL    HW230981   1.238   4.202   5.015
10028SOL     OW30982   1.488   1.671   2.234
10028SOL    HW130983   1.529   1.600   2.291
10028SOL    HW230984   1.418   1.719   2.286
10029SOL     OW30985   2.539   1.776   4.055
10029SOL    HW130986   2.632   1.793   4.089
10029SOL    HW230987   2.512   1.683   4.079
10030SOL     OW30988   2.200   0.189   4.427
10030SOL    HW130989   2.110   0.151   4.451
10030SOL    HW230990   2.191   0.251   4.350
10031SOL     OW30991   5.929   4.842   3.692
10031SOL    HW130992   6.004   4.878   3.747
10031SOL    HW230993   5.906   4.907   3.620
10032SOL     OW30994   3.739   0.307   5.209
10032SOL    HW130995   3.696   0.319   5.120
10032SOL    HW230996   3.671   0.272   5.274
10033SOL     OW30997   4.547   1.396   4.254
10033SOL    HW130998   4.472   1.361   4.198
10033SOL    HW230999   4.555   1.342   4.337
10034SOL     OW31000   3.911   0.263   4.282
10034SOL    HW131001   3.823   0.232   4.318
10034SOL    HW231002   3.897   0.309   4.194
10035SOL     OW31003   0.237   4.714   2.784
10035SOL    HW131004   0.292   4.792   2.755
10035SOL    HW231005   0.179   4.742   2.861
10036SOL     OW31006   5.816   0.879   1.178
10036SOL    HW131007   5.739   0.944   1.185
10036SOL    HW231008   5.818   0.840   1.086
10037SOL     OW31009   5.816   1.781   1.196
10037SOL    HW131010   5.723   1.809   1.221
10037SOL    HW231011   5.881   1.851   1.225
10038SOL     OW31012   4.428   1.186   6.370
10038SOL    HW131013   4.373   1.235   6.437
10038SOL    HW231014   4.372   1.163   6.291
10039SOL     OW31015   3.922   0.119   5.208
10039SOL    HW131016   4.014   0.151   5.229
10039SOL    HW231017   3.859   0.196   5.205
10040SOL     OW31018   4.232   5.843   6.200
10040SOL    HW131019   4.331   5.841   6.215
10040SOL    HW231020   4.187   5.797   6.276
10041SOL     OW31021   4.243   6.026   6.494
10041SOL    HW131022   4.235   5.927   6.509
10041SOL    HW231023   4.333   6.046   6.453
10042SOL     OW31024   1.051   2.014   4.911
10042SOL    HW131025   1.087   1.924   4.885
10042SOL    HW231026   1.062   2.078   4.835
10043SOL     OW31027   0.260   2.494   4.323
10043SOL    HW131028   0.201   2.516   4.245
10043SOL    HW231029   0.209   2.437   4.388
10044SOL     OW31030   2.776   1.166   4.863
10044SOL    HW131031   2.681   1.181   4.834
10044SOL    HW231032   2.802   1.236   4.929
10045SOL     OW31033   5.158   0.044   3.503
10045SOL    HW131034   5.183   0.012   3.412
10045SOL    HW231035   5.070   0.005   3.530
10046SOL     OW31036   1.758   3.519   1.288
10046SOL    HW131037   1.667   3.560   1.285
10046SOL    HW231038   1.787   3.510   1.383
10047SOL     OW31039   6.552   3.886   5.193
10047SOL    HW131040   6.557   3.806   5.133
10047SOL    HW231041   6.573   3.857   5.287
10048SOL     OW31042   6.224   1.063   2.870
10048SOL    HW131043   6.260   1.028   2.783
10048SOL    HW231044   6.239   1.161   2.875
10049SOL     OW31045   0.152   0.647   6.922
10049SOL    HW131046   0.230   0.588   6.902
10049SOL    HW231047   0.171   0.698   7.007
10050SOL     OW31048   5.625   3.386   4.974
10050SOL    HW131049   5.672   3.364   5.059
10050SOL    HW231050   5.690   3.388   4.898
10051SOL     OW31051   5.133   2.692   5.112
10051SOL    HW131052   5.224   2.723   5.141
10051SOL    HW231053   5.065   2.759   5.141
10052SOL     OW31054   2.087   1.926   2.677
10052SOL    HW131055   2.186   1.925   2.665
10052SOL    HW231056   2.050   1.836   2.658
10053SOL     OW31057   3.375   5.998   2.582
10053SOL    HW131058   3.402   6.009   2.677
10053SOL    HW231059   3.371   5.901   2.558
10054SOL     OW31060   5.465   5.733   6.399
10054SOL    HW131061   5.440   5.772   6.311
10054SOL    HW231062   5.550   5.681   6.390
10055SOL     OW31063   5.530   2.160   4.662
10055SOL    HW131064   5.451   2.203   4.617
10055SOL    HW231065   5.596   2.131   4.593
10056SOL     OW31066   5.382   4.197   3.310
10056SOL    HW131067   5.285   4.182   3.292
10056SOL    HW231068   5.393   4.247   3.396
10057SOL     OW31069   4.272   1.747   5.006
10057SOL    HW131070   4.306   1.665   5.053
10057SOL    HW231071   4.314   1.828   5.046
10058SOL     OW31072   0.167   3.502   4.331
10058SOL    HW131073   0.088   3.442   4.322
10058SOL    HW231074   0.219   3.501   4.246
10059SOL     OW31075   6.413   0.415   1.656
10059SOL    HW131076   6.351   0.454   1.587
10059SOL    HW231077   6.482   0.359   1.610
10060SOL     OW31078   1.410   2.069   1.819
10060SOL    HW131079   1.353   2.147   1.844
10060SOL    HW231080   1.504   2.085   1.847
10061SOL     OW31081   4.498   1.302   3.747
10061SOL    HW131082   4.476   1.399   3.758
10061SOL    HW231083   4.438   1.262   3.677
10062SOL     OW31084   6.129   0.269   4.711
10062SOL    HW131085   6.181   0.217   4.779
10062SOL    HW231086   6.152   0.237   4.620
10063SOL     OW31087   2.730   0.974   3.982
10063SOL    HW131088   2.648   0.978   3.925
10063SOL    HW231089   2.754   1.066   4.013
10064SOL     OW31090   5.081   0.184   6.891
10064SOL    HW131091   5.145   0.119   6.851
10064SOL    HW231092   5.008   0.203   6.825
10065SOL     OW31093   2.582   0.784   2.331
10065SOL    HW131094   2.516   0.856   2.356
10065SOL    HW231095   2.670   0.826   2.309
10066SOL     OW31096   0.434   2.619   4.020
10066SOL    HW131097   0.372   2.696   4.035
10066SOL    HW231098   0.382   2.534   4.014
10067SOL     OW31099   6.852   3.937   5.244
10067SOL    HW131100   6.777   4.001   5.230
10067SOL    HW231101   6.836   3.855   5.189
10068SOL     OW31102   0.309   3.160   3.068
10068SOL    HW131103   0.406   3.161   3.044
10068SOL    HW231104   0.292   3.225   3.142
10069SOL     OW31105   2.381   4.958   2.239
10069SOL    HW131106   2.412   5.002   2.154
10069SOL    HW231107   2.344   4.868   2.219
10070SOL     OW31108   6.785   6.411   4.912
10070SOL    HW131109   6.735   6.354   4.847
10070SOL    HW231110   6.861   6.456   4.866
10071SOL     OW31111   6.234   6.029   4.757
10071SOL    HW131112   6.227   5.983   4.846
10071SOL    HW231113   6.169   6.105   4.754
10072SOL     OW31114   6.867   6.755   3.958
10072SOL    HW131115   6.947   6.712   3.916
10072SOL    HW231116   6.882   6.765   4.057
10073SOL     OW31117   6.061   4.579   5.305
10073SOL    HW131118   5.990   4.510   5.322
10073SOL    HW231119   6.120   4.586   5.386
10074SOL     OW31120   1.958   0.852   5.535
10074SOL    HW131121   1.995   0.914   5.466
10074SOL    HW231122   2.034   0.811   5.587
10075SOL     OW31123   1.830   2.734   2.692
10075SOL    HW131124   1.912   2.766   2.644
10075SOL    HW231125   1.827   2.634   2.689
10076SOL     OW31126   6.188   0.254   4.426
10076SOL    HW131127   6.166   0.161   4.399
10076SOL    HW231128   6.249   0.295   4.357
10077SOL     OW31129   4.061   2.605   6.279
10077SOL    HW131130   4.126   2.679   6.299
10077SOL    HW231131   4.095   2.519   6.315
10078SOL     OW31132   0.440   5.579   3.888
10078SOL    HW131133   0.537   5.603   3.877
10078SOL    HW231134   0.409   5.529   3.807
10079SOL     OW31135   5.754   2.996   3.867
10079SOL    HW131136   5.756   3.050   3.783
10079SOL    HW231137   5.669   3.014   3.916
10080SOL     OW31138   4.596   0.715   5.594
10080SOL    HW131139   4.632   0.648   5.529
10080SOL    HW231140   4.664   0.788   5.606
10081SOL     OW31141   6.745   0.939   0.705
10081SOL    HW131142   6.775   0.964   0.613
10081SOL    HW231143   6.723   1.022   0.756
10082SOL     OW31144   0.540   5.276   1.631
10082SOL    HW131145   0.488   5.356   1.660
10082SOL    HW231146   0.585   5.235   1.711
10083SOL     OW31147   3.668   0.511   3.406
10083SOL    HW131148   3.666   0.591   3.346
10083SOL    HW231149   3.641   0.430   3.355
10084SOL     OW31150   2.088   1.143   5.671
10084SOL    HW131151   2.102   1.183   5.761
10084SOL    HW231152   2.117   1.208   5.600
10085SOL     OW31153   2.084   5.647   0.759
10085SOL    HW131154   2.135   5.571   0.800
10085SOL    HW231155   2.144   5.698   0.698
10086SOL     OW31156   4.760   5.742   2.243
10086SOL    HW131157   4.855   5.735   2.210
10086SOL    HW231158   4.722   5.831   2.217
10087SOL     OW31159   6.825   6.810   4.501
10087SOL    HW131160   6.766   6.883   4.466
10087SOL    HW231161   6.791   6.780   4.590
10088SOL     OW31162   6.428   0.369   2.289
10088SOL    HW131163   6.328   0.373   2.290
10088SOL    HW231164   6.458   0.313   2.212
10089SOL     OW31165   2.907   1.632   2.798
10089SOL    HW131166   2.930   1.556   2.858
10089SOL    HW231167   2.949   1.716   2.832
10090SOL     OW31168   0.695   5.006   1.852
10090SOL    HW131169   0.768   5.072   1.833
10090SOL    HW231170   0.734   4.926   1.898
10091SOL     OW31171   6.929   4.763   6.867
10091SOL    HW131172   6.874   4.768   6.784
10091SOL    HW231173   6.957   4.855   6.895
10092SOL     OW31174   2.039   2.818   5.645
10092SOL    HW131175   2.123   2.853   5.686
10092SOL    HW231176   2.051   2.809   5.546
10093SOL     OW31177   5.694   3.367   5.636
10093SOL    HW131178   5.606   3.395   5.599
10093SOL    HW231179   5.703   3.401   5.730
10094SOL     OW31180   3.527   5.517   1.318
10094SOL    HW131181   3.568   5.571   1.391
10094SOL    HW231182   3.443   5.475   1.351
10095SOL     OW31183   5.784   2.231   5.060
10095SOL    HW131184   5.703   2.279   5.093
10095SOL    HW231185   5.861   2.294   5.057
10096SOL     OW31186   4.385   5.278   3.116
10096SOL    HW131187   4.424   5.222   3.189
10096SOL    HW231188   4.354   5.219   3.042
10097SOL     OW31189   0.983   1.745   0.222
10097SOL    HW131190   1.005   1.758   0.319
10097SOL    HW231191   0.892   1.780   0.204
10098SOL     OW31192   3.107   0.400   5.200
10098SOL    HW131193   3.082   0.418   5.295
10098SOL    HW231194   3.034   0.431   5.139
10099SOL     OW31195   0.329   4.934   1.218
10099SOL    HW131196   0.341   4.955   1.315
10099SOL    HW231197   0.363   4.842   1.200
10100SOL     OW31198   4.538   6.592   5.381
10100SOL    HW131199   4.594   6.517   5.417
10100SOL    HW231200   4.465   6.614   5.446
10101SOL     OW31201   6.261   3.410   1.961
10101SOL    HW131202   6.228   3.359   2.040
10101SOL    HW231203   6.341   3.464   1.987
10102SOL     OW31204   0.168   1.214   1.849
10102SOL    HW131205   0.075   1.241   1.876
10102SOL    HW231206   0.206   1.153   1.919
10103SOL     OW31207   3.497   0.610   5.839
10103SOL    HW131208   3.551   0.692   5.820
10103SOL    HW231209   3.484   0.601   5.938
10104SOL     OW31210   1.781   1.547   4.728
10104SOL    HW131211   1.757   1.635   4.769
10104SOL    HW231212   1.709   1.480   4.746
10105SOL     OW31213   1.569   0.701   6.559
10105SOL    HW131214   1.619   0.682   6.643
10105SOL    HW231215   1.473   0.719   6.580
10106SOL     OW31216   3.831   6.105   0.428
10106SOL    HW131217   3.868   6.028   0.375
10106SOL    HW231218   3.821   6.184   0.367
10107SOL     OW31219   5.873   1.478   5.582
10107SOL    HW131220   5.823   1.504   5.665
10107SOL    HW231221   5.814   1.424   5.522
10108SOL     OW31222   6.583   0.848   0.331
10108SOL    HW131223   6.665   0.894   0.366
10108SOL    HW231224   6.591   0.749   0.346
10109SOL     OW31225   5.970   0.996   0.384
10109SOL    HW131226   5.890   1.054   0.400
10109SOL    HW231227   6.046   1.052   0.352
10110SOL     OW31228   4.695   4.844   4.606
10110SOL    HW131229   4.753   4.788   4.547
10110SOL    HW231230   4.610   4.795   4.626
10111SOL     OW31231   5.675   3.572   4.095
10111SOL    HW131232   5.653   3.642   4.026
10111SOL    HW231233   5.757   3.600   4.145
10112SOL     OW31234   5.812   3.928   3.682
10112SOL    HW131235   5.729   3.875   3.664
10112SOL    HW231236   5.832   3.986   3.603
10113SOL     OW31237   4.295   6.944   6.580
10113SOL    HW131238   4.334   6.986   6.498
10113SOL    HW231239   4.283   6.846   6.565
10114SOL     OW31240   4.415   2.214   1.506
10114SOL    HW131241   4.384   2.307   1.523
10114SOL    HW231242   4.480   2.213   1.429
10115SOL     OW31243   4.047   0.428   5.334
10115SOL    HW131244   4.007   0.419   5.243
10115SOL    HW231245   3.974   0.423   5.403
10116SOL     OW31246   0.428   7.010   0.141
10116SOL    HW131247   0.373   6.975   0.066
10116SOL    HW231248   0.501   6.946   0.162
10117SOL     OW31249   6.928   6.512   6.238
10117SOL    HW131250   6.969   6.573   6.306
10117SOL    HW231251   6.955   6.543   6.146
10118SOL     OW31252   2.211   4.075   2.913
10118SOL    HW131253   2.180   4.102   3.003
10118SOL    HW231254   2.247   3.981   2.917
10119SOL     OW31255   6.943   5.670   4.809
10119SOL    HW131256   6.998   5.641   4.731
10119SOL    HW231257   7.000   5.721   4.873
10120SOL     OW31258   2.144   3.183   4.549
10120SOL    HW131259   2.162   3.249   4.622
10120SOL    HW231260   2.163   3.225   4.461
10121SOL     OW31261   5.674   4.071   6.769
10121SOL    HW131262   5.722   3.988   6.743
10121SOL    HW231263   5.623   4.055   6.854
10122SOL     OW31264   5.593   3.091   2.685
10122SOL    HW131265   5.604   3.142   2.600
10122SOL    HW231266   5.562   2.998   2.665
10123SOL     OW31267   5.706   5.872   0.962
10123SOL    HW131268   5.707   5.824   1.050
10123SOL    HW231269   5.750   5.961   0.973
10124SOL     OW31270   1.160   4.900   0.759
10124SOL    HW131271   1.108   4.814   0.757
10124SOL    HW231272   1.183   4.926   0.665
10125SOL     OW31273   1.610   1.587   2.005
10125SOL    HW131274   1.539   1.596   2.075
10125SOL    HW231275   1.576   1.529   1.931
10126SOL     OW31276   6.887   0.239   0.592
10126SOL    HW131277   6.807   0.226   0.651
10126SOL    HW231278   6.862   0.219   0.497
10127SOL     OW31279   2.561   3.946   7.018
10127SOL    HW131280   2.649   3.984   6.989
10127SOL    HW231281   2.535   3.873   6.955
10128SOL     OW31282   2.933   1.284   6.648
10128SOL    HW131283   3.001   1.315   6.714
10128SOL    HW231284   2.903   1.361   6.592
10129SOL     OW31285   6.344   1.312   3.022
10129SOL    HW131286   6.333   1.311   3.122
10129SOL    HW231287   6.440   1.293   2.999
10130SOL     OW31288   1.232   2.044   1.055
10130SOL    HW131289   1.315   1.991   1.041
10130SOL    HW231290   1.232   2.081   1.148
10131SOL     OW31291   1.833   6.838   4.130
10131SOL    HW131292   1.905   6.851   4.062
10131SOL    HW231293   1.853   6.757   4.185
10132SOL     OW31294   3.202   0.266   3.852
10132SOL    HW131295   3.131   0.212   3.806
10132SOL    HW231296   3.166   0.357   3.873
10133SOL     OW31297   4.187   6.261   0.447
10133SOL    HW131298   4.093   6.295   0.457
10133SOL    HW231299   4.211   6.256   0.350
10134SOL     OW31300   6.260   0.590   2.414
10134SOL    HW131301   6.226   0.606   2.506
10134SOL    HW231302   6.233   0.499   2.384
10135SOL     OW31303   4.922   3.648   3.669
10135SOL    HW131304   4.889   3.719   3.607
10135SOL    HW231305   4.907   3.678   3.763
10136SOL     OW31306   4.955   1.874   2.397
10136SOL    HW131307   4.911   1.833   2.317
10136SOL    HW231308   4.919   1.966   2.411
10137SOL     OW31309   0.097   3.944   4.296
10137SOL    HW131310   0.016   3.886   4.285
10137SOL    HW231311   0.170   3.891   4.341
10138SOL     OW31312   5.569   3.745   0.469
10138SOL    HW131313   5.512   3.785   0.397
10138SOL    HW231314   5.580   3.647   0.452
10139SOL     OW31315   2.933   3.348   3.373
10139SOL    HW131316   2.992   3.301   3.439
10139SOL    HW231317   2.838   3.321   3.389
10140SOL     OW31318   0.243   6.449   6.998
10140SOL    HW131319   0.293   6.362   7.002
10140SOL    HW231320   0.149   6.432   6.968
10141SOL     OW31321   4.530   1.027   5.794
10141SOL    HW131322   4.504   0.952   5.732
10141SOL    HW231323   4.466   1.103   5.781
10142SOL     OW31324   6.160   6.561   6.049
10142SOL    HW131325   6.160   6.496   5.973
10142SOL    HW231326   6.255   6.586   6.072
10143SOL     OW31327   5.701   1.801   0.379
10143SOL    HW131328   5.647   1.869   0.329
10143SOL    HW231329   5.722   1.836   0.470
10144SOL     OW31330   3.991   6.804   6.524
10144SOL    HW131331   4.043   6.856   6.456
10144SOL    HW231332   4.047   6.790   6.606
10145SOL     OW31333   3.045   5.630   2.928
10145SOL    HW131334   3.081   5.722   2.915
10145SOL    HW231335   2.969   5.615   2.864
10146SOL     OW31336   5.032   4.285   4.985
10146SOL    HW131337   5.052   4.314   4.892
10146SOL    HW231338   4.935   4.297   5.004
10147SOL     OW31339   5.017   4.221   6.250
10147SOL    HW131340   4.955   4.293   6.281
10147SOL    HW231341   5.022   4.149   6.320
10148SOL     OW31342   4.947   4.952   6.930
10148SOL    HW131343   5.036   4.905   6.930
10148SOL    HW231344   4.880   4.895   6.978
10149SOL     OW31345   5.413   3.918   1.712
10149SOL    HW131346   5.345   3.875   1.772
10149SOL    HW231347   5.388   3.902   1.616
10150SOL     OW31348   3.704   3.006   1.111
10150SOL    HW131349   3.702   3.104   1.089
10150SOL    HW231350   3.744   2.993   1.202
10151SOL     OW31351   0.900   6.099   6.987
10151SOL    HW131352   0.959   6.054   0.028
10151SOL    HW231353   0.863   6.031   6.924
10152SOL     OW31354   6.763   6.549   3.674
10152SOL    HW131355   6.788   6.509   3.763
10152SOL    HW231356   6.736   6.475   3.611
10153SOL     OW31357   4.188   5.951   3.435
10153SOL    HW131358   4.245   5.888   3.488
10153SOL    HW231359   4.234   6.039   3.428
10154SOL     OW31360   3.628   6.064   4.688
10154SOL    HW131361   3.618   6.143   4.628
10154SOL    HW231362   3.575   5.987   4.652
10155SOL     OW31363   4.408   2.465   6.596
10155SOL    HW131364   4.418   2.562   6.619
10155SOL    HW231365   4.444   2.409   6.670
10156SOL     OW31366   4.995   0.705   2.151
10156SOL    HW131367   4.975   0.726   2.247
10156SOL    HW231368   4.937   0.629   2.121
10157SOL     OW31369   0.009   1.987   0.328
10157SOL    HW131370   0.108   1.975   0.318
10157SOL    HW231371   7.007   1.961   0.420
10158SOL     OW31372   6.675   5.854   0.946
10158SOL    HW131373   6.746   5.797   0.905
10158SOL    HW231374   6.661   5.936   0.890
10159SOL     OW31375   2.997   2.417   1.376
10159SOL    HW131376   3.007   2.447   1.471
10159SOL    HW231377   3.082   2.373   1.346
10160SOL     OW31378   1.654   2.899   2.574
10160SOL    HW131379   1.644   2.976   2.636
10160SOL    HW231380   1.737   2.847   2.597
10161SOL     OW31381   3.756   3.722   0.415
10161SOL    HW131382   3.759   3.623   0.404
10161SOL    HW231383   3.698   3.745   0.493
10162SOL     OW31384   3.710   4.851   0.300
10162SOL    HW131385   3.794   4.879   0.346
10162SOL    HW231386   3.731   4.784   0.228
10163SOL     OW31387   6.920   3.495   0.393
10163SOL    HW131388   7.010   3.470   0.357
10163SOL    HW231389   6.911   3.461   0.486
10164SOL     OW31390   6.267   3.746   5.151
10164SOL    HW131391   6.298   3.825   5.204
10164SOL    HW231392   6.219   3.683   5.210
10165SOL     OW31393   6.480   1.515   3.610
10165SOL    HW131394   6.475   1.484   3.705
10165SOL    HW231395   6.575   1.538   3.587
10166SOL     OW31396   2.791   1.699   1.467
10166SOL    HW131397   2.781   1.799   1.470
10166SOL    HW231398   2.834   1.672   1.382
10167SOL     OW31399   0.981   5.009   0.370
10167SOL    HW131400   0.927   4.947   0.312
10167SOL    HW231401   1.071   4.969   0.388
10168SOL     OW31402   6.373   2.644   6.472
10168SOL    HW131403   6.320   2.568   6.509
10168SOL    HW231404   6.311   2.711   6.430
10169SOL     OW31405   0.578   4.272   3.434
10169SOL    HW131406   0.499   4.211   3.435
10169SOL    HW231407   0.555   4.359   3.478
10170SOL     OW31408   6.852   5.651   6.216
10170SOL    HW131409   6.901   5.573   6.254
10170SOL    HW231410   6.788   5.620   6.146
10171SOL     OW31411   0.921   2.734   4.973
10171SOL    HW131412   1.015   2.768   4.971
10171SOL    HW231413   0.921   2.637   4.948
10172SOL     OW31414   1.127   5.655   4.702
10172SOL    HW131415   1.124   5.697   4.612
10172SOL    HW231416   1.034   5.638   4.734
10173SOL     OW31417   1.777   2.031   0.492
10173SOL    HW131418   1.773   1.974   0.410
10173SOL    HW231419   1.805   1.975   0.570
10174SOL     OW31420   5.374   5.235   3.190
10174SOL    HW131421   5.362   5.328   3.155
10174SOL    HW231422   5.444   5.188   3.137
10175SOL     OW31423   5.109   2.951   2.898
10175SOL    HW131424   5.023   2.914   2.932
10175SOL    HW231425   5.173   2.962   2.974
10176SOL     OW31426   0.169   2.639   5.002
10176SOL    HW131427   0.100   2.568   4.986
10176SOL    HW231428   0.137   2.726   4.963
10177SOL     OW31429   2.083   0.763   1.059
10177SOL    HW131430   2.101   0.749   1.157
10177SOL    HW231431   2.042   0.680   1.021
10178SOL     OW31432   6.763   0.557   0.335
10178SOL    HW131433   6.839   0.619   0.313
10178SOL    HW231434   6.796   0.462   0.333
10179SOL     OW31435   0.370   2.489   6.890
10179SOL    HW131436   0.469   2.485   6.875
10179SOL    HW231437   0.336   2.398   6.914
10180SOL     OW31438   4.102   0.576   6.623
10180SOL    HW131439   4.177   0.512   6.607
10180SOL    HW231440   4.030   0.562   6.555
10181SOL     OW31441   6.858   2.900   1.512
10181SOL    HW131442   6.775   2.847   1.526
10181SOL    HW231443   6.864   2.974   1.579
10182SOL     OW31444   4.532   0.826   0.791
10182SOL    HW131445   4.511   0.802   0.697
10182SOL    HW231446   4.461   0.791   0.852
10183SOL     OW31447   6.153   2.419   5.690
10183SOL    HW131448   6.126   2.364   5.610
10183SOL    HW231449   6.084   2.489   5.708
10184SOL     OW31450   4.314   1.950   6.483
10184SOL    HW131451   4.369   2.032   6.496
10184SOL    HW231452   4.366   1.869   6.511
10185SOL     OW31453   6.141   6.500   3.096
10185SOL    HW131454   6.232   6.541   3.097
10185SOL    HW231455   6.080   6.553   3.156
10186SOL     OW31456   5.162   4.117   4.454
10186SOL    HW131457   5.187   4.022   4.476
10186SOL    HW231458   5.072   4.119   4.412
10187SOL     OW31459   1.350   4.285   6.881
10187SOL    HW131460   1.300   4.340   6.814
10187SOL    HW231461   1.373   4.342   6.960
10188SOL     OW31462   3.702   4.203   6.823
10188SOL    HW131463   3.682   4.114   6.782
10188SOL    HW231464   3.706   4.194   6.922
10189SOL     OW31465   0.113   1.383   6.767
10189SOL    HW131466   0.145   1.456   6.829
10189SOL    HW231467   0.163   1.299   6.787
10190SOL     OW31468   3.852   3.442   1.215
10190SOL    HW131469   3.934   3.386   1.204
10190SOL    HW231470   3.865   3.506   1.291
10191SOL     OW31471   4.486   5.443   6.404
10191SOL    HW131472   4.551   5.397   6.463
10191SOL    HW231473   4.527   5.459   6.315
10192SOL     OW31474   4.500   0.941   5.323
10192SOL    HW131475   4.541   0.882   5.253
10192SOL    HW231476   4.556   0.938   5.406
10193SOL     OW31477   3.630   3.173   2.361
10193SOL    HW131478   3.628   3.152   2.459
10193SOL    HW231479   3.710   3.228   2.340
10194SOL     OW31480   5.042   0.558   5.241
10194SOL    HW131481   5.035   0.570   5.142
10194SOL    HW231482   5.048   0.647   5.286
10195SOL     OW31483   6.946   6.543   0.409
10195SOL    HW131484   6.967   6.599   0.329
10195SOL    HW231485   6.893   6.463   0.381
10196SOL     OW31486   3.609   2.153   4.302
10196SOL    HW131487   3.708   2.163   4.301
10196SOL    HW231488   3.574   2.145   4.209
10197SOL     OW31489   5.538   2.019   4.364
10197SOL    HW131490   5.481   1.949   4.407
10197SOL    HW231491   5.631   2.012   4.399
10198SOL     OW31492   3.537   6.450   2.183
10198SOL    HW131493   3.611   6.502   2.140
10198SOL    HW231494   3.574   6.395   2.258
10199SOL     OW31495   1.002   2.226   0.680
10199SOL    HW131496   0.959   2.140   0.652
10199SOL    HW231497   0.992   2.237   0.779
10200SOL     OW31498   4.671   3.366   5.348
10200SOL    HW131499   4.590   3.317   5.379
10200SOL    HW231500   4.645   3.445   5.293
10201SOL     OW31501   0.920   5.657   6.959
10201SOL    HW131502   1.008   5.649   6.914
10201SOL    HW231503   0.864   5.577   6.937
10202SOL     OW31504   2.779   4.506   0.240
10202SOL    HW131505   2.698   4.453   0.213
10202SOL    HW231506   2.835   4.523   0.159
10203SOL     OW31507   6.546   2.582   2.358
10203SOL    HW131508   6.617   2.565   2.427
10203SOL    HW231509   6.464   2.528   2.381
10204SOL     OW31510   3.862   5.234   6.485
10204SOL    HW131511   3.879   5.327   6.519
10204SOL    HW231512   3.948   5.194   6.454
10205SOL     OW31513   2.802   0.936   2.253
10205SOL    HW131514   2.757   1.024   2.267
10205SOL    HW231515   2.854   0.939   2.168
10206SOL     OW31516   6.694   0.209   6.819
10206SOL    HW131517   6.596   0.227   6.825
10206SOL    HW231518   6.711   0.111   6.814
10207SOL     OW31519   1.479   1.927   0.400
10207SOL    HW131520   1.461   2.022   0.423
10207SOL    HW231521   1.451   1.909   0.305
10208SOL     OW31522   6.341   5.481   3.448
10208SOL    HW131523   6.347   5.565   3.502
10208SOL    HW231524   6.432   5.441   3.439
10209SOL     OW31525   6.831   6.863   6.592
10209SOL    HW131526   6.845   6.896   6.685
10209SOL    HW231527   6.802   6.938   6.534
10210SOL     OW31528   5.253   6.215   0.807
10210SOL    HW131529   5.241   6.123   0.771
10210SOL    HW231530   5.239   6.215   0.906
10211SOL     OW31531   4.161   6.308   5.021
10211SOL    HW131532   4.234   6.247   5.053
10211SOL    HW231533   4.099   6.329   5.096
10212SOL     OW31534   0.012   6.718   5.465
10212SOL    HW131535   0.087   6.714   5.399
10212SOL    HW231536   6.951   6.731   5.417
10213SOL     OW31537   5.563   3.270   2.472
10213SOL    HW131538   5.564   3.209   2.393
10213SOL    HW231539   5.471   3.273   2.511
10214SOL     OW31540   0.859   1.732   1.609
10214SOL    HW131541   0.854   1.809   1.673
10214SOL    HW231542   0.861   1.767   1.516
10215SOL     OW31543   3.369   2.900   3.494
10215SOL    HW131544   3.303   2.894   3.420
10215SOL    HW231545   3.332   2.957   3.568
10216SOL     OW31546   0.968   1.057   0.888
10216SOL    HW131547   1.019   0.971   0.895
10216SOL    HW231548   0.890   1.055   0.951
10217SOL     OW31549   1.997   2.418   3.833
10217SOL    HW131550   1.951   2.386   3.750
10217SOL    HW231551   1.941   2.489   3.877
10218SOL     OW31552   1.428   0.484   1.702
10218SOL    HW131553   1.468   0.407   1.751
10218SOL    HW231554   1.473   0.569   1.731
10219SOL     OW31555   0.457   2.353   2.740
10219SOL    HW131556   0.376   2.294   2.739
10219SOL    HW231557   0.514   2.330   2.819
10220SOL     OW31558   4.126   1.365   1.532
10220SOL    HW131559   4.086   1.402   1.616
10220SOL    HW231560   4.195   1.429   1.497
10221SOL     OW31561   1.873   3.616   4.315
10221SOL    HW131562   1.934   3.685   4.277
10221SOL    HW231563   1.779   3.648   4.309
10222SOL     OW31564   2.460   3.672   5.633
10222SOL    HW131565   2.482   3.618   5.552
10222SOL    HW231566   2.380   3.633   5.679
10223SOL     OW31567   2.489   4.996   0.386
10223SOL    HW131568   2.554   4.923   0.364
10223SOL    HW231569   2.510   5.077   0.331
10224SOL     OW31570   6.420   2.391   5.594
10224SOL    HW131571   6.321   2.384   5.609
10224SOL    HW231572   6.466   2.316   5.643
10225SOL     OW31573   2.112   5.898   6.238
10225SOL    HW131574   2.025   5.857   6.211
10225SOL    HW231575   2.155   5.842   6.308
10226SOL     OW31576   2.192   0.530   6.195
10226SOL    HW131577   2.122   0.553   6.127
10226SOL    HW231578   2.156   0.546   6.287
10227SOL     OW31579   4.802   4.345   0.877
10227SOL    HW131580   4.772   4.250   0.868
10227SOL    HW231581   4.776   4.395   0.794
10228SOL     OW31582   1.122   5.668   1.777
10228SOL    HW131583   1.167   5.587   1.815
10228SOL    HW231584   1.030   5.676   1.815
10229SOL     OW31585   1.713   2.026   4.496
10229SOL    HW131586   1.672   1.937   4.520
10229SOL    HW231587   1.722   2.032   4.396
10230SOL     OW31588   6.334   6.693   3.124
10230SOL    HW131589   6.418   6.707   3.175
10230SOL    HW231590   6.327   6.762   3.051
10231SOL     OW31591   6.262   4.935   5.718
10231SOL    HW131592   6.361   4.950   5.710
10231SOL    HW231593   6.214   5.022   5.710
10232SOL     OW31594   2.746   2.045   4.473
10232SOL    HW131595   2.707   2.002   4.555
10232SOL    HW231596   2.835   2.084   4.495
10233SOL     OW31597   4.466   4.016   5.607
10233SOL    HW131598   4.510   4.038   5.694
10233SOL    HW231599   4.529   3.961   5.552
10234SOL     OW31600   6.259   0.630   6.830
10234SOL    HW131601   6.163   0.631   6.859
10234SOL    HW231602   6.318   0.634   6.910
10235SOL     OW31603   3.480   2.173   0.427
10235SOL    HW131604   3.565   2.207   0.387
10235SOL    HW231605   3.440   2.104   0.366
10236SOL     OW31606   1.803   0.902   1.596
10236SOL    HW131607   1.819   0.925   1.500
10236SOL    HW231608   1.706   0.878   1.608
10237SOL     OW31609   0.051   3.989   6.820
10237SOL    HW131610   0.025   3.962   6.913
10237SOL    HW231611   0.002   4.072   6.794
10238SOL     OW31612   3.847   4.022   2.440
10238SOL    HW131613   3.793   3.951   2.485
10238SOL    HW231614   3.810   4.112   2.462
10239SOL     OW31615   2.038   3.741   5.499
10239SOL    HW131616   2.101   3.699   5.434
10239SOL    HW231617   2.090   3.797   5.563
10240SOL     OW31618   1.818   4.282   2.607
10240SOL    HW131619   1.726   4.283   2.646
10240SOL    HW231620   1.879   4.230   2.667
10241SOL     OW31621   6.704   6.662   2.804
10241SOL    HW131622   6.612   6.622   2.803
10241SOL    HW231623   6.733   6.677   2.899
10242SOL     OW31624   0.213   1.339   1.468
10242SOL    HW131625   0.155   1.375   1.541
10242SOL    HW231626   0.286   1.404   1.448
10243SOL     OW31627   1.602   4.684   2.057
10243SOL    HW131628   1.656   4.664   2.138
10243SOL    HW231629   1.624   4.618   1.985
10244SOL     OW31630   1.671   4.509   0.559
10244SOL    HW131631   1.657   4.592   0.504
10244SOL    HW231632   1.684   4.534   0.655
10245SOL     OW31633   3.149   4.964   0.416
10245SOL    HW131634   3.073   4.937   0.476
10245SOL    HW231635   3.200   5.038   0.459
10246SOL     OW31636   3.302   3.585   3.170
10246SOL    HW131637   3.209   3.553   3.158
10246SOL    HW231638   3.365   3.507   3.168
10247SOL     OW31639   6.696   4.303   6.129
10247SOL    HW131640   6.639   4.286   6.209
10247SOL    HW231641   6.789   4.326   6.160
10248SOL     OW31642   1.591   0.181   3.131
10248SOL    HW131643   1.658   0.130   3.184
10248SOL    HW231644   1.625   0.274   3.115
10249SOL     OW31645   2.896   6.990   6.837
10249SOL    HW131646   2.969   6.923   6.828
10249SOL    HW231647   2.921   0.033   6.906
10250SOL     OW31648   6.406   3.345   1.728
10250SOL    HW131649   6.346   3.364   1.806
10250SOL    HW231650   6.399   3.249   1.704
10251SOL     OW31651   2.224   1.522   4.771
10251SOL    HW131652   2.141   1.514   4.826
10251SOL    HW231653   2.199   1.533   4.675
10252SOL     OW31654   4.223   4.791   0.015
10252SOL    HW131655   4.250   4.885   0.038
10252SOL    HW231656   4.137   4.793   6.989
10253SOL     OW31657   2.928   6.631   0.633
10253SOL    HW131658   2.835   6.668   0.635
10253SOL    HW231659   2.933   6.550   0.691
10254SOL     OW31660   5.202   0.777   5.336
10254SOL    HW131661   5.247   0.751   5.251
10254SOL    HW231662   5.260   0.751   5.413
10255SOL     OW31663   1.460   6.236   1.114
10255SOL    HW131664   1.502   6.275   1.032
10255SOL    HW231665   1.376   6.286   1.136
10256SOL     OW31666   5.797   1.030   2.060
10256SOL    HW131667   5.800   1.128   2.040
10256SOL    HW231668   5.818   0.979   1.977
10257SOL     OW31669   2.376   4.918   4.875
10257SOL    HW131670   2.471   4.901   4.851
10257SOL    HW231671   2.337   4.836   4.918
10258SOL     OW31672   3.430   1.018   3.784
10258SOL    HW131673   3.359   1.007   3.715
10258SOL    HW231674   3.392   1.000   3.874
10259SOL     OW31675   0.939   4.574   3.503
10259SOL    HW131676   0.999   4.524   3.441
10259SOL    HW231677   0.961   4.550   3.597
10260SOL     OW31678   1.008   0.994   3.773
10260SOL    HW131679   0.939   1.063   3.751
10260SOL    HW231680   1.033   1.002   3.870
10261SOL     OW31681   0.014   5.559   3.549
10261SOL    HW131682   6.962   5.596   3.497
10261SOL    HW231683   0.100   5.593   3.512
10262SOL     OW31684   2.131   6.873   5.198
10262SOL    HW131685   2.142   6.868   5.099
10262SOL    HW231686   2.035   6.862   5.222
10263SOL     OW31687   5.396   0.697   6.862
10263SOL    HW131688   5.388   0.792   6.835
10263SOL    HW231689   5.310   0.666   6.902
10264SOL     OW31690   5.570   1.223   6.913
10264SOL    HW131691   5.609   1.131   6.919
10264SOL    HW231692   5.533   1.238   6.822
10265SOL     OW31693   2.470   2.453   2.237
10265SOL    HW131694   2.450   2.500   2.151
10265SOL    HW231695   2.567   2.429   2.241
10266SOL     OW31696   3.677   2.910   3.781
10266SOL    HW131697   3.705   2.814   3.783
10266SOL    HW231698   3.705   2.954   3.866
10267SOL     OW31699   6.040   2.308   6.927
10267SOL    HW131700   6.116   2.311   6.991
10267SOL    HW231701   5.975   2.381   6.949
10268SOL     OW31702   5.731   5.675   2.513
10268SOL    HW131703   5.707   5.655   2.418
10268SOL    HW231704   5.801   5.746   2.515
10269SOL     OW31705   0.670   3.238   0.051
10269SOL    HW131706   0.762   3.202   0.041
10269SOL    HW231707   0.674   3.338   0.056
10270SOL     OW31708   3.377   4.928   2.833
10270SOL    HW131709   3.348   4.834   2.855
10270SOL    HW231710   3.474   4.927   2.808
10271SOL     OW31711   3.611   2.712   5.933
10271SOL    HW131712   3.533   2.775   5.936
10271SOL    HW231713   3.588   2.628   5.982
10272SOL     OW31714   0.902   0.794   4.407
10272SOL    HW131715   0.848   0.809   4.325
10272SOL    HW231716   0.870   0.713   4.455
10273SOL     OW31717   2.992   5.862   2.537
10273SOL    HW131718   2.961   5.772   2.567
10273SOL    HW231719   3.061   5.851   2.465
10274SOL     OW31720   6.909   5.444   4.525
10274SOL    HW131721   6.923   5.405   4.616
10274SOL    HW231722   6.992   5.429   4.470
10275SOL     OW31723   0.537   6.921   1.812
10275SOL    HW131724   0.438   6.936   1.822
10275SOL    HW231725   0.555   6.886   1.720
10276SOL     OW31726   5.635   5.095   5.398
10276SOL    HW131727   5.599   5.169   5.341
10276SOL    HW231728   5.656   5.016   5.340
10277SOL     OW31729   2.084   5.096   3.575
10277SOL    HW131730   2.096   5.051   3.486
10277SOL    HW231731   2.019   5.044   3.630
10278SOL     OW31732   6.871   1.585   4.724
10278SOL    HW131733   6.793   1.561   4.667
10278SOL    HW231734   6.873   1.526   4.805
10279SOL     OW31735   2.804   4.846   3.647
10279SOL    HW131736   2.744   4.913   3.691
10279SOL    HW231737   2.899   4.863   3.675
10280SOL     OW31738   0.183   2.858   0.869
10280SOL    HW131739   0.282   2.860   0.882
10280SOL    HW231740   0.140   2.919   0.936
10281SOL     OW31741   6.025   1.445   2.675
10281SOL    HW131742   5.999   1.411   2.765
10281SOL    HW231743   6.124   1.459   2.672
10282SOL     OW31744   5.397   4.359   4.731
10282SOL    HW131745   5.477   4.300   4.735
10282SOL    HW231746   5.384   4.404   4.819
10283SOL     OW31747   1.126   3.053   0.462
10283SOL    HW131748   1.190   3.127   0.479
10283SOL    HW231749   1.116   3.037   0.364
10284SOL     OW31750   4.746   2.917   5.182
10284SOL    HW131751   4.837   2.956   5.191
10284SOL    HW231752   4.684   2.963   5.247
10285SOL     OW31753   5.408   0.554   2.044
10285SOL    HW131754   5.490   0.560   2.102
10285SOL    HW231755   5.329   0.529   2.100
10286SOL     OW31756   3.031   1.731   3.843
10286SOL    HW131757   3.044   1.805   3.909
10286SOL    HW231758   3.055   1.644   3.886
10287SOL     OW31759   2.109   6.509   1.193
10287SOL    HW131760   2.102   6.426   1.249
10287SOL    HW231761   2.204   6.523   1.166
10288SOL     OW31762   4.710   6.715   3.723
10288SOL    HW131763   4.741   6.673   3.637
10288SOL    HW231764   4.788   6.757   3.769
10289SOL     OW31765   1.329   6.489   1.484
10289SOL    HW131766   1.398   6.498   1.411
10289SOL    HW231767   1.288   6.578   1.501
10290SOL     OW31768   3.292   4.131   2.171
10290SOL    HW131769   3.314   4.058   2.107
10290SOL    HW231770   3.276   4.217   2.121
10291SOL     OW31771   3.814   1.401   2.815
10291SOL    HW131772   3.715   1.415   2.811
10291SOL    HW231773   3.856   1.429   2.729
10292SOL     OW31774   1.501   0.659   5.128
10292SOL    HW131775   1.509   0.748   5.172
10292SOL    HW231776   1.454   0.669   5.041
10293SOL     OW31777   1.894   4.385   3.509
10293SOL    HW131778   1.893   4.287   3.492
10293SOL    HW231779   1.968   4.428   3.458
10294SOL     OW31780   5.720   3.086   2.945
10294SOL    HW131781   5.679   3.097   2.855
10294SOL    HW231782   5.652   3.051   3.009
10295SOL     OW31783   6.099   5.065   6.042
10295SOL    HW131784   6.112   5.125   6.120
10295SOL    HW231785   6.102   4.970   6.072
10296SOL     OW31786   4.593   2.052   0.528
10296SOL    HW131787   4.663   2.025   0.594
10296SOL    HW231788   4.630   2.048   0.435
10297SOL     OW31789   2.235   0.024   6.967
10297SOL    HW131790   2.290   0.015   6.883
10297SOL    HW231791   2.150   6.999   6.956
10298SOL     OW31792   3.020   4.414   1.423
10298SOL    HW131793   2.942   4.439   1.365
10298SOL    HW231794   3.005   4.447   1.516
10299SOL     OW31795   4.740   5.474   3.076
10299SOL    HW131796   4.802   5.550   3.093
10299SOL    HW231797   4.682   5.495   2.997
10300SOL     OW31798   1.012   3.650   3.632
10300SOL    HW131799   0.996   3.631   3.729
10300SOL    HW231800   0.926   3.638   3.581
10301SOL     OW31801   5.405   2.852   4.516
10301SOL    HW131802   5.470   2.919   4.552
10301SOL    HW231803   5.455   2.776   4.475
10302SOL     OW31804   2.305   6.442   4.268
10302SOL    HW131805   2.247   6.480   4.196
10302SOL    HW231806   2.265   6.462   4.358
10303SOL     OW31807   1.810   6.285   2.609
10303SOL    HW131808   1.858   6.199   2.593
10303SOL    HW231809   1.745   6.274   2.685
10304SOL     OW31810   5.455   6.939   1.988
10304SOL    HW131811   5.386   7.011   1.999
10304SOL    HW231812   5.420   6.853   2.026
10305SOL     OW31813   1.023   4.362   0.290
10305SOL    HW131814   1.045   4.279   0.341
10305SOL    HW231815   1.027   4.343   0.192
10306SOL     OW31816   4.766   6.916   6.293
10306SOL    HW131817   4.763   6.912   6.193
10306SOL    HW231818   4.695   6.857   6.331
10307SOL     OW31819   2.434   1.972   5.284
10307SOL    HW131820   2.457   2.058   5.330
10307SOL    HW231821   2.408   1.992   5.190
10308SOL     OW31822   2.383   5.127   3.732
10308SOL    HW131823   2.332   5.050   3.692
10308SOL    HW231824   2.320   5.204   3.745
10309SOL     OW31825   6.686   1.991   5.018
10309SOL    HW131826   6.731   1.926   5.079
10309SOL    HW231827   6.623   2.048   5.071
10310SOL     OW31828   3.301   3.831   1.428
10310SOL    HW131829   3.350   3.825   1.341
10310SOL    HW231830   3.235   3.756   1.435
10311SOL     OW31831   0.637   6.131   0.400
10311SOL    HW131832   0.710   6.189   0.364
10311SOL    HW231833   0.549   6.178   0.390
10312SOL     OW31834   3.086   5.849   2.191
10312SOL    HW131835   3.043   5.868   2.103
10312SOL    HW231836   3.148   5.771   2.182
10313SOL     OW31837   4.767   6.839   1.810
10313SOL    HW131838   4.828   6.763   1.830
10313SOL    HW231839   4.815   6.908   1.756
10314SOL     OW31840   6.466   0.764   1.973
10314SOL    HW131841   6.404   0.687   1.959
10314SOL    HW231842   6.517   0.752   2.058
10315SOL     OW31843   5.595   6.241   4.416
10315SOL    HW131844   5.503   6.277   4.401
10315SOL    HW231845   5.661   6.301   4.371
10316SOL     OW31846   6.692   2.874   4.776
10316SOL    HW131847   6.616   2.831   4.727
10316SOL    HW231848   6.678   2.863   4.874
10317SOL     OW31849   3.546   5.616   5.168
10317SOL    HW131850   3.595   5.616   5.081
10317SOL    HW231851   3.456   5.573   5.155
10318SOL     OW31852   5.214   5.614   6.174
10318SOL    HW131853   5.300   5.645   6.134
10318SOL    HW231854   5.200   5.517   6.153
10319SOL     OW31855   1.479   2.129   5.908
10319SOL    HW131856   1.567   2.168   5.936
10319SOL    HW231857   1.415   2.203   5.887
10320SOL     OW31858   0.546   0.543   3.098
10320SOL    HW131859   0.448   0.554   3.117
10320SOL    HW231860   0.599   0.597   3.163
10321SOL     OW31861   4.166   0.743   2.572
10321SOL    HW131862   4.117   0.808   2.629
10321SOL    HW231863   4.259   0.731   2.607
10322SOL     OW31864   6.385   5.492   6.484
10322SOL    HW131865   6.331   5.410   6.470
10322SOL    HW231866   6.461   5.472   6.546
10323SOL     OW31867   6.361   3.847   5.945
10323SOL    HW131868   6.366   3.944   5.921
10323SOL    HW231869   6.336   3.793   5.864
10324SOL     OW31870   3.154   3.021   2.690
10324SOL    HW131871   3.073   2.980   2.650
10324SOL    HW231872   3.231   2.957   2.682
10325SOL     OW31873   0.099   3.532   3.045
10325SOL    HW131874   0.149   3.584   2.975
10325SOL    HW231875   0.018   3.584   3.073
10326SOL     OW31876   4.202   3.487   0.641
10326SOL    HW131877   4.127   3.431   0.678
10326SOL    HW231878   4.204   3.478   0.542
10327SOL     OW31879   2.680   2.394   1.782
10327SOL    HW131880   2.773   2.396   1.818
10327SOL    HW231881   2.617   2.359   1.852
10328SOL     OW31882   6.242   2.334   1.806
10328SOL    HW131883   6.224   2.422   1.762
10328SOL    HW231884   6.217   2.338   1.902
10329SOL     OW31885   3.512   0.227   3.359
10329SOL    HW131886   3.453   0.234   3.278
10329SOL    HW231887   3.455   0.223   3.441
10330SOL     OW31888   4.008   6.680   1.899
10330SOL    HW131889   4.105   6.702   1.892
10330SOL    HW231890   3.980   6.679   1.995
10331SOL     OW31891   6.626   1.221   4.575
10331SOL    HW131892   6.621   1.181   4.667
10331SOL    HW231893   6.659   1.152   4.510
10332SOL     OW31894   6.229   0.956   1.116
10332SOL    HW131895   6.203   0.954   1.212
10332SOL    HW231896   6.226   0.863   1.078
10333SOL     OW31897   6.434   4.753   4.509
10333SOL    HW131898   6.340   4.756   4.544
10333SOL    HW231899   6.495   4.721   4.581
10334SOL     OW31900   3.540   6.263   3.930
10334SOL    HW131901   3.497   6.266   3.840
10334SOL    HW231902   3.473   6.288   4.000
10335SOL     OW31903   2.997   4.249   6.638
10335SOL    HW131904   2.965   4.336   6.677
10335SOL    HW231905   3.075   4.267   6.578
10336SOL     OW31906   5.899   0.292   2.738
10336SOL    HW131907   5.879   0.324   2.831
10336SOL    HW231908   5.984   0.239   2.739
10337SOL     OW31909   6.978   6.540   5.672
10337SOL    HW131910   6.979   6.612   5.603
10337SOL    HW231911   0.020   6.470   5.649
10338SOL     OW31912   2.223   6.078   1.568
10338SOL    HW131913   2.251   6.155   1.511
10338SOL    HW231914   2.157   6.110   1.636
10339SOL     OW31915   2.793   5.391   7.005
10339SOL    HW131916   2.881   5.394   6.956
10339SOL    HW231917   2.763   5.296   7.012
10340SOL     OW31918   1.450   5.470   1.174
10340SOL    HW131919   1.439   5.371   1.166
10340SOL    HW231920   1.375   5.507   1.229
10341SOL     OW31921   2.080   3.281   2.046
10341SOL    HW131922   2.144   3.355   2.027
10341SOL    HW231923   1.994   3.297   1.998
10342SOL     OW31924   1.256   6.718   4.862
10342SOL    HW131925   1.234   6.689   4.769
10342SOL    HW231926   1.349   6.755   4.864
10343SOL     OW31927   2.790   5.074   0.453
10343SOL    HW131928   2.729   5.083   0.532
10343SOL    HW231929   2.776   5.152   0.391
10344SOL     OW31930   3.986   4.441   1.595
10344SOL    HW131931   4.082   4.446   1.622
10344SOL    HW231932   3.938   4.524   1.626
10345SOL     OW31933   1.943   0.884   6.685
10345SOL    HW131934   1.854   0.897   6.642
10345SOL    HW231935   1.981   0.973   6.711
10346SOL     OW31936   6.066   0.348   1.787
10346SOL    HW131937   6.092   0.410   1.714
10346SOL    HW231938   5.969   0.325   1.780
10347SOL     OW31939   5.297   2.354   2.267
10347SOL    HW131940   5.223   2.416   2.239
10347SOL    HW231941   5.266   2.259   2.257
10348SOL     OW31942   6.289   1.518   0.262
10348SOL    HW131943   6.388   1.518   0.277
10348SOL    HW231944   6.241   1.510   0.349
10349SOL     OW31945   6.409   1.287   1.613
10349SOL    HW131946   6.376   1.230   1.537
10349SOL    HW231947   6.467   1.233   1.673
10350SOL     OW31948   2.385   5.894   5.660
10350SOL    HW131949   2.288   5.881   5.637
10350SOL    HW231950   2.402   5.992   5.676
10351SOL     OW31951   4.642   5.082   6.381
10351SOL    HW131952   4.651   5.172   6.340
10351SOL    HW231953   4.623   5.014   6.309
10352SOL     OW31954   4.836   2.400   0.082
10352SOL    HW131955   4.777   2.409   0.162
10352SOL    HW231956   4.883   2.312   0.084
10353SOL     OW31957   6.378   2.942   5.515
10353SOL    HW131958   6.344   2.944   5.609
10353SOL    HW231959   6.302   2.957   5.452
10354SOL     OW31960   5.978   2.007   2.290
10354SOL    HW131961   6.060   1.983   2.239
10354SOL    HW231962   6.002   2.068   2.365
10355SOL     OW31963   2.027   0.157   2.178
10355SOL    HW131964   1.939   0.206   2.183
10355SOL    HW231965   2.097   0.219   2.143
10356SOL     OW31966   6.634   4.277   5.745
10356SOL    HW131967   6.697   4.289   5.668
10356SOL    HW231968   6.667   4.204   5.804
10357SOL     OW31969   2.990   2.740   6.520
10357SOL    HW131970   2.966   2.801   6.445
10357SOL    HW231971   3.068   2.683   6.494
10358SOL     OW31972   5.889   3.643   3.689
10358SOL    HW131973   5.989   3.647   3.691
10358SOL    HW231974   5.852   3.732   3.717
10359SOL     OW31975   5.715   1.434   1.679
10359SOL    HW131976   5.674   1.396   1.596
10359SOL    HW231977   5.811   1.409   1.684
10360SOL     OW31978   4.658   5.311   1.542
10360SOL    HW131979   4.682   5.222   1.503
10360SOL    HW231980   4.722   5.333   1.616
10361SOL     OW31981   2.996   1.428   2.964
10361SOL    HW131982   3.064   1.425   2.891
10361SOL    HW231983   2.954   1.337   2.974
10362SOL     OW31984   0.355   5.402   3.674
10362SOL    HW131985   0.261   5.369   3.684
10362SOL    HW231986   0.418   5.325   3.683
10363SOL     OW31987   4.517   2.640   0.852
10363SOL    HW131988   4.540   2.582   0.773
10363SOL    HW231989   4.600   2.684   0.886
10364SOL     OW31990   3.510   3.670   1.929
10364SOL    HW131991   3.531   3.704   2.021
10364SOL    HW231992   3.581   3.698   1.865
10365SOL     OW31993   4.969   4.361   5.539
10365SOL    HW131994   4.939   4.331   5.630
10365SOL    HW231995   4.929   4.301   5.470
10366SOL     OW31996   4.016   0.001   4.371
10366SOL    HW131997   3.963   0.076   4.333
10366SOL    HW231998   4.014   0.006   4.471
10367SOL     OW31999   6.786   2.160   2.328
10367SOL    HW132000   6.766   2.093   2.257
10367SOL    HW232001   6.770   2.119   2.418
10368SOL     OW32002   2.399   1.157   2.670
10368SOL    HW132003   2.386   1.224   2.743
10368SOL    HW232004   2.371   1.066   2.702
10369SOL     OW32005   2.741   1.092   5.569
10369SOL    HW132006   2.784   1.011   5.610
10369SOL    HW232007   2.767   1.098   5.473
10370SOL     OW32008   5.585   1.186   5.178
10370SOL    HW132009   5.676   1.150   5.156
10370SOL    HW232010   5.583   1.284   5.160
10371SOL     OW32011   2.103   6.121   4.440
10371SOL    HW132012   2.127   6.113   4.343
10371SOL    HW232013   2.182   6.098   4.496
10372SOL     OW32014   1.709   0.999   6.930
10372SOL    HW132015   1.718   0.910   6.975
10372SOL    HW232016   1.625   0.999   6.874
10373SOL     OW32017   1.886   6.783   5.278
10373SOL    HW132018   1.865   6.815   5.370
10373SOL    HW232019   1.801   6.757   5.231
10374SOL     OW32020   3.019   1.113   3.388
10374SOL    HW132021   3.012   1.213   3.395
10374SOL    HW232022   2.964   1.071   3.460
10375SOL     OW32023   2.551   1.801   6.466
10375SOL    HW132024   2.464   1.788   6.418
10375SOL    HW232025   2.606   1.869   6.417
10376SOL     OW32026   1.214   5.646   3.643
10376SOL    HW132027   1.134   5.595   3.675
10376SOL    HW232028   1.217   5.644   3.543
10377SOL     OW32029   6.516   1.076   3.579
10377SOL    HW132030   6.524   1.037   3.488
10377SOL    HW232031   6.602   1.121   3.604
10378SOL     OW32032   5.558   6.532   5.499
10378SOL    HW132033   5.648   6.574   5.504
10378SOL    HW232034   5.503   6.579   5.430
10379SOL     OW32035   3.877   6.854   3.886
10379SOL    HW132036   3.929   6.929   3.928
10379SOL    HW232037   3.784   6.854   3.923
10380SOL     OW32038   0.824   2.368   5.223
10380SOL    HW132039   0.774   2.285   5.248
10380SOL    HW232040   0.889   2.391   5.296
10381SOL     OW32041   4.056   4.899   0.577
10381SOL    HW132042   4.003   4.975   0.614
10381SOL    HW232043   4.138   4.886   0.633
10382SOL     OW32044   1.859   4.641   1.428
10382SOL    HW132045   1.907   4.714   1.477
10382SOL    HW232046   1.807   4.680   1.352
10383SOL     OW32047   0.649   3.938   1.124
10383SOL    HW132048   0.575   3.991   1.082
10383SOL    HW232049   0.610   3.873   1.189
10384SOL     OW32050   6.768   0.342   1.566
10384SOL    HW132051   6.836   0.289   1.617
10384SOL    HW232052   6.767   0.312   1.470
10385SOL     OW32053   4.078   6.232   5.668
10385SOL    HW132054   4.088   6.312   5.728
10385SOL    HW232055   4.101   6.149   5.720
10386SOL     OW32056   6.607   2.216   5.451
10386SOL    HW132057   6.624   2.314   5.458
10386SOL    HW232058   6.561   2.184   5.534
10387SOL     OW32059   4.535   1.558   2.654
10387SOL    HW132060   4.445   1.563   2.611
10387SOL    HW232061   4.604   1.536   2.586
10388SOL     OW32062   1.910   5.588   2.162
10388SOL    HW132063   1.995   5.611   2.209
10388SOL    HW232064   1.876   5.500   2.195
10389SOL     OW32065   6.778   6.468   1.409
10389SOL    HW132066   6.795   6.390   1.349
10389SOL    HW232067   6.807   6.552   1.363
10390SOL     OW32068   1.903   2.534   1.273
10390SOL    HW132069   1.877   2.441   1.298
10390SOL    HW232070   1.830   2.597   1.300
10391SOL     OW32071   0.307   6.510   3.897
10391SOL    HW132072   0.375   6.570   3.939
10391SOL    HW232073   0.316   6.514   3.798
10392SOL     OW32074   6.574   4.202   6.352
10392SOL    HW132075   6.537   4.202   6.445
10392SOL    HW232076   6.527   4.132   6.298
10393SOL     OW32077   2.567   2.293   2.864
10393SOL    HW132078   2.495   2.338   2.811
10393SOL    HW232079   2.526   2.248   2.944
10394SOL     OW32080   2.332   6.124   4.931
10394SOL    HW132081   2.399   6.119   5.005
10394SOL    HW232082   2.296   6.033   4.912
10395SOL     OW32083   6.831   1.016   3.558
10395SOL    HW132084   6.901   1.087   3.568
10395SOL    HW232085   6.872   0.926   3.573
10396SOL     OW32086   3.520   1.264   3.963
10396SOL    HW132087   3.548   1.261   3.867
10396SOL    HW232088   3.526   1.172   4.001
10397SOL     OW32089   2.693   1.523   4.302
10397SOL    HW132090   2.765   1.460   4.332
10397SOL    HW232091   2.719   1.563   4.214
10398SOL     OW32092   4.841   2.439   0.566
10398SOL    HW132093   4.857   2.504   0.640
10398SOL    HW232094   4.908   2.365   0.571
10399SOL     OW32095   4.506   1.682   4.207
10399SOL    HW132096   4.602   1.656   4.204
10399SOL    HW232097   4.450   1.605   4.175
10400SOL     OW32098   4.141   5.626   0.092
10400SOL    HW132099   4.083   5.613   0.173
10400SOL    HW232100   4.140   5.543   0.037
10401SOL     OW32101   6.924   6.996   2.248
10401SOL    HW132102   6.908   0.058   2.203
10401SOL    HW232103   6.869   6.991   2.332
10402SOL     OW32104   6.806   1.923   5.963
10402SOL    HW132105   6.786   1.996   6.028
10402SOL    HW232106   6.857   1.851   6.009
10403SOL     OW32107   4.241   1.474   3.040
10403SOL    HW132108   4.148   1.504   3.058
10403SOL    HW232109   4.242   1.377   3.017
10404SOL     OW32110   6.464   6.942   4.412
10404SOL    HW132111   6.465   6.877   4.487
10404SOL    HW232112   6.556   6.976   4.396
10405SOL     OW32113   1.376   5.864   4.721
10405SOL    HW132114   1.394   5.781   4.667
10405SOL    HW232115   1.436   5.865   4.801
10406SOL     OW32116   2.198   3.328   5.316
10406SOL    HW132117   2.201   3.428   5.315
10406SOL    HW232118   2.145   3.298   5.395
10407SOL     OW32119   2.350   0.425   6.513
10407SOL    HW132120   2.369   0.351   6.577
10407SOL    HW232121   2.319   0.506   6.563
10408SOL     OW32122   4.480   6.222   1.779
10408SOL    HW132123   4.423   6.181   1.850
10408SOL    HW232124   4.489   6.321   1.796
10409SOL     OW32125   0.682   3.893   0.402
10409SOL    HW132126   0.718   3.881   0.310
10409SOL    HW232127   0.693   3.807   0.453
10410SOL     OW32128   5.814   2.447   1.508
10410SOL    HW132129   5.834   2.418   1.414
10410SOL    HW232130   5.723   2.415   1.534
10411SOL     OW32131   3.460   5.844   4.609
10411SOL    HW132132   3.525   5.769   4.603
10411SOL    HW232133   3.386   5.829   4.544
10412SOL     OW32134   6.565   1.368   0.297
10412SOL    HW132135   6.495   1.308   0.336
10412SOL    HW232136   6.580   1.342   0.201
10413SOL     OW32137   6.871   1.990   1.875
10413SOL    HW132138   6.962   2.015   1.907
10413SOL    HW232139   6.824   1.937   1.946
10414SOL     OW32140   3.873   5.805   6.122
10414SOL    HW132141   3.862   5.737   6.195
10414SOL    HW232142   3.920   5.886   6.159
10415SOL     OW32143   1.604   4.509   3.946
10415SOL    HW132144   1.560   4.568   3.878
10415SOL    HW232145   1.643   4.429   3.901
10416SOL     OW32146   6.272   0.044   5.346
10416SOL    HW132147   6.302   0.124   5.399
10416SOL    HW232148   6.176   0.024   5.368
10417SOL     OW32149   4.992   5.606   4.750
10417SOL    HW132150   5.019   5.509   4.749
10417SOL    HW232151   4.895   5.614   4.727
10418SOL     OW32152   6.152   4.224   6.337
10418SOL    HW132153   6.174   4.273   6.421
10418SOL    HW232154   6.179   4.280   6.258
10419SOL     OW32155   3.493   6.984   5.609
10419SOL    HW132156   3.419   6.922   5.581
10419SOL    HW232157   3.569   6.930   5.647
10420SOL     OW32158   6.862   4.083   4.035
10420SOL    HW132159   6.958   4.055   4.048
10420SOL    HW232160   6.851   4.117   3.941
10421SOL     OW32161   1.816   3.417   4.499
10421SOL    HW132162   1.735   3.372   4.462
10421SOL    HW232163   1.847   3.488   4.436
10422SOL     OW32164   6.832   3.298   5.147
10422SOL    HW132165   6.918   3.312   5.197
10422SOL    HW232166   6.842   3.219   5.087
10423SOL     OW32167   4.987   5.354   5.488
10423SOL    HW132168   5.037   5.347   5.575
10423SOL    HW232169   4.889   5.346   5.505
10424SOL     OW32170   3.725   2.916   0.530
10424SOL    HW132171   3.680   2.828   0.512
10424SOL    HW232172   3.713   2.976   0.451
10425SOL     OW32173   0.841   5.837   2.297
10425SOL    HW132174   0.922   5.825   2.240
10425SOL    HW232175   0.847   5.924   2.347
10426SOL     OW32176   5.395   4.487   6.494
10426SOL    HW132177   5.393   4.575   6.447
10426SOL    HW232178   5.373   4.500   6.590
10427SOL     OW32179   5.087   0.841   0.357
10427SOL    HW132180   5.048   0.878   0.273
10427SOL    HW232181   5.157   0.774   0.335
10428SOL     OW32182   3.279   1.426   3.935
10428SOL    HW132183   3.321   1.514   3.914
10428SOL    HW232184   3.351   1.357   3.946
10429SOL     OW32185   0.931   3.703   3.000
10429SOL    HW132186   0.940   3.802   2.986
10429SOL    HW232187   0.838   3.674   2.978
10430SOL     OW32188   3.457   6.556   5.086
10430SOL    HW132189   3.530   6.613   5.126
10430SOL    HW232190   3.399   6.520   5.159
10431SOL     OW32191   2.878   6.552   4.391
10431SOL    HW132192   2.941   6.623   4.422
10431SOL    HW232193   2.784   6.579   4.411
10432SOL     OW32194   6.633   1.065   4.817
10432SOL    HW132195   6.685   0.980   4.815
10432SOL    HW232196   6.609   1.088   4.911
10433SOL     OW32197   0.414   6.924   2.539
10433SOL    HW132198   0.460   6.959   2.620
10433SOL    HW232199   0.315   6.933   2.550
10434SOL     OW32200   2.872   6.479   3.701
10434SOL    HW132201   2.778   6.484   3.668
10434SOL    HW232202   2.875   6.427   3.786
10435SOL     OW32203   2.055   2.132   5.511
10435SOL    HW132204   2.054   2.230   5.530
10435SOL    HW232205   2.122   2.113   5.440
10436SOL     OW32206   6.229   4.006   4.766
10436SOL    HW132207   6.241   4.102   4.742
10436SOL    HW232208   6.143   3.972   4.727
10437SOL     OW32209   6.115   4.657   5.906
10437SOL    HW132210   6.133   4.706   5.991
10437SOL    HW232211   6.032   4.604   5.914
10438SOL     OW32212   1.387   6.337   5.857
10438SOL    HW132213   1.371   6.382   5.946
10438SOL    HW232214   1.327   6.378   5.788
10439SOL     OW32215   5.138   1.126   4.945
10439SOL    HW132216   5.225   1.132   4.993
10439SOL    HW232217   5.134   1.039   4.895
10440SOL     OW32218   0.352   6.904   6.913
10440SOL    HW132219   0.346   6.981   6.849
10440SOL    HW232220   0.442   6.862   6.907
10441SOL     OW32221   2.885   1.531   1.252
10441SOL    HW132222   2.935   1.573   1.176
10441SOL    HW232223   2.884   1.432   1.240
10442SOL     OW32224   4.220   6.746   5.025
10442SOL    HW132225   4.177   6.660   4.996
10442SOL    HW232226   4.150   6.816   5.034
10443SOL     OW32227   5.234   2.327   3.271
10443SOL    HW132228   5.205   2.325   3.366
10443SOL    HW232229   5.192   2.251   3.221
10444SOL     OW32230   3.971   5.610   2.300
10444SOL    HW132231   3.991   5.619   2.397
10444SOL    HW232232   3.874   5.588   2.288
10445SOL     OW32233   0.694   3.619   3.216
10445SOL    HW132234   0.790   3.627   3.243
10445SOL    HW232235   0.684   3.644   3.120
10446SOL     OW32236   2.422   3.297   6.309
10446SOL    HW132237   2.486   3.370   6.283
10446SOL    HW232238   2.329   3.327   6.290
10447SOL     OW32239   0.260   0.565   2.877
10447SOL    HW132240   0.175   0.533   2.919
10447SOL    HW232241   0.300   0.637   2.934
10448SOL     OW32242   4.349   0.629   1.923
10448SOL    HW132243   4.333   0.537   1.960
10448SOL    HW232244   4.397   0.621   1.835
10449SOL     OW32245   1.729   5.909   6.416
10449SOL    HW132246   1.768   5.856   6.340
10449SOL    HW232247   1.688   5.846   6.482
10450SOL     OW32248   6.871   1.411   6.855
10450SOL    HW132249   6.963   1.391   6.821
10450SOL    HW232250   6.807   1.415   6.778
10451SOL     OW32251   1.965   5.858   2.923
10451SOL    HW132252   1.961   5.767   2.965
10451SOL    HW232253   1.972   5.848   2.824
10452SOL     OW32254   6.293   2.930   2.845
10452SOL    HW132255   6.347   3.014   2.856
10452SOL    HW232256   6.279   2.888   2.935
10453SOL     OW32257   5.664   6.244   1.765
10453SOL    HW132258   5.757   6.275   1.785
10453SOL    HW232259   5.666   6.149   1.736
10454SOL     OW32260   6.087   2.588   0.164
10454SOL    HW132261   6.044   2.614   0.250
10454SOL    HW232262   6.130   2.668   0.122
10455SOL     OW32263   0.315   6.503   3.607
10455SOL    HW132264   0.386   6.534   3.544
10455SOL    HW232265   0.332   6.408   3.633
10456SOL     OW32266   1.248   5.129   0.888
10456SOL    HW132267   1.201   5.043   0.870
10456SOL    HW232268   1.276   5.171   0.802
10457SOL     OW32269   3.763   2.747   0.147
10457SOL    HW132270   3.816   2.706   0.073
10457SOL    HW232271   3.786   2.844   0.154
10458SOL     OW32272   6.172   6.937   6.154
10458SOL    HW132273   6.261   6.957   6.113
10458SOL    HW232274   6.100   6.957   6.087
10459SOL     OW32275   4.785   6.069   1.153
10459SOL    HW132276   4.701   6.069   1.098
10459SOL    HW232277   4.769   6.018   1.238
10460SOL     OW32278   1.275   4.025   1.343
10460SOL    HW132279   1.249   3.950   1.282
10460SOL    HW232280   1.296   3.989   1.434
10461SOL     OW32281   6.015   5.091   5.324
10461SOL    HW132282   5.961   5.017   5.364
10461SOL    HW232283   6.001   5.092   5.224
10462SOL     OW32284   5.118   2.604   2.851
10462SOL    HW132285   5.189   2.567   2.790
10462SOL    HW232286   5.149   2.597   2.946
10463SOL     OW32287   4.455   2.531   6.135
10463SOL    HW132288   4.448   2.524   6.036
10463SOL    HW232289   4.365   2.552   6.174
10464SOL     OW32290   6.483   6.491   2.758
10464SOL    HW132291   6.389   6.515   2.732
10464SOL    HW232292   6.537   6.473   2.675
10465SOL     OW32293   5.942   5.424   1.236
10465SOL    HW132294   5.863   5.369   1.209
10465SOL    HW232295   5.918   5.477   1.317
10466SOL     OW32296   4.427   4.696   5.422
10466SOL    HW132297   4.429   4.768   5.491
10466SOL    HW232298   4.512   4.643   5.427
10467SOL     OW32299   2.389   2.064   0.084
10467SOL    HW132300   2.348   1.997   0.146
10467SOL    HW232301   2.443   2.130   0.136
10468SOL     OW32302   3.912   5.191   3.136
10468SOL    HW132303   3.854   5.270   3.159
10468SOL    HW232304   4.007   5.221   3.126
10469SOL     OW32305   3.953   4.270   5.587
10469SOL    HW132306   3.993   4.282   5.496
10469SOL    HW232307   3.894   4.349   5.608
10470SOL     OW32308   1.681   2.107   3.855
10470SOL    HW132309   1.780   2.095   3.863
10470SOL    HW232310   1.660   2.203   3.835
10471SOL     OW32311   2.362   0.322   0.491
10471SOL    HW132312   2.417   0.263   0.432
10471SOL    HW232313   2.422   0.384   0.541
10472SOL     OW32314   3.469   5.956   0.526
10472SOL    HW132315   3.385   5.981   0.573
10472SOL    HW232316   3.542   6.018   0.553
10473SOL     OW32317   6.077   6.957   6.874
10473SOL    HW132318   6.043   6.956   6.780
10473SOL    HW232319   6.177   6.962   6.874
10474SOL     OW32320   4.686   1.148   3.873
10474SOL    HW132321   4.627   1.218   3.833
10474SOL    HW232322   4.631   1.080   3.921
10475SOL     OW32323   4.374   6.208   1.192
10475SOL    HW132324   4.466   6.209   1.151
10475SOL    HW232325   4.338   6.301   1.194
10476SOL     OW32326   6.398   6.443   6.722
10476SOL    HW132327   6.461   6.431   6.645
10476SOL    HW232328   6.316   6.388   6.706
10477SOL     OW32329   6.370   1.108   4.755
10477SOL    HW132330   6.458   1.086   4.798
10477SOL    HW232331   6.345   1.202   4.778
10478SOL     OW32332   6.530   0.676   0.941
10478SOL    HW132333   6.621   0.716   0.955
10478SOL    HW232334   6.526   0.632   0.851
10479SOL     OW32335   6.884   1.643   2.889
10479SOL    HW132336   6.860   1.673   2.981
10479SOL    HW232337   6.939   1.560   2.895
10480SOL     OW32338   0.826   0.644   2.015
10480SOL    HW132339   0.884   0.612   1.940
10480SOL    HW232340   0.739   0.594   2.014
10481SOL     OW32341   2.074   5.854   4.086
10481SOL    HW132342   2.095   5.952   4.092
10481SOL    HW232343   2.157   5.803   4.062
10482SOL     OW32344   6.643   4.990   4.150
10482SOL    HW132345   6.550   4.956   4.137
10482SOL    HW232346   6.691   4.933   4.217
10483SOL     OW32347   6.317   5.017   0.439
10483SOL    HW132348   6.359   4.929   0.417
10483SOL    HW232349   6.364   5.059   0.516
10484SOL     OW32350   5.752   1.894   1.566
10484SOL    HW132351   5.838   1.863   1.607
10484SOL    HW232352   5.747   1.993   1.570
10485SOL     OW32353   2.899   3.919   0.641
10485SOL    HW132354   2.885   3.825   0.673
10485SOL    HW232355   2.914   3.919   0.542
10486SOL     OW32356   0.160   0.715   0.520
10486SOL    HW132357   0.123   0.697   0.429
10486SOL    HW232358   0.133   0.641   0.582
10487SOL     OW32359   4.626   0.609   1.145
10487SOL    HW132360   4.667   0.633   1.057
10487SOL    HW232361   4.661   0.670   1.216
10488SOL     OW32362   2.993   1.177   6.049
10488SOL    HW132363   2.971   1.205   6.143
10488SOL    HW232364   3.079   1.126   6.049
10489SOL     OW32365   0.906   6.834   5.564
10489SOL    HW132366   0.994   6.860   5.604
10489SOL    HW232367   0.899   6.734   5.561
10490SOL     OW32368   5.615   1.184   0.976
10490SOL    HW132369   5.596   1.254   1.044
10490SOL    HW232370   5.587   1.094   1.011
10491SOL     OW32371   1.998   2.849   0.101
10491SOL    HW132372   2.086   2.802   0.105
10491SOL    HW232373   1.933   2.801   0.161
10492SOL     OW32374   5.793   4.747   6.503
10492SOL    HW132375   5.793   4.649   6.525
10492SOL    HW232376   5.721   4.765   6.435
10493SOL     OW32377   3.517   0.992   2.191
10493SOL    HW132378   3.435   1.009   2.138
10493SOL    HW232379   3.579   0.932   2.140
10494SOL     OW32380   5.360   4.337   5.959
10494SOL    HW132381   5.372   4.363   6.054
10494SOL    HW232382   5.341   4.418   5.904
10495SOL     OW32383   1.463   7.016   0.189
10495SOL    HW132384   1.543   6.963   0.216
10495SOL    HW232385   1.484   0.042   0.105
10496SOL     OW32386   0.003   3.687   6.212
10496SOL    HW132387   0.034   3.691   6.117
10496SOL    HW232388   6.979   3.602   6.228
10497SOL     OW32389   2.346   6.552   2.205
10497SOL    HW132390   2.355   6.481   2.275
10497SOL    HW232391   2.249   6.572   2.191
10498SOL     OW32392   4.169   5.876   0.486
10498SOL    HW132393   4.258   5.922   0.488
10498SOL    HW232394   4.166   5.807   0.558
10499SOL     OW32395   3.786   7.001   1.983
10499SOL    HW132396   3.711   0.038   2.004
10499SOL    HW232397   3.796   6.994   1.884
10500SOL     OW32398   6.088   1.468   6.371
10500SOL    HW132399   6.002   1.460   6.422
10500SOL    HW232400   6.162   1.490   6.434
10501SOL     OW32401   2.140   5.652   2.285
10501SOL    HW132402   2.237   5.664   2.264
10501SOL    HW232403   2.130   5.621   2.379
10502SOL     OW32404   2.513   0.437   1.787
10502SOL    HW132405   2.592   0.472   1.837
10502SOL    HW232406   2.485   0.505   1.719
10503SOL     OW32407   4.135   2.746   0.703
10503SOL    HW132408   4.088   2.667   0.743
10503SOL    HW232409   4.067   2.810   0.667
10504SOL     OW32410   0.502   1.954   5.761
10504SOL    HW132411   0.542   1.877   5.812
10504SOL    HW232412   0.555   1.968   5.677
10505SOL     OW32413   5.527   5.227   0.686
10505SOL    HW132414   5.474   5.279   0.619
10505SOL    HW232415   5.621   5.216   0.653
10506SOL     OW32416   0.015   4.515   0.566
10506SOL    HW132417   0.100   4.475   0.602
10506SOL    HW232418   7.010   4.588   0.627
10507SOL     OW32419   2.340   6.868   0.161
10507SOL    HW132420   2.355   6.927   0.082
10507SOL    HW232421   2.348   6.772   0.134
10508SOL     OW32422   6.289   6.548   4.454
10508SOL    HW132423   6.260   6.636   4.494
10508SOL    HW232424   6.228   6.524   4.379
10509SOL     OW32425   1.180   5.441   4.267
10509SOL    HW132426   1.195   5.508   4.194
10509SOL    HW232427   1.086   5.406   4.262
10510SOL     OW32428   4.520   5.979   6.347
10510SOL    HW132429   4.575   5.899   6.373
10510SOL    HW232430   4.581   6.056   6.329
10511SOL     OW32431   3.836   0.990   2.283
10511SOL    HW132432   3.804   0.908   2.234
10511SOL    HW232433   3.772   1.010   2.357
10512SOL     OW32434   4.012   0.443   6.241
10512SOL    HW132435   3.955   0.470   6.164
10512SOL    HW232436   4.067   0.521   6.272
10513SOL     OW32437   5.800   2.600   4.666
10513SOL    HW132438   5.714   2.632   4.629
10513SOL    HW232439   5.862   2.678   4.680
10514SOL     OW32440   0.363   3.706   1.090
10514SOL    HW132441   0.398   3.697   1.183
10514SOL    HW232442   0.263   3.710   1.092
10515SOL     OW32443   0.835   3.259   3.460
10515SOL    HW132444   0.813   3.180   3.517
10515SOL    HW232445   0.816   3.237   3.364
10516SOL     OW32446   3.729   1.149   0.084
10516SOL    HW132447   3.820   1.127   0.120
10516SOL    HW232448   3.668   1.172   0.160
10517SOL     OW32449   1.129   2.575   2.727
10517SOL    HW132450   1.073   2.657   2.720
10517SOL    HW232451   1.154   2.560   2.823
10518SOL     OW32452   0.814   5.959   6.204
10518SOL    HW132453   0.778   5.963   6.110
10518SOL    HW232454   0.864   5.874   6.217
10519SOL     OW32455   2.487   3.712   6.888
10519SOL    HW132456   2.562   3.647   6.879
10519SOL    HW232457   2.439   3.720   6.801
10520SOL     OW32458   0.628   2.704   6.202
10520SOL    HW132459   0.593   2.750   6.120
10520SOL    HW232460   0.718   2.743   6.226
10521SOL     OW32461   6.529   6.516   2.237
10521SOL    HW132462   6.475   6.600   2.242
10521SOL    HW232463   6.596   6.523   2.163
10522SOL     OW32464   0.760   0.654   5.241
10522SOL    HW132465   0.765   0.725   5.170
10522SOL    HW232466   0.829   0.584   5.223
10523SOL     OW32467   0.139   4.957   3.679
10523SOL    HW132468   0.150   5.026   3.750
10523SOL    HW232469   0.227   4.914   3.659
10524SOL     OW32470   1.968   0.374   4.749
10524SOL    HW132471   2.001   0.446   4.810
10524SOL    HW232472   2.029   0.294   4.757
10525SOL     OW32473   3.743   6.360   6.712
10525SOL    HW132474   3.714   6.293   6.780
10525SOL    HW232475   3.664   6.387   6.656
10526SOL     OW32476   1.536   0.213   3.868
10526SOL    HW132477   1.480   0.206   3.786
10526SOL    HW232478   1.516   0.299   3.916
10527SOL     OW32479   0.187   1.613   4.875
10527SOL    HW132480   0.246   1.572   4.946
10527SOL    HW232481   0.094   1.623   4.911
10528SOL     OW32482   1.577   3.334   6.239
10528SOL    HW132483   1.617   3.242   6.230
10528SOL    HW232484   1.497   3.341   6.180
10529SOL     OW32485   3.308   5.587   3.571
10529SOL    HW132486   3.356   5.541   3.646
10529SOL    HW232487   3.227   5.634   3.608
10530SOL     OW32488   1.763   6.844   6.848
10530SOL    HW132489   1.774   6.940   6.824
10530SOL    HW232490   1.692   6.803   6.790
10531SOL     OW32491   1.410   2.879   4.196
10531SOL    HW132492   1.407   2.957   4.134
10531SOL    HW232493   1.434   2.909   4.288
10532SOL     OW32494   1.328   6.093   5.435
10532SOL    HW132495   1.297   6.076   5.341
10532SOL    HW232496   1.255   6.138   5.486
10533SOL     OW32497   2.909   0.733   4.707
10533SOL    HW132498   2.815   0.700   4.708
10533SOL    HW232499   2.921   0.802   4.777
10534SOL     OW32500   0.205   6.124   1.292
10534SOL    HW132501   0.284   6.166   1.336
10534SOL    HW232502   0.181   6.039   1.339
10535SOL     OW32503   1.229   1.977   1.622
10535SOL    HW132504   1.162   1.918   1.578
10535SOL    HW232505   1.294   1.921   1.674
10536SOL     OW32506   4.263   0.074   3.134
10536SOL    HW132507   4.247   0.170   3.156
10536SOL    HW232508   4.321   0.067   3.053
10537SOL     OW32509   3.859   5.918   3.806
10537SOL    HW132510   3.768   5.929   3.768
10537SOL    HW232511   3.911   5.853   3.750
10538SOL     OW32512   5.157   2.042   1.097
10538SOL    HW132513   5.128   2.137   1.098
10538SOL    HW232514   5.216   2.025   1.018
10539SOL     OW32515   0.672   4.501   0.284
10539SOL    HW132516   0.586   4.520   0.331
10539SOL    HW232517   0.653   4.482   0.187
10540SOL     OW32518   1.494   2.102   5.313
10540SOL    HW132519   1.575   2.120   5.256
10540SOL    HW232520   1.495   2.162   5.393
10541SOL     OW32521   3.593   4.126   2.537
10541SOL    HW132522   3.507   4.103   2.492
10541SOL    HW232523   3.581   4.122   2.636
10542SOL     OW32524   6.779   0.018   5.520
10542SOL    HW132525   6.824   0.030   5.609
10542SOL    HW232526   6.818   0.083   5.455
10543SOL     OW32527   0.340   1.026   4.745
10543SOL    HW132528   0.332   1.086   4.666
10543SOL    HW232529   0.249   0.998   4.775
10544SOL     OW32530   2.630   6.381   1.525
10544SOL    HW132531   2.690   6.448   1.568
10544SOL    HW232532   2.569   6.427   1.460
10545SOL     OW32533   6.602   1.512   2.208
10545SOL    HW132534   6.683   1.473   2.165
10545SOL    HW232535   6.602   1.489   2.305
10546SOL     OW32536   2.082   0.782   6.904
10546SOL    HW132537   2.012   0.750   6.968
10546SOL    HW232538   2.038   0.808   6.818
10547SOL     OW32539   5.356   2.799   2.355
10547SOL    HW132540   5.357   2.792   2.256
10547SOL    HW232541   5.280   2.745   2.392
10548SOL     OW32542   5.461   4.812   4.104
10548SOL    HW132543   5.517   4.774   4.177
10548SOL    HW232544   5.442   4.742   4.036
10549SOL     OW32545   0.561   6.861   2.153
10549SOL    HW132546   0.588   6.856   2.057
10549SOL    HW232547   0.521   6.951   2.172
10550SOL     OW32548   4.430   6.385   3.927
10550SOL    HW132549   4.436   6.341   4.016
10550SOL    HW232550   4.335   6.387   3.897
10551SOL     OW32551   1.233   2.071   6.255
10551SOL    HW132552   1.238   2.102   6.350
10551SOL    HW232553   1.295   2.126   6.198
10552SOL     OW32554   2.770   1.365   5.953
10552SOL    HW132555   2.775   1.361   5.853
10552SOL    HW232556   2.848   1.316   5.992
10553SOL     OW32557   0.992   4.421   2.313
10553SOL    HW132558   1.004   4.462   2.223
10553SOL    HW232559   0.965   4.325   2.302
10554SOL     OW32560   5.184   5.130   0.225
10554SOL    HW132561   5.135   5.217   0.213
10554SOL    HW232562   5.118   5.056   0.239
10555SOL     OW32563   2.053   2.955   0.720
10555SOL    HW132564   2.043   2.919   0.813
10555SOL    HW232565   2.140   2.924   0.682
10556SOL     OW32566   1.764   1.753   5.555
10556SOL    HW132567   1.814   1.685   5.609
10556SOL    HW232568   1.828   1.821   5.521
10557SOL     OW32569   2.217   2.841   3.235
10557SOL    HW132570   2.223   2.929   3.282
10557SOL    HW232571   2.201   2.856   3.137
10558SOL     OW32572   3.765   1.309   3.472
10558SOL    HW132573   3.745   1.397   3.429
10558SOL    HW232574   3.847   1.317   3.528
10559SOL     OW32575   4.947   0.567   1.408
10559SOL    HW132576   4.918   0.515   1.488
10559SOL    HW232577   4.946   0.509   1.327
10560SOL     OW32578   3.761   6.414   2.730
10560SOL    HW132579   3.720   6.502   2.753
10560SOL    HW232580   3.707   6.370   2.658
10561SOL     OW32581   3.095   3.797   1.024
10561SOL    HW132582   3.011   3.842   1.055
10561SOL    HW232583   3.123   3.729   1.093
10562SOL     OW32584   4.890   5.007   0.468
10562SOL    HW132585   4.956   5.051   0.529
10562SOL    HW232586   4.863   5.072   0.396
10563SOL     OW32587   0.292   1.714   3.778
10563SOL    HW132588   0.375   1.693   3.725
10563SOL    HW232589   0.243   1.629   3.797
10564SOL     OW32590   6.052   5.847   2.273
10564SOL    HW132591   6.129   5.903   2.240
10564SOL    HW232592   6.087   5.760   2.308
10565SOL     OW32593   0.723   0.353   5.852
10565SOL    HW132594   0.780   0.427   5.887
10565SOL    HW232595   0.634   0.355   5.898
10566SOL     OW32596   3.581   1.909   6.720
10566SOL    HW132597   3.502   1.943   6.670
10566SOL    HW232598   3.659   1.971   6.707
10567SOL     OW32599   3.259   1.651   4.653
10567SOL    HW132600   3.351   1.615   4.672
10567SOL    HW232601   3.256   1.747   4.680
10568SOL     OW32602   6.454   2.792   1.796
10568SOL    HW132603   6.358   2.807   1.817
10568SOL    HW232604   6.485   2.707   1.838
10569SOL     OW32605   5.544   1.795   1.992
10569SOL    HW132606   5.489   1.864   1.946
10569SOL    HW232607   5.525   1.705   1.954
10570SOL     OW32608   1.529   5.194   3.845
10570SOL    HW132609   1.590   5.123   3.879
10570SOL    HW232610   1.557   5.221   3.753
10571SOL     OW32611   6.777   4.354   5.466
10571SOL    HW132612   6.820   4.263   5.466
10571SOL    HW232613   6.697   4.352   5.407
10572SOL     OW32614   0.445   4.494   3.068
10572SOL    HW132615   0.353   4.496   3.107
10572SOL    HW232616   0.438   4.484   2.969
10573SOL     OW32617   4.716   0.300   5.010
10573SOL    HW132618   4.621   0.327   5.027
10573SOL    HW232619   4.749   0.246   5.087
10574SOL     OW32620   1.739   1.382   4.132
10574SOL    HW132621   1.746   1.386   4.032
10574SOL    HW232622   1.645   1.401   4.160
10575SOL     OW32623   0.489   1.068   3.299
10575SOL    HW132624   0.456   1.076   3.205
10575SOL    HW232625   0.430   1.005   3.349
10576SOL     OW32626   6.924   6.165   4.560
10576SOL    HW132627   6.898   6.068   4.563
10576SOL    HW232628   6.963   6.191   4.648
10577SOL     OW32629   1.707   3.881   0.099
10577SOL    HW132630   1.630   3.941   0.121
10577SOL    HW232631   1.781   3.936   0.059
10578SOL     OW32632   5.078   1.569   2.719
10578SOL    HW132633   5.164   1.587   2.767
10578SOL    HW232634   5.042   1.655   2.682
10579SOL     OW32635   4.328   2.702   1.656
10579SOL    HW132636   4.311   2.607   1.630
10579SOL    HW232637   4.396   2.705   1.729
10580SOL     OW32638   6.345   0.311   0.239
10580SOL    HW132639   6.391   0.246   0.178
10580SOL    HW232640   6.253   0.330   0.204
10581SOL     OW32641   6.554   6.895   3.213
10581SOL    HW132642   6.588   6.940   3.295
10581SOL    HW232643   6.496   6.959   3.162
10582SOL     OW32644   5.753   5.133   6.102
10582SOL    HW132645   5.814   5.212   6.111
10582SOL    HW232646   5.768   5.089   6.013
10583SOL     OW32647   3.910   1.243   4.609
10583SOL    HW132648   4.008   1.233   4.625
10583SOL    HW232649   3.889   1.227   4.513
10584SOL     OW32650   6.500   6.490   1.399
10584SOL    HW132651   6.445   6.538   1.468
10584SOL    HW232652   6.596   6.518   1.407
10585SOL     OW32653   2.260   2.564   5.662
10585SOL    HW132654   2.268   2.577   5.563
10585SOL    HW232655   2.191   2.627   5.698
10586SOL     OW32656   6.153   5.327   5.124
10586SOL    HW132657   6.108   5.246   5.086
10586SOL    HW232658   6.242   5.302   5.162
10587SOL     OW32659   6.328   4.572   0.184
10587SOL    HW132660   6.427   4.555   0.180
10587SOL    HW232661   6.279   4.485   0.173
10588SOL     OW32662   0.923   3.192   4.128
10588SOL    HW132663   0.940   3.163   4.034
10588SOL    HW232664   1.008   3.226   4.168
10589SOL     OW32665   5.656   2.014   4.127
10589SOL    HW132666   5.599   2.023   4.208
10589SOL    HW232667   5.689   2.105   4.100
10590SOL     OW32668   0.460   0.185   1.804
10590SOL    HW132669   0.441   0.283   1.806
10590SOL    HW232670   0.559   0.170   1.808
10591SOL     OW32671   1.389   1.854   0.111
10591SOL    HW132672   1.423   1.904   0.032
10591SOL    HW232673   1.342   1.771   0.080
10592SOL     OW32674   5.519   3.927   1.954
10592SOL    HW132675   5.479   3.942   1.863
10592SOL    HW232676   5.592   3.859   1.948
10593SOL     OW32677   2.258   5.558   0.365
10593SOL    HW132678   2.244   5.565   0.267
10593SOL    HW232679   2.235   5.645   0.409
10594SOL     OW32680   4.985   0.260   2.384
10594SOL    HW132681   4.917   0.333   2.384
10594SOL    HW232682   5.073   0.296   2.415
10595SOL     OW32683   4.218   6.396   6.355
10595SOL    HW132684   4.252   6.369   6.445
10595SOL    HW232685   4.127   6.438   6.365
10596SOL     OW32686   4.326   0.143   0.106
10596SOL    HW132687   4.419   0.167   0.134
10596SOL    HW232688   4.323   0.134   0.006
10597SOL     OW32689   3.631   0.719   5.511
10597SOL    HW132690   3.545   0.695   5.466
10597SOL    HW232691   3.653   0.815   5.491
10598SOL     OW32692   2.920   3.130   0.477
10598SOL    HW132693   2.887   3.041   0.446
10598SOL    HW232694   2.913   3.196   0.403
10599SOL     OW32695   5.014   3.224   5.596
10599SOL    HW132696   5.021   3.149   5.662
10599SOL    HW232697   5.035   3.191   5.504
10600SOL     OW32698   2.530   2.505   0.381
10600SOL    HW132699   2.487   2.583   0.429
10600SOL    HW232700   2.502   2.420   0.425
10601SOL     OW32701   1.722   4.698   5.078
10601SOL    HW132702   1.778   4.675   4.999
10601SOL    HW232703   1.697   4.615   5.127
10602SOL     OW32704   3.572   1.326   2.234
10602SOL    HW132705   3.552   1.293   2.142
10602SOL    HW232706   3.621   1.413   2.229
10603SOL     OW32707   3.360   6.012   2.867
10603SOL    HW132708   3.362   6.016   2.966
10603SOL    HW232709   3.275   5.970   2.837
10604SOL     OW32710   6.171   5.516   5.516
10604SOL    HW132711   6.163   5.416   5.517
10604SOL    HW232712   6.089   5.555   5.475
10605SOL     OW32713   1.649   5.941   0.292
10605SOL    HW132714   1.680   5.897   0.207
10605SOL    HW232715   1.581   6.011   0.270
10606SOL     OW32716   6.883   0.981   2.794
10606SOL    HW132717   6.935   0.910   2.841
10606SOL    HW232718   6.790   0.949   2.777
10607SOL     OW32719   4.080   4.789   5.196
10607SOL    HW132720   3.989   4.750   5.214
10607SOL    HW232721   4.082   4.826   5.104
10608SOL     OW32722   5.238   2.619   5.632
10608SOL    HW132723   5.279   2.572   5.554
10608SOL    HW232724   5.301   2.688   5.667
10609SOL     OW32725   2.651   6.802   0.647
10609SOL    HW132726   2.629   6.728   0.584
10609SOL    HW232727   2.599   6.884   0.621
10610SOL     OW32728   1.046   2.293   5.615
10610SOL    HW132729   1.009   2.203   5.640
10610SOL    HW232730   0.978   2.364   5.634
10611SOL     OW32731   3.800   3.932   5.999
10611SOL    HW132732   3.783   3.834   6.001
10611SOL    HW232733   3.845   3.957   5.913
10612SOL     OW32734   3.227   0.834   4.438
10612SOL    HW132735   3.285   0.837   4.357
10612SOL    HW232736   3.131   0.845   4.411
10613SOL     OW32737   6.252   6.654   5.021
10613SOL    HW132738   6.210   6.677   4.933
10613SOL    HW232739   6.324   6.586   5.006
10614SOL     OW32740   6.115   2.287   4.153
10614SOL    HW132741   6.140   2.223   4.080
10614SOL    HW232742   6.023   2.265   4.186
10615SOL     OW32743   3.619   6.551   5.392
10615SOL    HW132744   3.640   6.466   5.343
10615SOL    HW232745   3.633   6.629   5.331
10616SOL     OW32746   3.028   5.902   0.784
10616SOL    HW132747   3.077   5.815   0.774
10616SOL    HW232748   2.961   5.895   0.858
10617SOL     OW32749   2.282   2.467   1.319
10617SOL    HW132750   2.323   2.406   1.387
10617SOL    HW232751   2.233   2.541   1.364
10618SOL     OW32752   0.094   3.663   6.654
10618SOL    HW132753   0.168   3.679   6.718
10618SOL    HW232754   0.112   3.712   6.569
10619SOL     OW32755   0.204   4.253   2.505
10619SOL    HW132756   0.107   4.231   2.512
10619SOL    HW232757   0.217   4.325   2.438
10620SOL     OW32758   1.686   5.667   4.950
10620SOL    HW132759   1.675   5.745   4.888
10620SOL    HW232760   1.654   5.584   4.905
10621SOL     OW32761   1.168   5.993   2.065
10621SOL    HW132762   1.070   5.976   2.073
10621SOL    HW232763   1.210   5.989   2.155
10622SOL     OW32764   5.133   1.864   1.299
10622SOL    HW132765   5.140   1.924   1.218
10622SOL    HW232766   5.070   1.905   1.365
10623SOL     OW32767   0.166   4.772   4.978
10623SOL    HW132768   0.166   4.673   4.965
10623SOL    HW232769   0.251   4.810   4.939
10624SOL     OW32770   0.080   2.863   4.891
10624SOL    HW132771   7.016   2.901   4.867
10624SOL    HW232772   0.152   2.920   4.851
10625SOL     OW32773   0.764   4.136   0.294
10625SOL    HW132774   0.670   4.125   0.327
10625SOL    HW232775   0.820   4.174   0.368
10626SOL     OW32776   2.780   3.063   0.724
10626SOL    HW132777   2.723   3.142   0.744
10626SOL    HW232778   2.838   3.083   0.644
10627SOL     OW32779   5.399   6.800   0.563
10627SOL    HW132780   5.427   6.859   0.487
10627SOL    HW232781   5.393   6.706   0.532
10628SOL     OW32782   4.839   6.459   0.328
10628SOL    HW132783   4.835   6.441   0.230
10628SOL    HW232784   4.752   6.497   0.359
10629SOL     OW32785   2.419   4.973   5.292
10629SOL    HW132786   2.501   4.924   5.262
10629SOL    HW232787   2.363   4.912   5.349
10630SOL     OW32788   6.634   1.015   3.914
10630SOL    HW132789   6.572   1.009   3.836
10630SOL    HW232790   6.596   1.078   3.981
10631SOL     OW32791   2.461   4.457   4.422
10631SOL    HW132792   2.408   4.378   4.452
10631SOL    HW232793   2.399   4.529   4.391
10632SOL     OW32794   6.202   2.133   3.951
10632SOL    HW132795   6.216   2.034   3.957
10632SOL    HW232796   6.286   2.176   3.917
10633SOL     OW32797   2.930   2.859   1.276
10633SOL    HW132798   2.858   2.895   1.216
10633SOL    HW232799   2.896   2.854   1.370
10634SOL     OW32800   3.160   5.652   0.864
10634SOL    HW132801   3.252   5.652   0.824
10634SOL    HW232802   3.163   5.613   0.956
10635SOL     OW32803   2.969   2.171   0.963
10635SOL    HW132804   3.067   2.193   0.960
10635SOL    HW232805   2.922   2.221   0.891
10636SOL     OW32806   1.267   1.506   1.496
10636SOL    HW132807   1.306   1.509   1.404
10636SOL    HW232808   1.238   1.412   1.517
10637SOL     OW32809   2.558   4.947   6.084
10637SOL    HW132810   2.567   5.013   6.010
10637SOL    HW232811   2.646   4.902   6.100
10638SOL     OW32812   0.068   5.745   2.686
10638SOL    HW132813   0.112   5.674   2.742
10638SOL    HW232814   0.039   5.705   2.600
10639SOL     OW32815   0.789   3.045   3.604
10639SOL    HW132816   0.808   3.035   3.702
10639SOL    HW232817   0.782   2.954   3.562
10640SOL     OW32818   3.746   0.087   5.684
10640SOL    HW132819   3.828   0.138   5.657
10640SOL    HW232820   3.769   7.016   5.694
10641SOL     OW32821   2.516   1.639   1.461
10641SOL    HW132822   2.483   1.552   1.499
10641SOL    HW232823   2.616   1.638   1.459
10642SOL     OW32824   0.209   3.209   2.031
10642SOL    HW132825   0.235   3.264   2.110
10642SOL    HW232826   0.147   3.261   1.972
10643SOL     OW32827   1.771   5.025   5.409
10643SOL    HW132828   1.866   4.995   5.412
10643SOL    HW232829   1.712   4.946   5.390
10644SOL     OW32830   5.493   2.816   3.119
10644SOL    HW132831   5.545   2.836   3.202
10644SOL    HW232832   5.410   2.766   3.142
10645SOL     OW32833   1.348   1.970   5.139
10645SOL    HW132834   1.408   2.010   5.208
10645SOL    HW232835   1.336   2.035   5.064
10646SOL     OW32836   6.659   0.358   6.361
10646SOL    HW132837   6.604   0.365   6.444
10646SOL    HW232838   6.612   0.298   6.295
10647SOL     OW32839   2.744   5.107   5.547
10647SOL    HW132840   2.799   5.178   5.591
10647SOL    HW232841   2.801   5.055   5.484
10648SOL     OW32842   5.495   4.594   6.176
10648SOL    HW132843   5.457   4.511   6.216
10648SOL    HW232844   5.421   4.654   6.146
10649SOL     OW32845   0.023   4.098   2.972
10649SOL    HW132846   6.995   4.050   2.903
10649SOL    HW232847   0.107   4.048   2.991
10650SOL     OW32848   0.862   6.273   3.506
10650SOL    HW132849   0.803   6.340   3.551
10650SOL    HW232850   0.861   6.288   3.407
10651SOL     OW32851   4.673   6.261   6.506
10651SOL    HW132852   4.686   6.349   6.461
10651SOL    HW232853   4.576   6.249   6.528
10652SOL     OW32854   3.507   0.249   6.265
10652SOL    HW132855   3.607   0.249   6.272
10652SOL    HW232856   3.474   0.155   6.267
10653SOL     OW32857   4.533   4.458   4.223
10653SOL    HW132858   4.567   4.379   4.274
10653SOL    HW232859   4.552   4.445   4.126
10654SOL     OW32860   4.724   1.005   0.709
10654SOL    HW132861   4.823   0.998   0.712
10654SOL    HW232862   4.684   0.955   0.785
10655SOL     OW32863   2.391   5.341   0.489
10655SOL    HW132864   2.491   5.350   0.497
10655SOL    HW232865   2.352   5.428   0.460
10656SOL     OW32866   6.449   2.236   2.175
10656SOL    HW132867   6.511   2.214   2.251
10656SOL    HW232868   6.498   2.288   2.106
10657SOL     OW32869   6.979   0.344   6.089
10657SOL    HW132870   0.038   0.397   6.078
10657SOL    HW232871   6.962   0.292   6.005
10658SOL     OW32872   6.010   4.628   5.053
10658SOL    HW132873   6.096   4.675   5.072
10658SOL    HW232874   5.951   4.633   5.133
10659SOL     OW32875   6.796   6.241   1.249
10659SOL    HW132876   6.705   6.227   1.289
10659SOL    HW232877   6.831   6.154   1.215
10660SOL     OW32878   5.281   3.678   0.074
10660SOL    HW132879   5.283   3.585   0.038
10660SOL    HW232880   5.368   3.698   0.119
10661SOL     OW32881   0.437   6.716   2.344
10661SOL    HW132882   0.452   6.767   2.259
10661SOL    HW232883   0.423   6.780   2.420
10662SOL     OW32884   5.262   0.860   3.424
10662SOL    HW132885   5.264   0.812   3.336
10662SOL    HW232886   5.283   0.795   3.497
10663SOL     OW32887   1.151   0.912   1.796
10663SOL    HW132888   1.129   0.876   1.706
10663SOL    HW232889   1.069   0.910   1.854
10664SOL     OW32890   0.916   5.008   5.008
10664SOL    HW132891   0.895   5.018   4.911
10664SOL    HW232892   1.012   4.985   5.019
10665SOL     OW32893   0.842   1.344   0.482
10665SOL    HW132894   0.751   1.375   0.510
10665SOL    HW232895   0.911   1.404   0.522
10666SOL     OW32896   2.922   4.251   0.970
10666SOL    HW132897   3.010   4.242   1.017
10666SOL    HW232898   2.850   4.212   1.028
10667SOL     OW32899   3.992   3.170   5.291
10667SOL    HW132900   3.955   3.173   5.198
10667SOL    HW232901   3.943   3.102   5.345
10668SOL     OW32902   1.759   1.171   5.207
10668SOL    HW132903   1.701   1.172   5.288
10668SOL    HW232904   1.728   1.240   5.142
10669SOL     OW32905   5.887   6.107   0.779
10669SOL    HW132906   5.833   6.118   0.696
10669SOL    HW232907   5.984   6.121   0.759
10670SOL     OW32908   5.174   4.028   5.152
10670SOL    HW132909   5.203   3.958   5.218
10670SOL    HW232910   5.241   4.034   5.079
10671SOL     OW32911   2.530   2.278   3.267
10671SOL    HW132912   2.481   2.263   3.181
10671SOL    HW232913   2.620   2.233   3.262
10672SOL     OW32914   6.181   2.763   0.432
10672SOL    HW132915   6.084   2.739   0.435
10672SOL    HW232916   6.208   2.783   0.338
10673SOL     OW32917   0.890   1.262   0.105
10673SOL    HW132918   0.821   1.205   0.150
10673SOL    HW232919   0.876   1.358   0.132
10674SOL     OW32920   3.333   3.906   0.938
10674SOL    HW132921   3.244   3.866   0.959
10674SOL    HW232922   3.328   3.954   0.850
10675SOL     OW32923   2.329   6.968   6.710
10675SOL    HW132924   2.249   6.955   6.652
10675SOL    HW232925   2.398   6.899   6.688
10676SOL     OW32926   6.321   6.758   5.685
10676SOL    HW132927   6.377   6.680   5.714
10676SOL    HW232928   6.380   6.836   5.664
10677SOL     OW32929   0.440   0.808   2.327
10677SOL    HW132930   0.362   0.834   2.271
10677SOL    HW232931   0.448   0.708   2.329
10678SOL     OW32932   4.085   5.302   2.809
10678SOL    HW132933   4.110   5.351   2.893
10678SOL    HW232934   3.986   5.293   2.804
10679SOL     OW32935   5.289   5.117   6.400
10679SOL    HW132936   5.261   5.196   6.453
10679SOL    HW232937   5.377   5.135   6.356
10680SOL     OW32938   2.952   1.734   3.507
10680SOL    HW132939   2.900   1.738   3.593
10680SOL    HW232940   2.890   1.753   3.431
10681SOL     OW32941   0.702   4.062   6.885
10681SOL    HW132942   0.707   3.994   6.958
10681SOL    HW232943   0.792   4.102   6.871
10682SOL     OW32944   1.560   1.815   3.899
10682SOL    HW132945   1.577   1.754   3.977
10682SOL    HW232946   1.557   1.909   3.931
10683SOL     OW32947   3.147   1.918   4.026
10683SOL    HW132948   3.209   1.908   4.103
10683SOL    HW232949   3.119   2.014   4.017
10684SOL     OW32950   5.211   4.463   1.207
10684SOL    HW132951   5.135   4.457   1.142
10684SOL    HW232952   5.261   4.376   1.207
10685SOL     OW32953   0.605   5.404   2.757
10685SOL    HW132954   0.577   5.499   2.770
10685SOL    HW232955   0.704   5.400   2.741
10686SOL     OW32956   1.606   4.843   6.289
10686SOL    HW132957   1.680   4.775   6.287
10686SOL    HW232958   1.518   4.796   6.298
10687SOL     OW32959   6.965   5.586   1.942
10687SOL    HW132960   7.004   5.629   2.023
10687SOL    HW232961   7.017   5.504   1.919
10688SOL     OW32962   6.574   3.937   3.134
10688SOL    HW132963   6.632   3.908   3.211
10688SOL    HW232964   6.543   4.031   3.150
10689SOL     OW32965   0.826   6.656   3.956
10689SOL    HW132966   0.797   6.562   3.976
10689SOL    HW232967   0.832   6.669   3.858
10690SOL     OW32968   0.008   5.958   3.228
10690SOL    HW132969   0.007   5.866   3.189
10690SOL    HW232970   6.950   5.972   3.282
10691SOL     OW32971   0.953   0.978   2.310
10691SOL    HW132972   0.892   1.020   2.242
10691SOL    HW232973   1.031   1.038   2.326
10692SOL     OW32974   3.610   4.950   2.645
10692SOL    HW132975   3.621   5.048   2.627
10692SOL    HW232976   3.587   4.903   2.560
10693SOL     OW32977   2.225   7.021   1.411
10693SOL    HW132978   2.223   0.020   1.314
10693SOL    HW232979   2.134   0.010   1.451
10694SOL     OW32980   4.840   6.375   1.154
10694SOL    HW132981   4.915   6.438   1.176
10694SOL    HW232982   4.838   6.302   1.224
10695SOL     OW32983   5.344   2.469   2.752
10695SOL    HW132984   5.304   2.391   2.703
10695SOL    HW232985   5.420   2.506   2.698
10696SOL     OW32986   6.811   3.942   3.278
10696SOL    HW132987   6.853   3.892   3.353
10696SOL    HW232988   6.846   4.036   3.276
10697SOL     OW32989   0.177   5.758   4.646
10697SOL    HW132990   0.222   5.672   4.622
10697SOL    HW232991   0.229   5.803   4.718
10698SOL     OW32992   4.221   6.351   4.262
10698SOL    HW132993   4.274   6.285   4.208
10698SOL    HW232994   4.267   6.367   4.349
10699SOL     OW32995   4.224   2.353   1.805
10699SOL    HW132996   4.137   2.332   1.850
10699SOL    HW232997   4.206   2.398   1.717
10700SOL     OW32998   0.980   0.045   0.732
10700SOL    HW132999   0.993   0.010   0.825
10700SOL    HW233000   1.037   0.126   0.718
10701SOL     OW33001   3.442   5.597   0.293
10701SOL    HW133002   3.460   5.571   0.388
10701SOL    HW233003   3.522   5.645   0.256
10702SOL     OW33004   6.072   2.120   2.751
10702SOL    HW133005   5.996   2.144   2.812
10702SOL    HW233006   6.067   2.023   2.728
10703SOL     OW33007   3.329   3.045   4.071
10703SOL    HW133008   3.387   2.967   4.094
10703SOL    HW233009   3.313   3.100   4.153
10704SOL     OW33010   6.144   5.355   1.814
10704SOL    HW133011   6.152   5.404   1.727
10704SOL    HW233012   6.156   5.257   1.799
10705SOL     OW33013   6.927   4.194   2.541
10705SOL    HW133014   6.924   4.192   2.441
10705SOL    HW233015   6.836   4.176   2.578
10706SOL     OW33016   4.631   6.196   2.025
10706SOL    HW133017   4.691   6.204   1.945
10706SOL    HW233018   4.537   6.185   1.996
10707SOL     OW33019   0.568   6.588   4.276
10707SOL    HW133020   0.610   6.499   4.293
10707SOL    HW233021   0.517   6.585   4.190
10708SOL     OW33022   4.540   0.618   2.340
10708SOL    HW133023   4.512   0.618   2.436
10708SOL    HW233024   4.516   0.706   2.298
10709SOL     OW33025   6.023   0.333   5.016
10709SOL    HW133026   6.122   0.321   5.010
10709SOL    HW233027   5.984   0.339   4.924
10710SOL     OW33028   0.644   6.244   3.856
10710SOL    HW133029   0.635   6.165   3.795
10710SOL    HW233030   0.651   6.327   3.801
10711SOL     OW33031   1.666   6.881   3.877
10711SOL    HW133032   1.711   6.861   3.964
10711SOL    HW233033   1.734   6.887   3.804
10712SOL     OW33034   3.364   0.980   1.645
10712SOL    HW133035   3.417   0.940   1.570
10712SOL    HW233036   3.423   1.040   1.699
10713SOL     OW33037   1.269   3.943   1.986
10713SOL    HW133038   1.276   4.037   1.950
10713SOL    HW233039   1.218   3.887   1.922
10714SOL     OW33040   5.871   2.866   5.776
10714SOL    HW133041   5.828   2.904   5.858
10714SOL    HW233042   5.941   2.929   5.743
10715SOL     OW33043   4.689   6.851   2.727
10715SOL    HW133044   4.645   6.778   2.780
10715SOL    HW233045   4.777   6.818   2.691
10716SOL     OW33046   6.687   2.402   3.804
10716SOL    HW133047   6.714   2.391   3.900
10716SOL    HW233048   6.645   2.492   3.792
10717SOL     OW33049   0.516   2.406   0.540
10717SOL    HW133050   0.450   2.361   0.600
10717SOL    HW233051   0.489   2.501   0.525
10718SOL     OW33052   6.853   4.250   0.016
10718SOL    HW133053   6.870   4.338   6.997
10718SOL    HW233054   6.940   4.208   0.043
10719SOL     OW33055   4.612   5.890   0.921
10719SOL    HW133056   4.594   5.811   0.862
10719SOL    HW233057   4.553   5.886   1.001
10720SOL     OW33058   0.096   2.951   5.764
10720SOL    HW133059   0.073   2.901   5.848
10720SOL    HW233060   0.028   2.930   5.694
10721SOL     OW33061   5.659   3.011   5.407
10721SOL    HW133062   5.734   3.071   5.434
10721SOL    HW233063   5.642   3.022   5.309
10722SOL     OW33064   0.129   2.885   0.620
10722SOL    HW133065   0.195   2.823   0.579
10722SOL    HW233066   0.132   2.877   0.719
10723SOL     OW33067   6.827   4.256   6.525
10723SOL    HW133068   6.835   4.198   6.444
10723SOL    HW233069   6.759   4.327   6.508
10724SOL     OW33070   3.800   0.262   6.264
10724SOL    HW133071   3.859   0.215   6.330
10724SOL    HW233072   3.853   0.330   6.215
10725SOL     OW33073   0.043   4.943   3.973
10725SOL    HW133074   0.036   4.936   4.072
10725SOL    HW233075   0.109   5.013   3.949
10726SOL     OW33076   5.946   6.478   5.241
10726SOL    HW133077   5.860   6.426   5.248
10726SOL    HW233078   5.925   6.573   5.219
10727SOL     OW33079   1.718   4.779   4.292
10727SOL    HW133080   1.785   4.766   4.218
10727SOL    HW233081   1.717   4.698   4.350
10728SOL     OW33082   5.891   6.337   1.895
10728SOL    HW133083   5.976   6.388   1.883
10728SOL    HW233084   5.840   6.373   1.972
10729SOL     OW33085   6.665   1.002   3.349
10729SOL    HW133086   6.702   0.928   3.293
10729SOL    HW233087   6.726   1.018   3.427
10730SOL     OW33088   2.566   0.105   0.781
10730SOL    HW133089   2.568   0.090   0.683
10730SOL    HW233090   2.578   0.018   0.829
10731SOL     OW33091   2.079   5.735   6.783
10731SOL    HW133092   2.105   5.641   6.807
10731SOL    HW233093   2.148   5.774   6.723
10732SOL     OW33094   5.509   6.936   2.295
10732SOL    HW133095   5.462   6.899   2.374
10732SOL    HW233096   5.551   6.861   2.243
10733SOL     OW33097   5.633   2.976   6.921
10733SOL    HW133098   5.612   2.897   6.864
10733SOL    HW233099   5.629   2.950   7.017
10734SOL     OW33100   1.389   0.501   6.420
10734SOL    HW133101   1.354   0.581   6.370
10734SOL    HW233102   1.476   0.525   6.463
10735SOL     OW33103   1.347   4.555   2.398
10735SOL    HW133104   1.431   4.533   2.448
10735SOL    HW233105   1.313   4.473   2.352
10736SOL     OW33106   0.835   1.196   3.661
10736SOL    HW133107   0.836   1.247   3.575
10736SOL    HW233108   0.749   1.146   3.669
10737SOL     OW33109   0.793   1.970   7.023
10737SOL    HW133110   0.762   1.910   0.071
10737SOL    HW233111   0.893   1.968   7.018
10738SOL     OW33112   3.125   0.373   1.725
10738SOL    HW133113   3.179   0.435   1.669
10738SOL    HW233114   3.162   0.280   1.718
10739SOL     OW33115   0.681   0.891   3.197
10739SOL    HW133116   0.674   0.810   3.256
10739SOL    HW233117   0.632   0.967   3.239
10740SOL     OW33118   1.394   4.869   5.979
10740SOL    HW133119   1.436   4.779   5.989
10740SOL    HW233120   1.460   4.939   6.007
10741SOL     OW33121   1.622   1.348   3.364
10741SOL    HW133122   1.628   1.429   3.305
10741SOL    HW233123   1.655   1.268   3.313
10742SOL     OW33124   6.067   0.347   2.042
10742SOL    HW133125   6.097   0.354   1.947
10742SOL    HW233126   6.021   0.431   2.069
10743SOL     OW33127   2.497   2.589   3.672
10743SOL    HW133128   2.526   2.497   3.646
10743SOL    HW233129   2.434   2.624   3.602
10744SOL     OW33130   3.285   1.551   2.327
10744SOL    HW133131   3.345   1.629   2.308
10744SOL    HW233132   3.192   1.583   2.341
10745SOL     OW33133   1.444   4.741   0.620
10745SOL    HW133134   1.473   4.833   0.645
10745SOL    HW233135   1.499   4.709   0.543
10746SOL     OW33136   2.089   4.620   1.103
10746SOL    HW133137   2.176   4.579   1.130
10746SOL    HW233138   2.075   4.705   1.154
10747SOL     OW33139   5.295   1.593   3.258
10747SOL    HW133140   5.386   1.630   3.274
10747SOL    HW233141   5.227   1.663   3.280
10748SOL     OW33142   5.985   0.008   1.167
10748SOL    HW133143   5.922   6.957   1.175
10748SOL    HW233144   5.958   0.080   1.232
10749SOL     OW33145   0.286   5.073   2.825
10749SOL    HW133146   0.206   5.014   2.826
10749SOL    HW233147   0.357   5.033   2.767
10750SOL     OW33148   4.897   5.194   4.530
10750SOL    HW133149   4.953   5.117   4.499
10750SOL    HW233150   4.826   5.161   4.592
10751SOL     OW33151   0.727   3.690   5.352
10751SOL    HW133152   0.704   3.648   5.264
10751SOL    HW233153   0.644   3.700   5.406
10752SOL     OW33154   5.863   3.746   6.456
10752SOL    HW133155   5.936   3.811   6.476
10752SOL    HW233156   5.788   3.794   6.409
10753SOL     OW33157   6.132   0.242   3.635
10753SOL    HW133158   6.042   0.205   3.609
10753SOL    HW233159   6.181   0.269   3.552
10754SOL     OW33160   2.125   2.017   3.224
10754SOL    HW133161   2.107   2.003   3.322
10754SOL    HW233162   2.039   2.010   3.174
10755SOL     OW33163   0.017   1.554   0.777
10755SOL    HW133164   0.113   1.527   0.783
10755SOL    HW233165   7.005   1.527   0.688
10756SOL     OW33166   6.353   3.668   0.698
10756SOL    HW133167   6.329   3.733   0.627
10756SOL    HW233168   6.312   3.579   0.678
10757SOL     OW33169   6.826   3.762   0.422
10757SOL    HW133170   6.794   3.781   0.515
10757SOL    HW233171   6.837   3.664   0.410
10758SOL     OW33172   1.496   6.300   5.218
10758SOL    HW133173   1.472   6.335   5.309
10758SOL    HW233174   1.582   6.249   5.224
10759SOL     OW33175   1.845   3.287   6.826
10759SOL    HW133176   1.804   3.196   6.817
10759SOL    HW233177   1.945   3.278   6.829
10760SOL     OW33178   6.844   0.042   1.108
10760SOL    HW133179   6.826   6.977   1.069
10760SOL    HW233180   6.763   0.073   1.158
10761SOL     OW33181   0.440   1.745   6.133
10761SOL    HW133182   0.414   1.747   6.036
10761SOL    HW233183   0.395   1.668   6.178
10762SOL     OW33184   4.625   0.928   4.916
10762SOL    HW133185   4.591   0.951   4.825
10762SOL    HW233186   4.709   0.875   4.908
10763SOL     OW33187   4.918   6.325   0.889
10763SOL    HW133188   4.983   6.250   0.905
10763SOL    HW233189   4.886   6.360   0.977
10764SOL     OW33190   5.604   1.391   6.277
10764SOL    HW133191   5.514   1.364   6.244
10764SOL    HW233192   5.603   1.488   6.300
10765SOL     OW33193   5.491   2.415   1.030
10765SOL    HW133194   5.397   2.416   1.064
10765SOL    HW233195   5.533   2.504   1.045
10766SOL     OW33196   2.582   3.450   0.150
10766SOL    HW133197   2.528   3.424   0.070
10766SOL    HW233198   2.659   3.507   0.121
10767SOL     OW33199   1.450   0.791   0.656
10767SOL    HW133200   1.547   0.798   0.682
10767SOL    HW233201   1.395   0.846   0.718
10768SOL     OW33202   5.521   5.509   0.299
10768SOL    HW133203   5.467   5.455   0.363
10768SOL    HW233204   5.466   5.584   0.264
10769SOL     OW33205   2.593   5.317   4.983
10769SOL    HW133206   2.562   5.354   5.071
10769SOL    HW233207   2.517   5.269   4.939
10770SOL     OW33208   5.697   0.133   4.325
10770SOL    HW133209   5.637   0.119   4.404
10770SOL    HW233210   5.780   0.180   4.354
10771SOL     OW33211   4.792   0.237   5.517
10771SOL    HW133212   4.694   0.234   5.532
10771SOL    HW233213   4.830   0.318   5.563
10772SOL     OW33214   6.101   0.119   4.151
10772SOL    HW133215   6.073   0.041   4.207
10772SOL    HW233216   6.039   0.129   4.073
10773SOL     OW33217   7.022   5.025   6.922
10773SOL    HW133218   0.091   5.050   6.943
10773SOL    HW233219   6.969   5.108   6.906
10774SOL     OW33220   1.631   2.185   0.030
10774SOL    HW133221   1.682   2.261   7.016
10774SOL    HW233222   1.581   2.216   0.111
10775SOL     OW33223   1.575   3.642   0.578
10775SOL    HW133224   1.565   3.737   0.605
10775SOL    HW233225   1.533   3.628   0.488
10776SOL     OW33226   1.285   6.253   0.785
10776SOL    HW133227   1.260   6.332   0.728
10776SOL    HW233228   1.349   6.195   0.735
10777SOL     OW33229   4.255   0.249   3.942
10777SOL    HW133230   4.213   0.292   3.862
10777SOL    HW233231   4.283   0.156   3.918
10778SOL     OW33232   5.576   0.091   4.559
10778SOL    HW133233   5.641   0.145   4.612
10778SOL    HW233234   5.566   0.000   4.601
10779SOL     OW33235   6.996   4.599   3.083
10779SOL    HW133236   0.018   4.540   3.018
10779SOL    HW233237   6.899   4.602   3.061
10780SOL     OW33238   1.558   6.712   3.061
10780SOL    HW133239   1.566   6.759   2.973
10780SOL    HW233240   1.590   6.618   3.051
10781SOL     OW33241   3.800   1.712   3.884
10781SOL    HW133242   3.751   1.631   3.853
10781SOL    HW233243   3.792   1.720   3.983
10782SOL     OW33244   6.110   2.527   3.487
10782SOL    HW133245   6.189   2.546   3.428
10782SOL    HW233246   6.040   2.596   3.470
10783SOL     OW33247   1.377   3.336   2.993
10783SOL    HW133248   1.284   3.310   3.019
10783SOL    HW233249   1.393   3.432   3.017
10784SOL     OW33250   2.513   6.586   1.696
10784SOL    HW133251   2.445   6.516   1.717
10784SOL    HW233252   2.599   6.564   1.742
10785SOL     OW33253   1.567   4.275   1.554
10785SOL    HW133254   1.629   4.330   1.610
10785SOL    HW233255   1.482   4.259   1.604
10786SOL     OW33256   4.892   3.304   1.519
10786SOL    HW133257   4.938   3.386   1.485
10786SOL    HW233258   4.891   3.235   1.446
10787SOL     OW33259   3.407   1.799   5.060
10787SOL    HW133260   3.413   1.701   5.080
10787SOL    HW233261   3.332   1.839   5.113
10788SOL     OW33262   2.342   4.473   0.047
10788SOL    HW133263   2.375   4.446   6.982
10788SOL    HW233264   2.310   4.392   0.096
10789SOL     OW33265   5.376   2.015   0.914
10789SOL    HW133266   5.351   1.959   0.835
10789SOL    HW233267   5.438   2.088   0.886
10790SOL     OW33268   0.560   0.662   4.593
10790SOL    HW133269   0.650   0.618   4.590
10790SOL    HW233270   0.533   0.677   4.688
10791SOL     OW33271   0.815   1.145   1.761
10791SOL    HW133272   0.777   1.156   1.853
10791SOL    HW233273   0.909   1.180   1.759
10792SOL     OW33274   3.097   3.020   1.813
10792SOL    HW133275   3.139   2.933   1.840
10792SOL    HW233276   3.134   3.049   1.725
10793SOL     OW33277   5.495   2.407   4.109
10793SOL    HW133278   5.463   2.325   4.156
10793SOL    HW233279   5.420   2.472   4.100
10794SOL     OW33280   3.407   3.844   2.572
10794SOL    HW133281   3.350   3.830   2.491
10794SOL    HW233282   3.349   3.872   2.648
10795SOL     OW33283   6.293   4.303   3.869
10795SOL    HW133284   6.349   4.220   3.858
10795SOL    HW233285   6.324   4.373   3.805
10796SOL     OW33286   3.490   6.422   6.547
10796SOL    HW133287   3.435   6.340   6.540
10796SOL    HW233288   3.495   6.467   6.458
10797SOL     OW33289   4.298   2.493   0.949
10797SOL    HW133290   4.209   2.527   0.980
10797SOL    HW233291   4.351   2.568   0.911
10798SOL     OW33292   1.886   6.965   0.564
10798SOL    HW133293   1.790   6.995   0.569
10798SOL    HW233294   1.906   6.904   0.640
10799SOL     OW33295   3.699   1.704   1.752
10799SOL    HW133296   3.753   1.770   1.804
10799SOL    HW233297   3.697   1.731   1.656
10800SOL     OW33298   1.174   6.827   0.027
10800SOL    HW133299   1.171   6.901   0.094
10800SOL    HW233300   1.239   6.851   6.980
10801SOL     OW33301   1.012   0.048   5.041
10801SOL    HW133302   0.924   0.008   5.013
10801SOL    HW233303   1.085   0.009   4.984
10802SOL     OW33304   2.129   3.326   5.040
10802SOL    HW133305   2.143   3.248   4.979
10802SOL    HW233306   2.153   3.300   5.133
10803SOL     OW33307   5.117   4.526   4.795
10803SOL    HW133308   5.180   4.503   4.720
10803SOL    HW233309   5.023   4.508   4.766
10804SOL     OW33310   0.038   4.511   1.695
10804SOL    HW133311   0.029   4.600   1.650
10804SOL    HW233312   6.986   4.453   1.668
10805SOL     OW33313   3.489   6.512   6.883
10805SOL    HW133314   3.458   6.435   6.939
10805SOL    HW233315   3.582   6.538   6.910
10806SOL     OW33316   5.261   4.458   0.008
10806SOL    HW133317   5.256   4.463   0.107
10806SOL    HW233318   5.213   4.376   7.001
10807SOL     OW33319   3.032   6.688   3.565
10807SOL    HW133320   2.956   6.628   3.590
10807SOL    HW233321   3.089   6.643   3.496
10808SOL     OW33322   0.437   3.882   0.573
10808SOL    HW133323   0.485   3.837   0.648
10808SOL    HW233324   0.503   3.904   0.500
10809SOL     OW33325   2.946   6.807   4.000
10809SOL    HW133326   2.968   6.842   3.909
10809SOL    HW233327   2.959   6.879   4.068
10810SOL     OW33328   1.193   1.012   5.524
10810SOL    HW133329   1.159   0.932   5.474
10810SOL    HW233330   1.118   1.078   5.535
10811SOL     OW33331   4.626   5.351   5.126
10811SOL    HW133332   4.722   5.337   5.101
10811SOL    HW233333   4.582   5.408   5.057
10812SOL     OW33334   0.556   3.342   2.458
10812SOL    HW133335   0.582   3.307   2.549
10812SOL    HW233336   0.480   3.406   2.468
10813SOL     OW33337   1.954   6.268   6.869
10813SOL    HW133338   2.016   6.206   6.822
10813SOL    HW233339   1.897   6.216   6.933
10814SOL     OW33340   1.753   6.947   6.308
10814SOL    HW133341   1.829   7.009   6.329
10814SOL    HW233342   1.680   6.999   6.263
10815SOL     OW33343   4.953   5.455   3.357
10815SOL    HW133344   4.953   5.471   3.455
10815SOL    HW233345   4.865   5.416   3.329
10816SOL     OW33346   1.183   1.184   2.389
10816SOL    HW133347   1.268   1.132   2.397
10816SOL    HW233348   1.172   1.242   2.470
10817SOL     OW33349   5.224   6.689   2.746
10817SOL    HW133350   5.234   6.604   2.798
10817SOL    HW233351   5.261   6.765   2.800
10818SOL     OW33352   5.046   3.928   5.715
10818SOL    HW133353   5.053   3.982   5.632
10818SOL    HW233354   5.093   3.840   5.703
10819SOL     OW33355   0.217   4.381   0.070
10819SOL    HW133356   0.281   4.374   0.146
10819SOL    HW233357   0.162   4.297   0.065
10820SOL     OW33358   6.341   6.482   4.037
10820SOL    HW133359   6.343   6.485   3.937
10820SOL    HW233360   6.421   6.528   4.074
10821SOL     OW33361   5.164   5.890   2.191
10821SOL    HW133362   5.174   5.896   2.291
10821SOL    HW233363   5.249   5.919   2.148
10822SOL     OW33364   1.469   2.203   3.304
10822SOL    HW133365   1.369   2.194   3.306
10822SOL    HW233366   1.502   2.222   3.397
10823SOL     OW33367   1.306   5.034   1.356
10823SOL    HW133368   1.307   4.937   1.377
10823SOL    HW233369   1.331   5.087   1.437
10824SOL     OW33370   4.968   0.081   4.104
10824SOL    HW133371   4.965   0.092   4.005
10824SOL    HW233372   4.917   0.155   4.148
10825SOL     OW33373   2.531   0.609   0.597
10825SOL    HW133374   2.559   0.642   0.506
10825SOL    HW233375   2.439   0.641   0.617
10826SOL     OW33376   0.247   3.745   3.842
10826SOL    HW133377   0.346   3.732   3.846
10826SOL    HW233378   0.217   3.743   3.747
10827SOL     OW33379   5.958   4.097   4.697
10827SOL    HW133380   5.974   4.090   4.598
10827SOL    HW233381   5.900   4.176   4.716
10828SOL     OW33382   1.147   5.760   2.470
10828SOL    HW133383   1.190   5.715   2.548
10828SOL    HW233384   1.136   5.694   2.395
10829SOL     OW33385   3.595   2.537   0.101
10829SOL    HW133386   3.497   2.554   0.101
10829SOL    HW233387   3.643   2.615   0.142
10830SOL     OW33388   4.747   1.730   3.274
10830SOL    HW133389   4.790   1.662   3.215
10830SOL    HW233390   4.665   1.766   3.229
10831SOL     OW33391   4.560   5.815   1.958
10831SOL    HW133392   4.620   5.886   1.996
10831SOL    HW233393   4.546   5.833   1.861
10832SOL     OW33394   6.984   2.064   0.892
10832SOL    HW133395   6.945   1.972   0.905
10832SOL    HW233396   6.994   2.082   0.794
10833SOL     OW33397   1.559   0.818   3.933
10833SOL    HW133398   1.560   0.809   3.833
10833SOL    HW233399   1.652   0.805   3.968
10834SOL     OW33400   0.589   2.133   6.102
10834SOL    HW133401   0.635   2.045   6.115
10834SOL    HW233402   0.655   2.200   6.066
10835SOL     OW33403   5.405   2.015   1.265
10835SOL    HW133404   5.350   2.008   1.181
10835SOL    HW233405   5.345   2.032   1.343
10836SOL     OW33406   6.126   1.308   5.141
10836SOL    HW133407   6.132   1.208   5.131
10836SOL    HW233408   6.217   1.348   5.132
10837SOL     OW33409   0.613   4.856   0.302
10837SOL    HW133410   0.542   4.867   0.233
10837SOL    HW233411   0.620   4.939   0.357
10838SOL     OW33412   5.585   6.836   4.421
10838SOL    HW133413   5.544   6.843   4.512
10838SOL    HW233414   5.582   6.741   4.391
10839SOL     OW33415   3.514   2.937   0.245
10839SOL    HW133416   3.487   2.894   0.159
10839SOL    HW233417   3.447   2.915   0.316
10840SOL     OW33418   4.265   6.063   1.536
10840SOL    HW133419   4.166   6.047   1.546
10840SOL    HW233420   4.289   6.149   1.582
10841SOL     OW33421   3.947   6.548   6.726
10841SOL    HW133422   4.027   6.498   6.759
10841SOL    HW233423   3.874   6.483   6.704
10842SOL     OW33424   6.165   3.386   0.909
10842SOL    HW133425   6.139   3.373   0.814
10842SOL    HW233426   6.206   3.302   0.944
10843SOL     OW33427   0.918   1.627   1.955
10843SOL    HW133428   0.951   1.715   1.989
10843SOL    HW233429   0.973   1.598   1.877
10844SOL     OW33430   0.517   6.706   3.952
10844SOL    HW133431   0.611   6.736   3.968
10844SOL    HW233432   0.454   6.782   3.970
10845SOL     OW33433   2.369   0.753   0.901
10845SOL    HW133434   2.344   0.821   0.832
10845SOL    HW233435   2.308   0.762   0.980
10846SOL     OW33436   4.578   3.033   0.600
10846SOL    HW133437   4.529   2.949   0.624
10846SOL    HW233438   4.657   3.044   0.661
10847SOL     OW33439   3.136   2.004   6.458
10847SOL    HW133440   3.049   2.042   6.490
10847SOL    HW233441   3.195   2.079   6.425
10848SOL     OW33442   3.403   2.297   6.565
10848SOL    HW133443   3.390   2.304   6.664
10848SOL    HW233444   3.500   2.294   6.544
10849SOL     OW33445   3.156   4.942   3.290
10849SOL    HW133446   3.214   4.986   3.222
10849SOL    HW233447   3.195   4.954   3.381
10850SOL     OW33448   4.786   6.076   6.678
10850SOL    HW133449   4.744   6.156   6.635
10850SOL    HW233450   4.873   6.057   6.633
10851SOL     OW33451   2.620   2.955   6.521
10851SOL    HW133452   2.532   3.004   6.528
10851SOL    HW233453   2.604   2.857   6.531
10852SOL     OW33454   0.068   6.788   6.014
10852SOL    HW133455   0.153   6.815   5.968
10852SOL    HW233456   0.048   6.853   6.088
10853SOL     OW33457   3.982   1.723   5.704
10853SOL    HW133458   3.971   1.627   5.731
10853SOL    HW233459   4.038   1.727   5.621
10854SOL     OW33460   6.298   0.285   5.561
10854SOL    HW133461   6.382   0.280   5.506
10854SOL    HW233462   6.311   0.350   5.636
10855SOL     OW33463   2.960   6.274   2.460
10855SOL    HW133464   2.925   6.217   2.386
10855SOL    HW233465   3.026   6.222   2.514
10856SOL     OW33466   5.780   1.361   2.241
10856SOL    HW133467   5.778   1.325   2.148
10856SOL    HW233468   5.714   1.312   2.298
10857SOL     OW33469   5.430   2.664   3.786
10857SOL    HW133470   5.493   2.698   3.856
10857SOL    HW233471   5.366   2.599   3.828
10858SOL     OW33472   1.207   2.687   6.491
10858SOL    HW133473   1.272   2.745   6.441
10858SOL    HW233474   1.186   2.728   6.580
10859SOL     OW33475   2.469   4.498   3.975
10859SOL    HW133476   2.481   4.478   3.877
10859SOL    HW233477   2.400   4.437   4.013
10860SOL     OW33478   6.657   1.165   5.606
10860SOL    HW133479   6.558   1.158   5.623
10860SOL    HW233480   6.699   1.075   5.617
10861SOL     OW33481   3.733   2.886   1.999
10861SOL    HW133482   3.830   2.891   2.022
10861SOL    HW233483   3.690   2.974   2.020
10862SOL     OW33484   2.454   1.467   6.711
10862SOL    HW133485   2.395   1.415   6.772
10862SOL    HW233486   2.418   1.463   6.618
10863SOL     OW33487   3.713   0.750   2.181
10863SOL    HW133488   3.677   0.683   2.116
10863SOL    HW233489   3.697   0.718   2.274
10864SOL     OW33490   2.745   4.555   1.045
10864SOL    HW133491   2.700   4.486   0.988
10864SOL    HW233492   2.843   4.554   1.026
10865SOL     OW33493   5.458   2.133   3.805
10865SOL    HW133494   5.550   2.151   3.840
10865SOL    HW233495   5.459   2.138   3.705
10866SOL     OW33496   6.159   3.930   0.819
10866SOL    HW133497   6.073   3.879   0.828
10866SOL    HW233498   6.200   3.943   0.910
10867SOL     OW33499   2.794   3.671   0.331
10867SOL    HW133500   2.744   3.727   0.396
10867SOL    HW233501   2.780   3.707   0.238
10868SOL     OW33502   1.977   1.556   3.245
10868SOL    HW133503   1.924   1.593   3.321
10868SOL    HW233504   1.945   1.597   3.159
10869NA      NA33505   0.387   2.497   6.080
10870NA      NA33506   4.256   4.645   5.269
10871NA      NA33507   2.289   4.279   2.189
10872NA      NA33508   5.135   4.611   3.535
10873NA      NA33509   4.262   2.365   5.233
10874NA      NA33510   3.442   4.473   1.473
10875NA      NA33511   0.875   4.493   0.410
10876NA      NA33512   3.939   4.209   1.615
10877NA      NA33513   4.959   4.794   1.016
10878NA      NA33514   3.534   0.183   5.673
10879NA      NA33515   6.074   5.372   1.031
10880NA      NA33516   1.679   0.926   5.951
10881NA      NA33517   4.690   5.106   2.356
10882NA      NA33518   3.851   2.866   0.944
   7.02544   7.02544   7.02544
