Generated by trjconv : CNT in water t= 439.00000
33518
    1C        C    1   2.844   2.769   4.747
    1C        C    2   2.897   2.717   4.867
    1C        C    3   2.840   2.769   4.984
    1C        C    4   2.851   2.776   4.258
    1C        C    5   2.900   2.728   4.382
    1C        C    6   2.847   2.773   4.504
    1C        C    7   3.014   2.641   4.622
    1C        C    8   2.897   2.720   4.625
    1C        C    9   3.075   2.603   4.743
    1C        C   10   3.008   2.631   4.865
    1C        C   11   3.184   2.490   4.979
    1C        C   12   3.064   2.563   4.974
    1C        C   13   2.845   2.766   3.770
    1C        C   14   2.894   2.717   3.893
    1C        C   15   2.843   2.767   4.015
    1C        C   16   3.017   2.643   4.139
    1C        C   17   2.901   2.724   4.137
    1C        C   18   3.082   2.613   4.260
    1C        C   19   3.017   2.649   4.381
    1C        C   20   3.213   2.562   4.504
    1C        C   21   3.080   2.610   4.501
    1C        C   22   3.280   2.539   4.626
    1C        C   23   3.207   2.550   4.746
    1C        C   24   3.411   2.486   4.866
    1C        C   25   3.269   2.501   4.865
    1C        C   26   3.488   2.481   4.982
    1C        C   27   2.847   2.766   3.281
    1C        C   28   2.904   2.725   3.403
    1C        C   29   2.853   2.771   3.527
    1C        C   30   3.021   2.643   3.649
    1C        C   31   2.906   2.725   3.650
    1C        C   32   3.079   2.607   3.773
    1C        C   33   3.014   2.642   3.893
    1C        C   34   3.208   2.558   4.015
    1C        C   35   3.076   2.608   4.015
    1C        C   36   3.278   2.538   4.136
    1C        C   37   3.213   2.561   4.259
    1C        C   38   3.419   2.514   4.383
    1C        C   39   3.280   2.539   4.382
    1C        C   40   3.488   2.499   4.505
    1C        C   41   3.417   2.503   4.627
    1C        C   42   3.631   2.484   4.745
    1C        C   43   3.489   2.483   4.747
    1C        C   44   3.705   2.487   4.866
    1C        C   45   3.628   2.481   4.982
    1C        C   46   2.836   2.747   2.796
    1C        C   47   2.897   2.711   2.918
    1C        C   48   2.846   2.763   3.039
    1C        C   49   3.020   2.639   3.161
    1C        C   50   2.903   2.719   3.160
    1C        C   51   3.083   2.604   3.282
    1C        C   52   3.020   2.645   3.402
    1C        C   53   3.212   2.558   3.528
    1C        C   54   3.081   2.611   3.525
    1C        C   55   3.278   2.534   3.651
    1C        C   56   3.209   2.551   3.773
    1C        C   57   3.417   2.509   3.893
    1C        C   58   3.277   2.530   3.895
    1C        C   59   3.486   2.499   4.016
    1C        C   60   3.415   2.504   4.138
    1C        C   61   3.628   2.502   4.260
    1C        C   62   3.487   2.501   4.259
    1C        C   63   3.701   2.505   4.381
    1C        C   64   3.629   2.499   4.502
    1C        C   65   3.836   2.541   4.621
    1C        C   66   3.701   2.499   4.624
    1C        C   67   3.905   2.562   4.743
    1C        C   68   3.841   2.525   4.863
    1C        C   69   4.054   2.584   4.979
    1C        C   70   3.925   2.531   4.976
    1C        C   71   2.829   2.738   2.308
    1C        C   72   2.884   2.696   2.431
    1C        C   73   2.831   2.747   2.551
    1C        C   74   3.008   2.628   2.673
    1C        C   75   2.887   2.701   2.672
    1C        C   76   3.075   2.597   2.794
    1C        C   77   3.017   2.638   2.916
    1C        C   78   3.214   2.556   3.037
    1C        C   79   3.081   2.605   3.038
    1C        C   80   3.279   2.528   3.160
    1C        C   81   3.214   2.551   3.283
    1C        C   82   3.417   2.500   3.403
    1C        C   83   3.279   2.531   3.407
    1C        C   84   3.487   2.498   3.526
    1C        C   85   3.416   2.503   3.648
    1C        C   86   3.628   2.502   3.770
    1C        C   87   3.487   2.495   3.770
    1C        C   88   3.697   2.509   3.893
    1C        C   89   3.627   2.502   4.015
    1C        C   90   3.834   2.548   4.136
    1C        C   91   3.697   2.513   4.138
    1C        C   92   3.906   2.563   4.257
    1C        C   93   3.839   2.535   4.378
    1C        C   94   4.028   2.632   4.500
    1C        C   95   3.905   2.564   4.500
    1C        C   96   4.093   2.666   4.621
    1C        C   97   4.035   2.620   4.741
    1C        C   98   4.195   2.762   4.862
    1C        C   99   4.100   2.654   4.862
    1C        C  100   4.214   2.842   4.975
    1C        C  101   2.816   2.728   2.071
    1C        C  102   2.993   2.595   2.189
    1C        C  103   2.878   2.680   2.188
    1C        C  104   3.062   2.573   2.311
    1C        C  105   3.002   2.618   2.431
    1C        C  106   3.202   2.541   2.553
    1C        C  107   3.071   2.594   2.552
    1C        C  108   3.273   2.520   2.673
    1C        C  109   3.205   2.543   2.795
    1C        C  110   3.417   2.500   2.915
    1C        C  111   3.278   2.527   2.915
    1C        C  112   3.489   2.494   3.037
    1C        C  113   3.417   2.502   3.158
    1C        C  114   3.629   2.501   3.280
    1C        C  115   3.488   2.493   3.281
    1C        C  116   3.698   2.508   3.403
    1C        C  117   3.628   2.499   3.525
    1C        C  118   3.837   2.534   3.647
    1C        C  119   3.699   2.505   3.648
    1C        C  120   3.902   2.562   3.770
    1C        C  121   3.835   2.541   3.892
    1C        C  122   4.027   2.633   4.014
    1C        C  123   3.902   2.568   4.014
    1C        C  124   4.087   2.673   4.136
    1C        C  125   4.029   2.632   4.258
    1C        C  126   4.197   2.764   4.377
    1C        C  127   4.091   2.671   4.379
    1C        C  128   4.241   2.819   4.499
    1C        C  129   4.192   2.767   4.620
    1C        C  130   4.327   2.933   4.739
    1C        C  131   4.247   2.815   4.741
    1C        C  132   4.358   3.002   4.858
    1C        C  133   4.285   2.961   4.970
    1C        C  134   3.176   2.468   2.084
    1C        C  135   3.043   2.513   2.083
    1C        C  136   3.260   2.480   2.196
    1C        C  137   3.194   2.519   2.314
    1C        C  138   3.408   2.484   2.429
    1C        C  139   3.269   2.506   2.433
    1C        C  140   3.483   2.482   2.549
    1C        C  141   3.412   2.497   2.670
    1C        C  142   3.625   2.492   2.793
    1C        C  143   3.484   2.490   2.792
    1C        C  144   3.699   2.499   2.913
    1C        C  145   3.630   2.491   3.036
    1C        C  146   3.838   2.533   3.156
    1C        C  147   3.700   2.502   3.158
    1C        C  148   3.901   2.559   3.280
    1C        C  149   3.836   2.538   3.404
    1C        C  150   4.032   2.620   3.522
    1C        C  151   3.905   2.559   3.526
    1C        C  152   4.087   2.662   3.645
    1C        C  153   4.026   2.629   3.768
    1C        C  154   4.194   2.759   3.888
    1C        C  155   4.083   2.672   3.890
    1C        C  156   4.248   2.809   4.009
    1C        C  157   4.196   2.762   4.132
    1C        C  158   4.337   2.920   4.254
    1C        C  159   4.251   2.809   4.254
    1C        C  160   4.380   2.980   4.375
    1C        C  161   4.335   2.925   4.497
    1C        C  162   4.434   3.116   4.613
    1C        C  163   4.372   2.989   4.617
    1C        C  164   4.463   3.185   4.733
    1C        C  165   4.432   3.122   4.855
    1C        C  166   4.523   3.319   4.968
    1C        C  167   4.482   3.186   4.969
    1C        C  168   3.473   2.437   2.073
    1C        C  169   3.400   2.463   2.190
    1C        C  170   3.620   2.466   2.308
    1C        C  171   3.478   2.468   2.307
    1C        C  172   3.696   2.485   2.426
    1C        C  173   3.624   2.484   2.547
    1C        C  174   3.830   2.534   2.667
    1C        C  175   3.693   2.501   2.669
    1C        C  176   3.902   2.554   2.786
    1C        C  177   3.836   2.534   2.910
    1C        C  178   4.031   2.615   3.032
    1C        C  179   3.903   2.555   3.032
    1C        C  180   4.090   2.654   3.154
    1C        C  181   4.026   2.623   3.277
    1C        C  182   4.199   2.746   3.400
    1C        C  183   4.091   2.656   3.398
    1C        C  184   4.249   2.799   3.521
    1C        C  185   4.195   2.752   3.643
    1C        C  186   4.336   2.913   3.763
    1C        C  187   4.246   2.805   3.765
    1C        C  188   4.379   2.971   3.885
    1C        C  189   4.342   2.913   4.008
    1C        C  190   4.440   3.102   4.127
    1C        C  191   4.378   2.976   4.130
    1C        C  192   4.469   3.170   4.248
    1C        C  193   4.446   3.105   4.371
    1C        C  194   4.502   3.315   4.489
    1C        C  195   4.461   3.180   4.490
    1C        C  196   4.522   3.386   4.610
    1C        C  197   4.508   3.320   4.733
    1C        C  198   4.559   3.536   4.850
    1C        C  199   4.535   3.395   4.851
    1C        C  200   4.578   3.623   4.962
    1C        C  201   3.612   2.419   2.074
    1C        C  202   3.829   2.501   2.182
    1C        C  203   3.692   2.457   2.186
    1C        C  204   3.902   2.536   2.299
    1C        C  205   3.834   2.517   2.421
    1C        C  206   4.021   2.616   2.543
    1C        C  207   3.897   2.549   2.543
    1C        C  208   4.088   2.653   2.662
    1C        C  209   4.028   2.619   2.785
    1C        C  210   4.197   2.742   2.908
    1C        C  211   4.086   2.656   2.909
    1C        C  212   4.250   2.793   3.029
    1C        C  213   4.200   2.743   3.151
    1C        C  214   4.332   2.905   3.273
    1C        C  215   4.246   2.793   3.275
    1C        C  216   4.367   2.968   3.394
    1C        C  217   4.332   2.913   3.520
    1C        C  218   4.431   3.103   3.639
    1C        C  219   4.373   2.974   3.641
    1C        C  220   4.454   3.169   3.762
    1C        C  221   4.439   3.099   3.884
    1C        C  222   4.498   3.306   4.005
    1C        C  223   4.466   3.168   4.004
    1C        C  224   4.510   3.377   4.126
    1C        C  225   4.503   3.307   4.249
    1C        C  226   4.519   3.525   4.366
    1C        C  227   4.510   3.384   4.366
    1C        C  228   4.517   3.598   4.487
    1C        C  229   4.528   3.527   4.609
    1C        C  230   4.501   3.742   4.726
    1C        C  231   4.536   3.604   4.727
    1C        C  232   4.489   3.819   4.844
    1C        C  233   4.547   3.759   4.957
    1C        C  234   4.018   2.604   2.059
    1C        C  235   3.896   2.537   2.065
    1C        C  236   4.080   2.650   2.176
    1C        C  237   4.024   2.609   2.298
    1C        C  238   4.198   2.733   2.421
    1C        C  239   4.082   2.651   2.420
    1C        C  240   4.251   2.788   2.540
    1C        C  241   4.196   2.745   2.662
    1C        C  242   4.337   2.900   2.784
    1C        C  243   4.249   2.790   2.785
    1C        C  244   4.376   2.963   2.905
    1C        C  245   4.337   2.904   3.027
    1C        C  246   4.432   3.092   3.150
    1C        C  247   4.374   2.963   3.150
    1C        C  248   4.458   3.159   3.271
    1C        C  249   4.426   3.096   3.394
    1C        C  250   4.496   3.299   3.514
    1C        C  251   4.458   3.163   3.514
    1C        C  252   4.504   3.370   3.636
    1C        C  253   4.489   3.306   3.761
    1C        C  254   4.509   3.517   3.877
    1C        C  255   4.503   3.376   3.882
    1C        C  256   4.506   3.587   4.000
    1C        C  257   4.508   3.518   4.123
    1C        C  258   4.486   3.733   4.240
    1C        C  259   4.508   3.593   4.243
    1C        C  260   4.471   3.803   4.362
    1C        C  261   4.486   3.736   4.485
    1C        C  262   4.425   3.942   4.601
    1C        C  263   4.475   3.810   4.605
    1C        C  264   4.401   4.010   4.723
    1C        C  265   4.427   3.945   4.846
    1C        C  266   4.314   4.133   4.957
    1C        C  267   4.390   4.016   4.960
    1C        C  268   4.261   2.770   2.064
    1C        C  269   4.197   2.730   2.182
    1C        C  270   4.345   2.889   2.297
    1C        C  271   4.256   2.778   2.300
    1C        C  272   4.383   2.954   2.417
    1C        C  273   4.341   2.897   2.539
    1C        C  274   4.440   3.084   2.662
    1C        C  275   4.377   2.958   2.662
    1C        C  276   4.471   3.152   2.782
    1C        C  277   4.443   3.087   2.905
    1C        C  278   4.491   3.294   3.024
    1C        C  279   4.459   3.156   3.027
    1C        C  280   4.500   3.364   3.146
    1C        C  281   4.490   3.296   3.269
    1C        C  282   4.506   3.508   3.391
    1C        C  283   4.506   3.367   3.390
    1C        C  284   4.503   3.580   3.512
    1C        C  285   4.508   3.511   3.635
    1C        C  286   4.487   3.728   3.752
    1C        C  287   4.504   3.588   3.754
    1C        C  288   4.466   3.793   3.875
    1C        C  289   4.482   3.726   3.999
    1C        C  290   4.427   3.936   4.116
    1C        C  291   4.469   3.801   4.118
    1C        C  292   4.400   4.003   4.237
    1C        C  293   4.427   3.937   4.360
    1C        C  294   4.327   4.130   4.478
    1C        C  295   4.392   4.005   4.479
    1C        C  296   4.287   4.191   4.599
    1C        C  297   4.328   4.132   4.721
    1C        C  298   4.196   4.313   4.836
    1C        C  299   4.285   4.201   4.838
    1C        C  300   4.171   4.405   4.943
    1C        C  301   4.349   2.878   2.065
    1C        C  302   4.473   3.068   2.179
    1C        C  303   4.395   2.947   2.177
    1C        C  304   4.480   3.143   2.299
    1C        C  305   4.449   3.078   2.420
    1C        C  306   4.510   3.285   2.534
    1C        C  307   4.475   3.148   2.541
    1C        C  308   4.511   3.356   2.656
    1C        C  309   4.504   3.289   2.780
    1C        C  310   4.522   3.503   2.899
    1C        C  311   4.510   3.362   2.901
    1C        C  312   4.517   3.572   3.022
    1C        C  313   4.513   3.505   3.147
    1C        C  314   4.477   3.716   3.265
    1C        C  315   4.505   3.578   3.268
    1C        C  316   4.470   3.789   3.386
    1C        C  317   4.490   3.721   3.508
    1C        C  318   4.426   3.927   3.628
    1C        C  319   4.473   3.794   3.628
    1C        C  320   4.394   3.993   3.749
    1C        C  321   4.424   3.928   3.871
    1C        C  322   4.319   4.115   3.992
    1C        C  323   4.396   3.996   3.992
    1C        C  324   4.284   4.179   4.113
    1C        C  325   4.330   4.126   4.235
    1C        C  326   4.189   4.288   4.353
    1C        C  327   4.288   4.187   4.355
    1C        C  328   4.134   4.335   4.474
    1C        C  329   4.191   4.294   4.597
    1C        C  330   4.029   4.444   4.712
    1C        C  331   4.140   4.356   4.713
    1C        C  332   3.971   4.496   4.830
    1C        C  333   4.052   4.479   4.943
    1C        C  334   4.552   3.266   2.060
    1C        C  335   4.534   3.127   2.064
    1C        C  336   4.531   3.350   2.170
    1C        C  337   4.509   3.283   2.292
    1C        C  338   4.523   3.497   2.412
    1C        C  339   4.519   3.356   2.413
    1C        C  340   4.519   3.569   2.533
    1C        C  341   4.524   3.497   2.655
    1C        C  342   4.492   3.708   2.776
    1C        C  343   4.524   3.570   2.775
    1C        C  344   4.474   3.778   2.897
    1C        C  345   4.493   3.711   3.020
    1C        C  346   4.421   3.915   3.139
    1C        C  347   4.466   3.781   3.140
    1C        C  348   4.396   3.985   3.259
    1C        C  349   4.429   3.924   3.382
    1C        C  350   4.325   4.109   3.502
    1C        C  351   4.401   3.990   3.504
    1C        C  352   4.279   4.167   3.622
    1C        C  353   4.320   4.113   3.746
    1C        C  354   4.177   4.268   3.866
    1C        C  355   4.278   4.169   3.869
    1C        C  356   4.125   4.318   3.987
    1C        C  357   4.182   4.277   4.110
    1C        C  358   4.010   4.403   4.228
    1C        C  359   4.130   4.328   4.231
    1C        C  360   3.952   4.446   4.349
    1C        C  361   4.019   4.417   4.470
    1C        C  362   3.828   4.512   4.594
    1C        C  363   3.961   4.464   4.590
    1C        C  364   3.760   4.541   4.714
    1C        C  365   3.836   4.539   4.833
    1C        C  366   3.628   4.584   4.952
    1C        C  367   3.767   4.578   4.948
    1C        C  368   4.513   3.567   2.055
    1C        C  369   4.517   3.490   2.172
    1C        C  370   4.501   3.709   2.290
    1C        C  371   4.516   3.568   2.290
    1C        C  372   4.480   3.779   2.411
    1C        C  373   4.497   3.708   2.532
    1C        C  374   4.424   3.909   2.652
    1C        C  375   4.471   3.775   2.654
    1C        C  376   4.396   3.974   2.773
    1C        C  377   4.426   3.911   2.896
    1C        C  378   4.319   4.098   3.011
    1C        C  379   4.396   3.980   3.016
    1C        C  380   4.275   4.156   3.132
    1C        C  381   4.320   4.104   3.255
    1C        C  382   4.180   4.261   3.376
    1C        C  383   4.279   4.161   3.378
    1C        C  384   4.126   4.311   3.497
    1C        C  385   4.181   4.268   3.620
    1C        C  386   4.008   4.391   3.740
    1C        C  387   4.127   4.314   3.742
    1C        C  388   3.946   4.430   3.861
    1C        C  389   4.011   4.402   3.983
    1C        C  390   3.820   4.493   4.107
    1C        C  391   3.952   4.441   4.105
    1C        C  392   3.752   4.512   4.229
    1C        C  393   3.822   4.500   4.352
    1C        C  394   3.619   4.556   4.474
    1C        C  395   3.758   4.534   4.473
    1C        C  396   3.546   4.566   4.595
    1C        C  397   3.620   4.563   4.715
    1C        C  398   3.409   4.554   4.840
    1C        C  399   3.549   4.576   4.836
    1C        C  400   3.340   4.518   4.956
    1C        C  401   4.498   3.706   2.054
    1C        C  402   4.454   3.920   2.167
    1C        C  403   4.491   3.783   2.170
    1C        C  404   4.419   3.984   2.288
    1C        C  405   4.437   3.913   2.408
    1C        C  406   4.325   4.094   2.526
    1C        C  407   4.404   3.978   2.530
    1C        C  408   4.277   4.148   2.647
    1C        C  409   4.324   4.096   2.770
    1C        C  410   4.176   4.255   2.889
    1C        C  411   4.277   4.156   2.889
    1C        C  412   4.125   4.303   3.011
    1C        C  413   4.178   4.259   3.134
    1C        C  414   4.000   4.377   3.253
    1C        C  415   4.121   4.305   3.255
    1C        C  416   3.940   4.413   3.375
    1C        C  417   4.003   4.380   3.497
    1C        C  418   3.812   4.476   3.616
    1C        C  419   3.942   4.420   3.619
    1C        C  420   3.749   4.504   3.739
    1C        C  421   3.815   4.481   3.862
    1C        C  422   3.612   4.535   3.986
    1C        C  423   3.751   4.508   3.985
    1C        C  424   3.543   4.540   4.109
    1C        C  425   3.613   4.535   4.232
    1C        C  426   3.403   4.546   4.354
    1C        C  427   3.544   4.552   4.355
    1C        C  428   3.335   4.543   4.478
    1C        C  429   3.405   4.557   4.600
    1C        C  430   3.195   4.515   4.723
    1C        C  431   3.333   4.547   4.721
    1C        C  432   3.126   4.489   4.845
    1C        C  433   3.203   4.496   4.962
    1C        C  434   4.386   4.124   2.053
    1C        C  435   4.440   3.995   2.050
    1C        C  436   4.304   4.166   2.163
    1C        C  437   4.341   4.104   2.286
    1C        C  438   4.181   4.250   2.401
    1C        C  439   4.285   4.155   2.404
    1C        C  440   4.131   4.301   2.523
    1C        C  441   4.184   4.253   2.644
    1C        C  442   4.006   4.375   2.765
    1C        C  443   4.122   4.295   2.764
    1C        C  444   3.940   4.406   2.886
    1C        C  445   4.004   4.375   3.009
    1C        C  446   3.810   4.469   3.128
    1C        C  447   3.939   4.410   3.130
    1C        C  448   3.745   4.494   3.251
    1C        C  449   3.811   4.470   3.374
    1C        C  450   3.604   4.525   3.496
    1C        C  451   3.742   4.492   3.495
    1C        C  452   3.540   4.542   3.620
    1C        C  453   3.611   4.537   3.742
    1C        C  454   3.400   4.540   3.865
    1C        C  455   3.541   4.542   3.864
    1C        C  456   3.331   4.532   3.988
    1C        C  457   3.402   4.535   4.110
    1C        C  458   3.193   4.505   4.236
    1C        C  459   3.332   4.530   4.233
    1C        C  460   3.128   4.489   4.360
    1C        C  461   3.197   4.512   4.482
    1C        C  462   2.996   4.435   4.604
    1C        C  463   3.125   4.492   4.602
    1C        C  464   2.928   4.404   4.724
    1C        C  465   2.990   4.445   4.845
    1C        C  466   2.797   4.338   4.961
    1C        C  467   2.909   4.423   4.961
    1C        C  468   4.123   4.289   2.041
    1C        C  469   4.188   4.249   2.159
    1C        C  470   4.008   4.375   2.280
    1C        C  471   4.126   4.295   2.279
    1C        C  472   3.942   4.405   2.401
    1C        C  473   4.010   4.376   2.521
    1C        C  474   3.814   4.459   2.643
    1C        C  475   3.946   4.409   2.642
    1C        C  476   3.742   4.484   2.762
    1C        C  477   3.810   4.461   2.884
    1C        C  478   3.606   4.517   3.010
    1C        C  479   3.744   4.489   3.005
    1C        C  480   3.534   4.526   3.131
    1C        C  481   3.606   4.519   3.253
    1C        C  482   3.392   4.531   3.378
    1C        C  483   3.533   4.530   3.374
    1C        C  484   3.325   4.532   3.502
    1C        C  485   3.398   4.543   3.623
    1C        C  486   3.190   4.497   3.745
    1C        C  487   3.327   4.532   3.744
    1C        C  488   3.128   4.476   3.870
    1C        C  489   3.193   4.501   3.993
    1C        C  490   2.997   4.421   4.116
    1C        C  491   3.125   4.481   4.115
    1C        C  492   2.942   4.385   4.241
    1C        C  493   3.001   4.427   4.362
    1C        C  494   2.825   4.308   4.481
    1C        C  495   2.935   4.396   4.483
    1C        C  496   2.773   4.258   4.603
    1C        C  497   2.819   4.313   4.725
    1C        C  498   2.668   4.163   4.844
    1C        C  499   2.755   4.273   4.844
    1C        C  500   2.594   4.119   4.954
    1C        C  501   3.996   4.346   2.037
    1C        C  502   3.816   4.459   2.157
    1C        C  503   3.943   4.397   2.157
    1C        C  504   3.742   4.475   2.276
    1C        C  505   3.810   4.455   2.399
    1C        C  506   3.604   4.502   2.522
    1C        C  507   3.743   4.475   2.521
    1C        C  508   3.533   4.508   2.644
    1C        C  509   3.604   4.512   2.767
    1C        C  510   3.393   4.526   2.887
    1C        C  511   3.534   4.526   2.888
    1C        C  512   3.321   4.520   3.009
    1C        C  513   3.393   4.532   3.130
    1C        C  514   3.188   4.493   3.257
    1C        C  515   3.325   4.528   3.254
    1C        C  516   3.120   4.476   3.379
    1C        C  517   3.186   4.505   3.501
    1C        C  518   2.995   4.412   3.624
    1C        C  519   3.122   4.475   3.623
    1C        C  520   2.940   4.376   3.748
    1C        C  521   3.002   4.412   3.870
    1C        C  522   2.831   4.290   3.996
    1C        C  523   2.940   4.380   3.993
    1C        C  524   2.787   4.238   4.119
    1C        C  525   2.835   4.293   4.240
    1C        C  526   2.695   4.135   4.362
    1C        C  527   2.777   4.250   4.362
    1C        C  528   2.658   4.076   4.485
    1C        C  529   2.691   4.143   4.604
    1C        C  530   2.585   3.959   4.730
    1C        C  531   2.645   4.088   4.726
    1C        C  532   2.543   3.902   4.853
    1C        C  533   2.528   3.995   4.960
    1C        C  534   3.618   4.553   2.040
    1C        C  535   3.751   4.508   2.044
    1C        C  536   3.537   4.531   2.155
    1C        C  537   3.604   4.508   2.279
    1C        C  538   3.393   4.519   2.401
    1C        C  539   3.534   4.518   2.401
    1C        C  540   3.320   4.513   2.522
    1C        C  541   3.392   4.512   2.643
    1C        C  542   3.183   4.487   2.767
    1C        C  543   3.321   4.515   2.765
    1C        C  544   3.117   4.463   2.889
    1C        C  545   3.184   4.486   3.012
    1C        C  546   2.993   4.404   3.135
    1C        C  547   3.120   4.466   3.136
    1C        C  548   2.933   4.372   3.259
    1C        C  549   2.995   4.410   3.380
    1C        C  550   2.828   4.280   3.507
    1C        C  551   2.935   4.372   3.502
    1C        C  552   2.779   4.233   3.631
    1C        C  553   2.831   4.286   3.751
    1C        C  554   2.701   4.121   3.875
    1C        C  555   2.783   4.237   3.874
    1C        C  556   2.663   4.064   3.998
    1C        C  557   2.699   4.127   4.119
    1C        C  558   2.599   3.943   4.246
    1C        C  559   2.657   4.072   4.242
    1C        C  560   2.571   3.879   4.369
    1C        C  561   2.599   3.947   4.489
    1C        C  562   2.533   3.748   4.614
    1C        C  563   2.566   3.885   4.611
    1C        C  564   2.522   3.681   4.738
    1C        C  565   2.522   3.760   4.856
    1C        C  566   2.530   3.547   4.977
    1C        C  567   2.528   3.686   4.975
    1C        C  568   3.327   4.481   2.039
    1C        C  569   3.396   4.512   2.157
    1C        C  570   3.185   4.474   2.282
    1C        C  571   3.322   4.512   2.278
    1C        C  572   3.114   4.461   2.403
    1C        C  573   3.180   4.490   2.524
    1C        C  574   2.984   4.409   2.645
    1C        C  575   3.112   4.469   2.646
    1C        C  576   2.930   4.366   2.768
    1C        C  577   2.993   4.397   2.890
    1C        C  578   2.824   4.274   3.015
    1C        C  579   2.934   4.362   3.014
    1C        C  580   2.781   4.223   3.140
    1C        C  581   2.829   4.277   3.262
    1C        C  582   2.697   4.113   3.385
    1C        C  583   2.781   4.226   3.385
    1C        C  584   2.667   4.052   3.509
    1C        C  585   2.704   4.113   3.631
    1C        C  586   2.601   3.930   3.755
    1C        C  587   2.665   4.056   3.755
    1C        C  588   2.577   3.867   3.879
    1C        C  589   2.608   3.933   4.000
    1C        C  590   2.541   3.737   4.128
    1C        C  591   2.583   3.872   4.125
    1C        C  592   2.529   3.669   4.251
    1C        C  593   2.535   3.742   4.372
    1C        C  594   2.516   3.532   4.497
    1C        C  595   2.525   3.673   4.495
    1C        C  596   2.520   3.464   4.621
    1C        C  597   2.519   3.539   4.741
    1C        C  598   2.531   3.326   4.863
    1C        C  599   2.527   3.467   4.862
    1C        C  600   2.531   3.247   4.978
    1C        C  601   3.194   4.443   2.041
    1C        C  602   2.984   4.397   2.160
    1C        C  603   3.122   4.437   2.160
    1C        C  604   2.922   4.363   2.283
    1C        C  605   2.985   4.403   2.403
    1C        C  606   2.817   4.274   2.528
    1C        C  607   2.922   4.369   2.524
    1C        C  608   2.769   4.220   2.650
    1C        C  609   2.824   4.272   2.769
    1C        C  610   2.692   4.109   2.894
    1C        C  611   2.776   4.223   2.892
    1C        C  612   2.660   4.048   3.017
    1C        C  613   2.701   4.107   3.139
    1C        C  614   2.598   3.926   3.265
    1C        C  615   2.662   4.052   3.263
    1C        C  616   2.574   3.862   3.388
    1C        C  617   2.602   3.927   3.511
    1C        C  618   2.536   3.727   3.638
    1C        C  619   2.575   3.862   3.634
    1C        C  620   2.519   3.662   3.763
    1C        C  621   2.539   3.731   3.884
    1C        C  622   2.515   3.524   4.011
    1C        C  623   2.529   3.664   4.008
    1C        C  624   2.513   3.453   4.134
    1C        C  625   2.515   3.528   4.254
    1C        C  626   2.531   3.318   4.380
    1C        C  627   2.516   3.458   4.376
    1C        C  628   2.551   3.250   4.502
    1C        C  629   2.544   3.325   4.622
    1C        C  630   2.598   3.119   4.745
    1C        C  631   2.553   3.254   4.743
    1C        C  632   2.617   3.048   4.867
    1C        C  633   2.566   3.111   4.984
    1C        C  634   2.787   4.297   2.051
    1C        C  635   2.890   4.392   2.052
    1C        C  636   2.751   4.230   2.168
    1C        C  637   2.810   4.276   2.288
    1C        C  638   2.680   4.107   2.408
    1C        C  639   2.760   4.224   2.409
    1C        C  640   2.648   4.044   2.530
    1C        C  641   2.690   4.103   2.652
    1C        C  642   2.582   3.923   2.777
    1C        C  643   2.649   4.047   2.775
    1C        C  644   2.560   3.856   2.900
    1C        C  645   2.598   3.921   3.019
    1C        C  646   2.530   3.724   3.149
    1C        C  647   2.569   3.860   3.143
    1C        C  648   2.521   3.656   3.273
    1C        C  649   2.537   3.726   3.394
    1C        C  650   2.515   3.516   3.524
    1C        C  651   2.525   3.656   3.516
    1C        C  652   2.517   3.445   3.647
    1C        C  653   2.513   3.521   3.766
    1C        C  654   2.527   3.312   3.891
    1C        C  655   2.511   3.452   3.889
    1C        C  656   2.547   3.244   4.013
    1C        C  657   2.533   3.314   4.136
    1C        C  658   2.604   3.117   4.258
    1C        C  659   2.551   3.247   4.259
    1C        C  660   2.631   3.053   4.381
    1C        C  661   2.601   3.118   4.503
    1C        C  662   2.712   2.938   4.627
    1C        C  663   2.630   3.053   4.625
    1C        C  664   2.751   2.877   4.748
    1C        C  665   2.697   2.929   4.869
    1C        C  666   2.748   2.873   4.987
    1C        C  667   2.692   4.020   2.056
    1C        C  668   2.688   4.104   2.168
    1C        C  669   2.591   3.912   2.293
    1C        C  670   2.642   4.044   2.288
    1C        C  671   2.563   3.845   2.414
    1C        C  672   2.592   3.914   2.533
    1C        C  673   2.522   3.717   2.660
    1C        C  674   2.566   3.851   2.657
    1C        C  675   2.514   3.648   2.783
    1C        C  676   2.526   3.719   2.904
    1C        C  677   2.516   3.510   3.032
    1C        C  678   2.519   3.651   3.028
    1C        C  679   2.516   3.442   3.156
    1C        C  680   2.513   3.515   3.277
    1C        C  681   2.530   3.307   3.400
    1C        C  682   2.511   3.447   3.401
    1C        C  683   2.552   3.238   3.522
    1C        C  684   2.535   3.305   3.645
    1C        C  685   2.596   3.108   3.772
    1C        C  686   2.548   3.241   3.771
    1C        C  687   2.630   3.047   3.895
    1C        C  688   2.597   3.112   4.015
    1C        C  689   2.711   2.932   4.138
    1C        C  690   2.633   3.050   4.137
    1C        C  691   2.756   2.881   4.262
    1C        C  692   2.709   2.935   4.383
    1C        C  693   2.752   2.878   4.505
    1C        C  694   2.635   3.893   2.057
    1C        C  695   2.537   3.702   2.178
    1C        C  696   2.582   3.836   2.174
    1C        C  697   2.511   3.634   2.299
    1C        C  698   2.523   3.709   2.418
    1C        C  699   2.490   3.502   2.543
    1C        C  700   2.501   3.643   2.541
    1C        C  701   2.504   3.433   2.665
    1C        C  702   2.505   3.507   2.786
    1C        C  703   2.527   3.299   2.914
    1C        C  704   2.509   3.439   2.910
    1C        C  705   2.547   3.231   3.036
    1C        C  706   2.536   3.302   3.157
    1C        C  707   2.593   3.101   3.280
    1C        C  708   2.545   3.234   3.280
    1C        C  709   2.627   3.042   3.403
    1C        C  710   2.600   3.105   3.526
    1C        C  711   2.707   2.927   3.648
    1C        C  712   2.625   3.043   3.650
    1C        C  713   2.753   2.874   3.770
    1C        C  714   2.712   2.932   3.892
    1C        C  715   2.754   2.876   4.015
    1C        C  716   2.449   3.504   2.063
    1C        C  717   2.495   3.636   2.062
    1C        C  718   2.465   3.422   2.179
    1C        C  719   2.484   3.495   2.300
    1C        C  720   2.521   3.289   2.426
    1C        C  721   2.489   3.426   2.424
    1C        C  722   2.540   3.221   2.548
    1C        C  723   2.524   3.293   2.669
    1C        C  724   2.593   3.096   2.793
    1C        C  725   2.541   3.228   2.793
    1C        C  726   2.622   3.031   2.914
    1C        C  727   2.593   3.097   3.036
    1C        C  728   2.701   2.917   3.159
    1C        C  729   2.623   3.034   3.159
    1C        C  730   2.746   2.865   3.283
    1C        C  731   2.710   2.927   3.405
    1C        C  732   2.754   2.871   3.527
    1C        C  733   2.493   3.198   2.073
    1C        C  734   2.490   3.281   2.186
    1C        C  735   2.575   3.081   2.305
    1C        C  736   2.525   3.214   2.306
    1C        C  737   2.610   3.018   2.426
    1C        C  738   2.587   3.088   2.547
    1C        C  739   2.701   2.914   2.672
    1C        C  740   2.621   3.030   2.671
    1C        C  741   2.741   2.852   2.793
    1C        C  742   2.699   2.912   2.913
    1C        C  743   2.746   2.863   3.037
    1C        C  744   2.542   3.068   2.071
    1C        C  745   2.675   2.890   2.188
    1C        C  746   2.598   3.009   2.185
    1C        C  747   2.727   2.837   2.307
    1C        C  748   2.684   2.898   2.427
    1C        C  749   2.735   2.850   2.550
    1C        C  750   2.733   2.839   2.071
    1C        C  751   3.663   2.313   1.983
    1C        O  752   3.692   2.197   2.020
    1C        O  753   3.695   2.344   1.850
    1C        C  754   4.621   3.048   1.973
    1C        O  755   4.584   3.002   1.862
    1C        O  756   4.760   3.046   1.990
    1C        C  757   4.447   4.223   1.962
    1C        O  758   4.566   4.263   1.975
    1C        O  759   4.385   4.226   1.836
    1C        C  760   3.590   4.649   1.931
    1C        O  761   3.563   4.768   1.965
    1C        O  762   3.640   4.631   1.802
    1C        C  763   2.856   4.496   1.953
    1C        O  764   2.892   4.473   1.834
    1C        O  765   2.746   4.583   1.946
    1C        C  766   2.375   3.477   1.937
    1C        O  767   2.434   3.494   1.827
    1C        O  768   2.236   3.484   1.921
    1C        C  769   4.702   3.602   5.041
    1C        O  770   4.718   3.622   5.164
    1C        O  771   4.822   3.618   4.972
    1C        C  772   4.284   4.470   5.012
    1C        O  773   4.297   4.471   5.137
    1C        O  774   4.401   4.522   4.955
    1C        C  775   4.146   2.537   5.084
    1C        O  776   4.182   2.416   5.090
    1C        O  777   4.113   2.571   5.216
    1C        C  778   2.923   4.509   5.080
    1C        O  779   2.858   4.616   5.095
    1C        O  780   2.976   4.450   5.196
    1C        C  781   2.481   3.027   5.072
    1C        O  782   2.359   3.016   5.042
    1C        O  783   2.512   2.990   5.203
    1C        C  784   2.418   3.998   5.058
    1C        O  785   2.304   4.028   5.013
    1C        O  786   2.436   3.971   5.195
    1C        C  787   2.967   2.450   1.973
    1C        O  788   2.934   2.507   1.866
    1C        O  789   2.936   2.314   1.970
    1C        C  790   3.156   2.362   5.048
    1C        O  791   3.121   2.255   4.990
    1C        O  792   3.128   2.366   5.185
    1C        H  793   4.230   3.041   5.016
    1C        H  794   4.167   2.813   5.067
    1C        H  795   4.532   3.125   5.042
    1C        H  796   4.488   3.373   5.054
    1C        H  797   4.580   3.815   5.042
    1C        H  798   4.460   4.003   5.040
    1C        H  799   4.239   4.140   5.033
    1C        H  800   4.039   4.551   5.021
    1C        H  801   3.819   4.634   5.022
    1C        H  802   3.577   4.621   5.038
    1C        H  803   3.391   4.507   5.050
    1C        H  804   3.172   4.448   5.052
    1C        H  805   3.895   2.485   5.068
    1C        H  806   3.673   2.478   5.079
    1C        H  807   2.996   2.546   5.054
    1C        H  808   3.439   2.471   5.077
    1C        H  809   2.887   2.740   5.076
    1C        H  810   2.724   2.917   5.082
    1C        H  811   2.502   3.295   5.069
    1C        H  812   2.535   3.499   5.072
    1C        H  813   2.517   3.740   5.067
    1C        H  814   2.564   4.192   5.027
    1C        H  815   2.727   4.345   5.042
    1C        H  816   2.751   2.909   1.992
    1C        H  817   2.814   2.660   1.989
    1C        H  818   3.202   2.393   2.012
    1C        H  819   3.430   2.464   1.979
    1C        H  820   3.833   2.559   1.981
    1C        H  821   4.063   2.619   1.963
    1C        H  822   4.266   2.702   1.982
    1C        H  823   4.392   2.893   1.968
    1C        H  824   4.612   3.305   1.981
    1C        H  825   4.487   3.517   1.964
    1C        H  826   4.521   3.750   1.959
    1C        H  827   3.812   4.540   1.962
    1C        H  828   3.930   4.317   1.959
    1C        H  829   4.180   4.300   1.952
    1C        H  830   4.492   3.966   1.961
    1C        H  831   2.650   3.836   1.968
    1C        H  832   2.744   4.054   1.968
    1C        H  833   2.713   4.297   1.973
    1C        H  834   3.378   4.502   1.947
    1C        H  835   3.142   4.428   1.949
    1C        H  836   2.559   3.027   1.974
    1C        H  837   2.459   3.239   1.980
    1C        H  838   2.459   3.700   1.985
    2V3OU   H29  839   2.806   3.555   5.115
    2V3OU   C27  840   2.780   3.502   5.210
    2V3OU   H27  841   2.725   3.568   5.282
    2V3OU   H28  842   2.731   3.405   5.185
    2V3OU   O11  843   2.902   3.476   5.281
    2V3OU   C15  844   2.921   3.394   5.390
    2V3OU   C13  845   3.053   3.374   5.433
    2V3OU   C14  846   3.076   3.265   5.519
    2V3OU   C16  847   2.969   3.189   5.565
    2V3OU    H6  848   2.988   3.111   5.641
    2V3OU   C12  849   3.216   3.229   5.547
    2V3OU    O2  850   3.250   3.121   5.601
    2V3OU   C10  851   3.328   3.309   5.494
    2V3OU    C8  852   3.461   3.274   5.510
    2V3OU   O10  853   3.488   3.149   5.557
    2V3OU   H26  854   3.400   3.117   5.583
    2V3OU    C6  855   3.569   3.353   5.458
    2V3OU    C5  856   3.538   3.470   5.391
    2V3OU    C4  857   3.705   3.293   5.447
    2V3OU    H4  858   3.731   3.234   5.540
    2V3OU    H5  859   3.712   3.230   5.353
    2V3OU    C2  860   3.819   3.395   5.448
    2V3OU    O6  861   3.806   3.473   5.568
    2V3OU   H21  862   3.763   3.553   5.533
    2V3OU    C3  863   3.782   3.499   5.342
    2V3OU    H2  864   3.858   3.580   5.326
    2V3OU    H3  865   3.778   3.439   5.248
    2V3OU   C25  866   3.957   3.329   5.437
    2V3OU    O7  867   3.996   3.297   5.325
    2V3OU   C26  868   4.029   3.289   5.564
    2V3OU   H22  869   4.065   3.382   5.615
    2V3OU   H23  870   4.118   3.227   5.539
    2V3OU    O8  871   3.960   3.213   5.660
    2V3OU   H24  872   3.924   3.268   5.732
    2V3OU    C1  873   3.646   3.567   5.353
    2V3OU    H1  874   3.623   3.617   5.255
    2V3OU    O3  875   3.662   3.658   5.463
    2V3OU   C19  876   3.619   3.794   5.451
    2V3OU    H9  877   3.520   3.797   5.397
    2V3OU    O4  878   3.711   3.857   5.365
    2V3OU   C20  879   3.844   3.874   5.414
    2V3OU   H10  880   3.889   3.773   5.437
    2V3OU   C24  881   3.610   3.857   5.590
    2V3OU   H16  882   3.540   3.797   5.655
    2V3OU   H17  883   3.569   3.960   5.573
    2V3OU   C23  884   3.750   3.875   5.648
    2V3OU   H15  885   3.794   3.772   5.669
    2V3OU    N1  886   3.736   3.952   5.771
    2V3OU   H19  887   3.802   3.921   5.839
    2V3OU   H20  888   3.648   3.927   5.810
    2V3OU   C21  889   3.847   3.946   5.549
    2V3OU   H11  890   3.950   3.925   5.591
    2V3OU    O5  891   3.829   4.087   5.551
    2V3OU   H18  892   3.780   4.102   5.633
    2V3OU   C22  893   3.916   3.950   5.304
    2V3OU   H12  894   3.862   4.045   5.279
    2V3OU   H13  895   3.908   3.892   5.208
    2V3OU   H14  896   4.027   3.954   5.317
    2V3OU   C11  897   3.159   3.473   5.410
    2V3OU    O1  898   3.139   3.589   5.368
    2V3OU    C9  899   3.299   3.426   5.420
    2V3OU    C7  900   3.401   3.505   5.369
    2V3OU    O9  901   3.382   3.615   5.288
    2V3OU   H25  902   3.286   3.629   5.288
    2V3OU   C17  903   2.815   3.313   5.436
    2V3OU    H7  904   2.713   3.341   5.410
    2V3OU   C18  905   2.837   3.214   5.531
    2V3OU    H8  906   2.750   3.151   5.553
    3SOL     OW  907   3.921   4.045   4.170
    3SOL    HW1  908   3.872   4.088   4.245
    3SOL    HW2  909   3.876   4.067   4.083
    4SOL     OW  910   6.650   0.570   0.525
    4SOL    HW1  911   6.592   0.621   0.588
    4SOL    HW2  912   6.632   0.600   0.431
    5SOL     OW  913   4.758   1.615   1.401
    5SOL    HW1  914   4.735   1.520   1.377
    5SOL    HW2  915   4.748   1.673   1.321
    6SOL     OW  916   5.848   0.496   2.858
    6SOL    HW1  917   5.863   0.410   2.907
    6SOL    HW2  918   5.821   0.567   2.923
    7SOL     OW  919   2.178   4.507   3.890
    7SOL    HW1  920   2.100   4.443   3.891
    7SOL    HW2  921   2.248   4.473   3.827
    8SOL     OW  922   1.721   3.069   5.651
    8SOL    HW1  923   1.788   3.015   5.702
    8SOL    HW2  924   1.741   3.166   5.663
    9SOL     OW  925   6.504   1.063   6.801
    9SOL    HW1  926   6.467   0.973   6.777
    9SOL    HW2  927   6.590   1.077   6.751
   10SOL     OW  928   4.424   4.531   2.908
   10SOL    HW1  929   4.448   4.618   2.951
   10SOL    HW2  930   4.484   4.459   2.943
   11SOL     OW  931   2.741   0.937   0.357
   11SOL    HW1  932   2.726   0.854   0.304
   11SOL    HW2  933   2.719   1.017   0.301
   12SOL     OW  934   3.028   5.015   3.225
   12SOL    HW1  935   3.103   4.970   3.274
   12SOL    HW2  936   2.951   4.952   3.217
   13SOL     OW  937   5.017   6.353   1.224
   13SOL    HW1  938   5.104   6.323   1.262
   13SOL    HW2  939   4.968   6.408   1.293
   14SOL     OW  940   4.366   5.444   5.257
   14SOL    HW1  941   4.333   5.363   5.305
   14SOL    HW2  942   4.382   5.422   5.161
   15SOL     OW  943   6.632   5.951   6.353
   15SOL    HW1  944   6.663   5.856   6.353
   15SOL    HW2  945   6.676   5.999   6.430
   16SOL     OW  946   1.003   4.220   4.863
   16SOL    HW1  947   1.091   4.219   4.910
   16SOL    HW2  948   0.959   4.130   4.873
   17SOL     OW  949   5.907   1.624   5.144
   17SOL    HW1  950   5.815   1.640   5.107
   17SOL    HW2  951   5.964   1.581   5.074
   18SOL     OW  952   2.780   1.001   5.751
   18SOL    HW1  953   2.690   1.042   5.766
   18SOL    HW2  954   2.801   0.939   5.827
   19SOL     OW  955   1.989   0.907   2.907
   19SOL    HW1  956   2.026   0.992   2.870
   19SOL    HW2  957   1.896   0.923   2.942
   20SOL     OW  958   6.199   1.657   5.428
   20SOL    HW1  959   6.116   1.648   5.483
   20SOL    HW2  960   6.175   1.689   5.336
   21SOL     OW  961   2.764   4.733   2.899
   21SOL    HW1  962   2.751   4.832   2.900
   21SOL    HW2  963   2.742   4.697   2.808
   22SOL     OW  964   1.818   6.305   6.081
   22SOL    HW1  965   1.876   6.231   6.114
   22SOL    HW2  966   1.809   6.375   6.152
   23SOL     OW  967   5.311   4.309   1.505
   23SOL    HW1  968   5.334   4.389   1.561
   23SOL    HW2  969   5.268   4.239   1.562
   24SOL     OW  970   4.437   1.004   1.239
   24SOL    HW1  971   4.443   0.964   1.331
   24SOL    HW2  972   4.494   1.086   1.234
   25SOL     OW  973   1.683   1.245   4.732
   25SOL    HW1  974   1.678   1.259   4.831
   25SOL    HW2  975   1.779   1.247   4.704
   26SOL     OW  976   1.428   2.772   6.947
   26SOL    HW1  977   1.474   2.843   7.001
   26SOL    HW2  978   1.366   2.720   7.006
   27SOL     OW  979   6.551   0.703   1.125
   27SOL    HW1  980   6.570   0.653   1.041
   27SOL    HW2  981   6.452   0.700   1.144
   28SOL     OW  982   2.578   0.883   5.136
   28SOL    HW1  983   2.483   0.861   5.159
   28SOL    HW2  984   2.621   0.803   5.093
   29SOL     OW  985   0.344   0.496   1.315
   29SOL    HW1  986   0.375   0.477   1.222
   29SOL    HW2  987   0.346   0.412   1.369
   30SOL     OW  988   3.952   0.402   4.914
   30SOL    HW1  989   3.853   0.418   4.909
   30SOL    HW2  990   3.988   0.387   4.822
   31SOL     OW  991   1.114   3.724   5.026
   31SOL    HW1  992   1.131   3.755   5.120
   31SOL    HW2  993   1.016   3.707   5.015
   32SOL     OW  994   2.905   0.711   1.018
   32SOL    HW1  995   2.988   0.678   1.064
   32SOL    HW2  996   2.853   0.769   1.081
   33SOL     OW  997   0.675   5.437   5.428
   33SOL    HW1  998   0.754   5.400   5.476
   33SOL    HW2  999   0.600   5.371   5.431
   34SOL     OW 1000   2.187   5.638   5.125
   34SOL    HW1 1001   2.245   5.644   5.207
   34SOL    HW2 1002   2.093   5.620   5.152
   35SOL     OW 1003   2.819   3.094   0.194
   35SOL    HW1 1004   2.844   3.179   0.240
   35SOL    HW2 1005   2.722   3.075   0.208
   36SOL     OW 1006   4.262   0.982   4.659
   36SOL    HW1 1007   4.316   0.909   4.702
   36SOL    HW2 1008   4.310   1.069   4.670
   37SOL     OW 1009   2.769   0.707   4.274
   37SOL    HW1 1010   2.745   0.614   4.299
   37SOL    HW2 1011   2.869   0.715   4.265
   38SOL     OW 1012   6.904   4.191   2.672
   38SOL    HW1 1013   6.852   4.214   2.754
   38SOL    HW2 1014   6.861   4.233   2.592
   39SOL     OW 1015   6.989   5.389   6.546
   39SOL    HW1 1016   0.034   5.335   6.594
   39SOL    HW2 1017   6.956   5.462   6.607
   40SOL     OW 1018   3.991   0.651   6.029
   40SOL    HW1 1019   3.923   0.710   6.073
   40SOL    HW2 1020   4.055   0.707   5.976
   41SOL     OW 1021   5.766   4.634   1.449
   41SOL    HW1 1022   5.696   4.680   1.395
   41SOL    HW2 1023   5.829   4.703   1.487
   42SOL     OW 1024   2.503   5.307   6.265
   42SOL    HW1 1025   2.566   5.385   6.268
   42SOL    HW2 1026   2.513   5.253   6.349
   43SOL     OW 1027   4.163   6.613   4.546
   43SOL    HW1 1028   4.081   6.634   4.600
   43SOL    HW2 1029   4.137   6.587   4.454
   44SOL     OW 1030   6.757   1.603   6.232
   44SOL    HW1 1031   6.813   1.645   6.303
   44SOL    HW2 1032   6.683   1.666   6.207
   45SOL     OW 1033   3.510   5.048   0.077
   45SOL    HW1 1034   3.433   5.069   0.138
   45SOL    HW2 1035   3.475   5.008   7.015
   46SOL     OW 1036   0.293   2.421   4.104
   46SOL    HW1 1037   0.275   2.502   4.160
   46SOL    HW2 1038   0.228   2.349   4.127
   47SOL     OW 1039   5.828   2.914   1.246
   47SOL    HW1 1040   5.824   2.924   1.147
   47SOL    HW2 1041   5.770   2.838   1.275
   48SOL     OW 1042   6.773   3.615   0.864
   48SOL    HW1 1043   6.805   3.557   0.938
   48SOL    HW2 1044   6.756   3.707   0.898
   49SOL     OW 1045   4.172   3.611   6.748
   49SOL    HW1 1046   4.072   3.622   6.744
   49SOL    HW2 1047   4.211   3.684   6.805
   50SOL     OW 1048   6.073   3.250   6.865
   50SOL    HW1 1049   6.001   3.266   6.797
   50SOL    HW2 1050   6.116   3.337   6.889
   51SOL     OW 1051   2.556   6.213   2.590
   51SOL    HW1 1052   2.656   6.203   2.586
   51SOL    HW2 1053   2.521   6.163   2.669
   52SOL     OW 1054   5.583   2.545   1.118
   52SOL    HW1 1055   5.547   2.485   1.190
   52SOL    HW2 1056   5.668   2.507   1.084
   53SOL     OW 1057   4.080   0.402   2.464
   53SOL    HW1 1058   4.173   0.425   2.494
   53SOL    HW2 1059   4.085   0.361   2.373
   54SOL     OW 1060   5.671   6.529   6.886
   54SOL    HW1 1061   5.762   6.556   6.918
   54SOL    HW2 1062   5.602   6.591   6.923
   55SOL     OW 1063   0.522   3.475   6.637
   55SOL    HW1 1064   0.456   3.422   6.584
   55SOL    HW2 1065   0.604   3.421   6.652
   56SOL     OW 1066   0.728   2.629   6.776
   56SOL    HW1 1067   0.668   2.575   6.836
   56SOL    HW2 1068   0.674   2.698   6.727
   57SOL     OW 1069   4.610   0.359   6.876
   57SOL    HW1 1070   4.584   0.272   6.918
   57SOL    HW2 1071   4.695   0.347   6.825
   58SOL     OW 1072   0.948   0.200   6.211
   58SOL    HW1 1073   0.898   0.241   6.135
   58SOL    HW2 1074   0.904   0.225   6.297
   59SOL     OW 1075   5.012   3.120   5.512
   59SOL    HW1 1076   4.938   3.172   5.555
   59SOL    HW2 1077   5.048   3.172   5.434
   60SOL     OW 1078   5.557   0.844   2.693
   60SOL    HW1 1079   5.532   0.784   2.769
   60SOL    HW2 1080   5.523   0.805   2.607
   61SOL     OW 1081   6.509   5.958   5.160
   61SOL    HW1 1082   6.508   6.025   5.234
   61SOL    HW2 1083   6.447   5.882   5.182
   62SOL     OW 1084   6.383   2.263   2.270
   62SOL    HW1 1085   6.361   2.355   2.236
   62SOL    HW2 1086   6.323   2.197   2.225
   63SOL     OW 1087   4.688   6.193   5.141
   63SOL    HW1 1088   4.755   6.128   5.106
   63SOL    HW2 1089   4.612   6.143   5.182
   64SOL     OW 1090   0.000   4.438   6.591
   64SOL    HW1 1091   0.087   4.475   6.558
   64SOL    HW2 1092   7.001   4.480   6.679
   65SOL     OW 1093   0.766   0.164   5.537
   65SOL    HW1 1094   0.684   0.200   5.582
   65SOL    HW2 1095   0.846   0.185   5.593
   66SOL     OW 1096   4.499   1.128   2.504
   66SOL    HW1 1097   4.472   1.115   2.409
   66SOL    HW2 1098   4.592   1.165   2.507
   67SOL     OW 1099   1.199   2.600   1.281
   67SOL    HW1 1100   1.184   2.638   1.189
   67SOL    HW2 1101   1.134   2.640   1.345
   68SOL     OW 1102   0.363   2.075   5.156
   68SOL    HW1 1103   0.286   2.025   5.196
   68SOL    HW2 1104   0.346   2.174   5.164
   69SOL     OW 1105   1.074   6.159   6.260
   69SOL    HW1 1106   1.143   6.230   6.269
   69SOL    HW2 1107   0.990   6.198   6.222
   70SOL     OW 1108   4.942   3.767   3.939
   70SOL    HW1 1109   5.026   3.790   3.988
   70SOL    HW2 1110   4.924   3.838   3.870
   71SOL     OW 1111   4.590   1.593   4.657
   71SOL    HW1 1112   4.573   1.497   4.635
   71SOL    HW2 1113   4.573   1.610   4.754
   72SOL     OW 1114   0.345   0.581   3.810
   72SOL    HW1 1115   0.302   0.574   3.720
   72SOL    HW2 1116   0.402   0.663   3.812
   73SOL     OW 1117   2.957   0.948   0.904
   73SOL    HW1 1118   3.050   0.969   0.936
   73SOL    HW2 1119   2.928   0.860   0.941
   74SOL     OW 1120   2.006   2.737   0.714
   74SOL    HW1 1121   2.087   2.750   0.657
   74SOL    HW2 1122   2.010   2.799   0.792
   75SOL     OW 1123   3.730   3.232   0.241
   75SOL    HW1 1124   3.726   3.301   0.314
   75SOL    HW2 1125   3.814   3.179   0.250
   76SOL     OW 1126   3.318   4.847   5.241
   76SOL    HW1 1127   3.238   4.794   5.212
   76SOL    HW2 1128   3.319   4.854   5.341
   77SOL     OW 1129   1.417   4.519   4.642
   77SOL    HW1 1130   1.390   4.587   4.574
   77SOL    HW2 1131   1.360   4.437   4.632
   78SOL     OW 1132   4.969   1.751   1.105
   78SOL    HW1 1133   5.021   1.831   1.136
   78SOL    HW2 1134   4.898   1.780   1.040
   79SOL     OW 1135   1.531   4.890   2.880
   79SOL    HW1 1136   1.530   4.891   2.780
   79SOL    HW2 1137   1.556   4.980   2.915
   80SOL     OW 1138   4.567   1.605   4.933
   80SOL    HW1 1139   4.632   1.661   4.985
   80SOL    HW2 1140   4.478   1.608   4.977
   81SOL     OW 1141   3.975   5.760   1.566
   81SOL    HW1 1142   3.931   5.848   1.582
   81SOL    HW2 1143   3.964   5.735   1.470
   82SOL     OW 1144   2.283   6.045   1.556
   82SOL    HW1 1145   2.245   5.955   1.579
   82SOL    HW2 1146   2.369   6.033   1.507
   83SOL     OW 1147   5.310   0.946   4.791
   83SOL    HW1 1148   5.281   0.908   4.703
   83SOL    HW2 1149   5.349   1.037   4.777
   84SOL     OW 1150   5.273   2.126   2.120
   84SOL    HW1 1151   5.196   2.148   2.059
   84SOL    HW2 1152   5.239   2.075   2.199
   85SOL     OW 1153   2.072   0.495   3.699
   85SOL    HW1 1154   2.053   0.573   3.639
   85SOL    HW2 1155   2.142   0.521   3.766
   86SOL     OW 1156   5.630   0.380   6.520
   86SOL    HW1 1157   5.727   0.357   6.529
   86SOL    HW2 1158   5.575   0.314   6.571
   87SOL     OW 1159   2.588   4.426   6.976
   87SOL    HW1 1160   2.684   4.452   6.967
   87SOL    HW2 1161   2.573   4.383   0.042
   88SOL     OW 1162   3.194   4.096   0.033
   88SOL    HW1 1163   3.130   4.020   0.042
   88SOL    HW2 1164   3.287   4.064   0.055
   89SOL     OW 1165   3.099   4.009   3.384
   89SOL    HW1 1166   3.061   3.922   3.415
   89SOL    HW2 1167   3.024   4.071   3.359
   90SOL     OW 1168   4.740   4.100   3.106
   90SOL    HW1 1169   4.836   4.130   3.108
   90SOL    HW2 1170   4.718   4.057   3.193
   91SOL     OW 1171   4.469   5.162   5.554
   91SOL    HW1 1172   4.426   5.237   5.604
   91SOL    HW2 1173   4.478   5.082   5.614
   92SOL     OW 1174   5.950   4.016   6.576
   92SOL    HW1 1175   6.043   3.997   6.546
   92SOL    HW2 1176   5.927   3.955   6.652
   93SOL     OW 1177   2.950   3.818   1.864
   93SOL    HW1 1178   2.940   3.729   1.820
   93SOL    HW2 1179   2.946   3.806   1.964
   94SOL     OW 1180   2.870   1.844   5.206
   94SOL    HW1 1181   2.954   1.802   5.238
   94SOL    HW2 1182   2.813   1.775   5.161
   95SOL     OW 1183   0.637   0.713   4.331
   95SOL    HW1 1184   0.718   0.709   4.389
   95SOL    HW2 1185   0.586   0.627   4.338
   96SOL     OW 1186   5.904   5.086   0.665
   96SOL    HW1 1187   5.838   5.083   0.590
   96SOL    HW2 1188   5.858   5.064   0.750
   97SOL     OW 1189   2.668   4.993   6.001
   97SOL    HW1 1190   2.604   4.917   5.989
   97SOL    HW2 1191   2.623   5.067   6.051
   98SOL     OW 1192   1.552   2.115   3.494
   98SOL    HW1 1193   1.640   2.088   3.533
   98SOL    HW2 1194   1.554   2.212   3.469
   99SOL     OW 1195   4.017   3.269   5.032
   99SOL    HW1 1196   4.061   3.344   4.983
   99SOL    HW2 1197   4.033   3.280   5.131
  100SOL     OW 1198   6.982   0.682   4.093
  100SOL    HW1 1199   0.039   0.735   4.063
  100SOL    HW2 1200   6.900   0.718   4.049
  101SOL     OW 1201   6.715   3.985   2.592
  101SOL    HW1 1202   6.652   3.967   2.668
  101SOL    HW2 1203   6.780   4.056   2.620
  102SOL     OW 1204   3.201   0.514   6.986
  102SOL    HW1 1205   3.188   0.445   6.915
  102SOL    HW2 1206   3.299   0.529   7.000
  103SOL     OW 1207   2.707   0.961   2.093
  103SOL    HW1 1208   2.746   1.052   2.102
  103SOL    HW2 1209   2.781   0.893   2.088
  104SOL     OW 1210   0.464   4.338   1.447
  104SOL    HW1 1211   0.386   4.315   1.388
  104SOL    HW2 1212   0.495   4.430   1.428
  105SOL     OW 1213   6.044   1.195   5.709
  105SOL    HW1 1214   6.065   1.100   5.682
  105SOL    HW2 1215   6.016   1.247   5.629
  106SOL     OW 1216   5.775   4.682   2.000
  106SOL    HW1 1217   5.677   4.669   2.009
  106SOL    HW2 1218   5.814   4.608   1.944
  107SOL     OW 1219   5.725   0.069   1.207
  107SOL    HW1 1220   5.656   0.028   1.268
  107SOL    HW2 1221   5.803   0.098   1.261
  108SOL     OW 1222   1.824   0.878   5.631
  108SOL    HW1 1223   1.888   0.840   5.697
  108SOL    HW2 1224   1.766   0.805   5.595
  109SOL     OW 1225   1.624   1.081   3.816
  109SOL    HW1 1226   1.554   1.137   3.859
  109SOL    HW2 1227   1.595   1.058   3.722
  110SOL     OW 1228   3.317   4.139   5.320
  110SOL    HW1 1229   3.393   4.195   5.287
  110SOL    HW2 1230   3.329   4.122   5.418
  111SOL     OW 1231   6.923   1.809   1.160
  111SOL    HW1 1232   6.832   1.788   1.122
  111SOL    HW2 1233   6.920   1.800   1.259
  112SOL     OW 1234   4.827   6.702   6.633
  112SOL    HW1 1235   4.917   6.659   6.638
  112SOL    HW2 1236   4.774   6.678   6.714
  113SOL     OW 1237   0.056   5.930   2.138
  113SOL    HW1 1238   6.980   5.925   2.143
  113SOL    HW2 1239   0.092   5.966   2.224
  114SOL     OW 1240   0.459   3.606   3.422
  114SOL    HW1 1241   0.529   3.594   3.352
  114SOL    HW2 1242   0.400   3.525   3.425
  115SOL     OW 1243   5.657   0.622   4.077
  115SOL    HW1 1244   5.559   0.622   4.059
  115SOL    HW2 1245   5.707   0.621   3.990
  116SOL     OW 1246   0.537   4.725   0.124
  116SOL    HW1 1247   0.614   4.736   0.187
  116SOL    HW2 1248   0.570   4.688   0.037
  117SOL     OW 1249   2.679   2.170   7.019
  117SOL    HW1 1250   2.654   2.250   0.051
  117SOL    HW2 1251   2.663   2.191   6.922
  118SOL     OW 1252   1.256   1.957   4.099
  118SOL    HW1 1253   1.196   2.028   4.062
  118SOL    HW2 1254   1.316   1.997   4.168
  119SOL     OW 1255   6.513   6.347   6.661
  119SOL    HW1 1256   6.418   6.316   6.669
  119SOL    HW2 1257   6.543   6.338   6.566
  120SOL     OW 1258   4.828   1.883   4.745
  120SOL    HW1 1259   4.737   1.915   4.717
  120SOL    HW2 1260   4.863   1.941   4.818
  121SOL     OW 1261   1.496   4.836   6.895
  121SOL    HW1 1262   1.528   4.756   6.945
  121SOL    HW2 1263   1.404   4.820   6.861
  122SOL     OW 1264   0.142   3.944   6.524
  122SOL    HW1 1265   0.177   4.032   6.493
  122SOL    HW2 1266   0.138   3.942   6.623
  123SOL     OW 1267   1.242   1.489   1.624
  123SOL    HW1 1268   1.211   1.395   1.641
  123SOL    HW2 1269   1.333   1.501   1.663
  124SOL     OW 1270   2.424   2.583   0.882
  124SOL    HW1 1271   2.421   2.521   0.960
  124SOL    HW2 1272   2.510   2.634   0.884
  125SOL     OW 1273   3.807   3.604   6.940
  125SOL    HW1 1274   3.886   3.547   6.961
  125SOL    HW2 1275   3.834   3.678   6.878
  126SOL     OW 1276   4.082   3.603   4.462
  126SOL    HW1 1277   3.985   3.577   4.460
  126SOL    HW2 1278   4.138   3.520   4.464
  127SOL     OW 1279   0.580   5.776   5.757
  127SOL    HW1 1280   0.484   5.799   5.743
  127SOL    HW2 1281   0.627   5.853   5.800
  128SOL     OW 1282   4.610   3.434   0.410
  128SOL    HW1 1283   4.547   3.447   0.334
  128SOL    HW2 1284   4.581   3.356   0.464
  129SOL     OW 1285   1.093   5.631   1.100
  129SOL    HW1 1286   1.001   5.662   1.125
  129SOL    HW2 1287   1.159   5.664   1.168
  130SOL     OW 1288   5.695   2.316   5.231
  130SOL    HW1 1289   5.773   2.263   5.265
  130SOL    HW2 1290   5.690   2.403   5.281
  131SOL     OW 1291   0.140   2.026   3.868
  131SOL    HW1 1292   0.079   2.002   3.793
  131SOL    HW2 1293   0.152   2.125   3.871
  132SOL     OW 1294   4.174   3.548   2.116
  132SOL    HW1 1295   4.169   3.515   2.022
  132SOL    HW2 1296   4.270   3.560   2.143
  133SOL     OW 1297   5.381   6.465   6.075
  133SOL    HW1 1298   5.426   6.420   6.152
  133SOL    HW2 1299   5.321   6.400   6.029
  134SOL     OW 1300   5.118   1.119   1.789
  134SOL    HW1 1301   5.139   1.041   1.848
  134SOL    HW2 1302   5.203   1.153   1.747
  135SOL     OW 1303   4.889   3.246   3.418
  135SOL    HW1 1304   4.830   3.167   3.401
  135SOL    HW2 1305   4.860   3.292   3.502
  136SOL     OW 1306   3.406   6.929   6.010
  136SOL    HW1 1307   3.489   6.900   6.057
  136SOL    HW2 1308   3.418   7.022   5.976
  137SOL     OW 1309   3.269   2.474   5.840
  137SOL    HW1 1310   3.298   2.569   5.830
  137SOL    HW2 1311   3.186   2.458   5.786
  138SOL     OW 1312   1.043   5.880   6.359
  138SOL    HW1 1313   1.122   5.826   6.332
  138SOL    HW2 1314   1.054   5.974   6.328
  139SOL     OW 1315   2.285   5.763   0.110
  139SOL    HW1 1316   2.270   5.685   0.048
  139SOL    HW2 1317   2.203   5.820   0.109
  140SOL     OW 1318   2.896   0.206   1.423
  140SOL    HW1 1319   2.810   0.212   1.472
  140SOL    HW2 1320   2.967   0.171   1.483
  141SOL     OW 1321   6.568   3.317   0.478
  141SOL    HW1 1322   6.538   3.248   0.544
  141SOL    HW2 1323   6.658   3.352   0.506
  142SOL     OW 1324   1.515   4.036   2.132
  142SOL    HW1 1325   1.470   4.038   2.043
  142SOL    HW2 1326   1.564   4.122   2.147
  143SOL     OW 1327   4.898   6.462   2.283
  143SOL    HW1 1328   4.867   6.514   2.362
  143SOL    HW2 1329   4.969   6.513   2.234
  144SOL     OW 1330   3.679   5.203   3.539
  144SOL    HW1 1331   3.668   5.186   3.637
  144SOL    HW2 1332   3.686   5.301   3.522
  145SOL     OW 1333   6.755   5.077   3.215
  145SOL    HW1 1334   6.809   5.028   3.146
  145SOL    HW2 1335   6.795   5.064   3.305
  146SOL     OW 1336   5.650   1.373   6.548
  146SOL    HW1 1337   5.663   1.367   6.647
  146SOL    HW2 1338   5.735   1.346   6.501
  147SOL     OW 1339   5.189   0.929   5.481
  147SOL    HW1 1340   5.239   0.975   5.554
  147SOL    HW2 1341   5.251   0.869   5.431
  148SOL     OW 1342   0.767   5.359   0.742
  148SOL    HW1 1343   0.830   5.436   0.753
  148SOL    HW2 1344   0.739   5.326   0.832
  149SOL     OW 1345   2.089   2.753   5.626
  149SOL    HW1 1346   2.173   2.729   5.673
  149SOL    HW2 1347   2.107   2.825   5.558
  150SOL     OW 1348   4.272   1.839   4.956
  150SOL    HW1 1349   4.340   1.863   4.886
  150SOL    HW2 1350   4.274   1.741   4.973
  151SOL     OW 1351   3.906   2.886   0.433
  151SOL    HW1 1352   3.976   2.908   0.501
  151SOL    HW2 1353   3.821   2.933   0.457
  152SOL     OW 1354   1.288   2.326   0.668
  152SOL    HW1 1355   1.289   2.347   0.766
  152SOL    HW2 1356   1.381   2.329   0.632
  153SOL     OW 1357   3.380   1.130   3.397
  153SOL    HW1 1358   3.407   1.137   3.301
  153SOL    HW2 1359   3.457   1.155   3.455
  154SOL     OW 1360   6.322   1.607   1.592
  154SOL    HW1 1361   6.259   1.529   1.589
  154SOL    HW2 1362   6.416   1.574   1.584
  155SOL     OW 1363   1.436   6.535   2.274
  155SOL    HW1 1364   1.394   6.588   2.200
  155SOL    HW2 1365   1.366   6.511   2.342
  156SOL     OW 1366   5.035   1.988   0.402
  156SOL    HW1 1367   4.951   2.041   0.405
  156SOL    HW2 1368   5.107   2.041   0.357
  157SOL     OW 1369   4.236   5.295   6.845
  157SOL    HW1 1370   4.173   5.232   6.799
  157SOL    HW2 1371   4.304   5.242   6.895
  158SOL     OW 1372   6.906   2.917   2.971
  158SOL    HW1 1373   6.973   2.881   2.906
  158SOL    HW2 1374   6.954   2.956   3.050
  159SOL     OW 1375   5.848   5.468   0.553
  159SOL    HW1 1376   5.907   5.547   0.541
  159SOL    HW2 1377   5.904   5.386   0.568
  160SOL     OW 1378   6.369   6.954   1.746
  160SOL    HW1 1379   6.337   6.862   1.768
  160SOL    HW2 1380   6.404   6.956   1.652
  161SOL     OW 1381   0.056   6.589   0.321
  161SOL    HW1 1382   0.007   6.502   0.314
  161SOL    HW2 1383   0.133   6.580   0.385
  162SOL     OW 1384   4.409   0.223   0.410
  162SOL    HW1 1385   4.350   0.165   0.466
  162SOL    HW2 1386   4.354   0.271   0.342
  163SOL     OW 1387   6.706   3.849   2.998
  163SOL    HW1 1388   6.799   3.875   3.025
  163SOL    HW2 1389   6.711   3.789   2.918
  164SOL     OW 1390   2.147   2.168   3.679
  164SOL    HW1 1391   2.223   2.232   3.668
  164SOL    HW2 1392   2.141   2.110   3.598
  165SOL     OW 1393   0.747   6.226   3.414
  165SOL    HW1 1394   0.721   6.145   3.466
  165SOL    HW2 1395   0.787   6.294   3.475
  166SOL     OW 1396   0.037   3.754   3.282
  166SOL    HW1 1397   7.014   3.666   3.273
  166SOL    HW2 1398   0.087   3.757   3.368
  167SOL     OW 1399   4.211   2.251   0.156
  167SOL    HW1 1400   4.194   2.315   0.081
  167SOL    HW2 1401   4.168   2.163   0.136
  168SOL     OW 1402   5.094   4.192   1.898
  168SOL    HW1 1403   5.172   4.137   1.867
  168SOL    HW2 1404   5.090   4.190   1.998
  169SOL     OW 1405   5.588   2.387   1.341
  169SOL    HW1 1406   5.634   2.303   1.313
  169SOL    HW2 1407   5.501   2.365   1.385
  170SOL     OW 1408   0.691   5.554   2.879
  170SOL    HW1 1409   0.618   5.502   2.923
  170SOL    HW2 1410   0.689   5.648   2.912
  171SOL     OW 1411   3.258   4.227   0.666
  171SOL    HW1 1412   3.258   4.258   0.571
  171SOL    HW2 1413   3.165   4.207   0.695
  172SOL     OW 1414   6.944   2.304   7.002
  172SOL    HW1 1415   6.849   2.300   6.972
  172SOL    HW2 1416   6.999   2.354   6.935
  173SOL     OW 1417   7.002   1.897   4.485
  173SOL    HW1 1418   0.023   1.868   4.400
  173SOL    HW2 1419   6.909   1.926   4.466
  174SOL     OW 1420   5.824   5.320   5.413
  174SOL    HW1 1421   5.899   5.385   5.399
  174SOL    HW2 1422   5.788   5.293   5.324
  175SOL     OW 1423   0.610   0.232   1.332
  175SOL    HW1 1424   0.626   0.303   1.263
  175SOL    HW2 1425   0.698   0.196   1.363
  176SOL     OW 1426   5.490   4.475   2.057
  176SOL    HW1 1427   5.521   4.382   2.041
  176SOL    HW2 1428   5.397   4.486   2.022
  177SOL     OW 1429   5.863   2.620   4.536
  177SOL    HW1 1430   5.796   2.683   4.495
  177SOL    HW2 1431   5.948   2.669   4.553
  178SOL     OW 1432   1.770   6.195   5.083
  178SOL    HW1 1433   1.816   6.140   5.153
  178SOL    HW2 1434   1.820   6.280   5.068
  179SOL     OW 1435   3.573   4.773   1.435
  179SOL    HW1 1436   3.522   4.701   1.483
  179SOL    HW2 1437   3.514   4.852   1.419
  180SOL     OW 1438   4.051   1.568   0.704
  180SOL    HW1 1439   4.070   1.473   0.681
  180SOL    HW2 1440   4.116   1.628   0.657
  181SOL     OW 1441   2.744   2.513   5.551
  181SOL    HW1 1442   2.761   2.415   5.550
  181SOL    HW2 1443   2.789   2.556   5.473
  182SOL     OW 1444   4.722   2.347   7.017
  182SOL    HW1 1445   4.715   2.410   6.939
  182SOL    HW2 1446   4.631   2.318   0.022
  183SOL     OW 1447   3.293   1.493   3.529
  183SOL    HW1 1448   3.313   1.590   3.518
  183SOL    HW2 1449   3.378   1.441   3.539
  184SOL     OW 1450   5.627   6.286   3.684
  184SOL    HW1 1451   5.599   6.362   3.743
  184SOL    HW2 1452   5.552   6.219   3.677
  185SOL     OW 1453   6.544   1.415   4.226
  185SOL    HW1 1454   6.531   1.512   4.207
  185SOL    HW2 1455   6.455   1.369   4.232
  186SOL     OW 1456   4.547   6.169   3.868
  186SOL    HW1 1457   4.580   6.263   3.860
  186SOL    HW2 1458   4.620   6.105   3.844
  187SOL     OW 1459   4.464   6.306   1.782
  187SOL    HW1 1460   4.542   6.367   1.788
  187SOL    HW2 1461   4.482   6.235   1.714
  188SOL     OW 1462   1.509   3.333   3.239
  188SOL    HW1 1463   1.540   3.254   3.186
  188SOL    HW2 1464   1.471   3.303   3.326
  189SOL     OW 1465   6.290   5.060   6.473
  189SOL    HW1 1466   6.237   5.144   6.465
  189SOL    HW2 1467   6.375   5.080   6.523
  190SOL     OW 1468   6.065   0.491   0.297
  190SOL    HW1 1469   6.096   0.509   0.390
  190SOL    HW2 1470   6.049   0.577   0.249
  191SOL     OW 1471   6.982   1.176   5.707
  191SOL    HW1 1472   6.993   1.257   5.650
  191SOL    HW2 1473   6.987   1.202   5.803
  192SOL     OW 1474   0.545   5.619   1.009
  192SOL    HW1 1475   0.541   5.553   1.083
  192SOL    HW2 1476   0.481   5.592   0.936
  193SOL     OW 1477   2.495   6.044   6.773
  193SOL    HW1 1478   2.431   5.968   6.766
  193SOL    HW2 1479   2.464   6.120   6.715
  194SOL     OW 1480   4.234   6.503   2.378
  194SOL    HW1 1481   4.205   6.502   2.474
  194SOL    HW2 1482   4.250   6.597   2.348
  195SOL     OW 1483   3.836   0.642   1.473
  195SOL    HW1 1484   3.900   0.646   1.549
  195SOL    HW2 1485   3.825   0.547   1.443
  196SOL     OW 1486   2.522   1.644   0.586
  196SOL    HW1 1487   2.612   1.684   0.605
  196SOL    HW2 1488   2.532   1.561   0.531
  197SOL     OW 1489   2.128   6.442   0.517
  197SOL    HW1 1490   2.097   6.508   0.586
  197SOL    HW2 1491   2.222   6.463   0.491
  198SOL     OW 1492   4.392   0.282   6.613
  198SOL    HW1 1493   4.392   0.210   6.544
  198SOL    HW2 1494   4.482   0.285   6.659
  199SOL     OW 1495   6.886   6.728   3.316
  199SOL    HW1 1496   6.819   6.795   3.284
  199SOL    HW2 1497   6.862   6.638   3.281
  200SOL     OW 1498   0.385   3.764   3.616
  200SOL    HW1 1499   0.328   3.711   3.679
  200SOL    HW2 1500   0.415   3.705   3.541
  201SOL     OW 1501   3.537   1.105   6.313
  201SOL    HW1 1502   3.591   1.064   6.386
  201SOL    HW2 1503   3.569   1.071   6.224
  202SOL     OW 1504   3.350   0.394   3.016
  202SOL    HW1 1505   3.313   0.360   3.102
  202SOL    HW2 1506   3.399   0.321   2.969
  203SOL     OW 1507   5.594   3.415   6.352
  203SOL    HW1 1508   5.543   3.495   6.384
  203SOL    HW2 1509   5.557   3.385   6.264
  204SOL     OW 1510   2.545   6.642   1.055
  204SOL    HW1 1511   2.462   6.586   1.047
  204SOL    HW2 1512   2.601   6.609   1.131
  205SOL     OW 1513   6.435   1.740   0.443
  205SOL    HW1 1514   6.532   1.716   0.448
  205SOL    HW2 1515   6.390   1.685   0.373
  206SOL     OW 1516   0.781   4.471   1.878
  206SOL    HW1 1517   0.729   4.409   1.820
  206SOL    HW2 1518   0.801   4.555   1.828
  207SOL     OW 1519   4.652   0.578   5.741
  207SOL    HW1 1520   4.712   0.539   5.672
  207SOL    HW2 1521   4.683   0.670   5.765
  208SOL     OW 1522   4.169   5.587   6.281
  208SOL    HW1 1523   4.117   5.523   6.338
  208SOL    HW2 1524   4.174   5.552   6.188
  209SOL     OW 1525   6.769   5.733   5.871
  209SOL    HW1 1526   6.780   5.655   5.810
  209SOL    HW2 1527   6.858   5.772   5.893
  210SOL     OW 1528   4.039   3.561   0.923
  210SOL    HW1 1529   4.048   3.463   0.903
  210SOL    HW2 1530   4.046   3.613   0.838
  211SOL     OW 1531   1.751   1.398   1.073
  211SOL    HW1 1532   1.728   1.369   0.980
  211SOL    HW2 1533   1.843   1.437   1.075
  212SOL     OW 1534   0.346   4.866   3.766
  212SOL    HW1 1535   0.288   4.936   3.808
  212SOL    HW2 1536   0.429   4.908   3.731
  213SOL     OW 1537   5.035   1.775   0.213
  213SOL    HW1 1538   4.938   1.758   0.194
  213SOL    HW2 1539   5.043   1.837   0.291
  214SOL     OW 1540   1.340   0.360   2.832
  214SOL    HW1 1541   1.388   0.445   2.851
  214SOL    HW2 1542   1.358   0.332   2.737
  215SOL     OW 1543   3.588   3.418   2.598
  215SOL    HW1 1544   3.503   3.393   2.553
  215SOL    HW2 1545   3.608   3.352   2.670
  216SOL     OW 1546   0.957   6.945   5.887
  216SOL    HW1 1547   0.896   7.020   5.914
  216SOL    HW2 1548   0.925   6.907   5.800
  217SOL     OW 1549   0.755   2.451   3.093
  217SOL    HW1 1550   0.754   2.470   3.191
  217SOL    HW2 1551   0.661   2.453   3.057
  218SOL     OW 1552   1.100   3.915   5.274
  218SOL    HW1 1553   1.170   3.848   5.297
  218SOL    HW2 1554   1.124   4.003   5.314
  219SOL     OW 1555   4.675   5.386   0.034
  219SOL    HW1 1556   4.681   5.311   6.992
  219SOL    HW2 1557   4.767   5.414   0.063
  220SOL     OW 1558   2.847   5.474   0.546
  220SOL    HW1 1559   2.906   5.549   0.516
  220SOL    HW2 1560   2.762   5.475   0.493
  221SOL     OW 1561   5.615   2.080   4.580
  221SOL    HW1 1562   5.533   2.047   4.626
  221SOL    HW2 1563   5.589   2.151   4.514
  222SOL     OW 1564   0.768   6.464   5.373
  222SOL    HW1 1565   0.805   6.437   5.284
  222SOL    HW2 1566   0.676   6.425   5.384
  223SOL     OW 1567   6.760   3.762   1.795
  223SOL    HW1 1568   6.825   3.831   1.827
  223SOL    HW2 1569   6.691   3.805   1.738
  224SOL     OW 1570   3.060   2.270   1.704
  224SOL    HW1 1571   3.009   2.309   1.781
  224SOL    HW2 1572   3.069   2.171   1.716
  225SOL     OW 1573   6.448   0.613   6.835
  225SOL    HW1 1574   6.497   0.552   6.773
  225SOL    HW2 1575   6.432   0.701   6.790
  226SOL     OW 1576   6.902   5.807   0.910
  226SOL    HW1 1577   6.989   5.770   0.943
  226SOL    HW2 1578   6.842   5.731   0.884
  227SOL     OW 1579   1.423   3.215   3.572
  227SOL    HW1 1580   1.339   3.163   3.587
  227SOL    HW2 1581   1.486   3.199   3.648
  228SOL     OW 1582   4.375   6.800   3.876
  228SOL    HW1 1583   4.299   6.762   3.823
  228SOL    HW2 1584   4.366   6.899   3.881
  229SOL     OW 1585   5.742   5.693   2.323
  229SOL    HW1 1586   5.806   5.624   2.289
  229SOL    HW2 1587   5.697   5.660   2.406
  230SOL     OW 1588   2.203   4.281   4.952
  230SOL    HW1 1589   2.113   4.302   4.913
  230SOL    HW2 1590   2.214   4.182   4.958
  231SOL     OW 1591   0.564   2.097   6.175
  231SOL    HW1 1592   0.511   2.176   6.144
  231SOL    HW2 1593   0.661   2.112   6.154
  232SOL     OW 1594   2.127   4.965   6.211
  232SOL    HW1 1595   2.173   5.024   6.144
  232SOL    HW2 1596   2.037   5.003   6.231
  233SOL     OW 1597   1.992   0.919   6.336
  233SOL    HW1 1598   1.925   0.991   6.350
  233SOL    HW2 1599   2.037   0.931   6.248
  234SOL     OW 1600   2.715   5.596   6.874
  234SOL    HW1 1601   2.797   5.626   6.826
  234SOL    HW2 1602   2.684   5.669   6.935
  235SOL     OW 1603   2.955   3.286   4.678
  235SOL    HW1 1604   2.928   3.224   4.752
  235SOL    HW2 1605   2.921   3.378   4.698
  236SOL     OW 1606   6.750   1.941   5.443
  236SOL    HW1 1607   6.783   1.858   5.487
  236SOL    HW2 1608   6.678   1.918   5.377
  237SOL     OW 1609   0.561   0.410   1.622
  237SOL    HW1 1610   0.600   0.402   1.531
  237SOL    HW2 1611   0.462   0.394   1.618
  238SOL     OW 1612   5.901   2.396   2.654
  238SOL    HW1 1613   5.868   2.486   2.682
  238SOL    HW2 1614   5.919   2.340   2.735
  239SOL     OW 1615   0.167   5.838   0.491
  239SOL    HW1 1616   0.247   5.884   0.453
  239SOL    HW2 1617   0.121   5.899   0.555
  240SOL     OW 1618   0.349   3.773   5.740
  240SOL    HW1 1619   0.298   3.856   5.720
  240SOL    HW2 1620   0.313   3.731   5.824
  241SOL     OW 1621   0.397   0.787   3.296
  241SOL    HW1 1622   0.456   0.840   3.357
  241SOL    HW2 1623   0.394   0.692   3.327
  242SOL     OW 1624   1.840   3.957   4.106
  242SOL    HW1 1625   1.823   4.027   4.176
  242SOL    HW2 1626   1.777   3.881   4.120
  243SOL     OW 1627   5.297   7.005   5.645
  243SOL    HW1 1628   5.383   6.980   5.601
  243SOL    HW2 1629   5.310   7.009   5.744
  244SOL     OW 1630   6.207   2.246   6.065
  244SOL    HW1 1631   6.231   2.156   6.102
  244SOL    HW2 1632   6.213   2.244   5.965
  245SOL     OW 1633   5.695   1.953   4.204
  245SOL    HW1 1634   5.712   1.855   4.194
  245SOL    HW2 1635   5.752   2.003   4.139
  246SOL     OW 1636   5.203   2.902   3.192
  246SOL    HW1 1637   5.298   2.932   3.204
  246SOL    HW2 1638   5.148   2.932   3.270
  247SOL     OW 1639   2.485   1.595   3.532
  247SOL    HW1 1640   2.492   1.502   3.568
  247SOL    HW2 1641   2.576   1.636   3.529
  248SOL     OW 1642   6.278   1.422   3.600
  248SOL    HW1 1643   6.238   1.341   3.555
  248SOL    HW2 1644   6.286   1.405   3.698
  249SOL     OW 1645   2.710   7.020   3.868
  249SOL    HW1 1646   2.768   6.963   3.927
  249SOL    HW2 1647   2.710   6.982   3.776
  250SOL     OW 1648   5.263   2.849   6.157
  250SOL    HW1 1649   5.203   2.819   6.231
  250SOL    HW2 1650   5.263   2.949   6.152
  251SOL     OW 1651   3.729   2.644   0.535
  251SOL    HW1 1652   3.672   2.645   0.452
  251SOL    HW2 1653   3.819   2.680   0.514
  252SOL     OW 1654   0.266   0.849   5.766
  252SOL    HW1 1655   0.333   0.870   5.837
  252SOL    HW2 1656   0.189   0.799   5.807
  253SOL     OW 1657   2.980   3.526   6.847
  253SOL    HW1 1658   3.023   3.445   6.885
  253SOL    HW2 1659   3.047   3.600   6.840
  254SOL     OW 1660   5.845   3.337   5.218
  254SOL    HW1 1661   5.834   3.239   5.206
  254SOL    HW2 1662   5.821   3.384   5.133
  255SOL     OW 1663   2.612   1.865   3.730
  255SOL    HW1 1664   2.519   1.880   3.697
  255SOL    HW2 1665   2.620   1.898   3.824
  256SOL     OW 1666   6.002   4.947   6.795
  256SOL    HW1 1667   6.049   5.030   6.826
  256SOL    HW2 1668   5.903   4.960   6.799
  257SOL     OW 1669   3.387   6.464   5.992
  257SOL    HW1 1670   3.462   6.443   6.054
  257SOL    HW2 1671   3.305   6.487   6.045
  258SOL     OW 1672   5.477   4.257   4.278
  258SOL    HW1 1673   5.410   4.289   4.345
  258SOL    HW2 1674   5.484   4.157   4.283
  259SOL     OW 1675   1.491   2.362   2.283
  259SOL    HW1 1676   1.439   2.311   2.352
  259SOL    HW2 1677   1.582   2.323   2.274
  260SOL     OW 1678   5.557   0.484   5.907
  260SOL    HW1 1679   5.471   0.513   5.950
  260SOL    HW2 1680   5.547   0.391   5.872
  261SOL     OW 1681   0.634   3.563   2.511
  261SOL    HW1 1682   0.692   3.551   2.592
  261SOL    HW2 1683   0.654   3.490   2.445
  262SOL     OW 1684   0.608   4.741   1.922
  262SOL    HW1 1685   0.561   4.787   1.998
  262SOL    HW2 1686   0.706   4.736   1.940
  263SOL     OW 1687   1.068   2.123   4.003
  263SOL    HW1 1688   0.971   2.133   4.026
  263SOL    HW2 1689   1.089   2.178   3.922
  264SOL     OW 1690   2.662   4.441   6.391
  264SOL    HW1 1691   2.580   4.497   6.388
  264SOL    HW2 1692   2.640   4.351   6.429
  265SOL     OW 1693   5.572   3.903   4.758
  265SOL    HW1 1694   5.569   3.952   4.671
  265SOL    HW2 1695   5.516   3.821   4.751
  266SOL     OW 1696   4.120   1.495   0.372
  266SOL    HW1 1697   4.150   1.582   0.412
  266SOL    HW2 1698   4.128   1.423   0.441
  267SOL     OW 1699   0.930   2.545   5.914
  267SOL    HW1 1700   0.966   2.451   5.913
  267SOL    HW2 1701   0.974   2.597   5.987
  268SOL     OW 1702   3.744   4.920   4.369
  268SOL    HW1 1703   3.787   5.000   4.411
  268SOL    HW2 1704   3.646   4.919   4.390
  269SOL     OW 1705   0.622   1.276   5.392
  269SOL    HW1 1706   0.715   1.244   5.375
  269SOL    HW2 1707   0.556   1.210   5.355
  270SOL     OW 1708   4.868   1.038   3.909
  270SOL    HW1 1709   4.946   1.034   3.972
  270SOL    HW2 1710   4.892   0.991   3.824
  271SOL     OW 1711   1.668   1.052   0.439
  271SOL    HW1 1712   1.591   1.115   0.424
  271SOL    HW2 1713   1.643   0.987   0.512
  272SOL     OW 1714   3.188   5.424   3.348
  272SOL    HW1 1715   3.195   5.501   3.411
  272SOL    HW2 1716   3.266   5.424   3.286
  273SOL     OW 1717   2.756   6.446   5.538
  273SOL    HW1 1718   2.685   6.516   5.541
  273SOL    HW2 1719   2.766   6.405   5.629
  274SOL     OW 1720   6.239   2.446   1.179
  274SOL    HW1 1721   6.334   2.462   1.207
  274SOL    HW2 1722   6.237   2.383   1.102
  275SOL     OW 1723   6.252   5.857   5.137
  275SOL    HW1 1724   6.257   5.897   5.045
  275SOL    HW2 1725   6.189   5.779   5.135
  276SOL     OW 1726   6.493   6.384   3.564
  276SOL    HW1 1727   6.559   6.318   3.600
  276SOL    HW2 1728   6.533   6.431   3.485
  277SOL     OW 1729   4.670   1.141   5.429
  277SOL    HW1 1730   4.678   1.233   5.467
  277SOL    HW2 1731   4.760   1.098   5.425
  278SOL     OW 1732   5.890   3.270   2.683
  278SOL    HW1 1733   5.871   3.326   2.764
  278SOL    HW2 1734   5.831   3.189   2.684
  279SOL     OW 1735   6.959   2.779   4.322
  279SOL    HW1 1736   6.936   2.855   4.262
  279SOL    HW2 1737   6.980   2.698   4.267
  280SOL     OW 1738   3.001   0.774   3.946
  280SOL    HW1 1739   3.091   0.762   3.988
  280SOL    HW2 1740   2.939   0.703   3.979
  281SOL     OW 1741   5.374   6.119   3.911
  281SOL    HW1 1742   5.361   6.215   3.934
  281SOL    HW2 1743   5.293   6.066   3.939
  282SOL     OW 1744   3.634   1.631   0.594
  282SOL    HW1 1745   3.596   1.555   0.647
  282SOL    HW2 1746   3.688   1.594   0.518
  283SOL     OW 1747   6.458   1.642   5.191
  283SOL    HW1 1748   6.549   1.625   5.227
  283SOL    HW2 1749   6.396   1.569   5.221
  284SOL     OW 1750   5.536   5.686   3.602
  284SOL    HW1 1751   5.627   5.685   3.561
  284SOL    HW2 1752   5.541   5.730   3.692
  285SOL     OW 1753   4.499   0.406   5.860
  285SOL    HW1 1754   4.558   0.446   5.790
  285SOL    HW2 1755   4.406   0.442   5.850
  286SOL     OW 1756   2.549   4.994   5.124
  286SOL    HW1 1757   2.636   5.008   5.076
  286SOL    HW2 1758   2.565   4.937   5.205
  287SOL     OW 1759   3.054   6.993   5.796
  287SOL    HW1 1760   2.993   0.025   5.853
  287SOL    HW2 1761   3.117   6.941   5.853
  288SOL     OW 1762   4.009   1.253   1.129
  288SOL    HW1 1763   3.937   1.318   1.152
  288SOL    HW2 1764   3.994   1.168   1.179
  289SOL     OW 1765   5.928   6.309   3.940
  289SOL    HW1 1766   6.019   6.350   3.947
  289SOL    HW2 1767   5.858   6.378   3.958
  290SOL     OW 1768   3.625   1.129   5.143
  290SOL    HW1 1769   3.612   1.163   5.049
  290SOL    HW2 1770   3.670   1.200   5.198
  291SOL     OW 1771   3.811   6.838   5.193
  291SOL    HW1 1772   3.763   6.788   5.264
  291SOL    HW2 1773   3.909   6.838   5.212
  292SOL     OW 1774   4.704   0.303   3.793
  292SOL    HW1 1775   4.632   0.251   3.838
  292SOL    HW2 1776   4.737   0.253   3.713
  293SOL     OW 1777   5.616   6.555   2.572
  293SOL    HW1 1778   5.692   6.598   2.621
  293SOL    HW2 1779   5.584   6.476   2.625
  294SOL     OW 1780   6.146   0.967   5.632
  294SOL    HW1 1781   6.134   0.872   5.660
  294SOL    HW2 1782   6.173   0.971   5.535
  295SOL     OW 1783   1.794   1.498   4.950
  295SOL    HW1 1784   1.809   1.430   5.021
  295SOL    HW2 1785   1.873   1.500   4.888
  296SOL     OW 1786   6.937   2.439   0.992
  296SOL    HW1 1787   6.960   2.392   1.076
  296SOL    HW2 1788   6.837   2.439   0.980
  297SOL     OW 1789   5.325   3.495   4.109
  297SOL    HW1 1790   5.290   3.452   4.026
  297SOL    HW2 1791   5.329   3.428   4.183
  298SOL     OW 1792   3.685   0.644   6.658
  298SOL    HW1 1793   3.650   0.673   6.569
  298SOL    HW2 1794   3.785   0.637   6.654
  299SOL     OW 1795   2.181   0.754   6.458
  299SOL    HW1 1796   2.242   0.809   6.515
  299SOL    HW2 1797   2.106   0.811   6.424
  300SOL     OW 1798   4.098   0.050   3.275
  300SOL    HW1 1799   4.100   7.007   3.350
  300SOL    HW2 1800   4.094   0.002   3.188
  301SOL     OW 1801   6.504   5.299   0.904
  301SOL    HW1 1802   6.459   5.349   0.831
  301SOL    HW2 1803   6.436   5.251   0.960
  302SOL     OW 1804   6.426   5.873   1.574
  302SOL    HW1 1805   6.493   5.915   1.512
  302SOL    HW2 1806   6.453   5.890   1.668
  303SOL     OW 1807   5.301   5.507   2.224
  303SOL    HW1 1808   5.357   5.589   2.216
  303SOL    HW2 1809   5.359   5.426   2.215
  304SOL     OW 1810   2.792   6.273   5.092
  304SOL    HW1 1811   2.812   6.269   5.190
  304SOL    HW2 1812   2.698   6.304   5.079
  305SOL     OW 1813   1.134   2.817   2.364
  305SOL    HW1 1814   1.154   2.818   2.462
  305SOL    HW2 1815   1.052   2.872   2.347
  306SOL     OW 1816   6.626   0.047   3.005
  306SOL    HW1 1817   6.535   0.007   2.990
  306SOL    HW2 1818   6.670   0.065   2.917
  307SOL     OW 1819   3.361   3.033   3.332
  307SOL    HW1 1820   3.420   3.005   3.408
  307SOL    HW2 1821   3.388   2.984   3.249
  308SOL     OW 1822   5.712   1.959   3.557
  308SOL    HW1 1823   5.683   1.950   3.652
  308SOL    HW2 1824   5.774   2.037   3.549
  309SOL     OW 1825   1.326   6.190   6.009
  309SOL    HW1 1826   1.339   6.220   6.103
  309SOL    HW2 1827   1.237   6.221   5.976
  310SOL     OW 1828   5.493   6.162   4.915
  310SOL    HW1 1829   5.509   6.255   4.949
  310SOL    HW2 1830   5.511   6.158   4.817
  311SOL     OW 1831   2.122   5.257   2.885
  311SOL    HW1 1832   2.034   5.301   2.904
  311SOL    HW2 1833   2.173   5.312   2.818
  312SOL     OW 1834   4.484   2.244   3.098
  312SOL    HW1 1835   4.480   2.321   3.162
  312SOL    HW2 1836   4.579   2.214   3.087
  313SOL     OW 1837   4.065   3.121   2.904
  313SOL    HW1 1838   4.054   3.061   2.984
  313SOL    HW2 1839   4.072   3.216   2.935
  314SOL     OW 1840   2.685   6.384   6.010
  314SOL    HW1 1841   2.597   6.427   5.993
  314SOL    HW2 1842   2.692   6.360   6.107
  315SOL     OW 1843   6.406   1.665   3.523
  315SOL    HW1 1844   6.378   1.569   3.533
  315SOL    HW2 1845   6.498   1.676   3.561
  316SOL     OW 1846   3.755   1.310   5.295
  316SOL    HW1 1847   3.799   1.397   5.271
  316SOL    HW2 1848   3.725   1.314   5.391
  317SOL     OW 1849   1.462   1.635   1.738
  317SOL    HW1 1850   1.551   1.674   1.715
  317SOL    HW2 1851   1.453   1.628   1.838
  318SOL     OW 1852   0.739   0.772   5.367
  318SOL    HW1 1853   0.714   0.851   5.422
  318SOL    HW2 1854   0.798   0.801   5.292
  319SOL     OW 1855   1.387   1.898   2.645
  319SOL    HW1 1856   1.463   1.913   2.709
  319SOL    HW2 1857   1.389   1.803   2.614
  320SOL     OW 1858   5.760   2.171   6.283
  320SOL    HW1 1859   5.695   2.175   6.359
  320SOL    HW2 1860   5.825   2.246   6.290
  321SOL     OW 1861   4.231   3.107   0.610
  321SOL    HW1 1862   4.158   3.171   0.587
  321SOL    HW2 1863   4.246   3.108   0.708
  322SOL     OW 1864   3.650   3.146   6.117
  322SOL    HW1 1865   3.700   3.178   6.197
  322SOL    HW2 1866   3.551   3.151   6.135
  323SOL     OW 1867   0.390   3.007   2.983
  323SOL    HW1 1868   0.385   3.008   2.884
  323SOL    HW2 1869   0.307   2.968   3.021
  324SOL     OW 1870   0.193   6.913   4.088
  324SOL    HW1 1871   0.208   7.002   4.132
  324SOL    HW2 1872   0.259   6.901   4.015
  325SOL     OW 1873   0.347   3.961   2.597
  325SOL    HW1 1874   0.442   3.940   2.619
  325SOL    HW2 1875   0.321   4.048   2.640
  326SOL     OW 1876   0.680   6.300   6.544
  326SOL    HW1 1877   0.760   6.243   6.564
  326SOL    HW2 1878   0.705   6.370   6.478
  327SOL     OW 1879   4.184   5.219   3.727
  327SOL    HW1 1880   4.208   5.229   3.824
  327SOL    HW2 1881   4.092   5.182   3.719
  328SOL     OW 1882   2.060   3.658   2.754
  328SOL    HW1 1883   2.066   3.575   2.810
  328SOL    HW2 1884   2.097   3.735   2.806
  329SOL     OW 1885   3.191   3.992   2.468
  329SOL    HW1 1886   3.190   3.901   2.427
  329SOL    HW2 1887   3.277   4.038   2.444
  330SOL     OW 1888   3.549   5.063   0.750
  330SOL    HW1 1889   3.600   5.048   0.666
  330SOL    HW2 1890   3.452   5.043   0.735
  331SOL     OW 1891   5.373   5.205   6.886
  331SOL    HW1 1892   5.324   5.119   6.896
  331SOL    HW2 1893   5.365   5.258   6.971
  332SOL     OW 1894   5.177   2.407   3.027
  332SOL    HW1 1895   5.129   2.469   2.965
  332SOL    HW2 1896   5.256   2.368   2.980
  333SOL     OW 1897   3.602   1.177   5.821
  333SOL    HW1 1898   3.555   1.259   5.854
  333SOL    HW2 1899   3.557   1.144   5.738
  334SOL     OW 1900   3.492   3.290   2.969
  334SOL    HW1 1901   3.406   3.239   2.972
  334SOL    HW2 1902   3.475   3.383   2.936
  335SOL     OW 1903   3.271   0.345   5.883
  335SOL    HW1 1904   3.192   0.311   5.934
  335SOL    HW2 1905   3.249   0.435   5.844
  336SOL     OW 1906   2.853   1.940   3.350
  336SOL    HW1 1907   2.823   2.033   3.371
  336SOL    HW2 1908   2.875   1.933   3.253
  337SOL     OW 1909   2.346   6.961   5.942
  337SOL    HW1 1910   2.263   6.976   5.888
  337SOL    HW2 1911   2.405   0.019   5.936
  338SOL     OW 1912   4.875   1.852   1.640
  338SOL    HW1 1913   4.810   1.828   1.713
  338SOL    HW2 1914   4.828   1.904   1.569
  339SOL     OW 1915   4.130   5.053   5.019
  339SOL    HW1 1916   4.034   5.049   4.990
  339SOL    HW2 1917   4.189   5.053   4.939
  340SOL     OW 1918   4.852   2.015   3.511
  340SOL    HW1 1919   4.916   1.992   3.437
  340SOL    HW2 1920   4.897   2.077   3.575
  341SOL     OW 1921   5.494   0.172   3.757
  341SOL    HW1 1922   5.515   0.080   3.723
  341SOL    HW2 1923   5.453   0.226   3.683
  342SOL     OW 1924   4.692   2.192   1.826
  342SOL    HW1 1925   4.725   2.284   1.847
  342SOL    HW2 1926   4.694   2.178   1.727
  343SOL     OW 1927   0.452   5.614   3.021
  343SOL    HW1 1928   0.521   5.676   3.057
  343SOL    HW2 1929   0.387   5.591   3.094
  344SOL     OW 1930   2.256   1.368   1.831
  344SOL    HW1 1931   2.255   1.447   1.770
  344SOL    HW2 1932   2.322   1.301   1.797
  345SOL     OW 1933   5.888   3.297   4.410
  345SOL    HW1 1934   5.890   3.198   4.396
  345SOL    HW2 1935   5.974   3.326   4.453
  346SOL     OW 1936   1.787   6.894   3.181
  346SOL    HW1 1937   1.782   6.803   3.141
  346SOL    HW2 1938   1.746   6.961   3.119
  347SOL     OW 1939   2.915   5.317   0.752
  347SOL    HW1 1940   2.905   5.362   0.664
  347SOL    HW2 1941   2.824   5.295   0.789
  348SOL     OW 1942   5.046   5.490   2.126
  348SOL    HW1 1943   5.144   5.483   2.147
  348SOL    HW2 1944   4.999   5.533   2.203
  349SOL     OW 1945   6.026   4.477   1.187
  349SOL    HW1 1946   5.987   4.392   1.223
  349SOL    HW2 1947   6.119   4.459   1.155
  350SOL     OW 1948   3.231   3.302   0.241
  350SOL    HW1 1949   3.255   3.392   0.279
  350SOL    HW2 1950   3.227   3.234   0.314
  351SOL     OW 1951   2.934   4.459   1.172
  351SOL    HW1 1952   2.960   4.366   1.200
  351SOL    HW2 1953   2.941   4.521   1.249
  352SOL     OW 1954   3.616   6.660   3.006
  352SOL    HW1 1955   3.533   6.658   2.951
  352SOL    HW2 1956   3.672   6.579   2.987
  353SOL     OW 1957   2.275   6.266   6.867
  353SOL    HW1 1958   2.284   6.191   6.933
  353SOL    HW2 1959   2.233   6.345   6.912
  354SOL     OW 1960   6.881   2.488   0.311
  354SOL    HW1 1961   6.837   2.400   0.327
  354SOL    HW2 1962   6.962   2.474   0.254
  355SOL     OW 1963   1.982   1.979   2.648
  355SOL    HW1 1964   2.072   1.944   2.621
  355SOL    HW2 1965   1.955   2.053   2.586
  356SOL     OW 1966   0.925   6.802   6.091
  356SOL    HW1 1967   0.888   6.709   6.085
  356SOL    HW2 1968   0.943   6.836   5.998
  357SOL     OW 1969   5.868   6.240   4.669
  357SOL    HW1 1970   5.836   6.153   4.632
  357SOL    HW2 1971   5.893   6.301   4.594
  358SOL     OW 1972   4.966   5.840   0.430
  358SOL    HW1 1973   5.048   5.881   0.389
  358SOL    HW2 1974   4.894   5.834   0.361
  359SOL     OW 1975   3.049   2.155   2.181
  359SOL    HW1 1976   3.088   2.084   2.123
  359SOL    HW2 1977   3.020   2.232   2.124
  360SOL     OW 1978   1.691   4.657   4.307
  360SOL    HW1 1979   1.732   4.575   4.269
  360SOL    HW2 1980   1.622   4.692   4.244
  361SOL     OW 1981   6.402   6.593   3.105
  361SOL    HW1 1982   6.356   6.560   3.023
  361SOL    HW2 1983   6.471   6.661   3.079
  362SOL     OW 1984   3.818   4.380   1.221
  362SOL    HW1 1985   3.902   4.416   1.180
  362SOL    HW2 1986   3.836   4.288   1.257
  363SOL     OW 1987   5.550   5.386   2.457
  363SOL    HW1 1988   5.503   5.312   2.505
  363SOL    HW2 1989   5.542   5.371   2.358
  364SOL     OW 1990   0.635   5.696   6.556
  364SOL    HW1 1991   0.702   5.659   6.621
  364SOL    HW2 1992   0.545   5.701   6.600
  365SOL     OW 1993   3.792   1.755   3.099
  365SOL    HW1 1994   3.781   1.785   3.004
  365SOL    HW2 1995   3.784   1.655   3.103
  366SOL     OW 1996   5.813   2.501   0.633
  366SOL    HW1 1997   5.877   2.528   0.706
  366SOL    HW2 1998   5.864   2.486   0.548
  367SOL     OW 1999   4.489   1.986   5.520
  367SOL    HW1 2000   4.398   1.945   5.526
  367SOL    HW2 2001   4.529   1.993   5.612
  368SOL     OW 2002   6.561   2.221   6.107
  368SOL    HW1 2003   6.504   2.243   6.028
  368SOL    HW2 2004   6.652   2.261   6.095
  369SOL     OW 2005   5.517   3.331   2.344
  369SOL    HW1 2006   5.602   3.352   2.391
  369SOL    HW2 2007   5.536   3.274   2.264
  370SOL     OW 2008   2.034   3.164   4.208
  370SOL    HW1 2009   2.074   3.172   4.117
  370SOL    HW2 2010   2.031   3.255   4.251
  371SOL     OW 2011   1.530   4.361   6.554
  371SOL    HW1 2012   1.501   4.444   6.601
  371SOL    HW2 2013   1.490   4.359   6.462
  372SOL     OW 2014   3.167   6.587   6.112
  372SOL    HW1 2015   3.130   6.602   6.203
  372SOL    HW2 2016   3.154   6.670   6.056
  373SOL     OW 2017   6.174   6.212   4.426
  373SOL    HW1 2018   6.213   6.173   4.343
  373SOL    HW2 2019   6.245   6.219   4.496
  374SOL     OW 2020   2.532   1.518   2.669
  374SOL    HW1 2021   2.434   1.505   2.657
  374SOL    HW2 2022   2.560   1.601   2.622
  375SOL     OW 2023   1.004   4.500   5.199
  375SOL    HW1 2024   0.933   4.453   5.148
  375SOL    HW2 2025   1.090   4.496   5.149
  376SOL     OW 2026   2.404   0.724   4.341
  376SOL    HW1 2027   2.331   0.666   4.376
  376SOL    HW2 2028   2.492   0.689   4.374
  377SOL     OW 2029   1.492   2.664   6.509
  377SOL    HW1 2030   1.493   2.665   6.409
  377SOL    HW2 2031   1.398   2.664   6.542
  378SOL     OW 2032   3.069   1.767   1.590
  378SOL    HW1 2033   3.167   1.783   1.578
  378SOL    HW2 2034   3.043   1.679   1.550
  379SOL     OW 2035   6.146   2.450   6.260
  379SOL    HW1 2036   6.174   2.380   6.194
  379SOL    HW2 2037   6.181   2.539   6.231
  380SOL     OW 2038   3.821   1.565   1.479
  380SOL    HW1 2039   3.779   1.476   1.498
  380SOL    HW2 2040   3.848   1.569   1.383
  381SOL     OW 2041   1.617   4.529   3.471
  381SOL    HW1 2042   1.716   4.523   3.475
  381SOL    HW2 2043   1.590   4.612   3.421
  382SOL     OW 2044   5.905   0.545   0.614
  382SOL    HW1 2045   5.856   0.605   0.551
  382SOL    HW2 2046   5.904   0.585   0.706
  383SOL     OW 2047   4.055   2.672   1.253
  383SOL    HW1 2048   3.989   2.715   1.314
  383SOL    HW2 2049   4.033   2.575   1.244
  384SOL     OW 2050   6.387   4.390   4.546
  384SOL    HW1 2051   6.456   4.370   4.476
  384SOL    HW2 2052   6.430   4.386   4.637
  385SOL     OW 2053   4.839   4.977   6.600
  385SOL    HW1 2054   4.876   5.070   6.600
  385SOL    HW2 2055   4.861   4.932   6.687
  386SOL     OW 2056   3.707   6.926   4.022
  386SOL    HW1 2057   3.774   6.981   4.071
  386SOL    HW2 2058   3.740   6.832   4.012
  387SOL     OW 2059   2.173   5.507   3.844
  387SOL    HW1 2060   2.196   5.513   3.941
  387SOL    HW2 2061   2.127   5.421   3.825
  388SOL     OW 2062   2.410   2.439   6.816
  388SOL    HW1 2063   2.376   2.525   6.777
  388SOL    HW2 2064   2.379   2.431   6.910
  389SOL     OW 2065   2.887   3.526   3.687
  389SOL    HW1 2066   2.864   3.548   3.592
  389SOL    HW2 2067   2.936   3.439   3.691
  390SOL     OW 2068   2.099   1.903   4.192
  390SOL    HW1 2069   2.042   1.830   4.156
  390SOL    HW2 2070   2.172   1.924   4.127
  391SOL     OW 2071   0.948   2.618   6.538
  391SOL    HW1 2072   1.002   2.534   6.531
  391SOL    HW2 2073   0.925   2.634   6.634
  392SOL     OW 2074   2.556   5.348   2.089
  392SOL    HW1 2075   2.617   5.377   2.015
  392SOL    HW2 2076   2.515   5.428   2.131
  393SOL     OW 2077   5.813   4.621   5.258
  393SOL    HW1 2078   5.892   4.660   5.305
  393SOL    HW2 2079   5.811   4.522   5.272
  394SOL     OW 2080   0.195   6.524   0.064
  394SOL    HW1 2081   0.163   6.467   0.139
  394SOL    HW2 2082   0.153   6.615   0.072
  395SOL     OW 2083   5.238   3.896   2.185
  395SOL    HW1 2084   5.257   3.823   2.251
  395SOL    HW2 2085   5.173   3.862   2.117
  396SOL     OW 2086   3.246   4.066   3.643
  396SOL    HW1 2087   3.307   4.098   3.571
  396SOL    HW2 2088   3.179   4.002   3.605
  397SOL     OW 2089   4.432   2.264   5.503
  397SOL    HW1 2090   4.459   2.168   5.512
  397SOL    HW2 2091   4.387   2.277   5.415
  398SOL     OW 2092   1.155   5.434   2.224
  398SOL    HW1 2093   1.207   5.516   2.245
  398SOL    HW2 2094   1.129   5.433   2.128
  399SOL     OW 2095   5.000   5.566   1.339
  399SOL    HW1 2096   4.981   5.664   1.347
  399SOL    HW2 2097   4.920   5.514   1.369
  400SOL     OW 2098   0.175   6.351   5.439
  400SOL    HW1 2099   0.142   6.297   5.362
  400SOL    HW2 2100   0.242   6.298   5.490
  401SOL     OW 2101   4.863   1.329   6.271
  401SOL    HW1 2102   4.865   1.427   6.255
  401SOL    HW2 2103   4.854   1.281   6.183
  402SOL     OW 2104   6.305   5.725   2.841
  402SOL    HW1 2105   6.221   5.691   2.882
  402SOL    HW2 2106   6.362   5.768   2.911
  403SOL     OW 2107   4.889   2.261   5.953
  403SOL    HW1 2108   4.893   2.355   5.986
  403SOL    HW2 2109   4.793   2.233   5.945
  404SOL     OW 2110   1.217   6.825   3.961
  404SOL    HW1 2111   1.175   6.748   3.912
  404SOL    HW2 2112   1.146   6.882   4.001
  405SOL     OW 2113   1.890   2.465   0.567
  405SOL    HW1 2114   1.851   2.380   0.533
  405SOL    HW2 2115   1.979   2.481   0.523
  406SOL     OW 2116   1.424   1.937   4.404
  406SOL    HW1 2117   1.502   1.881   4.432
  406SOL    HW2 2118   1.454   2.032   4.393
  407SOL     OW 2119   2.930   7.022   4.795
  407SOL    HW1 2120   3.017   7.005   4.840
  407SOL    HW2 2121   2.892   6.936   4.761
  408SOL     OW 2122   1.509   0.003   3.642
  408SOL    HW1 2123   1.575   0.005   3.566
  408SOL    HW2 2124   1.464   0.092   3.648
  409SOL     OW 2125   6.320   3.017   3.391
  409SOL    HW1 2126   6.262   3.035   3.470
  409SOL    HW2 2127   6.297   3.082   3.318
  410SOL     OW 2128   2.010   0.079   6.903
  410SOL    HW1 2129   2.101   0.082   6.943
  410SOL    HW2 2130   1.951   0.145   6.948
  411SOL     OW 2131   5.694   4.942   6.051
  411SOL    HW1 2132   5.727   4.870   5.991
  411SOL    HW2 2133   5.732   4.930   6.143
  412SOL     OW 2134   3.536   6.416   2.712
  412SOL    HW1 2135   3.494   6.425   2.803
  412SOL    HW2 2136   3.635   6.419   2.722
  413SOL     OW 2137   3.277   5.559   0.627
  413SOL    HW1 2138   3.282   5.537   0.530
  413SOL    HW2 2139   3.324   5.488   0.680
  414SOL     OW 2140   4.631   4.942   1.396
  414SOL    HW1 2141   4.627   4.842   1.386
  414SOL    HW2 2142   4.643   4.983   1.305
  415SOL     OW 2143   1.660   5.917   1.103
  415SOL    HW1 2144   1.696   6.003   1.066
  415SOL    HW2 2145   1.668   5.845   1.034
  416SOL     OW 2146   3.764   5.946   5.154
  416SOL    HW1 2147   3.671   5.916   5.129
  416SOL    HW2 2148   3.796   6.015   5.089
  417SOL     OW 2149   3.401   6.066   2.325
  417SOL    HW1 2150   3.388   5.970   2.302
  417SOL    HW2 2151   3.328   6.097   2.386
  418SOL     OW 2152   4.842   6.325   0.544
  418SOL    HW1 2153   4.858   6.339   0.642
  418SOL    HW2 2154   4.916   6.368   0.492
  419SOL     OW 2155   0.196   0.311   1.076
  419SOL    HW1 2156   0.230   0.225   1.038
  419SOL    HW2 2157   0.234   0.387   1.025
  420SOL     OW 2158   5.475   3.961   0.904
  420SOL    HW1 2159   5.548   4.029   0.898
  420SOL    HW2 2160   5.499   3.892   0.971
  421SOL     OW 2161   1.847   5.050   6.253
  421SOL    HW1 2162   1.827   5.135   6.303
  421SOL    HW2 2163   1.780   5.038   6.180
  422SOL     OW 2164   6.143   4.973   0.153
  422SOL    HW1 2165   6.086   4.891   0.144
  422SOL    HW2 2166   6.138   5.006   0.248
  423SOL     OW 2167   5.928   3.020   6.901
  423SOL    HW1 2168   5.845   3.073   6.914
  423SOL    HW2 2169   6.006   3.082   6.893
  424SOL     OW 2170   2.881   4.333   6.951
  424SOL    HW1 2171   2.867   4.286   6.864
  424SOL    HW2 2172   2.909   4.428   6.933
  425SOL     OW 2173   5.248   1.641   1.298
  425SOL    HW1 2174   5.205   1.682   1.379
  425SOL    HW2 2175   5.177   1.601   1.240
  426SOL     OW 2176   5.145   2.603   5.774
  426SOL    HW1 2177   5.216   2.569   5.712
  426SOL    HW2 2178   5.074   2.650   5.722
  427SOL     OW 2179   5.543   4.221   1.761
  427SOL    HW1 2180   5.576   4.279   1.686
  427SOL    HW2 2181   5.594   4.242   1.845
  428SOL     OW 2182   3.696   0.578   5.422
  428SOL    HW1 2183   3.603   0.601   5.395
  428SOL    HW2 2184   3.741   0.659   5.461
  429SOL     OW 2185   1.705   5.216   0.661
  429SOL    HW1 2186   1.632   5.264   0.710
  429SOL    HW2 2187   1.792   5.229   0.709
  430SOL     OW 2188   1.380   6.756   4.163
  430SOL    HW1 2189   1.338   6.799   4.082
  430SOL    HW2 2190   1.308   6.733   4.229
  431SOL     OW 2191   3.547   1.243   6.845
  431SOL    HW1 2192   3.564   1.341   6.830
  431SOL    HW2 2193   3.518   1.201   6.759
  432SOL     OW 2194   6.942   1.873   0.209
  432SOL    HW1 2195   7.006   1.943   0.178
  432SOL    HW2 2196   6.852   1.891   0.170
  433SOL     OW 2197   2.784   6.952   4.355
  433SOL    HW1 2198   2.877   6.945   4.393
  433SOL    HW2 2199   2.724   6.997   4.420
  434SOL     OW 2200   5.866   4.251   0.764
  434SOL    HW1 2201   5.896   4.269   0.670
  434SOL    HW2 2202   5.931   4.292   0.828
  435SOL     OW 2203   3.205   3.443   5.841
  435SOL    HW1 2204   3.108   3.459   5.823
  435SOL    HW2 2205   3.214   3.370   5.909
  436SOL     OW 2206   1.522   0.157   1.023
  436SOL    HW1 2207   1.600   0.169   0.962
  436SOL    HW2 2208   1.544   0.194   1.113
  437SOL     OW 2209   6.758   0.089   6.500
  437SOL    HW1 2210   6.715   0.010   6.546
  437SOL    HW2 2211   6.854   0.095   6.527
  438SOL     OW 2212   1.812   2.813   2.120
  438SOL    HW1 2213   1.715   2.838   2.129
  438SOL    HW2 2214   1.837   2.750   2.194
  439SOL     OW 2215   6.469   4.408   2.612
  439SOL    HW1 2216   6.518   4.344   2.671
  439SOL    HW2 2217   6.517   4.416   2.525
  440SOL     OW 2218   0.861   2.385   4.586
  440SOL    HW1 2219   0.880   2.363   4.681
  440SOL    HW2 2220   0.764   2.370   4.567
  441SOL     OW 2221   1.592   1.504   3.306
  441SOL    HW1 2222   1.689   1.522   3.293
  441SOL    HW2 2223   1.545   1.508   3.218
  442SOL     OW 2224   0.544   4.351   6.809
  442SOL    HW1 2225   0.530   4.262   6.852
  442SOL    HW2 2226   0.470   4.368   6.744
  443SOL     OW 2227   1.218   4.591   4.831
  443SOL    HW1 2228   1.302   4.572   4.780
  443SOL    HW2 2229   1.213   4.688   4.852
  444SOL     OW 2230   4.272   2.490   5.850
  444SOL    HW1 2231   4.283   2.569   5.791
  444SOL    HW2 2232   4.201   2.509   5.918
  445SOL     OW 2233   1.901   5.689   3.156
  445SOL    HW1 2234   1.905   5.773   3.103
  445SOL    HW2 2235   1.994   5.661   3.181
  446SOL     OW 2236   3.565   4.985   3.751
  446SOL    HW1 2237   3.493   4.969   3.819
  446SOL    HW2 2238   3.646   4.931   3.775
  447SOL     OW 2239   6.860   3.903   6.783
  447SOL    HW1 2240   6.801   3.886   6.703
  447SOL    HW2 2241   6.820   3.861   6.864
  448SOL     OW 2242   3.745   0.786   4.691
  448SOL    HW1 2243   3.728   0.724   4.768
  448SOL    HW2 2244   3.807   0.859   4.720
  449SOL     OW 2245   5.412   1.217   4.747
  449SOL    HW1 2246   5.487   1.278   4.721
  449SOL    HW2 2247   5.324   1.263   4.729
  450SOL     OW 2248   0.003   5.782   3.508
  450SOL    HW1 2249   6.973   5.783   3.424
  450SOL    HW2 2250   0.091   5.827   3.492
  451SOL     OW 2251   0.550   2.434   2.239
  451SOL    HW1 2252   0.493   2.455   2.159
  451SOL    HW2 2253   0.542   2.336   2.260
  452SOL     OW 2254   6.871   5.515   0.128
  452SOL    HW1 2255   6.958   5.563   0.121
  452SOL    HW2 2256   6.864   5.471   0.218
  453SOL     OW 2257   3.181   0.889   6.388
  453SOL    HW1 2258   3.271   0.846   6.385
  453SOL    HW2 2259   3.185   0.978   6.344
  454SOL     OW 2260   0.022   6.262   6.015
  454SOL    HW1 2261   7.001   6.293   6.100
  454SOL    HW2 2262   0.009   6.332   5.944
  455SOL     OW 2263   5.822   0.080   4.461
  455SOL    HW1 2264   5.855   7.009   4.456
  455SOL    HW2 2265   5.747   0.086   4.527
  456SOL     OW 2266   3.970   5.952   5.932
  456SOL    HW1 2267   3.952   5.987   5.841
  456SOL    HW2 2268   4.007   6.025   5.990
  457SOL     OW 2269   1.890   4.287   3.292
  457SOL    HW1 2270   1.873   4.384   3.307
  457SOL    HW2 2271   1.812   4.245   3.246
  458SOL     OW 2272   5.249   5.434   5.235
  458SOL    HW1 2273   5.345   5.444   5.208
  458SOL    HW2 2274   5.240   5.450   5.333
  459SOL     OW 2275   1.197   0.187   2.988
  459SOL    HW1 2276   1.245   0.242   2.920
  459SOL    HW2 2277   1.228   0.211   3.080
  460SOL     OW 2278   0.474   1.527   2.122
  460SOL    HW1 2279   0.521   1.607   2.085
  460SOL    HW2 2280   0.529   1.487   2.195
  461SOL     OW 2281   4.398   6.805   4.788
  461SOL    HW1 2282   4.450   6.775   4.707
  461SOL    HW2 2283   4.449   6.878   4.834
  462SOL     OW 2284   3.973   2.385   5.801
  462SOL    HW1 2285   4.014   2.418   5.886
  462SOL    HW2 2286   3.874   2.389   5.808
  463SOL     OW 2287   6.314   5.391   2.718
  463SOL    HW1 2288   6.393   5.447   2.743
  463SOL    HW2 2289   6.280   5.419   2.628
  464SOL     OW 2290   2.772   1.563   6.350
  464SOL    HW1 2291   2.747   1.511   6.432
  464SOL    HW2 2292   2.765   1.661   6.368
  465SOL     OW 2293   0.993   1.622   4.614
  465SOL    HW1 2294   0.960   1.682   4.541
  465SOL    HW2 2295   1.066   1.668   4.664
  466SOL     OW 2296   7.015   6.257   3.508
  466SOL    HW1 2297   6.971   6.269   3.419
  466SOL    HW2 2298   6.979   6.174   3.551
  467SOL     OW 2299   1.365   6.877   6.380
  467SOL    HW1 2300   1.288   6.817   6.360
  467SOL    HW2 2301   1.347   6.929   6.463
  468SOL     OW 2302   3.520   5.670   0.489
  468SOL    HW1 2303   3.449   5.652   0.420
  468SOL    HW2 2304   3.523   5.594   0.554
  469SOL     OW 2305   2.539   5.209   0.109
  469SOL    HW1 2306   2.449   5.179   0.141
  469SOL    HW2 2307   2.591   5.131   0.075
  470SOL     OW 2308   3.697   0.633   2.161
  470SOL    HW1 2309   3.787   0.589   2.167
  470SOL    HW2 2310   3.634   0.588   2.225
  471SOL     OW 2311   1.369   2.564   4.188
  471SOL    HW1 2312   1.462   2.561   4.152
  471SOL    HW2 2313   1.323   2.477   4.169
  472SOL     OW 2314   4.831   3.787   6.561
  472SOL    HW1 2315   4.877   3.873   6.539
  472SOL    HW2 2316   4.749   3.776   6.505
  473SOL     OW 2317   0.418   2.555   1.469
  473SOL    HW1 2318   0.371   2.598   1.392
  473SOL    HW2 2319   0.446   2.462   1.444
  474SOL     OW 2320   4.151   5.187   4.001
  474SOL    HW1 2321   4.166   5.094   3.967
  474SOL    HW2 2322   4.121   5.183   4.096
  475SOL     OW 2323   6.910   0.198   6.844
  475SOL    HW1 2324   6.903   0.186   6.943
  475SOL    HW2 2325   6.823   0.172   6.802
  476SOL     OW 2326   0.031   4.149   2.224
  476SOL    HW1 2327   0.082   4.197   2.152
  476SOL    HW2 2328   0.075   4.165   2.312
  477SOL     OW 2329   2.318   4.967   4.650
  477SOL    HW1 2330   2.409   5.003   4.671
  477SOL    HW2 2331   2.295   4.894   4.714
  478SOL     OW 2332   2.878   6.423   2.240
  478SOL    HW1 2333   2.943   6.404   2.166
  478SOL    HW2 2334   2.787   6.439   2.201
  479SOL     OW 2335   3.823   1.867   0.487
  479SOL    HW1 2336   3.828   1.879   0.586
  479SOL    HW2 2337   3.736   1.823   0.463
  480SOL     OW 2338   1.510   6.785   0.970
  480SOL    HW1 2339   1.603   6.769   0.939
  480SOL    HW2 2340   1.511   6.814   1.066
  481SOL     OW 2341   2.408   0.617   0.873
  481SOL    HW1 2342   2.490   0.590   0.923
  481SOL    HW2 2343   2.328   0.609   0.932
  482SOL     OW 2344   4.764   4.845   2.194
  482SOL    HW1 2345   4.759   4.937   2.154
  482SOL    HW2 2346   4.674   4.820   2.230
  483SOL     OW 2347   5.703   2.158   1.510
  483SOL    HW1 2348   5.730   2.062   1.502
  483SOL    HW2 2349   5.629   2.167   1.576
  484SOL     OW 2350   1.270   2.692   5.234
  484SOL    HW1 2351   1.213   2.612   5.250
  484SOL    HW2 2352   1.366   2.664   5.232
  485SOL     OW 2353   4.064   5.182   2.162
  485SOL    HW1 2354   3.970   5.155   2.182
  485SOL    HW2 2355   4.117   5.186   2.247
  486SOL     OW 2356   0.899   1.721   1.051
  486SOL    HW1 2357   0.801   1.716   1.028
  486SOL    HW2 2358   0.934   1.810   1.022
  487SOL     OW 2359   0.915   1.500   0.074
  487SOL    HW1 2360   0.831   1.529   0.029
  487SOL    HW2 2361   0.933   1.404   0.054
  488SOL     OW 2362   1.177   0.721   1.199
  488SOL    HW1 2363   1.136   0.745   1.287
  488SOL    HW2 2364   1.114   0.747   1.125
  489SOL     OW 2365   3.636   5.923   0.214
  489SOL    HW1 2366   3.628   5.920   0.114
  489SOL    HW2 2367   3.697   5.849   0.244
  490SOL     OW 2368   6.512   5.927   4.223
  490SOL    HW1 2369   6.542   5.865   4.296
  490SOL    HW2 2370   6.474   5.874   4.148
  491SOL     OW 2371   6.901   2.572   3.323
  491SOL    HW1 2372   6.984   2.543   3.275
  491SOL    HW2 2373   6.925   2.617   3.409
  492SOL     OW 2374   2.972   0.265   5.101
  492SOL    HW1 2375   3.026   0.197   5.051
  492SOL    HW2 2376   2.879   0.265   5.066
  493SOL     OW 2377   5.561   4.897   6.534
  493SOL    HW1 2378   5.485   4.853   6.487
  493SOL    HW2 2379   5.526   4.960   6.603
  494SOL     OW 2380   0.384   6.177   0.003
  494SOL    HW1 2381   0.297   6.189   0.050
  494SOL    HW2 2382   0.416   6.266   6.994
  495SOL     OW 2383   5.192   5.534   2.829
  495SOL    HW1 2384   5.156   5.581   2.749
  495SOL    HW2 2385   5.126   5.540   2.904
  496SOL     OW 2386   5.472   2.529   2.679
  496SOL    HW1 2387   5.562   2.568   2.663
  496SOL    HW2 2388   5.404   2.602   2.682
  497SOL     OW 2389   3.484   1.515   5.221
  497SOL    HW1 2390   3.418   1.557   5.159
  497SOL    HW2 2391   3.574   1.515   5.178
  498SOL     OW 2392   1.490   3.724   1.804
  498SOL    HW1 2393   1.478   3.760   1.712
  498SOL    HW2 2394   1.576   3.673   1.809
  499SOL     OW 2395   2.858   0.533   4.009
  499SOL    HW1 2396   2.866   0.436   3.983
  499SOL    HW2 2397   2.764   0.551   4.037
  500SOL     OW 2398   1.015   4.222   3.517
  500SOL    HW1 2399   1.055   4.196   3.429
  500SOL    HW2 2400   0.948   4.154   3.545
  501SOL     OW 2401   3.080   1.167   0.699
  501SOL    HW1 2402   3.141   1.090   0.684
  501SOL    HW2 2403   2.999   1.158   0.640
  502SOL     OW 2404   5.600   4.093   6.089
  502SOL    HW1 2405   5.572   4.097   6.185
  502SOL    HW2 2406   5.538   4.034   6.038
  503SOL     OW 2407   5.842   4.757   5.897
  503SOL    HW1 2408   5.904   4.681   5.919
  503SOL    HW2 2409   5.797   4.739   5.809
  504SOL     OW 2410   2.623   6.665   3.848
  504SOL    HW1 2411   2.676   6.610   3.912
  504SOL    HW2 2412   2.606   6.756   3.887
  505SOL     OW 2413   3.727   0.308   5.462
  505SOL    HW1 2414   3.709   0.406   5.453
  505SOL    HW2 2415   3.641   0.260   5.482
  506SOL     OW 2416   2.004   5.281   4.390
  506SOL    HW1 2417   2.016   5.370   4.436
  506SOL    HW2 2418   2.087   5.227   4.402
  507SOL     OW 2419   2.977   0.545   4.470
  507SOL    HW1 2420   3.049   0.551   4.539
  507SOL    HW2 2421   3.012   0.578   4.382
  508SOL     OW 2422   6.242   3.520   2.419
  508SOL    HW1 2423   6.338   3.519   2.390
  508SOL    HW2 2424   6.221   3.437   2.470
  509SOL     OW 2425   3.499   1.187   1.914
  509SOL    HW1 2426   3.524   1.187   2.011
  509SOL    HW2 2427   3.541   1.108   1.869
  510SOL     OW 2428   7.022   4.329   5.998
  510SOL    HW1 2429   6.960   4.380   5.939
  510SOL    HW2 2430   0.000   4.371   6.089
  511SOL     OW 2431   0.092   6.570   6.527
  511SOL    HW1 2432   0.098   6.633   6.449
  511SOL    HW2 2433   0.098   6.621   6.612
  512SOL     OW 2434   6.919   3.419   0.009
  512SOL    HW1 2435   6.833   3.431   0.057
  512SOL    HW2 2436   6.972   3.504   0.012
  513SOL     OW 2437   5.691   6.372   3.033
  513SOL    HW1 2438   5.762   6.360   3.102
  513SOL    HW2 2439   5.620   6.303   3.045
  514SOL     OW 2440   6.592   2.269   4.237
  514SOL    HW1 2441   6.613   2.274   4.139
  514SOL    HW2 2442   6.663   2.318   4.289
  515SOL     OW 2443   2.088   6.540   6.101
  515SOL    HW1 2444   2.158   6.598   6.062
  515SOL    HW2 2445   2.033   6.499   6.028
  516SOL     OW 2446   2.725   4.553   1.616
  516SOL    HW1 2447   2.794   4.548   1.689
  516SOL    HW2 2448   2.717   4.464   1.571
  517SOL     OW 2449   5.097   6.109   2.435
  517SOL    HW1 2450   5.148   6.050   2.497
  517SOL    HW2 2451   5.110   6.205   2.461
  518SOL     OW 2452   3.080   2.011   1.747
  518SOL    HW1 2453   3.081   1.923   1.699
  518SOL    HW2 2454   2.988   2.027   1.784
  519SOL     OW 2455   6.839   0.397   4.829
  519SOL    HW1 2456   6.870   0.490   4.809
  519SOL    HW2 2457   6.822   0.348   4.744
  520SOL     OW 2458   5.652   4.539   6.485
  520SOL    HW1 2459   5.601   4.620   6.513
  520SOL    HW2 2460   5.694   4.496   6.565
  521SOL     OW 2461   6.175   2.021   6.495
  521SOL    HW1 2462   6.076   2.009   6.485
  521SOL    HW2 2463   6.223   1.946   6.449
  522SOL     OW 2464   4.059   3.011   5.276
  522SOL    HW1 2465   4.078   3.092   5.220
  522SOL    HW2 2466   3.988   2.956   5.231
  523SOL     OW 2467   6.705   5.483   3.579
  523SOL    HW1 2468   6.660   5.428   3.510
  523SOL    HW2 2469   6.803   5.486   3.561
  524SOL     OW 2470   2.595   1.113   6.860
  524SOL    HW1 2471   2.577   1.205   6.825
  524SOL    HW2 2472   2.521   1.087   6.923
  525SOL     OW 2473   2.499   3.602   6.415
  525SOL    HW1 2474   2.406   3.573   6.391
  525SOL    HW2 2475   2.565   3.545   6.367
  526SOL     OW 2476   2.541   6.393   5.045
  526SOL    HW1 2477   2.481   6.383   4.966
  526SOL    HW2 2478   2.488   6.383   5.129
  527SOL     OW 2479   6.174   2.702   6.135
  527SOL    HW1 2480   6.233   2.778   6.160
  527SOL    HW2 2481   6.078   2.728   6.146
  528SOL     OW 2482   1.444   1.233   3.927
  528SOL    HW1 2483   1.402   1.273   3.845
  528SOL    HW2 2484   1.476   1.307   3.987
  529SOL     OW 2485   0.713   5.044   4.742
  529SOL    HW1 2486   0.738   5.002   4.655
  529SOL    HW2 2487   0.794   5.083   4.785
  530SOL     OW 2488   2.724   2.905   5.382
  530SOL    HW1 2489   2.646   2.934   5.326
  530SOL    HW2 2490   2.690   2.867   5.468
  531SOL     OW 2491   0.441   1.333   1.584
  531SOL    HW1 2492   0.407   1.349   1.677
  531SOL    HW2 2493   0.370   1.289   1.529
  532SOL     OW 2494   1.080   2.618   6.137
  532SOL    HW1 2495   1.137   2.678   6.194
  532SOL    HW2 2496   1.045   2.543   6.193
  533SOL     OW 2497   4.773   6.236   4.468
  533SOL    HW1 2498   4.705   6.163   4.455
  533SOL    HW2 2499   4.765   6.302   4.394
  534SOL     OW 2500   5.162   5.380   3.737
  534SOL    HW1 2501   5.097   5.344   3.804
  534SOL    HW2 2502   5.195   5.469   3.768
  535SOL     OW 2503   0.807   4.509   4.263
  535SOL    HW1 2504   0.846   4.501   4.171
  535SOL    HW2 2505   0.843   4.435   4.320
  536SOL     OW 2506   7.020   5.310   1.658
  536SOL    HW1 2507   6.998   5.408   1.666
  536SOL    HW2 2508   0.025   5.290   1.564
  537SOL     OW 2509   2.317   6.506   3.453
  537SOL    HW1 2510   2.296   6.504   3.551
  537SOL    HW2 2511   2.413   6.529   3.440
  538SOL     OW 2512   1.153   5.668   3.167
  538SOL    HW1 2513   1.217   5.605   3.123
  538SOL    HW2 2514   1.076   5.686   3.106
  539SOL     OW 2515   0.396   5.547   0.779
  539SOL    HW1 2516   0.326   5.507   0.837
  539SOL    HW2 2517   0.397   5.501   0.690
  540SOL     OW 2518   0.276   2.144   2.158
  540SOL    HW1 2519   0.214   2.222   2.165
  540SOL    HW2 2520   0.308   2.118   2.249
  541SOL     OW 2521   3.497   6.850   4.601
  541SOL    HW1 2522   3.487   6.921   4.671
  541SOL    HW2 2523   3.446   6.877   4.519
  542SOL     OW 2524   6.555   6.821   0.307
  542SOL    HW1 2525   6.542   6.866   0.396
  542SOL    HW2 2526   6.468   6.780   0.279
  543SOL     OW 2527   0.753   5.248   6.119
  543SOL    HW1 2528   0.841   5.246   6.072
  543SOL    HW2 2529   0.716   5.341   6.119
  544SOL     OW 2530   0.918   4.411   1.164
  544SOL    HW1 2531   0.989   4.357   1.119
  544SOL    HW2 2532   0.912   4.501   1.122
  545SOL     OW 2533   3.316   1.765   3.561
  545SOL    HW1 2534   3.231   1.791   3.606
  545SOL    HW2 2535   3.321   1.811   3.472
  546SOL     OW 2536   1.714   3.528   1.772
  546SOL    HW1 2537   1.673   3.441   1.799
  546SOL    HW2 2538   1.811   3.528   1.796
  547SOL     OW 2539   2.632   1.765   6.876
  547SOL    HW1 2540   2.627   1.684   6.935
  547SOL    HW2 2541   2.571   1.836   6.912
  548SOL     OW 2542   3.712   2.910   2.889
  548SOL    HW1 2543   3.623   2.864   2.888
  548SOL    HW2 2544   3.752   2.905   2.797
  549SOL     OW 2545   4.535   3.557   1.407
  549SOL    HW1 2546   4.542   3.458   1.416
  549SOL    HW2 2547   4.439   3.584   1.404
  550SOL     OW 2548   6.743   3.300   2.815
  550SOL    HW1 2549   6.685   3.294   2.734
  550SOL    HW2 2550   6.687   3.286   2.897
  551SOL     OW 2551   0.063   2.108   0.522
  551SOL    HW1 2552   0.003   2.028   0.519
  551SOL    HW2 2553   0.010   2.190   0.503
  552SOL     OW 2554   3.928   5.435   0.645
  552SOL    HW1 2555   3.963   5.474   0.730
  552SOL    HW2 2556   3.936   5.335   0.649
  553SOL     OW 2557   1.971   0.069   2.549
  553SOL    HW1 2558   1.948   0.022   2.464
  553SOL    HW2 2559   1.913   0.035   2.623
  554SOL     OW 2560   5.059   6.558   6.610
  554SOL    HW1 2561   5.123   6.632   6.589
  554SOL    HW2 2562   5.066   6.487   6.540
  555SOL     OW 2563   1.977   5.026   4.213
  555SOL    HW1 2564   2.029   4.972   4.279
  555SOL    HW2 2565   1.914   5.086   4.261
  556SOL     OW 2566   5.914   2.268   4.483
  556SOL    HW1 2567   5.967   2.184   4.493
  556SOL    HW2 2568   5.899   2.309   4.573
  557SOL     OW 2569   6.769   6.201   6.495
  557SOL    HW1 2570   6.813   6.284   6.527
  557SOL    HW2 2571   6.738   6.147   6.573
  558SOL     OW 2572   4.179   3.699   5.144
  558SOL    HW1 2573   4.105   3.751   5.104
  558SOL    HW2 2574   4.182   3.608   5.103
  559SOL     OW 2575   6.993   6.163   6.913
  559SOL    HW1 2576   0.016   6.153   6.824
  559SOL    HW2 2577   0.038   6.179   6.984
  560SOL     OW 2578   3.966   6.109   0.611
  560SOL    HW1 2579   3.994   6.202   0.585
  560SOL    HW2 2580   3.953   6.054   0.528
  561SOL     OW 2581   5.619   6.942   0.256
  561SOL    HW1 2582   5.644   7.021   0.201
  561SOL    HW2 2583   5.620   6.967   0.353
  562SOL     OW 2584   5.011   1.115   6.043
  562SOL    HW1 2585   5.071   1.129   6.123
  562SOL    HW2 2586   5.009   1.198   5.988
  563SOL     OW 2587   2.757   6.656   3.594
  563SOL    HW1 2588   2.848   6.617   3.605
  563SOL    HW2 2589   2.712   6.662   3.683
  564SOL     OW 2590   2.127   2.237   6.149
  564SOL    HW1 2591   2.146   2.334   6.133
  564SOL    HW2 2592   2.077   2.226   6.235
  565SOL     OW 2593   4.358   2.981   6.027
  565SOL    HW1 2594   4.311   2.921   5.962
  565SOL    HW2 2595   4.301   3.061   6.046
  566SOL     OW 2596   4.431   4.544   3.225
  566SOL    HW1 2597   4.354   4.607   3.214
  566SOL    HW2 2598   4.453   4.503   3.137
  567SOL     OW 2599   3.469   3.504   4.149
  567SOL    HW1 2600   3.467   3.600   4.179
  567SOL    HW2 2601   3.376   3.468   4.144
  568SOL     OW 2602   3.606   2.303   0.214
  568SOL    HW1 2603   3.694   2.321   0.257
  568SOL    HW2 2604   3.619   2.241   0.136
  569SOL     OW 2605   1.324   2.838   0.330
  569SOL    HW1 2606   1.334   2.790   0.417
  569SOL    HW2 2607   1.328   2.773   0.254
  570SOL     OW 2608   1.388   6.658   0.596
  570SOL    HW1 2609   1.436   6.571   0.602
  570SOL    HW2 2610   1.394   6.705   0.684
  571SOL     OW 2611   3.622   5.901   2.608
  571SOL    HW1 2612   3.561   5.836   2.652
  571SOL    HW2 2613   3.572   5.986   2.589
  572SOL     OW 2614   2.240   4.336   5.465
  572SOL    HW1 2615   2.256   4.304   5.372
  572SOL    HW2 2616   2.327   4.334   5.516
  573SOL     OW 2617   3.863   1.238   6.147
  573SOL    HW1 2618   3.951   1.241   6.099
  573SOL    HW2 2619   3.867   1.298   6.227
  574SOL     OW 2620   1.930   2.083   4.329
  574SOL    HW1 2621   1.840   2.043   4.314
  574SOL    HW2 2622   1.999   2.030   4.278
  575SOL     OW 2623   6.324   3.480   0.462
  575SOL    HW1 2624   6.237   3.435   0.441
  575SOL    HW2 2625   6.399   3.416   0.449
  576SOL     OW 2626   1.407   2.384   1.779
  576SOL    HW1 2627   1.312   2.410   1.759
  576SOL    HW2 2628   1.458   2.466   1.804
  577SOL     OW 2629   2.281   1.972   4.005
  577SOL    HW1 2630   2.326   2.057   3.977
  577SOL    HW2 2631   2.314   1.896   3.950
  578SOL     OW 2632   0.716   3.194   3.050
  578SOL    HW1 2633   0.622   3.222   3.069
  578SOL    HW2 2634   0.721   3.094   3.051
  579SOL     OW 2635   4.287   1.829   1.161
  579SOL    HW1 2636   4.304   1.895   1.235
  579SOL    HW2 2637   4.194   1.793   1.169
  580SOL     OW 2638   1.328   4.906   6.299
  580SOL    HW1 2639   1.340   4.987   6.356
  580SOL    HW2 2640   1.302   4.828   6.356
  581SOL     OW 2641   3.689   3.239   3.208
  581SOL    HW1 2642   3.644   3.270   3.125
  581SOL    HW2 2643   3.691   3.139   3.211
  582SOL     OW 2644   5.903   3.964   2.616
  582SOL    HW1 2645   5.952   3.882   2.646
  582SOL    HW2 2646   5.909   3.973   2.517
  583SOL     OW 2647   2.813   4.784   0.039
  583SOL    HW1 2648   2.809   4.702   7.006
  583SOL    HW2 2649   2.900   4.785   0.089
  584SOL     OW 2650   0.271   4.820   5.152
  584SOL    HW1 2651   0.349   4.796   5.211
  584SOL    HW2 2652   0.249   4.742   5.094
  585SOL     OW 2653   0.274   2.355   5.655
  585SOL    HW1 2654   0.231   2.264   5.651
  585SOL    HW2 2655   0.369   2.348   5.625
  586SOL     OW 2656   2.614   0.042   0.209
  586SOL    HW1 2657   2.639   0.117   0.149
  586SOL    HW2 2658   2.520   0.054   0.240
  587SOL     OW 2659   1.494   2.507   5.616
  587SOL    HW1 2660   1.395   2.511   5.624
  587SOL    HW2 2661   1.519   2.469   5.527
  588SOL     OW 2662   3.952   0.083   1.672
  588SOL    HW1 2663   3.882   0.024   1.633
  588SOL    HW2 2664   3.944   0.175   1.633
  589SOL     OW 2665   3.707   5.033   1.941
  589SOL    HW1 2666   3.727   5.131   1.946
  589SOL    HW2 2667   3.636   5.010   2.008
  590SOL     OW 2668   6.778   2.745   2.156
  590SOL    HW1 2669   6.781   2.836   2.197
  590SOL    HW2 2670   6.871   2.710   2.146
  591SOL     OW 2671   4.031   0.337   4.017
  591SOL    HW1 2672   4.101   0.321   4.086
  591SOL    HW2 2673   4.053   0.286   3.934
  592SOL     OW 2674   4.947   0.779   0.305
  592SOL    HW1 2675   5.000   0.705   0.345
  592SOL    HW2 2676   4.935   0.763   0.207
  593SOL     OW 2677   4.467   2.489   4.292
  593SOL    HW1 2678   4.455   2.472   4.194
  593SOL    HW2 2679   4.538   2.558   4.306
  594SOL     OW 2680   4.059   3.907   6.875
  594SOL    HW1 2681   3.987   3.884   6.809
  594SOL    HW2 2682   4.080   3.826   6.930
  595SOL     OW 2683   3.998   6.530   4.308
  595SOL    HW1 2684   3.931   6.604   4.303
  595SOL    HW2 2685   3.985   6.478   4.392
  596SOL     OW 2686   0.995   4.122   2.460
  596SOL    HW1 2687   0.978   4.212   2.500
  596SOL    HW2 2688   1.028   4.060   2.531
  597SOL     OW 2689   3.727   0.166   0.138
  597SOL    HW1 2690   3.803   0.158   0.074
  597SOL    HW2 2691   3.708   0.076   0.178
  598SOL     OW 2692   4.197   4.677   0.354
  598SOL    HW1 2693   4.119   4.715   0.304
  598SOL    HW2 2694   4.163   4.609   0.420
  599SOL     OW 2695   6.999   0.139   3.058
  599SOL    HW1 2696   6.951   0.218   3.019
  599SOL    HW2 2697   6.956   0.114   3.145
  600SOL     OW 2698   1.030   6.894   0.874
  600SOL    HW1 2699   1.007   6.911   0.970
  600SOL    HW2 2700   0.955   6.846   0.830
  601SOL     OW 2701   2.605   5.927   2.844
  601SOL    HW1 2702   2.705   5.937   2.849
  601SOL    HW2 2703   2.568   5.920   2.937
  602SOL     OW 2704   1.253   0.102   0.967
  602SOL    HW1 2705   1.209   0.180   0.922
  602SOL    HW2 2706   1.348   0.126   0.987
  603SOL     OW 2707   4.276   1.927   3.432
  603SOL    HW1 2708   4.238   1.912   3.340
  603SOL    HW2 2709   4.203   1.927   3.499
  604SOL     OW 2710   1.118   3.470   6.612
  604SOL    HW1 2711   1.199   3.427   6.653
  604SOL    HW2 2712   1.101   3.431   6.522
  605SOL     OW 2713   6.840   5.902   3.276
  605SOL    HW1 2714   6.824   5.807   3.252
  605SOL    HW2 2715   6.871   5.953   3.196
  606SOL     OW 2716   3.869   0.279   4.494
  606SOL    HW1 2717   3.936   0.242   4.430
  606SOL    HW2 2718   3.916   0.331   4.565
  607SOL     OW 2719   5.027   1.840   4.128
  607SOL    HW1 2720   5.101   1.835   4.195
  607SOL    HW2 2721   4.942   1.810   4.171
  608SOL     OW 2722   3.125   0.470   0.226
  608SOL    HW1 2723   3.117   0.506   0.133
  608SOL    HW2 2724   3.081   0.532   0.291
  609SOL     OW 2725   3.628   2.886   3.818
  609SOL    HW1 2726   3.688   2.883   3.898
  609SOL    HW2 2727   3.579   2.799   3.810
  610SOL     OW 2728   5.060   2.295   4.013
  610SOL    HW1 2729   4.983   2.351   3.982
  610SOL    HW2 2730   5.048   2.202   3.979
  611SOL     OW 2731   0.482   0.424   7.003
  611SOL    HW1 2732   0.503   0.500   0.041
  611SOL    HW2 2733   0.383   0.411   6.997
  612SOL     OW 2734   3.434   5.590   6.329
  612SOL    HW1 2735   3.474   5.667   6.280
  612SOL    HW2 2736   3.377   5.537   6.266
  613SOL     OW 2737   4.235   1.535   6.304
  613SOL    HW1 2738   4.208   1.505   6.395
  613SOL    HW2 2739   4.169   1.503   6.236
  614SOL     OW 2740   6.501   4.849   0.690
  614SOL    HW1 2741   6.528   4.898   0.774
  614SOL    HW2 2742   6.454   4.912   0.628
  615SOL     OW 2743   0.700   6.934   0.482
  615SOL    HW1 2744   0.679   6.867   0.411
  615SOL    HW2 2745   0.728   7.020   0.439
  616SOL     OW 2746   5.668   1.557   4.507
  616SOL    HW1 2747   5.586   1.575   4.563
  616SOL    HW2 2748   5.705   1.643   4.473
  617SOL     OW 2749   0.312   4.814   5.687
  617SOL    HW1 2750   0.308   4.891   5.751
  617SOL    HW2 2751   0.223   4.767   5.686
  618SOL     OW 2752   5.710   3.766   1.024
  618SOL    HW1 2753   5.705   3.808   0.933
  618SOL    HW2 2754   5.799   3.722   1.036
  619SOL     OW 2755   3.292   0.257   0.209
  619SOL    HW1 2756   3.219   0.321   0.184
  619SOL    HW2 2757   3.372   0.307   0.242
  620SOL     OW 2758   5.298   3.255   1.984
  620SOL    HW1 2759   5.271   3.347   1.953
  620SOL    HW2 2760   5.264   3.187   1.919
  621SOL     OW 2761   2.397   0.334   6.273
  621SOL    HW1 2762   2.351   0.256   6.231
  621SOL    HW2 2763   2.337   0.414   6.269
  622SOL     OW 2764   0.996   2.215   5.349
  622SOL    HW1 2765   0.984   2.174   5.439
  622SOL    HW2 2766   0.950   2.158   5.281
  623SOL     OW 2767   6.289   6.819   4.213
  623SOL    HW1 2768   6.363   6.765   4.172
  623SOL    HW2 2769   6.323   6.909   4.238
  624SOL     OW 2770   6.360   1.501   7.001
  624SOL    HW1 2771   6.270   1.485   0.019
  624SOL    HW2 2772   6.376   1.434   6.928
  625SOL     OW 2773   2.642   1.190   0.237
  625SOL    HW1 2774   2.709   1.250   0.193
  625SOL    HW2 2775   2.579   1.155   0.167
  626SOL     OW 2776   1.251   5.632   3.883
  626SOL    HW1 2777   1.349   5.630   3.903
  626SOL    HW2 2778   1.225   5.723   3.852
  627SOL     OW 2779   6.290   0.095   0.055
  627SOL    HW1 2780   6.358   0.101   0.128
  627SOL    HW2 2781   6.221   0.167   0.068
  628SOL     OW 2782   5.131   4.382   5.599
  628SOL    HW1 2783   5.216   4.361   5.551
  628SOL    HW2 2784   5.152   4.422   5.688
  629SOL     OW 2785   6.941   0.683   0.087
  629SOL    HW1 2786   6.882   0.696   0.008
  629SOL    HW2 2787   6.950   0.586   0.107
  630SOL     OW 2788   7.007   1.540   1.199
  630SOL    HW1 2789   6.973   1.634   1.203
  630SOL    HW2 2790   0.083   1.540   1.207
  631SOL     OW 2791   2.368   2.729   4.803
  631SOL    HW1 2792   2.297   2.712   4.735
  631SOL    HW2 2793   2.380   2.828   4.815
  632SOL     OW 2794   4.410   3.356   0.216
  632SOL    HW1 2795   4.433   3.313   0.303
  632SOL    HW2 2796   4.468   3.320   0.144
  633SOL     OW 2797   1.370   5.533   1.322
  633SOL    HW1 2798   1.389   5.435   1.316
  633SOL    HW2 2799   1.456   5.583   1.329
  634SOL     OW 2800   3.171   3.535   4.126
  634SOL    HW1 2801   3.167   3.632   4.151
  634SOL    HW2 2802   3.161   3.526   4.027
  635SOL     OW 2803   5.597   1.021   6.493
  635SOL    HW1 2804   5.687   1.016   6.537
  635SOL    HW2 2805   5.585   1.111   6.451
  636SOL     OW 2806   3.195   0.248   6.423
  636SOL    HW1 2807   3.211   0.347   6.424
  636SOL    HW2 2808   3.179   0.219   6.329
  637SOL     OW 2809   6.767   1.222   1.577
  637SOL    HW1 2810   6.770   1.180   1.668
  637SOL    HW2 2811   6.691   1.183   1.525
  638SOL     OW 2812   5.996   3.547   3.895
  638SOL    HW1 2813   6.013   3.644   3.910
  638SOL    HW2 2814   5.957   3.507   3.978
  639SOL     OW 2815   5.166   5.144   3.307
  639SOL    HW1 2816   5.168   5.143   3.407
  639SOL    HW2 2817   5.098   5.079   3.274
  640SOL     OW 2818   0.491   3.023   2.398
  640SOL    HW1 2819   0.418   2.998   2.335
  640SOL    HW2 2820   0.463   3.102   2.453
  641SOL     OW 2821   2.049   4.571   5.213
  641SOL    HW1 2822   2.047   4.606   5.119
  641SOL    HW2 2823   2.021   4.475   5.212
  642SOL     OW 2824   1.094   3.500   4.503
  642SOL    HW1 2825   1.015   3.439   4.498
  642SOL    HW2 2826   1.149   3.476   4.583
  643SOL     OW 2827   4.593   5.910   6.599
  643SOL    HW1 2828   4.512   5.870   6.640
  643SOL    HW2 2829   4.607   5.871   6.508
  644SOL     OW 2830   7.001   6.999   4.762
  644SOL    HW1 2831   0.055   0.034   4.788
  644SOL    HW2 2832   6.969   0.002   4.671
  645SOL     OW 2833   3.605   4.904   2.958
  645SOL    HW1 2834   3.668   4.878   2.886
  645SOL    HW2 2835   3.517   4.930   2.918
  646SOL     OW 2836   3.902   1.085   5.235
  646SOL    HW1 2837   3.844   1.158   5.271
  646SOL    HW2 2838   3.848   1.027   5.174
  647SOL     OW 2839   5.071   1.878   4.645
  647SOL    HW1 2840   5.100   1.971   4.668
  647SOL    HW2 2841   4.986   1.857   4.693
  648SOL     OW 2842   6.287   1.767   2.598
  648SOL    HW1 2843   6.201   1.741   2.555
  648SOL    HW2 2844   6.269   1.819   2.682
  649SOL     OW 2845   2.884   4.999   0.473
  649SOL    HW1 2846   2.883   5.081   0.415
  649SOL    HW2 2847   2.810   5.005   0.540
  650SOL     OW 2848   6.763   5.645   0.737
  650SOL    HW1 2849   6.816   5.668   0.655
  650SOL    HW2 2850   6.766   5.546   0.751
  651SOL     OW 2851   1.364   0.366   5.676
  651SOL    HW1 2852   1.392   0.272   5.655
  651SOL    HW2 2853   1.374   0.382   5.774
  652SOL     OW 2854   4.425   0.689   2.367
  652SOL    HW1 2855   4.523   0.709   2.374
  652SOL    HW2 2856   4.373   0.774   2.369
  653SOL     OW 2857   6.834   6.962   1.169
  653SOL    HW1 2858   6.794   6.871   1.156
  653SOL    HW2 2859   6.883   6.964   1.256
  654SOL     OW 2860   6.647   6.608   5.929
  654SOL    HW1 2861   6.678   6.535   5.990
  654SOL    HW2 2862   6.644   6.575   5.835
  655SOL     OW 2863   0.110   5.041   1.729
  655SOL    HW1 2864   0.044   4.966   1.727
  655SOL    HW2 2865   0.063   5.127   1.751
  656SOL     OW 2866   3.318   6.463   0.726
  656SOL    HW1 2867   3.306   6.422   0.635
  656SOL    HW2 2868   3.229   6.494   0.761
  657SOL     OW 2869   3.403   2.801   1.907
  657SOL    HW1 2870   3.349   2.721   1.880
  657SOL    HW2 2871   3.477   2.815   1.841
  658SOL     OW 2872   2.089   4.437   4.504
  658SOL    HW1 2873   2.088   4.531   4.470
  658SOL    HW2 2874   2.061   4.375   4.431
  659SOL     OW 2875   3.512   6.268   6.171
  659SOL    HW1 2876   3.461   6.214   6.238
  659SOL    HW2 2877   3.610   6.262   6.190
  660SOL     OW 2878   4.920   4.531   2.373
  660SOL    HW1 2879   4.848   4.560   2.436
  660SOL    HW2 2880   4.951   4.439   2.397
  661SOL     OW 2881   4.789   4.893   4.031
  661SOL    HW1 2882   4.860   4.867   3.967
  661SOL    HW2 2883   4.830   4.917   4.119
  662SOL     OW 2884   4.935   2.951   0.250
  662SOL    HW1 2885   4.993   2.874   0.276
  662SOL    HW2 2886   4.918   3.008   0.331
  663SOL     OW 2887   6.883   4.333   0.048
  663SOL    HW1 2888   6.914   4.323   6.976
  663SOL    HW2 2889   6.807   4.398   0.052
  664SOL     OW 2890   1.589   6.021   6.176
  664SOL    HW1 2891   1.548   6.000   6.088
  664SOL    HW2 2892   1.604   5.936   6.228
  665SOL     OW 2893   4.021   5.144   1.220
  665SOL    HW1 2894   4.006   5.243   1.218
  665SOL    HW2 2895   3.937   5.097   1.192
  666SOL     OW 2896   4.022   1.490   0.116
  666SOL    HW1 2897   4.107   1.493   0.064
  666SOL    HW2 2898   4.042   1.499   0.214
  667SOL     OW 2899   0.447   3.305   3.591
  667SOL    HW1 2900   0.357   3.334   3.623
  667SOL    HW2 2901   0.445   3.296   3.491
  668SOL     OW 2902   4.965   6.815   0.106
  668SOL    HW1 2903   5.002   6.734   0.151
  668SOL    HW2 2904   4.971   6.804   0.007
  669SOL     OW 2905   0.968   6.701   3.714
  669SOL    HW1 2906   0.881   6.711   3.762
  669SOL    HW2 2907   0.980   6.778   3.651
  670SOL     OW 2908   3.192   3.537   3.264
  670SOL    HW1 2909   3.123   3.603   3.235
  670SOL    HW2 2910   3.185   3.523   3.363
  671SOL     OW 2911   1.697   6.626   6.108
  671SOL    HW1 2912   1.648   6.592   6.028
  671SOL    HW2 2913   1.707   6.725   6.101
  672SOL     OW 2914   1.414   3.238   4.546
  672SOL    HW1 2915   1.446   3.233   4.451
  672SOL    HW2 2916   1.323   3.197   4.553
  673SOL     OW 2917   5.463   0.664   6.998
  673SOL    HW1 2918   5.380   0.713   0.002
  673SOL    HW2 2919   5.439   0.568   6.978
  674SOL     OW 2920   0.619   2.466   3.538
  674SOL    HW1 2921   0.656   2.426   3.623
  674SOL    HW2 2922   0.535   2.418   3.513
  675SOL     OW 2923   0.327   2.477   4.793
  675SOL    HW1 2924   0.395   2.428   4.849
  675SOL    HW2 2925   0.263   2.525   4.852
  676SOL     OW 2926   2.653   4.664   4.496
  676SOL    HW1 2927   2.597   4.746   4.485
  676SOL    HW2 2928   2.621   4.593   4.433
  677SOL     OW 2929   6.249   0.671   0.837
  677SOL    HW1 2930   6.222   0.727   0.760
  677SOL    HW2 2931   6.215   0.578   0.825
  678SOL     OW 2932   2.377   0.635   6.057
  678SOL    HW1 2933   2.447   0.579   6.100
  678SOL    HW2 2934   2.289   0.587   6.061
  679SOL     OW 2935   3.732   0.342   2.955
  679SOL    HW1 2936   3.734   0.330   2.856
  679SOL    HW2 2937   3.817   0.386   2.985
  680SOL     OW 2938   4.861   3.899   5.724
  680SOL    HW1 2939   4.830   3.829   5.788
  680SOL    HW2 2940   4.950   3.873   5.687
  681SOL     OW 2941   0.112   6.676   1.293
  681SOL    HW1 2942   0.182   6.703   1.227
  681SOL    HW2 2943   0.084   6.581   1.276
  682SOL     OW 2944   1.547   5.926   0.178
  682SOL    HW1 2945   1.490   5.851   0.211
  682SOL    HW2 2946   1.601   5.963   0.254
  683SOL     OW 2947   3.960   1.132   6.437
  683SOL    HW1 2948   3.917   1.174   6.357
  683SOL    HW2 2949   3.919   1.167   6.520
  684SOL     OW 2950   0.386   6.889   5.958
  684SOL    HW1 2951   0.481   6.920   5.952
  684SOL    HW2 2952   0.364   6.833   5.879
  685SOL     OW 2953   4.918   0.123   6.479
  685SOL    HW1 2954   4.938   0.133   6.381
  685SOL    HW2 2955   4.875   0.035   6.496
  686SOL     OW 2956   5.663   3.195   3.219
  686SOL    HW1 2957   5.564   3.202   3.227
  686SOL    HW2 2958   5.694   3.105   3.249
  687SOL     OW 2959   6.694   3.041   5.826
  687SOL    HW1 2960   6.630   3.094   5.881
  687SOL    HW2 2961   6.779   3.093   5.814
  688SOL     OW 2962   1.476   4.209   6.860
  688SOL    HW1 2963   1.426   4.196   6.774
  688SOL    HW2 2964   1.412   4.233   6.932
  689SOL     OW 2965   6.989   3.925   6.152
  689SOL    HW1 2966   6.966   3.890   6.243
  689SOL    HW2 2967   0.019   3.856   6.102
  690SOL     OW 2968   1.784   2.034   3.673
  690SOL    HW1 2969   1.844   2.108   3.702
  690SOL    HW2 2970   1.739   1.994   3.753
  691SOL     OW 2971   1.006   2.389   6.276
  691SOL    HW1 2972   1.018   2.367   6.373
  691SOL    HW2 2973   1.072   2.337   6.222
  692SOL     OW 2974   2.405   0.231   2.829
  692SOL    HW1 2975   2.309   0.219   2.804
  692SOL    HW2 2976   2.454   0.276   2.754
  693SOL     OW 2977   6.637   2.561   2.281
  693SOL    HW1 2978   6.689   2.600   2.205
  693SOL    HW2 2979   6.629   2.630   2.353
  694SOL     OW 2980   2.670   5.888   1.170
  694SOL    HW1 2981   2.604   5.859   1.100
  694SOL    HW2 2982   2.623   5.943   1.239
  695SOL     OW 2983   5.065   5.438   4.990
  695SOL    HW1 2984   4.993   5.438   5.059
  695SOL    HW2 2985   5.055   5.357   4.931
  696SOL     OW 2986   3.856   5.055   2.527
  696SOL    HW1 2987   3.933   5.086   2.472
  696SOL    HW2 2988   3.796   5.133   2.548
  697SOL     OW 2989   0.706   3.443   4.612
  697SOL    HW1 2990   0.734   3.355   4.650
  697SOL    HW2 2991   0.611   3.437   4.580
  698SOL     OW 2992   4.189   0.460   3.638
  698SOL    HW1 2993   4.137   0.507   3.710
  698SOL    HW2 2994   4.126   0.407   3.581
  699SOL     OW 2995   1.388   4.049   1.208
  699SOL    HW1 2996   1.361   4.013   1.118
  699SOL    HW2 2997   1.428   4.140   1.196
  700SOL     OW 2998   2.373   2.669   4.449
  700SOL    HW1 2999   2.412   2.740   4.390
  700SOL    HW2 3000   2.287   2.702   4.489
  701SOL     OW 3001   0.422   4.621   6.740
  701SOL    HW1 3002   0.347   4.679   6.771
  701SOL    HW2 3003   0.479   4.595   6.818
  702SOL     OW 3004   5.003   6.624   4.968
  702SOL    HW1 3005   5.093   6.605   5.007
  702SOL    HW2 3006   4.992   6.573   4.883
  703SOL     OW 3007   4.473   3.545   5.987
  703SOL    HW1 3008   4.449   3.524   5.892
  703SOL    HW2 3009   4.529   3.471   6.024
  704SOL     OW 3010   1.540   0.425   6.838
  704SOL    HW1 3011   1.620   0.474   6.872
  704SOL    HW2 3012   1.549   0.410   6.740
  705SOL     OW 3013   5.164   1.055   3.630
  705SOL    HW1 3014   5.152   1.149   3.661
  705SOL    HW2 3015   5.230   1.052   3.554
  706SOL     OW 3016   3.663   2.154   4.024
  706SOL    HW1 3017   3.628   2.150   3.931
  706SOL    HW2 3018   3.759   2.182   4.022
  707SOL     OW 3019   5.122   0.890   1.420
  707SOL    HW1 3020   5.030   0.921   1.443
  707SOL    HW2 3021   5.132   0.885   1.321
  708SOL     OW 3022   4.229   0.518   1.018
  708SOL    HW1 3023   4.208   0.434   1.070
  708SOL    HW2 3024   4.224   0.499   0.920
  709SOL     OW 3025   1.010   4.990   0.887
  709SOL    HW1 3026   1.096   4.984   0.837
  709SOL    HW2 3027   0.938   5.026   0.827
  710SOL     OW 3028   3.217   4.104   2.850
  710SOL    HW1 3029   3.156   4.037   2.807
  710SOL    HW2 3030   3.299   4.115   2.794
  711SOL     OW 3031   6.483   1.778   4.736
  711SOL    HW1 3032   6.558   1.714   4.751
  711SOL    HW2 3033   6.417   1.771   4.811
  712SOL     OW 3034   1.050   3.844   1.689
  712SOL    HW1 3035   0.982   3.814   1.755
  712SOL    HW2 3036   1.088   3.932   1.717
  713SOL     OW 3037   3.377   3.307   2.440
  713SOL    HW1 3038   3.379   3.349   2.349
  713SOL    HW2 3039   3.305   3.350   2.495
  714SOL     OW 3040   5.762   4.857   5.112
  714SOL    HW1 3041   5.861   4.861   5.100
  714SOL    HW2 3042   5.739   4.789   5.182
  715SOL     OW 3043   3.978   5.928   6.316
  715SOL    HW1 3044   4.006   5.977   6.234
  715SOL    HW2 3045   4.057   5.912   6.375
  716SOL     OW 3046   0.422   5.304   1.682
  716SOL    HW1 3047   0.377   5.262   1.761
  716SOL    HW2 3048   0.517   5.274   1.677
  717SOL     OW 3049   6.147   4.280   6.824
  717SOL    HW1 3050   6.050   4.301   6.837
  717SOL    HW2 3051   6.172   4.202   6.882
  718SOL     OW 3052   3.200   3.270   6.033
  718SOL    HW1 3053   3.125   3.244   6.093
  718SOL    HW2 3054   3.277   3.208   6.046
  719SOL     OW 3055   6.752   3.253   1.382
  719SOL    HW1 3056   6.691   3.324   1.347
  719SOL    HW2 3057   6.720   3.223   1.472
  720SOL     OW 3058   2.415   2.049   5.755
  720SOL    HW1 3059   2.472   1.973   5.723
  720SOL    HW2 3060   2.473   2.129   5.771
  721SOL     OW 3061   1.650   0.061   5.690
  721SOL    HW1 3062   1.597   0.044   5.773
  721SOL    HW2 3063   1.626   7.016   5.621
  722SOL     OW 3064   4.169   6.810   4.919
  722SOL    HW1 3065   4.248   6.837   4.864
  722SOL    HW2 3066   4.130   6.725   4.882
  723SOL     OW 3067   1.847   2.630   2.309
  723SOL    HW1 3068   1.828   2.617   2.406
  723SOL    HW2 3069   1.923   2.571   2.281
  724SOL     OW 3070   0.697   1.819   4.883
  724SOL    HW1 3071   0.689   1.777   4.973
  724SOL    HW2 3072   0.696   1.748   4.812
  725SOL     OW 3073   2.789   5.097   2.382
  725SOL    HW1 3074   2.837   5.120   2.297
  725SOL    HW2 3075   2.743   5.009   2.372
  726SOL     OW 3076   2.967   5.687   6.812
  726SOL    HW1 3077   3.050   5.633   6.828
  726SOL    HW2 3078   2.983   5.782   6.841
  727SOL     OW 3079   3.019   5.173   4.201
  727SOL    HW1 3080   3.033   5.258   4.149
  727SOL    HW2 3081   2.981   5.195   4.291
  728SOL     OW 3082   0.330   3.999   5.387
  728SOL    HW1 3083   0.354   3.911   5.427
  728SOL    HW2 3084   0.231   4.003   5.373
  729SOL     OW 3085   2.339   0.807   0.212
  729SOL    HW1 3086   2.385   0.786   0.299
  729SOL    HW2 3087   2.244   0.833   0.231
  730SOL     OW 3088   6.151   0.413   4.016
  730SOL    HW1 3089   6.088   0.354   4.067
  730SOL    HW2 3090   6.210   0.356   3.958
  731SOL     OW 3091   5.170   2.889   4.895
  731SOL    HW1 3092   5.123   2.866   4.980
  731SOL    HW2 3093   5.169   2.810   4.834
  732SOL     OW 3094   0.718   2.971   0.883
  732SOL    HW1 3095   0.764   2.931   0.804
  732SOL    HW2 3096   0.651   3.038   0.853
  733SOL     OW 3097   4.890   4.400   3.650
  733SOL    HW1 3098   4.945   4.334   3.599
  733SOL    HW2 3099   4.799   4.405   3.610
  734SOL     OW 3100   6.623   4.287   1.238
  734SOL    HW1 3101   6.634   4.382   1.209
  734SOL    HW2 3102   6.704   4.235   1.212
  735SOL     OW 3103   1.482   3.299   0.189
  735SOL    HW1 3104   1.518   3.303   0.282
  735SOL    HW2 3105   1.413   3.227   0.182
  736SOL     OW 3106   6.267   0.216   3.511
  736SOL    HW1 3107   6.333   0.142   3.520
  736SOL    HW2 3108   6.295   0.276   3.436
  737SOL     OW 3109   4.812   3.440   1.299
  737SOL    HW1 3110   4.834   3.534   1.324
  737SOL    HW2 3111   4.783   3.436   1.204
  738SOL     OW 3112   0.190   4.027   4.264
  738SOL    HW1 3113   0.125   3.960   4.298
  738SOL    HW2 3114   0.280   4.011   4.305
  739SOL     OW 3115   4.596   6.755   5.817
  739SOL    HW1 3116   4.556   6.743   5.909
  739SOL    HW2 3117   4.547   6.829   5.770
  740SOL     OW 3118   5.740   0.247   0.975
  740SOL    HW1 3119   5.661   0.299   0.944
  740SOL    HW2 3120   5.713   0.188   1.051
  741SOL     OW 3121   1.210   6.385   3.116
  741SOL    HW1 3122   1.189   6.443   3.037
  741SOL    HW2 3123   1.165   6.423   3.197
  742SOL     OW 3124   1.643   6.585   3.459
  742SOL    HW1 3125   1.742   6.584   3.467
  742SOL    HW2 3126   1.603   6.635   3.536
  743SOL     OW 3127   1.379   4.563   4.072
  743SOL    HW1 3128   1.350   4.500   4.144
  743SOL    HW2 3129   1.414   4.511   3.994
  744SOL     OW 3130   6.696   6.238   6.931
  744SOL    HW1 3131   6.723   6.145   6.906
  744SOL    HW2 3132   6.775   6.287   6.968
  745SOL     OW 3133   0.942   5.396   3.259
  745SOL    HW1 3134   0.930   5.465   3.330
  745SOL    HW2 3135   0.933   5.439   3.169
  746SOL     OW 3136   0.193   6.708   5.095
  746SOL    HW1 3137   0.273   6.742   5.047
  746SOL    HW2 3138   0.110   6.741   5.049
  747SOL     OW 3139   4.398   4.913   3.419
  747SOL    HW1 3140   4.423   4.885   3.511
  747SOL    HW2 3141   4.426   5.008   3.403
  748SOL     OW 3142   4.796   4.360   0.425
  748SOL    HW1 3143   4.795   4.387   0.521
  748SOL    HW2 3144   4.713   4.394   0.380
  749SOL     OW 3145   0.183   2.610   5.001
  749SOL    HW1 3146   0.173   2.517   5.035
  749SOL    HW2 3147   0.269   2.649   5.034
  750SOL     OW 3148   3.035   2.934   0.929
  750SOL    HW1 3149   2.967   2.964   0.861
  750SOL    HW2 3150   3.009   2.969   1.019
  751SOL     OW 3151   4.484   1.197   0.837
  751SOL    HW1 3152   4.535   1.245   0.766
  751SOL    HW2 3153   4.454   1.108   0.802
  752SOL     OW 3154   4.260   2.221   2.095
  752SOL    HW1 3155   4.172   2.183   2.121
  752SOL    HW2 3156   4.249   2.282   2.017
  753SOL     OW 3157   1.884   3.399   4.804
  753SOL    HW1 3158   1.884   3.498   4.816
  753SOL    HW2 3159   1.817   3.357   4.866
  754SOL     OW 3160   5.216   4.129   6.816
  754SOL    HW1 3161   5.215   4.055   6.749
  754SOL    HW2 3162   5.208   4.217   6.769
  755SOL     OW 3163   0.542   5.737   6.925
  755SOL    HW1 3164   0.547   5.834   6.904
  755SOL    HW2 3165   0.506   5.724   7.017
  756SOL     OW 3166   5.071   0.607   2.071
  756SOL    HW1 3167   5.147   0.573   2.126
  756SOL    HW2 3168   4.985   0.574   2.109
  757SOL     OW 3169   0.302   6.469   4.074
  757SOL    HW1 3170   0.356   6.553   4.080
  757SOL    HW2 3171   0.309   6.432   3.981
  758SOL     OW 3172   3.519   2.470   1.419
  758SOL    HW1 3173   3.449   2.413   1.375
  758SOL    HW2 3174   3.486   2.502   1.507
  759SOL     OW 3175   1.151   1.558   0.278
  759SOL    HW1 3176   1.244   1.547   0.241
  759SOL    HW2 3177   1.085   1.553   0.203
  760SOL     OW 3178   4.810   1.769   6.755
  760SOL    HW1 3179   4.796   1.692   6.818
  760SOL    HW2 3180   4.884   1.826   6.789
  761SOL     OW 3181   5.994   3.056   0.425
  761SOL    HW1 3182   5.926   3.020   0.360
  761SOL    HW2 3183   6.081   3.008   0.412
  762SOL     OW 3184   2.484   5.980   3.579
  762SOL    HW1 3185   2.468   6.020   3.489
  762SOL    HW2 3186   2.508   6.052   3.644
  763SOL     OW 3187   4.149   5.925   0.095
  763SOL    HW1 3188   4.202   5.929   0.010
  763SOL    HW2 3189   4.195   5.864   0.160
  764SOL     OW 3190   3.276   1.337   2.982
  764SOL    HW1 3191   3.203   1.270   2.971
  764SOL    HW2 3192   3.247   1.408   3.047
  765SOL     OW 3193   0.998   6.496   2.057
  765SOL    HW1 3194   0.929   6.558   2.094
  765SOL    HW2 3195   0.954   6.417   2.015
  766SOL     OW 3196   6.933   0.490   6.757
  766SOL    HW1 3197   6.952   0.393   6.774
  766SOL    HW2 3198   6.912   0.503   6.660
  767SOL     OW 3199   0.533   6.572   2.215
  767SOL    HW1 3200   0.482   6.546   2.134
  767SOL    HW2 3201   0.631   6.564   2.197
  768SOL     OW 3202   2.580   0.301   2.326
  768SOL    HW1 3203   2.669   0.346   2.314
  768SOL    HW2 3204   2.589   0.226   2.392
  769SOL     OW 3205   3.796   0.352   5.175
  769SOL    HW1 3206   3.780   0.325   5.270
  769SOL    HW2 3207   3.768   0.278   5.114
  770SOL     OW 3208   2.898   5.548   3.572
  770SOL    HW1 3209   2.843   5.467   3.553
  770SOL    HW2 3210   2.927   5.589   3.486
  771SOL     OW 3211   1.997   5.630   2.787
  771SOL    HW1 3212   1.929   5.560   2.811
  771SOL    HW2 3213   2.086   5.603   2.823
  772SOL     OW 3214   0.287   4.156   0.381
  772SOL    HW1 3215   0.372   4.206   0.399
  772SOL    HW2 3216   0.234   4.149   0.466
  773SOL     OW 3217   6.760   2.915   3.370
  773SOL    HW1 3218   6.836   2.884   3.427
  773SOL    HW2 3219   6.682   2.855   3.383
  774SOL     OW 3220   1.689   1.976   1.827
  774SOL    HW1 3221   1.631   2.004   1.903
  774SOL    HW2 3222   1.778   1.946   1.862
  775SOL     OW 3223   0.970   1.854   3.954
  775SOL    HW1 3224   1.004   1.770   3.997
  775SOL    HW2 3225   1.031   1.930   3.979
  776SOL     OW 3226   1.459   6.615   5.881
  776SOL    HW1 3227   1.480   6.624   5.784
  776SOL    HW2 3228   1.484   6.523   5.913
  777SOL     OW 3229   4.187   0.928   1.350
  777SOL    HW1 3230   4.225   0.976   1.270
  777SOL    HW2 3231   4.174   0.993   1.425
  778SOL     OW 3232   3.922   0.964   3.773
  778SOL    HW1 3233   3.843   0.942   3.716
  778SOL    HW2 3234   3.928   1.063   3.783
  779SOL     OW 3235   0.588   1.739   1.974
  779SOL    HW1 3236   0.538   1.704   1.895
  779SOL    HW2 3237   0.681   1.766   1.945
  780SOL     OW 3238   6.105   2.500   4.356
  780SOL    HW1 3239   6.142   2.436   4.423
  780SOL    HW2 3240   6.007   2.512   4.372
  781SOL     OW 3241   6.093   1.341   6.297
  781SOL    HW1 3242   6.066   1.320   6.203
  781SOL    HW2 3243   6.105   1.439   6.307
  782SOL     OW 3244   0.650   3.344   1.232
  782SOL    HW1 3245   0.709   3.295   1.168
  782SOL    HW2 3246   0.554   3.331   1.207
  783SOL     OW 3247   2.911   5.582   0.084
  783SOL    HW1 3248   2.836   5.525   0.118
  783SOL    HW2 3249   2.888   5.614   7.015
  784SOL     OW 3250   4.141   0.713   5.374
  784SOL    HW1 3251   4.218   0.649   5.378
  784SOL    HW2 3252   4.068   0.675   5.318
  785SOL     OW 3253   6.357   1.881   2.339
  785SOL    HW1 3254   6.334   1.870   2.436
  785SOL    HW2 3255   6.434   1.820   2.317
  786SOL     OW 3256   0.101   0.439   0.461
  786SOL    HW1 3257   0.181   0.468   0.408
  786SOL    HW2 3258   0.022   0.430   0.400
  787SOL     OW 3259   2.518   1.073   5.825
  787SOL    HW1 3260   2.459   0.993   5.810
  787SOL    HW2 3261   2.529   1.088   5.923
  788SOL     OW 3262   2.143   3.646   4.513
  788SOL    HW1 3263   2.226   3.661   4.460
  788SOL    HW2 3264   2.105   3.556   4.491
  789SOL     OW 3265   6.050   4.065   1.866
  789SOL    HW1 3266   6.134   4.114   1.842
  789SOL    HW2 3267   5.993   4.057   1.784
  790SOL     OW 3268   2.197   1.320   4.182
  790SOL    HW1 3269   2.149   1.295   4.098
  790SOL    HW2 3270   2.139   1.381   4.236
  791SOL     OW 3271   3.835   0.268   3.723
  791SOL    HW1 3272   3.855   0.332   3.649
  791SOL    HW2 3273   3.920   0.237   3.765
  792SOL     OW 3274   6.557   0.341   2.497
  792SOL    HW1 3275   6.474   0.329   2.442
  792SOL    HW2 3276   6.553   0.428   2.545
  793SOL     OW 3277   4.977   6.299   1.607
  793SOL    HW1 3278   4.995   6.358   1.528
  793SOL    HW2 3279   5.047   6.228   1.613
  794SOL     OW 3280   2.722   4.824   5.576
  794SOL    HW1 3281   2.772   4.742   5.547
  794SOL    HW2 3282   2.663   4.855   5.502
  795SOL     OW 3283   3.708   4.967   6.024
  795SOL    HW1 3284   3.793   4.922   6.051
  795SOL    HW2 3285   3.701   4.967   5.924
  796SOL     OW 3286   0.165   2.294   5.254
  796SOL    HW1 3287   0.067   2.307   5.238
  796SOL    HW2 3288   0.200   2.371   5.308
  797SOL     OW 3289   5.529   2.206   3.087
  797SOL    HW1 3290   5.492   2.246   3.003
  797SOL    HW2 3291   5.524   2.274   3.160
  798SOL     OW 3292   4.743   0.548   0.443
  798SOL    HW1 3293   4.699   0.467   0.482
  798SOL    HW2 3294   4.692   0.629   0.470
  799SOL     OW 3295   6.306   2.179   3.353
  799SOL    HW1 3296   6.244   2.139   3.286
  799SOL    HW2 3297   6.261   2.257   3.398
  800SOL     OW 3298   5.320   0.526   2.160
  800SOL    HW1 3299   5.353   0.448   2.106
  800SOL    HW2 3300   5.397   0.566   2.210
  801SOL     OW 3301   1.148   2.849   3.181
  801SOL    HW1 3302   1.088   2.912   3.231
  801SOL    HW2 3303   1.097   2.765   3.162
  802SOL     OW 3304   5.234   1.404   0.261
  802SOL    HW1 3305   5.214   1.306   0.253
  802SOL    HW2 3306   5.236   1.430   0.357
  803SOL     OW 3307   6.098   5.693   4.288
  803SOL    HW1 3308   6.008   5.685   4.331
  803SOL    HW2 3309   6.087   5.728   4.194
  804SOL     OW 3310   0.038   6.801   0.169
  804SOL    HW1 3311   0.023   6.713   0.215
  804SOL    HW2 3312   6.998   6.869   0.205
  805SOL     OW 3313   4.021   2.817   5.643
  805SOL    HW1 3314   3.955   2.892   5.639
  805SOL    HW2 3315   3.986   2.740   5.590
  806SOL     OW 3316   4.423   1.353   6.295
  806SOL    HW1 3317   4.433   1.329   6.391
  806SOL    HW2 3318   4.370   1.437   6.287
  807SOL     OW 3319   0.981   0.684   3.520
  807SOL    HW1 3320   0.889   0.664   3.488
  807SOL    HW2 3321   1.048   0.636   3.463
  808SOL     OW 3322   5.328   3.152   5.818
  808SOL    HW1 3323   5.336   3.145   5.719
  808SOL    HW2 3324   5.273   3.076   5.853
  809SOL     OW 3325   1.043   4.909   1.386
  809SOL    HW1 3326   1.113   4.843   1.411
  809SOL    HW2 3327   1.052   4.991   1.443
  810SOL     OW 3328   4.536   3.659   1.157
  810SOL    HW1 3329   4.565   3.608   1.238
  810SOL    HW2 3330   4.440   3.638   1.138
  811SOL     OW 3331   5.045   5.808   3.194
  811SOL    HW1 3332   4.967   5.786   3.252
  811SOL    HW2 3333   5.109   5.731   3.193
  812SOL     OW 3334   0.067   0.515   1.519
  812SOL    HW1 3335   0.113   0.603   1.511
  812SOL    HW2 3336   0.086   0.460   1.437
  813SOL     OW 3337   4.136   6.044   3.286
  813SOL    HW1 3338   4.226   6.035   3.242
  813SOL    HW2 3339   4.086   6.120   3.245
  814SOL     OW 3340   5.307   6.585   2.826
  814SOL    HW1 3341   5.219   6.538   2.824
  814SOL    HW2 3342   5.380   6.522   2.801
  815SOL     OW 3343   5.859   2.572   1.800
  815SOL    HW1 3344   5.779   2.512   1.789
  815SOL    HW2 3345   5.942   2.516   1.802
  816SOL     OW 3346   6.818   6.466   0.370
  816SOL    HW1 3347   6.721   6.461   0.392
  816SOL    HW2 3348   6.872   6.455   0.453
  817SOL     OW 3349   1.905   3.864   2.163
  817SOL    HW1 3350   1.987   3.808   2.153
  817SOL    HW2 3351   1.891   3.886   2.260
  818SOL     OW 3352   6.038   2.137   0.953
  818SOL    HW1 3353   6.010   2.136   1.050
  818SOL    HW2 3354   5.958   2.120   0.896
  819SOL     OW 3355   6.680   2.652   4.390
  819SOL    HW1 3356   6.731   2.714   4.449
  819SOL    HW2 3357   6.717   2.559   4.400
  820SOL     OW 3358   1.411   2.827   4.789
  820SOL    HW1 3359   1.336   2.869   4.842
  820SOL    HW2 3360   1.375   2.793   4.702
  821SOL     OW 3361   1.465   4.435   0.774
  821SOL    HW1 3362   1.428   4.362   0.830
  821SOL    HW2 3363   1.449   4.523   0.819
  822SOL     OW 3364   0.651   4.134   4.972
  822SOL    HW1 3365   0.710   4.072   4.920
  822SOL    HW2 3366   0.604   4.083   5.044
  823SOL     OW 3367   5.336   4.181   5.892
  823SOL    HW1 3368   5.343   4.275   5.925
  823SOL    HW2 3369   5.263   4.175   5.824
  824SOL     OW 3370   4.695   1.736   5.144
  824SOL    HW1 3371   4.790   1.710   5.124
  824SOL    HW2 3372   4.693   1.826   5.186
  825SOL     OW 3373   2.044   3.288   2.333
  825SOL    HW1 3374   2.043   3.378   2.378
  825SOL    HW2 3375   2.057   3.300   2.235
  826SOL     OW 3376   5.831   3.250   0.536
  826SOL    HW1 3377   5.901   3.210   0.477
  826SOL    HW2 3378   5.820   3.193   0.617
  827SOL     OW 3379   2.952   5.268   6.486
  827SOL    HW1 3380   2.876   5.212   6.519
  827SOL    HW2 3381   2.967   5.344   6.548
  828SOL     OW 3382   6.177   0.913   5.091
  828SOL    HW1 3383   6.117   0.904   5.011
  828SOL    HW2 3384   6.232   0.996   5.082
  829SOL     OW 3385   3.011   3.199   3.937
  829SOL    HW1 3386   2.925   3.157   3.963
  829SOL    HW2 3387   3.086   3.154   3.984
  830SOL     OW 3388   4.816   4.788   6.078
  830SOL    HW1 3389   4.743   4.810   6.143
  830SOL    HW2 3390   4.783   4.719   6.014
  831SOL     OW 3391   6.398   0.309   4.758
  831SOL    HW1 3392   6.391   0.219   4.799
  831SOL    HW2 3393   6.411   0.299   4.659
  832SOL     OW 3394   2.768   1.570   0.258
  832SOL    HW1 3395   2.694   1.626   0.220
  832SOL    HW2 3396   2.787   1.493   0.197
  833SOL     OW 3397   6.200   6.809   6.609
  833SOL    HW1 3398   6.158   6.757   6.534
  833SOL    HW2 3399   6.256   6.747   6.664
  834SOL     OW 3400   3.373   3.361   3.674
  834SOL    HW1 3401   3.459   3.384   3.720
  834SOL    HW2 3402   3.389   3.354   3.575
  835SOL     OW 3403   4.128   6.922   4.020
  835SOL    HW1 3404   4.085   6.867   4.092
  835SOL    HW2 3405   4.213   6.963   4.054
  836SOL     OW 3406   3.532   6.595   6.807
  836SOL    HW1 3407   3.490   6.551   6.886
  836SOL    HW2 3408   3.541   6.693   6.824
  837SOL     OW 3409   5.564   0.280   6.909
  837SOL    HW1 3410   5.636   0.349   6.902
  837SOL    HW2 3411   5.507   0.298   6.988
  838SOL     OW 3412   1.108   6.236   4.801
  838SOL    HW1 3413   1.110   6.153   4.858
  838SOL    HW2 3414   1.187   6.236   4.741
  839SOL     OW 3415   3.183   1.188   3.616
  839SOL    HW1 3416   3.256   1.173   3.549
  839SOL    HW2 3417   3.134   1.273   3.593
  840SOL     OW 3418   1.251   1.243   6.900
  840SOL    HW1 3419   1.337   1.237   6.951
  840SOL    HW2 3420   1.216   1.151   6.883
  841SOL     OW 3421   6.407   3.776   0.038
  841SOL    HW1 3422   6.383   3.717   0.115
  841SOL    HW2 3423   6.489   3.740   7.016
  842SOL     OW 3424   3.744   5.515   3.223
  842SOL    HW1 3425   3.814   5.583   3.205
  842SOL    HW2 3426   3.777   5.451   3.293
  843SOL     OW 3427   5.937   2.304   1.417
  843SOL    HW1 3428   5.861   2.248   1.449
  843SOL    HW2 3429   5.920   2.400   1.438
  844SOL     OW 3430   5.185   6.431   0.569
  844SOL    HW1 3431   5.132   6.510   0.538
  844SOL    HW2 3432   5.205   6.439   0.666
  845SOL     OW 3433   6.126   3.339   5.114
  845SOL    HW1 3434   6.223   3.316   5.107
  845SOL    HW2 3435   6.112   3.405   5.188
  846SOL     OW 3436   5.742   1.331   0.280
  846SOL    HW1 3437   5.742   1.431   0.285
  846SOL    HW2 3438   5.664   1.300   0.224
  847SOL     OW 3439   6.296   3.499   0.752
  847SOL    HW1 3440   6.199   3.490   0.775
  847SOL    HW2 3441   6.307   3.486   0.653
  848SOL     OW 3442   6.663   0.578   5.821
  848SOL    HW1 3443   6.573   0.536   5.812
  848SOL    HW2 3444   6.656   0.657   5.882
  849SOL     OW 3445   0.201   5.549   4.814
  849SOL    HW1 3446   0.158   5.610   4.881
  849SOL    HW2 3447   0.130   5.497   4.766
  850SOL     OW 3448   4.580   0.686   3.363
  850SOL    HW1 3449   4.484   0.696   3.389
  850SOL    HW2 3450   4.635   0.664   3.445
  851SOL     OW 3451   0.517   0.910   0.241
  851SOL    HW1 3452   0.539   0.997   0.198
  851SOL    HW2 3453   0.421   0.909   0.268
  852SOL     OW 3454   2.250   2.995   6.777
  852SOL    HW1 3455   2.208   3.086   6.771
  852SOL    HW2 3456   2.192   2.935   6.831
  853SOL     OW 3457   1.083   2.217   1.920
  853SOL    HW1 3458   1.143   2.217   2.000
  853SOL    HW2 3459   1.111   2.291   1.858
  854SOL     OW 3460   5.352   6.181   2.836
  854SOL    HW1 3461   5.426   6.157   2.898
  854SOL    HW2 3462   5.317   6.098   2.792
  855SOL     OW 3463   5.811   0.115   1.557
  855SOL    HW1 3464   5.861   0.198   1.531
  855SOL    HW2 3465   5.870   0.056   1.611
  856SOL     OW 3466   1.816   6.653   5.181
  856SOL    HW1 3467   1.793   6.747   5.207
  856SOL    HW2 3468   1.891   6.654   5.116
  857SOL     OW 3469   6.130   3.906   0.924
  857SOL    HW1 3470   6.143   3.840   0.999
  857SOL    HW2 3471   6.104   3.995   0.962
  858SOL     OW 3472   2.902   5.011   1.714
  858SOL    HW1 3473   2.950   4.998   1.627
  858SOL    HW2 3474   2.900   4.924   1.764
  859SOL     OW 3475   6.861   4.735   6.486
  859SOL    HW1 3476   6.839   4.776   6.575
  859SOL    HW2 3477   6.827   4.641   6.483
  860SOL     OW 3478   3.275   4.844   0.366
  860SOL    HW1 3479   3.303   4.807   0.454
  860SOL    HW2 3480   3.179   4.823   0.349
  861SOL     OW 3481   3.011   6.452   5.240
  861SOL    HW1 3482   3.051   6.361   5.223
  861SOL    HW2 3483   3.033   6.481   5.333
  862SOL     OW 3484   5.661   4.308   4.951
  862SOL    HW1 3485   5.621   4.293   4.861
  862SOL    HW2 3486   5.597   4.278   5.022
  863SOL     OW 3487   0.590   0.906   0.989
  863SOL    HW1 3488   0.602   0.988   0.934
  863SOL    HW2 3489   0.633   0.919   1.079
  864SOL     OW 3490   5.000   4.229   3.152
  864SOL    HW1 3491   4.989   4.282   3.068
  864SOL    HW2 3492   4.953   4.276   3.228
  865SOL     OW 3493   1.282   0.028   3.821
  865SOL    HW1 3494   1.359   0.000   3.763
  865SOL    HW2 3495   1.256   6.975   3.879
  866SOL     OW 3496   2.829   1.868   1.996
  866SOL    HW1 3497   2.739   1.826   1.985
  866SOL    HW2 3498   2.828   1.959   1.955
  867SOL     OW 3499   2.878   3.128   6.939
  867SOL    HW1 3500   2.954   3.192   6.950
  867SOL    HW2 3501   2.834   3.112   0.004
  868SOL     OW 3502   6.138   0.414   3.182
  868SOL    HW1 3503   6.231   0.378   3.191
  868SOL    HW2 3504   6.142   0.505   3.139
  869SOL     OW 3505   6.382   5.824   2.561
  869SOL    HW1 3506   6.306   5.850   2.501
  869SOL    HW2 3507   6.349   5.816   2.655
  870SOL     OW 3508   0.272   2.708   1.286
  870SOL    HW1 3509   0.304   2.667   1.200
  870SOL    HW2 3510   0.303   2.803   1.291
  871SOL     OW 3511   6.294   2.537   2.190
  871SOL    HW1 3512   6.197   2.557   2.204
  871SOL    HW2 3513   6.345   2.622   2.185
  872SOL     OW 3514   6.525   2.691   4.697
  872SOL    HW1 3515   6.524   2.791   4.690
  872SOL    HW2 3516   6.473   2.652   4.621
  873SOL     OW 3517   3.783   6.865   3.702
  873SOL    HW1 3518   3.731   6.950   3.717
  873SOL    HW2 3519   3.720   6.788   3.696
  874SOL     OW 3520   1.455   4.503   5.192
  874SOL    HW1 3521   1.432   4.440   5.268
  874SOL    HW2 3522   1.526   4.462   5.136
  875SOL     OW 3523   5.560   4.011   0.503
  875SOL    HW1 3524   5.535   4.049   0.414
  875SOL    HW2 3525   5.478   4.003   0.560
  876SOL     OW 3526   6.600   3.600   2.552
  876SOL    HW1 3527   6.627   3.505   2.566
  876SOL    HW2 3528   6.578   3.615   2.456
  877SOL     OW 3529   5.065   5.200   0.064
  877SOL    HW1 3530   5.007   5.152   0.129
  877SOL    HW2 3531   5.085   5.140   7.010
  878SOL     OW 3532   3.132   5.250   0.891
  878SOL    HW1 3533   3.108   5.163   0.933
  878SOL    HW2 3534   3.057   5.282   0.833
  879SOL     OW 3535   4.156   2.037   2.614
  879SOL    HW1 3536   4.085   2.003   2.552
  879SOL    HW2 3537   4.246   2.011   2.579
  880SOL     OW 3538   3.699   5.085   0.526
  880SOL    HW1 3539   3.646   5.167   0.502
  880SOL    HW2 3540   3.668   5.008   0.470
  881SOL     OW 3541   4.184   4.738   4.156
  881SOL    HW1 3542   4.128   4.802   4.207
  881SOL    HW2 3543   4.244   4.688   4.219
  882SOL     OW 3544   1.012   0.560   4.571
  882SOL    HW1 3545   1.082   0.632   4.570
  882SOL    HW2 3546   1.043   0.482   4.517
  883SOL     OW 3547   3.331   5.298   6.680
  883SOL    HW1 3548   3.317   5.242   6.598
  883SOL    HW2 3549   3.358   5.390   6.653
  884SOL     OW 3550   5.897   3.336   1.579
  884SOL    HW1 3551   5.863   3.391   1.502
  884SOL    HW2 3552   5.823   3.321   1.645
  885SOL     OW 3553   5.879   6.173   0.474
  885SOL    HW1 3554   5.930   6.258   0.467
  885SOL    HW2 3555   5.790   6.183   0.429
  886SOL     OW 3556   3.996   1.140   6.979
  886SOL    HW1 3557   4.001   1.055   6.926
  886SOL    HW2 3558   3.900   1.167   6.988
  887SOL     OW 3559   4.016   0.091   5.857
  887SOL    HW1 3560   4.106   0.111   5.818
  887SOL    HW2 3561   3.971   0.176   5.885
  888SOL     OW 3562   6.530   6.488   3.315
  888SOL    HW1 3563   6.527   6.389   3.320
  888SOL    HW2 3564   6.464   6.520   3.247
  889SOL     OW 3565   0.139   6.422   5.076
  889SOL    HW1 3566   0.068   6.475   5.029
  889SOL    HW2 3567   0.192   6.484   5.135
  890SOL     OW 3568   2.640   4.619   2.192
  890SOL    HW1 3569   2.599   4.536   2.230
  890SOL    HW2 3570   2.675   4.599   2.100
  891SOL     OW 3571   5.290   2.454   0.623
  891SOL    HW1 3572   5.249   2.370   0.656
  891SOL    HW2 3573   5.291   2.522   0.697
  892SOL     OW 3574   2.941   3.749   0.993
  892SOL    HW1 3575   3.039   3.751   0.974
  892SOL    HW2 3576   2.912   3.839   1.028
  893SOL     OW 3577   1.369   0.856   0.140
  893SOL    HW1 3578   1.363   0.795   0.219
  893SOL    HW2 3579   1.360   0.803   0.056
  894SOL     OW 3580   1.220   6.008   4.193
  894SOL    HW1 3581   1.126   6.022   4.163
  894SOL    HW2 3582   1.226   6.018   4.292
  895SOL     OW 3583   2.199   0.060   4.292
  895SOL    HW1 3584   2.234   6.990   4.294
  895SOL    HW2 3585   2.147   0.078   4.376
  896SOL     OW 3586   5.758   6.595   3.275
  896SOL    HW1 3587   5.772   6.500   3.304
  896SOL    HW2 3588   5.684   6.600   3.208
  897SOL     OW 3589   4.819   2.851   6.475
  897SOL    HW1 3590   4.789   2.919   6.408
  897SOL    HW2 3591   4.766   2.767   6.464
  898SOL     OW 3592   5.568   6.601   3.525
  898SOL    HW1 3593   5.592   6.518   3.475
  898SOL    HW2 3594   5.469   6.614   3.523
  899SOL     OW 3595   0.443   4.525   6.263
  899SOL    HW1 3596   0.465   4.576   6.180
  899SOL    HW2 3597   0.528   4.499   6.310
  900SOL     OW 3598   0.261   6.192   3.465
  900SOL    HW1 3599   0.167   6.225   3.473
  900SOL    HW2 3600   0.297   6.217   3.376
  901SOL     OW 3601   6.175   1.263   4.029
  901SOL    HW1 3602   6.167   1.180   3.975
  901SOL    HW2 3603   6.083   1.294   4.055
  902SOL     OW 3604   0.168   6.899   6.816
  902SOL    HW1 3605   0.194   6.874   6.909
  902SOL    HW2 3606   0.230   6.854   6.751
  903SOL     OW 3607   0.757   5.061   0.776
  903SOL    HW1 3608   0.735   5.158   0.788
  903SOL    HW2 3609   0.675   5.011   0.747
  904SOL     OW 3610   2.040   1.611   3.493
  904SOL    HW1 3611   2.018   1.625   3.396
  904SOL    HW2 3612   2.035   1.513   3.514
  905SOL     OW 3613   5.136   1.681   5.713
  905SOL    HW1 3614   5.145   1.718   5.805
  905SOL    HW2 3615   5.133   1.755   5.647
  906SOL     OW 3616   6.964   3.921   5.752
  906SOL    HW1 3617   6.910   3.888   5.674
  906SOL    HW2 3618   6.964   3.851   5.824
  907SOL     OW 3619   5.948   2.262   2.422
  907SOL    HW1 3620   5.962   2.328   2.496
  907SOL    HW2 3621   5.966   2.170   2.455
  908SOL     OW 3622   2.035   0.174   3.952
  908SOL    HW1 3623   2.005   0.130   3.868
  908SOL    HW2 3624   2.135   0.168   3.960
  909SOL     OW 3625   3.819   0.946   1.491
  909SOL    HW1 3626   3.823   0.847   1.481
  909SOL    HW2 3627   3.787   0.987   1.405
  910SOL     OW 3628   2.056   1.639   0.634
  910SOL    HW1 3629   2.043   1.611   0.539
  910SOL    HW2 3630   2.048   1.559   0.694
  911SOL     OW 3631   0.302   4.550   1.233
  911SOL    HW1 3632   0.393   4.527   1.198
  911SOL    HW2 3633   0.265   4.627   1.181
  912SOL     OW 3634   0.035   0.343   5.800
  912SOL    HW1 3635   0.001   0.250   5.817
  912SOL    HW2 3636   0.036   0.395   5.885
  913SOL     OW 3637   2.738   0.796   2.452
  913SOL    HW1 3638   2.824   0.794   2.401
  913SOL    HW2 3639   2.729   0.884   2.498
  914SOL     OW 3640   2.781   5.765   3.117
  914SOL    HW1 3641   2.805   5.862   3.110
  914SOL    HW2 3642   2.856   5.709   3.081
  915SOL     OW 3643   0.761   2.563   0.423
  915SOL    HW1 3644   0.809   2.493   0.370
  915SOL    HW2 3645   0.676   2.587   0.377
  916SOL     OW 3646   2.439   2.520   3.168
  916SOL    HW1 3647   2.518   2.471   3.133
  916SOL    HW2 3648   2.392   2.566   3.093
  917SOL     OW 3649   4.077   1.593   1.592
  917SOL    HW1 3650   4.158   1.552   1.551
  917SOL    HW2 3651   3.999   1.580   1.531
  918SOL     OW 3652   2.496   6.207   6.403
  918SOL    HW1 3653   2.559   6.132   6.427
  918SOL    HW2 3654   2.447   6.236   6.485
  919SOL     OW 3655   1.652   5.890   1.537
  919SOL    HW1 3656   1.566   5.842   1.554
  919SOL    HW2 3657   1.632   5.985   1.513
  920SOL     OW 3658   2.750   0.938   3.816
  920SOL    HW1 3659   2.832   0.908   3.766
  920SOL    HW2 3660   2.772   0.944   3.914
  921SOL     OW 3661   5.712   5.434   4.374
  921SOL    HW1 3662   5.798   5.385   4.387
  921SOL    HW2 3663   5.646   5.373   4.329
  922SOL     OW 3664   3.180   3.709   6.865
  922SOL    HW1 3665   3.160   3.774   6.791
  922SOL    HW2 3666   3.263   3.738   6.912
  923SOL     OW 3667   2.887   6.794   6.589
  923SOL    HW1 3668   2.841   6.863   6.533
  923SOL    HW2 3669   2.985   6.814   6.593
  924SOL     OW 3670   6.037   3.704   2.611
  924SOL    HW1 3671   6.094   3.697   2.529
  924SOL    HW2 3672   6.088   3.669   2.690
  925SOL     OW 3673   0.208   1.555   4.558
  925SOL    HW1 3674   0.122   1.505   4.561
  925SOL    HW2 3675   0.285   1.491   4.555
  926SOL     OW 3676   5.274   5.933   0.090
  926SOL    HW1 3677   5.361   5.889   0.111
  926SOL    HW2 3678   5.286   5.994   0.012
  927SOL     OW 3679   4.382   4.637   4.333
  927SOL    HW1 3680   4.402   4.599   4.423
  927SOL    HW2 3681   4.375   4.562   4.266
  928SOL     OW 3682   2.272   1.062   1.334
  928SOL    HW1 3683   2.254   1.053   1.236
  928SOL    HW2 3684   2.235   1.149   1.366
  929SOL     OW 3685   6.662   2.926   2.697
  929SOL    HW1 3686   6.639   2.833   2.725
  929SOL    HW2 3687   6.741   2.958   2.749
  930SOL     OW 3688   5.096   4.955   4.162
  930SOL    HW1 3689   5.080   4.917   4.070
  930SOL    HW2 3690   5.194   4.954   4.181
  931SOL     OW 3691   1.213   2.037   2.512
  931SOL    HW1 3692   1.223   2.130   2.547
  931SOL    HW2 3693   1.286   1.979   2.550
  932SOL     OW 3694   4.412   6.175   1.183
  932SOL    HW1 3695   4.406   6.273   1.163
  932SOL    HW2 3696   4.484   6.159   1.251
  933SOL     OW 3697   1.866   5.390   2.893
  933SOL    HW1 3698   1.887   5.376   2.990
  933SOL    HW2 3699   1.774   5.356   2.874
  934SOL     OW 3700   3.083   1.460   5.267
  934SOL    HW1 3701   3.094   1.551   5.306
  934SOL    HW2 3702   3.152   1.399   5.306
  935SOL     OW 3703   3.818   3.221   6.313
  935SOL    HW1 3704   3.884   3.155   6.349
  935SOL    HW2 3705   3.770   3.265   6.389
  936SOL     OW 3706   0.403   0.469   0.950
  936SOL    HW1 3707   0.428   0.437   0.859
  936SOL    HW2 3708   0.402   0.569   0.951
  937SOL     OW 3709   4.055   1.617   4.603
  937SOL    HW1 3710   4.088   1.694   4.657
  937SOL    HW2 3711   4.057   1.534   4.659
  938SOL     OW 3712   0.496   2.669   6.383
  938SOL    HW1 3713   0.547   2.586   6.406
  938SOL    HW2 3714   0.555   2.749   6.396
  939SOL     OW 3715   5.731   1.426   5.940
  939SOL    HW1 3716   5.638   1.391   5.950
  939SOL    HW2 3717   5.731   1.524   5.960
  940SOL     OW 3718   6.884   1.346   3.955
  940SOL    HW1 3719   6.935   1.260   3.965
  940SOL    HW2 3720   6.887   1.396   4.041
  941SOL     OW 3721   5.374   1.992   3.875
  941SOL    HW1 3722   5.341   1.898   3.870
  941SOL    HW2 3723   5.473   1.993   3.865
  942SOL     OW 3724   4.921   6.578   5.475
  942SOL    HW1 3725   4.972   6.493   5.466
  942SOL    HW2 3726   4.877   6.601   5.388
  943SOL     OW 3727   6.027   1.995   1.697
  943SOL    HW1 3728   6.082   2.058   1.642
  943SOL    HW2 3729   6.019   1.907   1.650
  944SOL     OW 3730   5.771   3.917   4.397
  944SOL    HW1 3731   5.714   3.835   4.397
  944SOL    HW2 3732   5.796   3.941   4.303
  945SOL     OW 3733   5.150   4.560   4.195
  945SOL    HW1 3734   5.103   4.480   4.233
  945SOL    HW2 3735   5.083   4.624   4.157
  946SOL     OW 3736   5.947   2.539   5.677
  946SOL    HW1 3737   6.002   2.489   5.611
  946SOL    HW2 3738   5.859   2.493   5.689
  947SOL     OW 3739   2.718   2.378   6.524
  947SOL    HW1 3740   2.734   2.476   6.533
  947SOL    HW2 3741   2.773   2.341   6.449
  948SOL     OW 3742   3.961   2.186   0.768
  948SOL    HW1 3743   3.938   2.161   0.862
  948SOL    HW2 3744   3.895   2.253   0.735
  949SOL     OW 3745   6.227   5.470   6.294
  949SOL    HW1 3746   6.174   5.416   6.359
  949SOL    HW2 3747   6.280   5.408   6.236
  950SOL     OW 3748   3.991   5.478   0.922
  950SOL    HW1 3749   4.041   5.507   1.003
  950SOL    HW2 3750   3.949   5.388   0.939
  951SOL     OW 3751   1.027   1.284   1.880
  951SOL    HW1 3752   1.075   1.220   1.940
  951SOL    HW2 3753   1.060   1.274   1.787
  952SOL     OW 3754   5.679   0.747   3.527
  952SOL    HW1 3755   5.663   0.651   3.502
  952SOL    HW2 3756   5.675   0.804   3.444
  953SOL     OW 3757   4.047   6.118   6.149
  953SOL    HW1 3758   3.998   6.148   6.231
  953SOL    HW2 3759   4.080   6.198   6.098
  954SOL     OW 3760   6.222   0.411   1.477
  954SOL    HW1 3761   6.266   0.370   1.557
  954SOL    HW2 3762   6.239   0.510   1.476
  955SOL     OW 3763   0.849   6.005   2.864
  955SOL    HW1 3764   0.751   5.999   2.885
  955SOL    HW2 3765   0.900   6.021   2.948
  956SOL     OW 3766   2.019   2.018   1.019
  956SOL    HW1 3767   2.114   2.007   1.048
  956SOL    HW2 3768   1.992   1.938   0.966
  957SOL     OW 3769   1.661   5.019   4.625
  957SOL    HW1 3770   1.713   4.959   4.565
  957SOL    HW2 3771   1.564   5.015   4.601
  958SOL     OW 3772   5.351   1.882   1.549
  958SOL    HW1 3773   5.255   1.858   1.539
  958SOL    HW2 3774   5.381   1.863   1.643
  959SOL     OW 3775   2.869   4.753   3.225
  959SOL    HW1 3776   2.779   4.771   3.187
  959SOL    HW2 3777   2.918   4.688   3.166
  960SOL     OW 3778   1.906   5.790   4.716
  960SOL    HW1 3779   1.958   5.795   4.631
  960SOL    HW2 3780   1.966   5.810   4.793
  961SOL     OW 3781   4.472   6.671   1.849
  961SOL    HW1 3782   4.404   6.732   1.889
  961SOL    HW2 3783   4.455   6.661   1.751
  962SOL     OW 3784   1.514   0.824   3.352
  962SOL    HW1 3785   1.429   0.843   3.401
  962SOL    HW2 3786   1.524   0.888   3.276
  963SOL     OW 3787   6.669   0.675   1.665
  963SOL    HW1 3788   6.672   0.586   1.621
  963SOL    HW2 3789   6.624   0.668   1.753
  964SOL     OW 3790   5.228   3.524   1.466
  964SOL    HW1 3791   5.165   3.515   1.389
  964SOL    HW2 3792   5.276   3.611   1.460
  965SOL     OW 3793   0.657   1.765   0.259
  965SOL    HW1 3794   0.734   1.810   0.213
  965SOL    HW2 3795   0.631   1.819   0.339
  966SOL     OW 3796   6.756   1.820   2.708
  966SOL    HW1 3797   6.854   1.826   2.689
  966SOL    HW2 3798   6.739   1.743   2.770
  967SOL     OW 3799   0.815   5.626   0.827
  967SOL    HW1 3800   0.840   5.722   0.829
  967SOL    HW2 3801   0.733   5.611   0.882
  968SOL     OW 3802   4.763   2.676   2.176
  968SOL    HW1 3803   4.853   2.649   2.142
  968SOL    HW2 3804   4.774   2.747   2.245
  969SOL     OW 3805   4.679   6.304   5.803
  969SOL    HW1 3806   4.678   6.376   5.734
  969SOL    HW2 3807   4.658   6.343   5.893
  970SOL     OW 3808   4.339   2.354   5.270
  970SOL    HW1 3809   4.419   2.414   5.266
  970SOL    HW2 3810   4.264   2.394   5.218
  971SOL     OW 3811   6.881   1.778   1.436
  971SOL    HW1 3812   6.821   1.812   1.508
  971SOL    HW2 3813   6.976   1.792   1.462
  972SOL     OW 3814   6.484   5.475   0.617
  972SOL    HW1 3815   6.388   5.456   0.640
  972SOL    HW2 3816   6.490   5.565   0.573
  973SOL     OW 3817   6.553   4.621   5.975
  973SOL    HW1 3818   6.466   4.658   5.944
  973SOL    HW2 3819   6.544   4.522   5.989
  974SOL     OW 3820   2.836   0.876   3.395
  974SOL    HW1 3821   2.809   0.869   3.492
  974SOL    HW2 3822   2.932   0.853   3.385
  975SOL     OW 3823   2.720   5.724   5.798
  975SOL    HW1 3824   2.641   5.724   5.859
  975SOL    HW2 3825   2.782   5.799   5.823
  976SOL     OW 3826   6.663   3.341   3.216
  976SOL    HW1 3827   6.598   3.330   3.292
  976SOL    HW2 3828   6.633   3.286   3.138
  977SOL     OW 3829   1.534   1.057   3.556
  977SOL    HW1 3830   1.469   0.990   3.519
  977SOL    HW2 3831   1.503   1.149   3.534
  978SOL     OW 3832   5.575   4.072   4.539
  978SOL    HW1 3833   5.502   4.029   4.486
  978SOL    HW2 3834   5.663   4.038   4.509
  979SOL     OW 3835   6.335   1.131   3.461
  979SOL    HW1 3836   6.382   1.100   3.545
  979SOL    HW2 3837   6.362   1.072   3.385
  980SOL     OW 3838   5.260   2.145   4.316
  980SOL    HW1 3839   5.297   2.065   4.269
  980SOL    HW2 3840   5.239   2.216   4.248
  981SOL     OW 3841   1.844   1.408   4.413
  981SOL    HW1 3842   1.793   1.453   4.486
  981SOL    HW2 3843   1.784   1.343   4.366
  982SOL     OW 3844   1.137   2.390   1.719
  982SOL    HW1 3845   1.128   2.378   1.620
  982SOL    HW2 3846   1.118   2.486   1.742
  983SOL     OW 3847   6.053   2.060   3.281
  983SOL    HW1 3848   6.067   2.128   3.353
  983SOL    HW2 3849   5.959   2.067   3.246
  984SOL     OW 3850   4.879   1.454   5.266
  984SOL    HW1 3851   4.806   1.389   5.286
  984SOL    HW2 3852   4.926   1.478   5.350
  985SOL     OW 3853   3.052   5.586   0.818
  985SOL    HW1 3854   3.129   5.577   0.755
  985SOL    HW2 3855   3.000   5.501   0.819
  986SOL     OW 3856   4.579   5.526   6.251
  986SOL    HW1 3857   4.563   5.488   6.160
  986SOL    HW2 3858   4.496   5.517   6.307
  987SOL     OW 3859   3.202   6.449   1.708
  987SOL    HW1 3860   3.271   6.489   1.769
  987SOL    HW2 3861   3.126   6.414   1.761
  988SOL     OW 3862   4.085   3.215   0.867
  988SOL    HW1 3863   4.138   3.132   0.884
  988SOL    HW2 3864   4.018   3.227   0.940
  989SOL     OW 3865   0.585   0.529   5.407
  989SOL    HW1 3866   0.595   0.626   5.430
  989SOL    HW2 3867   0.570   0.476   5.490
  990SOL     OW 3868   4.121   0.639   4.328
  990SOL    HW1 3869   4.167   0.625   4.240
  990SOL    HW2 3870   4.188   0.635   4.402
  991SOL     OW 3871   1.058   2.320   4.816
  991SOL    HW1 3872   0.998   2.240   4.821
  991SOL    HW2 3873   1.111   2.317   4.732
  992SOL     OW 3874   0.570   3.258   7.001
  992SOL    HW1 3875   0.661   3.217   6.992
  992SOL    HW2 3876   0.514   3.231   6.923
  993SOL     OW 3877   3.053   4.848   2.669
  993SOL    HW1 3878   3.062   4.820   2.765
  993SOL    HW2 3879   3.143   4.857   2.628
  994SOL     OW 3880   3.383   3.393   2.201
  994SOL    HW1 3881   3.475   3.422   2.175
  994SOL    HW2 3882   3.350   3.325   2.135
  995SOL     OW 3883   1.859   2.412   6.275
  995SOL    HW1 3884   1.796   2.349   6.230
  995SOL    HW2 3885   1.918   2.360   6.337
  996SOL     OW 3886   2.024   3.390   2.836
  996SOL    HW1 3887   2.003   3.328   2.760
  996SOL    HW2 3888   2.058   3.338   2.914
  997SOL     OW 3889   0.501   0.919   1.414
  997SOL    HW1 3890   0.509   0.836   1.470
  997SOL    HW2 3891   0.405   0.935   1.392
  998SOL     OW 3892   4.288   6.790   2.364
  998SOL    HW1 3893   4.334   6.844   2.294
  998SOL    HW2 3894   4.200   6.832   2.387
  999SOL     OW 3895   6.120   5.574   1.292
  999SOL    HW1 3896   6.095   5.511   1.365
  999SOL    HW2 3897   6.077   5.663   1.308
 1000SOL     OW 3898   2.390   2.568   3.740
 1000SOL    HW1 3899   2.360   2.636   3.673
 1000SOL    HW2 3900   2.453   2.504   3.695
 1001SOL     OW 3901   4.489   6.459   6.427
 1001SOL    HW1 3902   4.469   6.555   6.408
 1001SOL    HW2 3903   4.586   6.441   6.407
 1002SOL     OW 3904   5.852   1.547   6.934
 1002SOL    HW1 3905   5.768   1.497   6.913
 1002SOL    HW2 3906   5.829   1.643   6.954
 1003SOL     OW 3907   2.978   6.561   2.457
 1003SOL    HW1 3908   2.942   6.520   2.373
 1003SOL    HW2 3909   2.942   6.512   2.536
 1004SOL     OW 3910   0.186   0.155   6.863
 1004SOL    HW1 3911   0.092   0.153   6.895
 1004SOL    HW2 3912   0.209   0.068   6.820
 1005SOL     OW 3913   0.806   0.233   2.754
 1005SOL    HW1 3914   0.707   0.227   2.767
 1005SOL    HW2 3915   0.825   0.262   2.660
 1006SOL     OW 3916   2.622   5.379   1.682
 1006SOL    HW1 3917   2.634   5.340   1.590
 1006SOL    HW2 3918   2.598   5.307   1.746
 1007SOL     OW 3919   6.652   1.466   3.671
 1007SOL    HW1 3920   6.656   1.566   3.677
 1007SOL    HW2 3921   6.647   1.427   3.763
 1008SOL     OW 3922   1.015   2.916   3.929
 1008SOL    HW1 3923   0.983   2.896   4.022
 1008SOL    HW2 3924   1.019   3.015   3.916
 1009SOL     OW 3925   0.125   5.864   4.258
 1009SOL    HW1 3926   0.151   5.872   4.162
 1009SOL    HW2 3927   0.179   5.928   4.313
 1010SOL     OW 3928   4.401   1.629   0.653
 1010SOL    HW1 3929   4.389   1.682   0.737
 1010SOL    HW2 3930   4.498   1.618   0.635
 1011SOL     OW 3931   2.768   5.301   3.806
 1011SOL    HW1 3932   2.864   5.278   3.818
 1011SOL    HW2 3933   2.751   5.328   3.711
 1012SOL     OW 3934   6.253   5.331   0.233
 1012SOL    HW1 3935   6.170   5.275   0.244
 1012SOL    HW2 3936   6.239   5.419   0.278
 1013SOL     OW 3937   1.023   0.665   0.299
 1013SOL    HW1 3938   1.111   0.658   0.252
 1013SOL    HW2 3939   0.963   0.726   0.247
 1014SOL     OW 3940   3.872   5.768   6.112
 1014SOL    HW1 3941   3.901   5.810   6.198
 1014SOL    HW2 3942   3.881   5.834   6.038
 1015SOL     OW 3943   3.545   6.460   5.110
 1015SOL    HW1 3944   3.519   6.371   5.072
 1015SOL    HW2 3945   3.645   6.466   5.117
 1016SOL     OW 3946   3.675   2.893   1.293
 1016SOL    HW1 3947   3.617   2.974   1.285
 1016SOL    HW2 3948   3.710   2.868   1.203
 1017SOL     OW 3949   4.532   2.691   0.673
 1017SOL    HW1 3950   4.443   2.658   0.644
 1017SOL    HW2 3951   4.583   2.725   0.594
 1018SOL     OW 3952   1.215   3.049   3.594
 1018SOL    HW1 3953   1.186   2.969   3.645
 1018SOL    HW2 3954   1.140   3.115   3.590
 1019SOL     OW 3955   6.928   1.261   0.349
 1019SOL    HW1 3956   6.964   1.305   0.267
 1019SOL    HW2 3957   6.978   1.176   0.365
 1020SOL     OW 3958   3.227   0.388   0.465
 1020SOL    HW1 3959   3.283   0.461   0.503
 1020SOL    HW2 3960   3.198   0.413   0.373
 1021SOL     OW 3961   0.001   1.296   1.313
 1021SOL    HW1 3962   0.001   1.381   1.260
 1021SOL    HW2 3963   6.937   1.248   1.299
 1022SOL     OW 3964   4.627   3.050   5.974
 1022SOL    HW1 3965   4.530   3.032   5.990
 1022SOL    HW2 3966   4.637   3.099   5.887
 1023SOL     OW 3967   5.495   0.350   2.792
 1023SOL    HW1 3968   5.453   0.280   2.849
 1023SOL    HW2 3969   5.578   0.314   2.750
 1024SOL     OW 3970   6.409   1.721   4.463
 1024SOL    HW1 3971   6.338   1.707   4.531
 1024SOL    HW2 3972   6.498   1.730   4.509
 1025SOL     OW 3973   3.355   4.538   0.919
 1025SOL    HW1 3974   3.404   4.506   0.838
 1025SOL    HW2 3975   3.257   4.523   0.907
 1026SOL     OW 3976   2.270   1.959   0.062
 1026SOL    HW1 3977   2.227   1.869   0.069
 1026SOL    HW2 3978   2.315   1.968   6.996
 1027SOL     OW 3979   2.753   5.165   1.891
 1027SOL    HW1 3980   2.804   5.122   1.817
 1027SOL    HW2 3981   2.655   5.149   1.878
 1028SOL     OW 3982   1.646   5.981   0.427
 1028SOL    HW1 3983   1.705   6.053   0.463
 1028SOL    HW2 3984   1.676   5.892   0.463
 1029SOL     OW 3985   1.687   0.727   0.022
 1029SOL    HW1 3986   1.595   0.760   0.000
 1029SOL    HW2 3987   1.710   0.651   6.985
 1030SOL     OW 3988   3.902   3.585   4.816
 1030SOL    HW1 3989   3.835   3.550   4.882
 1030SOL    HW2 3990   3.870   3.567   4.723
 1031SOL     OW 3991   3.220   5.195   1.381
 1031SOL    HW1 3992   3.143   5.153   1.428
 1031SOL    HW2 3993   3.187   5.270   1.324
 1032SOL     OW 3994   1.899   1.843   4.910
 1032SOL    HW1 3995   1.866   1.782   4.982
 1032SOL    HW2 3996   1.846   1.928   4.911
 1033SOL     OW 3997   2.354   5.525   1.626
 1033SOL    HW1 3998   2.420   5.463   1.668
 1033SOL    HW2 3999   2.338   5.498   1.531
 1034SOL     OW 4000   2.571   5.833   3.821
 1034SOL    HW1 4001   2.554   5.907   3.886
 1034SOL    HW2 4002   2.570   5.870   3.728
 1035SOL     OW 4003   2.933   1.497   4.382
 1035SOL    HW1 4004   2.885   1.431   4.325
 1035SOL    HW2 4005   3.027   1.466   4.398
 1036SOL     OW 4006   4.732   1.950   1.419
 1036SOL    HW1 4007   4.711   1.964   1.322
 1036SOL    HW2 4008   4.665   1.887   1.458
 1037SOL     OW 4009   1.914   1.101   0.547
 1037SOL    HW1 4010   1.999   1.055   0.521
 1037SOL    HW2 4011   1.844   1.084   0.478
 1038SOL     OW 4012   1.392   1.051   5.300
 1038SOL    HW1 4013   1.380   1.047   5.201
 1038SOL    HW2 4014   1.313   1.096   5.341
 1039SOL     OW 4015   3.813   1.794   4.611
 1039SOL    HW1 4016   3.750   1.823   4.539
 1039SOL    HW2 4017   3.855   1.707   4.585
 1040SOL     OW 4018   5.981   3.643   2.299
 1040SOL    HW1 4019   5.923   3.661   2.378
 1040SOL    HW2 4020   6.068   3.605   2.330
 1041SOL     OW 4021   6.757   0.378   4.014
 1041SOL    HW1 4022   6.849   0.400   3.981
 1041SOL    HW2 4023   6.689   0.430   3.963
 1042SOL     OW 4024   5.101   5.033   0.664
 1042SOL    HW1 4025   5.158   5.062   0.741
 1042SOL    HW2 4026   5.104   5.102   0.592
 1043SOL     OW 4027   3.533   1.816   6.461
 1043SOL    HW1 4028   3.452   1.846   6.512
 1043SOL    HW2 4029   3.611   1.871   6.486
 1044SOL     OW 4030   3.788   2.682   1.419
 1044SOL    HW1 4031   3.743   2.766   1.390
 1044SOL    HW2 4032   3.765   2.663   1.515
 1045SOL     OW 4033   2.973   1.145   2.751
 1045SOL    HW1 4034   2.976   1.084   2.830
 1045SOL    HW2 4035   2.922   1.228   2.775
 1046SOL     OW 4036   3.178   6.884   0.458
 1046SOL    HW1 4037   3.238   6.849   0.530
 1046SOL    HW2 4038   3.189   6.983   0.451
 1047SOL     OW 4039   1.152   5.102   2.860
 1047SOL    HW1 4040   1.148   5.033   2.933
 1047SOL    HW2 4041   1.071   5.160   2.865
 1048SOL     OW 4042   5.088   5.055   4.709
 1048SOL    HW1 4043   5.165   5.076   4.769
 1048SOL    HW2 4044   5.054   5.140   4.668
 1049SOL     OW 4045   6.878   3.571   4.932
 1049SOL    HW1 4046   6.946   3.628   4.979
 1049SOL    HW2 4047   6.788   3.616   4.937
 1050SOL     OW 4048   3.825   0.327   6.854
 1050SOL    HW1 4049   3.792   0.413   6.893
 1050SOL    HW2 4050   3.881   0.347   6.773
 1051SOL     OW 4051   4.819   4.675   0.660
 1051SOL    HW1 4052   4.741   4.732   0.687
 1051SOL    HW2 4053   4.805   4.582   0.694
 1052SOL     OW 4054   3.798   0.147   4.999
 1052SOL    HW1 4055   3.887   0.133   4.955
 1052SOL    HW2 4056   3.742   0.066   4.987
 1053SOL     OW 4057   4.698   5.148   3.916
 1053SOL    HW1 4058   4.789   5.127   3.880
 1053SOL    HW2 4059   4.670   5.238   3.882
 1054SOL     OW 4060   3.277   5.362   4.989
 1054SOL    HW1 4061   3.302   5.438   5.050
 1054SOL    HW2 4062   3.267   5.278   5.042
 1055SOL     OW 4063   4.569   5.563   4.938
 1055SOL    HW1 4064   4.655   5.603   4.907
 1055SOL    HW2 4065   4.509   5.635   4.974
 1056SOL     OW 4066   1.528   6.096   4.984
 1056SOL    HW1 4067   1.555   6.001   4.969
 1056SOL    HW2 4068   1.598   6.143   5.038
 1057SOL     OW 4069   2.972   3.520   3.020
 1057SOL    HW1 4070   2.948   3.448   3.085
 1057SOL    HW2 4071   2.962   3.485   2.927
 1058SOL     OW 4072   3.536   1.165   2.173
 1058SOL    HW1 4073   3.542   1.070   2.202
 1058SOL    HW2 4074   3.601   1.220   2.225
 1059SOL     OW 4075   4.343   1.191   1.942
 1059SOL    HW1 4076   4.374   1.124   1.874
 1059SOL    HW2 4077   4.272   1.248   1.902
 1060SOL     OW 4078   0.855   3.296   5.589
 1060SOL    HW1 4079   0.923   3.288   5.662
 1060SOL    HW2 4080   0.830   3.392   5.578
 1061SOL     OW 4081   3.135   5.110   1.850
 1061SOL    HW1 4082   3.071   5.075   1.782
 1061SOL    HW2 4083   3.193   5.036   1.883
 1062SOL     OW 4084   6.529   5.474   5.658
 1062SOL    HW1 4085   6.495   5.512   5.744
 1062SOL    HW2 4086   6.554   5.549   5.596
 1063SOL     OW 4087   1.756   3.287   0.917
 1063SOL    HW1 4088   1.763   3.216   0.847
 1063SOL    HW2 4089   1.712   3.250   0.999
 1064SOL     OW 4090   0.993   3.418   2.160
 1064SOL    HW1 4091   1.011   3.336   2.214
 1064SOL    HW2 4092   0.948   3.487   2.217
 1065SOL     OW 4093   5.254   0.320   4.096
 1065SOL    HW1 4094   5.175   0.260   4.089
 1065SOL    HW2 4095   5.337   0.268   4.076
 1066SOL     OW 4096   4.889   0.686   3.844
 1066SOL    HW1 4097   4.832   0.639   3.776
 1066SOL    HW2 4098   4.927   0.770   3.803
 1067SOL     OW 4099   1.951   2.681   1.935
 1067SOL    HW1 4100   2.033   2.645   1.980
 1067SOL    HW2 4101   1.888   2.716   2.004
 1068SOL     OW 4102   0.392   3.226   2.551
 1068SOL    HW1 4103   0.351   3.316   2.560
 1068SOL    HW2 4104   0.446   3.205   2.633
 1069SOL     OW 4105   4.268   4.666   0.862
 1069SOL    HW1 4106   4.360   4.633   0.886
 1069SOL    HW2 4107   4.275   4.752   0.811
 1070SOL     OW 4108   2.107   1.013   0.180
 1070SOL    HW1 4109   2.034   0.978   0.120
 1070SOL    HW2 4110   2.085   0.993   0.275
 1071SOL     OW 4111   4.155   6.499   2.636
 1071SOL    HW1 4112   4.079   6.454   2.685
 1071SOL    HW2 4113   4.197   6.566   2.696
 1072SOL     OW 4114   3.211   6.662   2.352
 1072SOL    HW1 4115   3.131   6.619   2.392
 1072SOL    HW2 4116   3.293   6.613   2.381
 1073SOL     OW 4117   2.783   4.750   2.601
 1073SOL    HW1 4118   2.866   4.804   2.589
 1073SOL    HW2 4119   2.802   4.654   2.577
 1074SOL     OW 4120   0.679   4.769   1.663
 1074SOL    HW1 4121   0.647   4.735   1.751
 1074SOL    HW2 4122   0.602   4.777   1.600
 1075SOL     OW 4123   5.434   4.233   3.649
 1075SOL    HW1 4124   5.456   4.327   3.624
 1075SOL    HW2 4125   5.500   4.170   3.608
 1076SOL     OW 4126   0.433   3.950   4.404
 1076SOL    HW1 4127   0.509   3.896   4.367
 1076SOL    HW2 4128   0.470   4.032   4.449
 1077SOL     OW 4129   5.314   6.889   1.051
 1077SOL    HW1 4130   5.409   6.881   1.080
 1077SOL    HW2 4131   5.254   6.870   1.129
 1078SOL     OW 4132   1.709   2.112   1.371
 1078SOL    HW1 4133   1.618   2.087   1.405
 1078SOL    HW2 4134   1.744   2.190   1.422
 1079SOL     OW 4135   2.541   5.679   3.515
 1079SOL    HW1 4136   2.494   5.661   3.602
 1079SOL    HW2 4137   2.558   5.777   3.506
 1080SOL     OW 4138   2.396   5.597   3.734
 1080SOL    HW1 4139   2.458   5.617   3.810
 1080SOL    HW2 4140   2.309   5.564   3.770
 1081SOL     OW 4141   1.783   0.714   6.558
 1081SOL    HW1 4142   1.812   0.624   6.592
 1081SOL    HW2 4143   1.734   0.703   6.472
 1082SOL     OW 4144   1.579   0.265   6.126
 1082SOL    HW1 4145   1.517   0.198   6.165
 1082SOL    HW2 4146   1.529   0.326   6.065
 1083SOL     OW 4147   3.937   3.328   1.904
 1083SOL    HW1 4148   3.930   3.350   2.001
 1083SOL    HW2 4149   3.846   3.334   1.862
 1084SOL     OW 4150   5.761   4.644   0.730
 1084SOL    HW1 4151   5.665   4.619   0.722
 1084SOL    HW2 4152   5.819   4.566   0.705
 1085SOL     OW 4153   1.717   4.984   3.964
 1085SOL    HW1 4154   1.804   4.963   3.919
 1085SOL    HW2 4155   1.681   5.070   3.928
 1086SOL     OW 4156   4.857   5.691   2.784
 1086SOL    HW1 4157   4.904   5.712   2.698
 1086SOL    HW2 4158   4.768   5.650   2.765
 1087SOL     OW 4159   4.650   3.064   5.267
 1087SOL    HW1 4160   4.591   2.993   5.305
 1087SOL    HW2 4161   4.669   3.132   5.337
 1088SOL     OW 4162   5.055   4.774   3.929
 1088SOL    HW1 4163   4.989   4.772   3.854
 1088SOL    HW2 4164   5.128   4.708   3.911
 1089SOL     OW 4165   0.066   0.261   4.872
 1089SOL    HW1 4166   0.060   0.234   4.969
 1089SOL    HW2 4167   7.005   0.306   4.845
 1090SOL     OW 4168   1.906   1.434   6.137
 1090SOL    HW1 4169   1.852   1.381   6.072
 1090SOL    HW2 4170   1.980   1.481   6.089
 1091SOL     OW 4171   1.581   1.668   4.998
 1091SOL    HW1 4172   1.503   1.660   5.060
 1091SOL    HW2 4173   1.639   1.588   5.006
 1092SOL     OW 4174   2.242   4.087   1.359
 1092SOL    HW1 4175   2.259   4.181   1.330
 1092SOL    HW2 4176   2.187   4.088   1.443
 1093SOL     OW 4177   1.095   2.473   2.364
 1093SOL    HW1 4178   1.010   2.444   2.321
 1093SOL    HW2 4179   1.097   2.573   2.370
 1094SOL     OW 4180   0.804   6.516   1.692
 1094SOL    HW1 4181   0.770   6.556   1.777
 1094SOL    HW2 4182   0.729   6.508   1.626
 1095SOL     OW 4183   6.131   3.076   6.313
 1095SOL    HW1 4184   6.048   3.073   6.370
 1095SOL    HW2 4185   6.211   3.089   6.371
 1096SOL     OW 4186   3.279   4.759   1.676
 1096SOL    HW1 4187   3.201   4.701   1.700
 1096SOL    HW2 4188   3.354   4.702   1.643
 1097SOL     OW 4189   1.171   4.819   4.965
 1097SOL    HW1 4190   1.202   4.912   4.943
 1097SOL    HW2 4191   1.206   4.794   5.056
 1098SOL     OW 4192   4.888   2.249   2.367
 1098SOL    HW1 4193   4.843   2.215   2.450
 1098SOL    HW2 4194   4.942   2.330   2.390
 1099SOL     OW 4195   4.235   2.333   4.265
 1099SOL    HW1 4196   4.278   2.247   4.291
 1099SOL    HW2 4197   4.291   2.410   4.296
 1100SOL     OW 4198   1.207   0.848   6.508
 1100SOL    HW1 4199   1.156   0.918   6.458
 1100SOL    HW2 4200   1.294   0.886   6.539
 1101SOL     OW 4201   4.876   3.264   0.859
 1101SOL    HW1 4202   4.854   3.328   0.785
 1101SOL    HW2 4203   4.824   3.179   0.846
 1102SOL     OW 4204   0.194   3.823   4.518
 1102SOL    HW1 4205   0.138   3.903   4.537
 1102SOL    HW2 4206   0.271   3.849   4.459
 1103SOL     OW 4207   1.999   1.658   1.356
 1103SOL    HW1 4208   1.956   1.747   1.370
 1103SOL    HW2 4209   2.073   1.667   1.289
 1104SOL     OW 4210   3.067   4.361   6.342
 1104SOL    HW1 4211   3.161   4.387   6.320
 1104SOL    HW2 4212   3.004   4.430   6.307
 1105SOL     OW 4213   4.864   4.057   6.427
 1105SOL    HW1 4214   4.878   4.044   6.329
 1105SOL    HW2 4215   4.853   4.154   6.446
 1106SOL     OW 4216   6.944   2.450   5.240
 1106SOL    HW1 4217   6.902   2.368   5.279
 1106SOL    HW2 4218   6.967   2.514   5.313
 1107SOL     OW 4219   0.959   0.571   0.638
 1107SOL    HW1 4220   1.026   0.618   0.581
 1107SOL    HW2 4221   0.969   0.601   0.733
 1108SOL     OW 4222   1.660   0.690   6.331
 1108SOL    HW1 4223   1.561   0.682   6.339
 1108SOL    HW2 4224   1.698   0.606   6.292
 1109SOL     OW 4225   4.341   6.022   4.032
 1109SOL    HW1 4226   4.323   6.011   3.934
 1109SOL    HW2 4227   4.426   6.073   4.044
 1110SOL     OW 4228   3.142   3.260   1.886
 1110SOL    HW1 4229   3.179   3.271   1.793
 1110SOL    HW2 4230   3.215   3.229   1.947
 1111SOL     OW 4231   5.623   0.490   0.244
 1111SOL    HW1 4232   5.651   0.549   0.168
 1111SOL    HW2 4233   5.669   0.402   0.236
 1112SOL     OW 4234   6.752   0.932   2.242
 1112SOL    HW1 4235   6.780   0.890   2.156
 1112SOL    HW2 4236   6.705   1.019   2.222
 1113SOL     OW 4237   6.442   3.513   2.835
 1113SOL    HW1 4238   6.362   3.463   2.868
 1113SOL    HW2 4239   6.491   3.553   2.912
 1114SOL     OW 4240   4.534   0.951   6.163
 1114SOL    HW1 4241   4.472   0.899   6.222
 1114SOL    HW2 4242   4.576   0.888   6.096
 1115SOL     OW 4243   3.318   3.546   0.839
 1115SOL    HW1 4244   3.345   3.464   0.891
 1115SOL    HW2 4245   3.382   3.620   0.858
 1116SOL     OW 4246   4.590   6.170   4.193
 1116SOL    HW1 4247   4.650   6.250   4.194
 1116SOL    HW2 4248   4.645   6.087   4.199
 1117SOL     OW 4249   2.542   2.864   1.441
 1117SOL    HW1 4250   2.639   2.842   1.439
 1117SOL    HW2 4251   2.516   2.894   1.533
 1118SOL     OW 4252   2.194   4.544   3.126
 1118SOL    HW1 4253   2.101   4.518   3.100
 1118SOL    HW2 4254   2.195   4.570   3.223
 1119SOL     OW 4255   4.266   4.033   1.692
 1119SOL    HW1 4256   4.330   3.957   1.701
 1119SOL    HW2 4257   4.299   4.112   1.744
 1120SOL     OW 4258   4.839   6.872   6.218
 1120SOL    HW1 4259   4.935   6.899   6.211
 1120SOL    HW2 4260   4.781   6.953   6.211
 1121SOL     OW 4261   4.884   2.940   1.749
 1121SOL    HW1 4262   4.867   2.999   1.828
 1121SOL    HW2 4263   4.856   2.847   1.771
 1122SOL     OW 4264   5.629   3.195   6.561
 1122SOL    HW1 4265   5.566   3.121   6.540
 1122SOL    HW2 4266   5.599   3.279   6.515
 1123SOL     OW 4267   4.590   0.960   2.256
 1123SOL    HW1 4268   4.520   0.945   2.187
 1123SOL    HW2 4269   4.680   0.964   2.212
 1124SOL     OW 4270   6.468   3.535   5.167
 1124SOL    HW1 4271   6.562   3.507   5.150
 1124SOL    HW2 4272   6.440   3.505   5.259
 1125SOL     OW 4273   3.137   3.297   5.063
 1125SOL    HW1 4274   3.109   3.391   5.045
 1125SOL    HW2 4275   3.060   3.246   5.103
 1126SOL     OW 4276   4.905   0.116   1.311
 1126SOL    HW1 4277   4.830   0.063   1.351
 1126SOL    HW2 4278   4.942   0.067   1.232
 1127SOL     OW 4279   2.252   4.818   0.750
 1127SOL    HW1 4280   2.225   4.734   0.798
 1127SOL    HW2 4281   2.172   4.858   0.706
 1128SOL     OW 4282   3.327   1.924   3.925
 1128SOL    HW1 4283   3.402   1.907   3.861
 1128SOL    HW2 4284   3.323   1.849   3.992
 1129SOL     OW 4285   4.921   0.676   6.742
 1129SOL    HW1 4286   4.910   0.705   6.647
 1129SOL    HW2 4287   4.988   0.603   6.747
 1130SOL     OW 4288   0.831   4.031   0.172
 1130SOL    HW1 4289   0.789   4.014   0.261
 1130SOL    HW2 4290   0.793   3.967   0.105
 1131SOL     OW 4291   0.313   6.111   5.475
 1131SOL    HW1 4292   0.352   6.159   5.397
 1131SOL    HW2 4293   0.265   6.029   5.443
 1132SOL     OW 4294   4.945   0.015   5.559
 1132SOL    HW1 4295   5.003   6.957   5.555
 1132SOL    HW2 4296   4.957   0.068   5.475
 1133SOL     OW 4297   0.724   3.036   1.589
 1133SOL    HW1 4298   0.752   3.118   1.539
 1133SOL    HW2 4299   0.624   3.030   1.590
 1134SOL     OW 4300   5.234   2.461   6.871
 1134SOL    HW1 4301   5.188   2.545   6.898
 1134SOL    HW2 4302   5.202   2.385   6.928
 1135SOL     OW 4303   3.012   2.203   3.714
 1135SOL    HW1 4304   3.026   2.137   3.788
 1135SOL    HW2 4305   2.926   2.252   3.729
 1136SOL     OW 4306   2.737   5.323   3.510
 1136SOL    HW1 4307   2.643   5.292   3.502
 1136SOL    HW2 4308   2.796   5.269   3.450
 1137SOL     OW 4309   1.329   1.607   6.356
 1137SOL    HW1 4310   1.419   1.570   6.380
 1137SOL    HW2 4311   1.270   1.608   6.437
 1138SOL     OW 4312   1.984   3.290   5.836
 1138SOL    HW1 4313   2.009   3.276   5.932
 1138SOL    HW2 4314   1.989   3.388   5.815
 1139SOL     OW 4315   1.543   6.360   2.899
 1139SOL    HW1 4316   1.604   6.283   2.879
 1139SOL    HW2 4317   1.566   6.398   2.988
 1140SOL     OW 4318   3.135   1.887   3.327
 1140SOL    HW1 4319   3.063   1.825   3.358
 1140SOL    HW2 4320   3.109   1.981   3.349
 1141SOL     OW 4321   6.085   5.943   4.681
 1141SOL    HW1 4322   6.128   5.981   4.763
 1141SOL    HW2 4323   6.147   5.952   4.603
 1142SOL     OW 4324   5.343   6.952   4.365
 1142SOL    HW1 4325   5.440   6.934   4.350
 1142SOL    HW2 4326   5.328   6.979   4.460
 1143SOL     OW 4327   3.837   2.144   3.174
 1143SOL    HW1 4328   3.935   2.164   3.175
 1143SOL    HW2 4329   3.808   2.120   3.081
 1144SOL     OW 4330   0.603   4.351   4.190
 1144SOL    HW1 4331   0.668   4.426   4.201
 1144SOL    HW2 4332   0.539   4.373   4.116
 1145SOL     OW 4333   6.771   5.352   4.660
 1145SOL    HW1 4334   6.764   5.352   4.760
 1145SOL    HW2 4335   6.780   5.258   4.627
 1146SOL     OW 4336   5.999   2.117   1.231
 1146SOL    HW1 4337   5.915   2.063   1.238
 1146SOL    HW2 4338   5.989   2.202   1.283
 1147SOL     OW 4339   0.370   4.079   2.335
 1147SOL    HW1 4340   0.363   3.980   2.349
 1147SOL    HW2 4341   0.299   4.125   2.388
 1148SOL     OW 4342   3.737   6.848   6.520
 1148SOL    HW1 4343   3.753   6.773   6.455
 1148SOL    HW2 4344   3.824   6.872   6.563
 1149SOL     OW 4345   6.383   3.797   3.109
 1149SOL    HW1 4346   6.334   3.834   3.030
 1149SOL    HW2 4347   6.471   3.759   3.080
 1150SOL     OW 4348   1.972   5.007   0.890
 1150SOL    HW1 4349   1.963   5.102   0.862
 1150SOL    HW2 4350   1.916   4.948   0.831
 1151SOL     OW 4351   5.911   5.137   6.402
 1151SOL    HW1 4352   5.849   5.073   6.448
 1151SOL    HW2 4353   5.889   5.139   6.304
 1152SOL     OW 4354   1.408   0.359   5.072
 1152SOL    HW1 4355   1.327   0.332   5.124
 1152SOL    HW2 4356   1.488   0.310   5.108
 1153SOL     OW 4357   2.269   5.362   2.675
 1153SOL    HW1 4358   2.254   5.344   2.577
 1153SOL    HW2 4359   2.283   5.460   2.689
 1154SOL     OW 4360   0.441   3.778   2.194
 1154SOL    HW1 4361   0.405   3.759   2.285
 1154SOL    HW2 4362   0.405   3.711   2.129
 1155SOL     OW 4363   3.845   6.016   1.578
 1155SOL    HW1 4364   3.750   5.994   1.602
 1155SOL    HW2 4365   3.877   6.092   1.635
 1156SOL     OW 4366   2.024   0.481   4.235
 1156SOL    HW1 4367   2.102   0.475   4.298
 1156SOL    HW2 4368   2.043   0.551   4.166
 1157SOL     OW 4369   6.895   2.412   3.972
 1157SOL    HW1 4370   6.821   2.355   3.937
 1157SOL    HW2 4371   6.901   2.495   3.917
 1158SOL     OW 4372   5.696   5.120   5.831
 1158SOL    HW1 4373   5.711   5.045   5.896
 1158SOL    HW2 4374   5.615   5.100   5.776
 1159SOL     OW 4375   4.148   5.390   2.960
 1159SOL    HW1 4376   4.154   5.489   2.974
 1159SOL    HW2 4377   4.064   5.368   2.911
 1160SOL     OW 4378   4.159   3.427   2.407
 1160SOL    HW1 4379   4.206   3.370   2.340
 1160SOL    HW2 4380   4.208   3.424   2.494
 1161SOL     OW 4381   6.040   0.636   3.619
 1161SOL    HW1 4382   5.992   0.557   3.580
 1161SOL    HW2 4383   6.028   0.637   3.718
 1162SOL     OW 4384   3.561   4.114   2.134
 1162SOL    HW1 4385   3.638   4.114   2.198
 1162SOL    HW2 4386   3.595   4.120   2.040
 1163SOL     OW 4387   5.049   2.411   1.925
 1163SOL    HW1 4388   5.108   2.461   1.861
 1163SOL    HW2 4389   4.957   2.404   1.887
 1164SOL     OW 4390   5.775   2.865   3.489
 1164SOL    HW1 4391   5.682   2.879   3.456
 1164SOL    HW2 4392   5.829   2.948   3.476
 1165SOL     OW 4393   1.001   3.281   3.568
 1165SOL    HW1 4394   1.010   3.375   3.533
 1165SOL    HW2 4395   1.040   3.276   3.660
 1166SOL     OW 4396   4.181   2.142   6.226
 1166SOL    HW1 4397   4.277   2.167   6.241
 1166SOL    HW2 4398   4.164   2.133   6.128
 1167SOL     OW 4399   4.827   1.130   5.079
 1167SOL    HW1 4400   4.742   1.119   5.130
 1167SOL    HW2 4401   4.809   1.180   4.994
 1168SOL     OW 4402   0.092   6.484   3.614
 1168SOL    HW1 4403   0.069   6.391   3.584
 1168SOL    HW2 4404   0.012   6.526   3.657
 1169SOL     OW 4405   1.116   3.437   1.528
 1169SOL    HW1 4406   1.071   3.484   1.451
 1169SOL    HW2 4407   1.051   3.423   1.602
 1170SOL     OW 4408   3.242   1.401   2.215
 1170SOL    HW1 4409   3.327   1.450   2.198
 1170SOL    HW2 4410   3.164   1.461   2.198
 1171SOL     OW 4411   3.097   5.585   1.363
 1171SOL    HW1 4412   3.012   5.575   1.414
 1171SOL    HW2 4413   3.078   5.609   1.268
 1172SOL     OW 4414   3.071   3.889   4.444
 1172SOL    HW1 4415   3.026   3.801   4.430
 1172SOL    HW2 4416   3.096   3.929   4.356
 1173SOL     OW 4417   2.889   0.938   6.014
 1173SOL    HW1 4418   2.956   1.012   6.010
 1173SOL    HW2 4419   2.920   0.868   6.079
 1174SOL     OW 4420   2.735   6.008   0.538
 1174SOL    HW1 4421   2.766   6.076   0.605
 1174SOL    HW2 4422   2.760   6.038   0.446
 1175SOL     OW 4423   6.206   4.787   6.042
 1175SOL    HW1 4424   6.229   4.759   5.949
 1175SOL    HW2 4425   6.189   4.705   6.097
 1176SOL     OW 4426   5.486   4.715   1.141
 1176SOL    HW1 4427   5.584   4.703   1.125
 1176SOL    HW2 4428   5.435   4.648   1.088
 1177SOL     OW 4429   6.896   3.257   5.690
 1177SOL    HW1 4430   6.860   3.214   5.608
 1177SOL    HW2 4431   6.996   3.247   5.693
 1178SOL     OW 4432   5.117   3.743   1.960
 1178SOL    HW1 4433   5.082   3.777   1.873
 1178SOL    HW2 4434   5.147   3.649   1.949
 1179SOL     OW 4435   1.747   4.860   6.798
 1179SOL    HW1 4436   1.649   4.875   6.801
 1179SOL    HW2 4437   1.790   4.892   6.882
 1180SOL     OW 4438   1.977   1.655   4.136
 1180SOL    HW1 4439   2.019   1.587   4.197
 1180SOL    HW2 4440   1.926   1.608   4.064
 1181SOL     OW 4441   1.770   4.394   3.942
 1181SOL    HW1 4442   1.732   4.404   4.034
 1181SOL    HW2 4443   1.720   4.324   3.892
 1182SOL     OW 4444   2.338   4.286   3.602
 1182SOL    HW1 4445   2.298   4.215   3.660
 1182SOL    HW2 4446   2.370   4.361   3.660
 1183SOL     OW 4447   4.415   6.401   1.434
 1183SOL    HW1 4448   4.363   6.403   1.349
 1183SOL    HW2 4449   4.418   6.307   1.469
 1184SOL     OW 4450   2.977   2.940   5.312
 1184SOL    HW1 4451   3.032   2.862   5.343
 1184SOL    HW2 4452   2.882   2.928   5.341
 1185SOL     OW 4453   1.772   0.241   7.012
 1185SOL    HW1 4454   1.829   0.193   0.055
 1185SOL    HW2 4455   1.695   0.182   6.985
 1186SOL     OW 4456   5.694   0.379   4.582
 1186SOL    HW1 4457   5.772   0.377   4.519
 1186SOL    HW2 4458   5.718   0.432   4.663
 1187SOL     OW 4459   6.068   6.669   5.317
 1187SOL    HW1 4460   6.150   6.638   5.269
 1187SOL    HW2 4461   5.995   6.602   5.305
 1188SOL     OW 4462   1.910   6.682   5.782
 1188SOL    HW1 4463   1.922   6.752   5.852
 1188SOL    HW2 4464   1.916   6.592   5.824
 1189SOL     OW 4465   5.834   1.298   1.355
 1189SOL    HW1 4466   5.812   1.201   1.345
 1189SOL    HW2 4467   5.905   1.322   1.288
 1190SOL     OW 4468   4.625   5.095   2.760
 1190SOL    HW1 4469   4.663   5.181   2.727
 1190SOL    HW2 4470   4.650   5.081   2.856
 1191SOL     OW 4471   3.029   5.276   6.034
 1191SOL    HW1 4472   3.033   5.224   5.949
 1191SOL    HW2 4473   3.102   5.345   6.035
 1192SOL     OW 4474   6.016   5.170   3.062
 1192SOL    HW1 4475   6.034   5.213   2.973
 1192SOL    HW2 4476   5.948   5.097   3.051
 1193SOL     OW 4477   4.761   0.533   4.208
 1193SOL    HW1 4478   4.690   0.560   4.143
 1193SOL    HW2 4479   4.847   0.520   4.161
 1194SOL     OW 4480   6.481   0.930   0.655
 1194SOL    HW1 4481   6.490   0.957   0.559
 1194SOL    HW2 4482   6.570   0.939   0.700
 1195SOL     OW 4483   5.436   0.635   6.153
 1195SOL    HW1 4484   5.496   0.704   6.193
 1195SOL    HW2 4485   5.453   0.547   6.197
 1196SOL     OW 4486   0.146   5.345   2.629
 1196SOL    HW1 4487   0.152   5.445   2.619
 1196SOL    HW2 4488   0.226   5.303   2.586
 1197SOL     OW 4489   3.715   5.832   5.642
 1197SOL    HW1 4490   3.695   5.869   5.733
 1197SOL    HW2 4491   3.636   5.780   5.609
 1198SOL     OW 4492   3.102   2.161   3.378
 1198SOL    HW1 4493   3.149   2.132   3.461
 1198SOL    HW2 4494   3.013   2.199   3.401
 1199SOL     OW 4495   3.357   4.242   1.803
 1199SOL    HW1 4496   3.428   4.248   1.874
 1199SOL    HW2 4497   3.272   4.210   1.845
 1200SOL     OW 4498   4.156   4.564   6.529
 1200SOL    HW1 4499   4.250   4.543   6.556
 1200SOL    HW2 4500   4.104   4.479   6.521
 1201SOL     OW 4501   1.292   1.791   4.650
 1201SOL    HW1 4502   1.380   1.798   4.698
 1201SOL    HW2 4503   1.286   1.865   4.582
 1202SOL     OW 4504   5.612   0.119   4.612
 1202SOL    HW1 4505   5.518   0.084   4.603
 1202SOL    HW2 4506   5.611   0.218   4.596
 1203SOL     OW 4507   5.456   0.158   1.134
 1203SOL    HW1 4508   5.424   0.069   1.102
 1203SOL    HW2 4509   5.410   0.181   1.220
 1204SOL     OW 4510   3.644   0.833   0.511
 1204SOL    HW1 4511   3.636   0.894   0.432
 1204SOL    HW2 4512   3.731   0.851   0.558
 1205SOL     OW 4513   6.128   1.970   5.532
 1205SOL    HW1 4514   6.075   1.997   5.611
 1205SOL    HW2 4515   6.067   1.950   5.455
 1206SOL     OW 4516   1.947   1.570   4.726
 1206SOL    HW1 4517   2.015   1.643   4.739
 1206SOL    HW2 4518   1.993   1.486   4.697
 1207SOL     OW 4519   5.869   0.087   0.101
 1207SOL    HW1 4520   5.790   0.046   0.054
 1207SOL    HW2 4521   5.953   0.048   0.064
 1208SOL     OW 4522   3.751   3.907   2.535
 1208SOL    HW1 4523   3.749   3.810   2.511
 1208SOL    HW2 4524   3.710   3.920   2.625
 1209SOL     OW 4525   6.079   5.442   4.596
 1209SOL    HW1 4526   6.038   5.528   4.623
 1209SOL    HW2 4527   6.021   5.397   4.527
 1210SOL     OW 4528   4.315   0.103   2.874
 1210SOL    HW1 4529   4.329   0.170   2.802
 1210SOL    HW2 4530   4.369   0.128   2.955
 1211SOL     OW 4531   1.443   4.148   4.033
 1211SOL    HW1 4532   1.436   4.052   4.008
 1211SOL    HW2 4533   1.376   4.169   4.104
 1212SOL     OW 4534   1.211   4.055   4.484
 1212SOL    HW1 4535   1.221   3.974   4.542
 1212SOL    HW2 4536   1.264   4.131   4.524
 1213SOL     OW 4537   6.368   2.653   5.439
 1213SOL    HW1 4538   6.359   2.554   5.436
 1213SOL    HW2 4539   6.380   2.688   5.346
 1214SOL     OW 4540   1.626   3.698   3.911
 1214SOL    HW1 4541   1.579   3.611   3.894
 1214SOL    HW2 4542   1.695   3.713   3.839
 1215SOL     OW 4543   1.444   3.784   3.169
 1215SOL    HW1 4544   1.515   3.720   3.200
 1215SOL    HW2 4545   1.411   3.836   3.248
 1216SOL     OW 4546   1.277   0.375   1.764
 1216SOL    HW1 4547   1.345   0.350   1.695
 1216SOL    HW2 4548   1.193   0.323   1.748
 1217SOL     OW 4549   1.302   6.551   1.325
 1217SOL    HW1 4550   1.337   6.481   1.263
 1217SOL    HW2 4551   1.279   6.633   1.272
 1218SOL     OW 4552   0.165   3.298   4.404
 1218SOL    HW1 4553   0.070   3.329   4.393
 1218SOL    HW2 4554   0.181   3.271   4.499
 1219SOL     OW 4555   3.653   5.977   1.252
 1219SOL    HW1 4556   3.697   5.899   1.206
 1219SOL    HW2 4557   3.720   6.050   1.265
 1220SOL     OW 4558   5.882   2.763   3.192
 1220SOL    HW1 4559   5.902   2.666   3.179
 1220SOL    HW2 4560   5.863   2.781   3.289
 1221SOL     OW 4561   4.883   3.482   0.405
 1221SOL    HW1 4562   4.893   3.570   0.453
 1221SOL    HW2 4563   4.789   3.473   0.372
 1222SOL     OW 4564   0.067   6.964   1.085
 1222SOL    HW1 4565   6.994   6.966   1.111
 1222SOL    HW2 4566   0.124   6.949   1.165
 1223SOL     OW 4567   6.257   0.145   6.012
 1223SOL    HW1 4568   6.184   0.211   5.998
 1223SOL    HW2 4569   6.343   0.192   6.031
 1224SOL     OW 4570   4.148   5.588   1.145
 1224SOL    HW1 4571   4.198   5.585   1.059
 1224SOL    HW2 4572   4.206   5.550   1.218
 1225SOL     OW 4573   5.001   1.772   0.620
 1225SOL    HW1 4574   5.067   1.697   0.625
 1225SOL    HW2 4575   5.045   1.851   0.577
 1226SOL     OW 4576   6.108   6.210   1.201
 1226SOL    HW1 4577   6.176   6.154   1.153
 1226SOL    HW2 4578   6.108   6.188   1.298
 1227SOL     OW 4579   5.438   3.925   5.572
 1227SOL    HW1 4580   5.374   3.886   5.638
 1227SOL    HW2 4581   5.518   3.866   5.565
 1228SOL     OW 4582   3.676   3.096   2.331
 1228SOL    HW1 4583   3.625   3.146   2.400
 1228SOL    HW2 4584   3.625   3.014   2.304
 1229SOL     OW 4585   1.774   6.239   2.598
 1229SOL    HW1 4586   1.716   6.314   2.566
 1229SOL    HW2 4587   1.812   6.191   2.519
 1230SOL     OW 4588   4.847   4.899   1.528
 1230SOL    HW1 4589   4.755   4.939   1.523
 1230SOL    HW2 4590   4.875   4.869   1.437
 1231SOL     OW 4591   1.782   2.263   6.770
 1231SOL    HW1 4592   1.753   2.244   6.677
 1231SOL    HW2 4593   1.747   2.353   6.798
 1232SOL     OW 4594   3.161   0.649   5.311
 1232SOL    HW1 4595   3.177   0.605   5.223
 1232SOL    HW2 4596   3.063   0.653   5.329
 1233SOL     OW 4597   0.152   5.432   3.983
 1233SOL    HW1 4598   0.189   5.522   3.959
 1233SOL    HW2 4599   0.189   5.403   4.070
 1234SOL     OW 4600   6.572   3.323   6.740
 1234SOL    HW1 4601   6.621   3.238   6.721
 1234SOL    HW2 4602   6.636   3.393   6.772
 1235SOL     OW 4603   6.361   5.043   0.512
 1235SOL    HW1 4604   6.418   5.108   0.461
 1235SOL    HW2 4605   6.282   5.017   0.457
 1236SOL     OW 4606   2.479   0.777   1.160
 1236SOL    HW1 4607   2.466   0.833   1.079
 1236SOL    HW2 4608   2.468   0.834   1.242
 1237SOL     OW 4609   1.298   0.120   4.919
 1237SOL    HW1 4610   1.258   0.074   4.840
 1237SOL    HW2 4611   1.268   0.215   4.921
 1238SOL     OW 4612   6.989   0.065   3.841
 1238SOL    HW1 4613   0.043   0.018   3.797
 1238SOL    HW2 4614   6.947   0.127   3.775
 1239SOL     OW 4615   5.825   5.139   4.191
 1239SOL    HW1 4616   5.890   5.187   4.250
 1239SOL    HW2 4617   5.753   5.098   4.246
 1240SOL     OW 4618   5.556   4.796   2.813
 1240SOL    HW1 4619   5.459   4.804   2.836
 1240SOL    HW2 4620   5.578   4.701   2.792
 1241SOL     OW 4621   5.523   5.306   4.228
 1241SOL    HW1 4622   5.544   5.210   4.248
 1241SOL    HW2 4623   5.435   5.311   4.181
 1242SOL     OW 4624   1.535   4.611   0.020
 1242SOL    HW1 4625   1.601   4.538   0.003
 1242SOL    HW2 4626   1.539   4.638   0.116
 1243SOL     OW 4627   1.016   4.444   4.715
 1243SOL    HW1 4628   1.012   4.363   4.774
 1243SOL    HW2 4629   1.086   4.507   4.750
 1244SOL     OW 4630   5.550   6.151   4.644
 1244SOL    HW1 4631   5.543   6.241   4.602
 1244SOL    HW2 4632   5.634   6.106   4.612
 1245SOL     OW 4633   5.575   6.305   2.176
 1245SOL    HW1 4634   5.495   6.362   2.194
 1245SOL    HW2 4635   5.546   6.218   2.135
 1246SOL     OW 4636   4.706   1.982   1.141
 1246SOL    HW1 4637   4.684   1.889   1.170
 1246SOL    HW2 4638   4.621   2.033   1.125
 1247SOL     OW 4639   6.552   6.722   3.442
 1247SOL    HW1 4640   6.569   6.638   3.392
 1247SOL    HW2 4641   6.498   6.702   3.524
 1248SOL     OW 4642   0.446   6.809   5.045
 1248SOL    HW1 4643   0.530   6.756   5.059
 1248SOL    HW2 4644   0.462   6.881   4.978
 1249SOL     OW 4645   6.884   4.651   0.287
 1249SOL    HW1 4646   6.951   4.718   0.316
 1249SOL    HW2 4647   6.831   4.620   0.366
 1250SOL     OW 4648   5.685   2.800   5.364
 1250SOL    HW1 4649   5.682   2.707   5.399
 1250SOL    HW2 4650   5.780   2.827   5.349
 1251SOL     OW 4651   2.712   0.519   2.516
 1251SOL    HW1 4652   2.757   0.433   2.491
 1251SOL    HW2 4653   2.736   0.590   2.449
 1252SOL     OW 4654   2.243   5.172   0.430
 1252SOL    HW1 4655   2.327   5.182   0.483
 1252SOL    HW2 4656   2.244   5.084   0.383
 1253SOL     OW 4657   3.200   1.037   1.428
 1253SOL    HW1 4658   3.244   1.126   1.435
 1253SOL    HW2 4659   3.260   0.974   1.379
 1254SOL     OW 4660   6.675   1.551   2.316
 1254SOL    HW1 4661   6.742   1.591   2.253
 1254SOL    HW2 4662   6.718   1.478   2.369
 1255SOL     OW 4663   5.427   1.645   4.637
 1255SOL    HW1 4664   5.368   1.570   4.607
 1255SOL    HW2 4665   5.420   1.656   4.736
 1256SOL     OW 4666   0.339   6.253   4.433
 1256SOL    HW1 4667   0.433   6.233   4.460
 1256SOL    HW2 4668   0.327   6.351   4.421
 1257SOL     OW 4669   0.536   5.040   3.636
 1257SOL    HW1 4670   0.526   5.128   3.590
 1257SOL    HW2 4671   0.590   5.053   3.719
 1258SOL     OW 4672   3.361   6.321   4.795
 1258SOL    HW1 4673   3.290   6.260   4.760
 1258SOL    HW2 4674   3.420   6.351   4.720
 1259SOL     OW 4675   5.360   0.004   4.701
 1259SOL    HW1 4676   5.404   6.967   4.768
 1259SOL    HW2 4677   5.338   0.091   4.744
 1260SOL     OW 4678   1.760   0.591   1.733
 1260SOL    HW1 4679   1.815   0.522   1.779
 1260SOL    HW2 4680   1.798   0.682   1.753
 1261SOL     OW 4681   6.976   4.508   6.213
 1261SOL    HW1 4682   0.049   4.479   6.219
 1261SOL    HW2 4683   6.936   4.509   6.304
 1262SOL     OW 4684   5.609   5.482   0.415
 1262SOL    HW1 4685   5.692   5.467   0.470
 1262SOL    HW2 4686   5.545   5.408   0.430
 1263SOL     OW 4687   0.784   2.417   1.266
 1263SOL    HW1 4688   0.810   2.493   1.206
 1263SOL    HW2 4689   0.759   2.452   1.356
 1264SOL     OW 4690   0.935   3.657   3.589
 1264SOL    HW1 4691   1.015   3.657   3.649
 1264SOL    HW2 4692   0.855   3.626   3.641
 1265SOL     OW 4693   6.789   4.584   4.893
 1265SOL    HW1 4694   6.739   4.669   4.876
 1265SOL    HW2 4695   6.749   4.537   4.971
 1266SOL     OW 4696   2.823   1.508   5.469
 1266SOL    HW1 4697   2.881   1.573   5.519
 1266SOL    HW2 4698   2.876   1.427   5.446
 1267SOL     OW 4699   7.001   5.332   3.297
 1267SOL    HW1 4700   0.054   5.340   3.233
 1267SOL    HW2 4701   6.918   5.306   3.247
 1268SOL     OW 4702   5.155   2.627   6.634
 1268SOL    HW1 4703   5.126   2.659   6.724
 1268SOL    HW2 4704   5.248   2.589   6.640
 1269SOL     OW 4705   6.888   5.590   5.463
 1269SOL    HW1 4706   6.904   5.540   5.548
 1269SOL    HW2 4707   6.833   5.672   5.482
 1270SOL     OW 4708   2.041   3.885   4.463
 1270SOL    HW1 4709   1.942   3.871   4.462
 1270SOL    HW2 4710   2.086   3.801   4.492
 1271SOL     OW 4711   3.201   1.818   2.656
 1271SOL    HW1 4712   3.176   1.745   2.593
 1271SOL    HW2 4713   3.144   1.898   2.639
 1272SOL     OW 4714   6.760   5.245   1.391
 1272SOL    HW1 4715   6.782   5.155   1.428
 1272SOL    HW2 4716   6.703   5.296   1.456
 1273SOL     OW 4717   2.456   4.615   6.466
 1273SOL    HW1 4718   2.371   4.568   6.443
 1273SOL    HW2 4719   2.446   4.659   6.556
 1274SOL     OW 4720   6.733   2.683   1.897
 1274SOL    HW1 4721   6.767   2.729   1.979
 1274SOL    HW2 4722   6.718   2.751   1.825
 1275SOL     OW 4723   4.473   1.170   4.829
 1275SOL    HW1 4724   4.531   1.213   4.760
 1275SOL    HW2 4725   4.505   1.076   4.845
 1276SOL     OW 4726   0.217   0.846   2.584
 1276SOL    HW1 4727   0.162   0.785   2.640
 1276SOL    HW2 4728   0.183   0.845   2.490
 1277SOL     OW 4729   6.857   0.888   4.643
 1277SOL    HW1 4730   6.945   0.929   4.619
 1277SOL    HW2 4731   6.784   0.933   4.593
 1278SOL     OW 4732   2.223   1.774   5.186
 1278SOL    HW1 4733   2.272   1.750   5.270
 1278SOL    HW2 4734   2.227   1.872   5.172
 1279SOL     OW 4735   2.756   6.058   0.232
 1279SOL    HW1 4736   2.724   6.127   0.167
 1279SOL    HW2 4737   2.707   5.972   0.216
 1280SOL     OW 4738   2.238   0.224   3.207
 1280SOL    HW1 4739   2.277   0.295   3.149
 1280SOL    HW2 4740   2.220   0.142   3.153
 1281SOL     OW 4741   1.475   6.233   3.213
 1281SOL    HW1 4742   1.459   6.243   3.311
 1281SOL    HW2 4743   1.407   6.286   3.163
 1282SOL     OW 4744   0.858   1.474   1.283
 1282SOL    HW1 4745   0.899   1.502   1.370
 1282SOL    HW2 4746   0.885   1.537   1.211
 1283SOL     OW 4747   5.349   4.514   5.208
 1283SOL    HW1 4748   5.444   4.500   5.238
 1283SOL    HW2 4749   5.295   4.544   5.286
 1284SOL     OW 4750   3.023   2.651   1.669
 1284SOL    HW1 4751   2.992   2.607   1.584
 1284SOL    HW2 4752   2.979   2.606   1.747
 1285SOL     OW 4753   4.854   2.521   6.025
 1285SOL    HW1 4754   4.756   2.517   6.043
 1285SOL    HW2 4755   4.898   2.584   6.089
 1286SOL     OW 4756   5.478   4.029   2.219
 1286SOL    HW1 4757   5.406   3.966   2.193
 1286SOL    HW2 4758   5.567   3.992   2.191
 1287SOL     OW 4759   6.062   5.775   0.205
 1287SOL    HW1 4760   6.136   5.720   0.245
 1287SOL    HW2 4761   6.098   5.830   0.129
 1288SOL     OW 4762   0.186   3.101   6.991
 1288SOL    HW1 4763   0.125   3.106   6.912
 1288SOL    HW2 4764   0.143   3.147   0.046
 1289SOL     OW 4765   6.704   6.119   2.473
 1289SOL    HW1 4766   6.626   6.071   2.432
 1289SOL    HW2 4767   6.690   6.218   2.466
 1290SOL     OW 4768   0.803   6.857   6.715
 1290SOL    HW1 4769   0.874   6.845   6.785
 1290SOL    HW2 4770   0.843   6.895   6.632
 1291SOL     OW 4771   1.257   5.750   6.258
 1291SOL    HW1 4772   1.256   5.745   6.158
 1291SOL    HW2 4773   1.321   5.682   6.295
 1292SOL     OW 4774   0.315   4.794   0.677
 1292SOL    HW1 4775   0.262   4.879   0.674
 1292SOL    HW2 4776   0.348   4.772   0.585
 1293SOL     OW 4777   1.659   1.807   6.960
 1293SOL    HW1 4778   1.688   1.712   6.972
 1293SOL    HW2 4779   1.721   1.867   7.010
 1294SOL     OW 4780   1.041   3.236   2.341
 1294SOL    HW1 4781   1.110   3.169   2.370
 1294SOL    HW2 4782   0.985   3.263   2.419
 1295SOL     OW 4783   5.566   3.166   2.056
 1295SOL    HW1 4784   5.483   3.216   2.027
 1295SOL    HW2 4785   5.611   3.128   1.976
 1296SOL     OW 4786   3.694   2.403   6.628
 1296SOL    HW1 4787   3.707   2.402   6.727
 1296SOL    HW2 4788   3.636   2.481   6.603
 1297SOL     OW 4789   6.543   1.516   5.903
 1297SOL    HW1 4790   6.597   1.574   5.842
 1297SOL    HW2 4791   6.584   1.425   5.907
 1298SOL     OW 4792   5.676   2.971   2.564
 1298SOL    HW1 4793   5.669   2.945   2.468
 1298SOL    HW2 4794   5.586   3.003   2.596
 1299SOL     OW 4795   1.404   4.346   3.844
 1299SOL    HW1 4796   1.449   4.427   3.807
 1299SOL    HW2 4797   1.471   4.288   3.889
 1300SOL     OW 4798   2.921   3.568   1.782
 1300SOL    HW1 4799   2.950   3.527   1.868
 1300SOL    HW2 4800   2.842   3.519   1.747
 1301SOL     OW 4801   0.700   6.670   3.839
 1301SOL    HW1 4802   0.695   6.582   3.887
 1301SOL    HW2 4803   0.618   6.681   3.782
 1302SOL     OW 4804   3.035   6.786   5.601
 1302SOL    HW1 4805   3.003   6.822   5.513
 1302SOL    HW2 4806   3.043   6.861   5.667
 1303SOL     OW 4807   3.949   1.843   1.288
 1303SOL    HW1 4808   3.939   1.744   1.280
 1303SOL    HW2 4809   3.865   1.882   1.325
 1304SOL     OW 4810   1.856   0.148   6.288
 1304SOL    HW1 4811   1.921   0.149   6.365
 1304SOL    HW2 4812   1.907   0.140   6.202
 1305SOL     OW 4813   4.741   6.577   4.408
 1305SOL    HW1 4814   4.748   6.617   4.499
 1305SOL    HW2 4815   4.814   6.613   4.350
 1306SOL     OW 4816   0.829   4.035   4.556
 1306SOL    HW1 4817   0.765   3.968   4.519
 1306SOL    HW2 4818   0.839   4.021   4.654
 1307SOL     OW 4819   1.324   3.458   5.073
 1307SOL    HW1 4820   1.254   3.394   5.104
 1307SOL    HW2 4821   1.399   3.460   5.138
 1308SOL     OW 4822   4.168   5.397   4.423
 1308SOL    HW1 4823   4.154   5.496   4.425
 1308SOL    HW2 4824   4.265   5.377   4.408
 1309SOL     OW 4825   5.435   2.676   4.926
 1309SOL    HW1 4826   5.439   2.612   5.003
 1309SOL    HW2 4827   5.439   2.770   4.961
 1310SOL     OW 4828   6.094   4.458   4.299
 1310SOL    HW1 4829   6.037   4.393   4.349
 1310SOL    HW2 4830   6.157   4.408   4.239
 1311SOL     OW 4831   5.992   6.810   4.752
 1311SOL    HW1 4832   6.000   6.710   4.760
 1311SOL    HW2 4833   6.077   6.852   4.784
 1312SOL     OW 4834   0.986   6.996   0.086
 1312SOL    HW1 4835   1.019   0.064   0.060
 1312SOL    HW2 4836   1.064   6.937   0.107
 1313SOL     OW 4837   3.325   5.638   5.110
 1313SOL    HW1 4838   3.332   5.608   5.206
 1313SOL    HW2 4839   3.239   5.686   5.096
 1314SOL     OW 4840   1.321   1.475   5.614
 1314SOL    HW1 4841   1.273   1.387   5.626
 1314SOL    HW2 4842   1.400   1.461   5.554
 1315SOL     OW 4843   2.143   1.427   0.899
 1315SOL    HW1 4844   2.080   1.350   0.888
 1315SOL    HW2 4845   2.207   1.428   0.822
 1316SOL     OW 4846   2.281   0.087   3.444
 1316SOL    HW1 4847   2.319   0.001   3.410
 1316SOL    HW2 4848   2.266   0.150   3.367
 1317SOL     OW 4849   0.560   4.303   4.442
 1317SOL    HW1 4850   0.653   4.303   4.478
 1317SOL    HW2 4851   0.563   4.318   4.343
 1318SOL     OW 4852   0.207   0.761   0.735
 1318SOL    HW1 4853   0.160   0.684   0.778
 1318SOL    HW2 4854   0.231   0.737   0.641
 1319SOL     OW 4855   0.055   1.167   0.890
 1319SOL    HW1 4856   0.036   1.111   0.971
 1319SOL    HW2 4857   0.047   1.263   0.914
 1320SOL     OW 4858   5.873   4.561   6.292
 1320SOL    HW1 4859   5.829   4.558   6.382
 1320SOL    HW2 4860   5.952   4.499   6.291
 1321SOL     OW 4861   4.227   4.055   6.451
 1321SOL    HW1 4862   4.303   4.082   6.510
 1321SOL    HW2 4863   4.141   4.061   6.502
 1322SOL     OW 4864   6.093   1.206   3.714
 1322SOL    HW1 4865   6.008   1.184   3.667
 1322SOL    HW2 4866   6.133   1.122   3.752
 1323SOL     OW 4867   0.093   1.295   5.282
 1323SOL    HW1 4868   0.026   1.225   5.257
 1323SOL    HW2 4869   0.066   1.339   5.368
 1324SOL     OW 4870   1.408   2.918   1.642
 1324SOL    HW1 4871   1.380   2.904   1.737
 1324SOL    HW2 4872   1.401   2.832   1.591
 1325SOL     OW 4873   1.659   6.037   3.304
 1325SOL    HW1 4874   1.635   5.942   3.281
 1325SOL    HW2 4875   1.590   6.099   3.267
 1326SOL     OW 4876   5.248   2.401   4.896
 1326SOL    HW1 4877   5.176   2.468   4.911
 1326SOL    HW2 4878   5.321   2.414   4.964
 1327SOL     OW 4879   2.803   5.025   2.793
 1327SOL    HW1 4880   2.830   4.953   2.729
 1327SOL    HW2 4881   2.716   5.065   2.764
 1328SOL     OW 4882   2.054   1.781   6.288
 1328SOL    HW1 4883   2.007   1.710   6.341
 1328SOL    HW2 4884   2.069   1.861   6.346
 1329SOL     OW 4885   0.675   1.519   0.464
 1329SOL    HW1 4886   0.648   1.562   0.550
 1329SOL    HW2 4887   0.740   1.578   0.416
 1330SOL     OW 4888   6.654   0.995   1.045
 1330SOL    HW1 4889   6.632   0.908   1.090
 1330SOL    HW2 4890   6.678   1.063   1.113
 1331SOL     OW 4891   6.068   0.806   2.153
 1331SOL    HW1 4892   6.154   0.782   2.198
 1331SOL    HW2 4893   6.026   0.884   2.201
 1332SOL     OW 4894   4.170   2.074   1.537
 1332SOL    HW1 4895   4.077   2.057   1.568
 1332SOL    HW2 4896   4.229   2.094   1.616
 1333SOL     OW 4897   3.669   4.199   4.735
 1333SOL    HW1 4898   3.718   4.277   4.775
 1333SOL    HW2 4899   3.723   4.115   4.750
 1334SOL     OW 4900   1.526   3.982   4.888
 1334SOL    HW1 4901   1.565   3.975   4.796
 1334SOL    HW2 4902   1.532   3.892   4.933
 1335SOL     OW 4903   2.318   6.364   3.022
 1335SOL    HW1 4904   2.301   6.451   3.068
 1335SOL    HW2 4905   2.417   6.349   3.013
 1336SOL     OW 4906   1.180   1.617   6.579
 1336SOL    HW1 4907   1.115   1.692   6.590
 1336SOL    HW2 4908   1.132   1.529   6.586
 1337SOL     OW 4909   2.016   2.251   6.460
 1337SOL    HW1 4910   2.079   2.321   6.492
 1337SOL    HW2 4911   2.032   2.166   6.510
 1338SOL     OW 4912   4.008   4.605   6.273
 1338SOL    HW1 4913   4.083   4.597   6.339
 1338SOL    HW2 4914   4.017   4.533   6.205
 1339SOL     OW 4915   0.195   4.379   6.245
 1339SOL    HW1 4916   0.284   4.422   6.257
 1339SOL    HW2 4917   0.206   4.289   6.202
 1340SOL     OW 4918   1.308   2.424   6.987
 1340SOL    HW1 4919   1.339   2.440   6.893
 1340SOL    HW2 4920   1.287   2.327   6.999
 1341SOL     OW 4921   3.416   0.911   4.024
 1341SOL    HW1 4922   3.363   0.951   3.950
 1341SOL    HW2 4923   3.480   0.979   4.060
 1342SOL     OW 4924   0.634   6.041   5.866
 1342SOL    HW1 4925   0.716   6.091   5.840
 1342SOL    HW2 4926   0.625   6.040   5.965
 1343SOL     OW 4927   3.632   6.189   2.333
 1343SOL    HW1 4928   3.539   6.152   2.324
 1343SOL    HW2 4929   3.698   6.118   2.308
 1344SOL     OW 4930   6.335   1.594   3.132
 1344SOL    HW1 4931   6.333   1.582   3.033
 1344SOL    HW2 4932   6.257   1.546   3.173
 1345SOL     OW 4933   0.623   0.909   3.423
 1345SOL    HW1 4934   0.635   0.977   3.496
 1345SOL    HW2 4935   0.652   0.949   3.336
 1346SOL     OW 4936   0.354   6.922   3.871
 1346SOL    HW1 4937   0.383   6.832   3.838
 1346SOL    HW2 4938   0.286   6.960   3.810
 1347SOL     OW 4939   6.305   6.087   3.043
 1347SOL    HW1 4940   6.250   6.116   3.120
 1347SOL    HW2 4941   6.401   6.077   3.072
 1348SOL     OW 4942   5.596   4.331   3.972
 1348SOL    HW1 4943   5.664   4.390   3.928
 1348SOL    HW2 4944   5.528   4.387   4.019
 1349SOL     OW 4945   4.187   2.704   0.057
 1349SOL    HW1 4946   4.124   2.654   0.116
 1349SOL    HW2 4947   4.136   2.749   7.007
 1350SOL     OW 4948   3.254   6.342   6.895
 1350SOL    HW1 4949   3.182   6.298   6.949
 1350SOL    HW2 4950   3.338   6.347   6.949
 1351SOL     OW 4951   0.290   0.836   4.575
 1351SOL    HW1 4952   0.259   0.770   4.507
 1351SOL    HW2 4953   0.218   0.905   4.590
 1352SOL     OW 4954   6.679   0.871   3.019
 1352SOL    HW1 4955   6.593   0.825   3.042
 1352SOL    HW2 4956   6.710   0.925   3.098
 1353SOL     OW 4957   0.108   4.284   5.174
 1353SOL    HW1 4958   0.026   4.298   5.119
 1353SOL    HW2 4959   0.102   4.197   5.222
 1354SOL     OW 4960   0.458   0.660   1.535
 1354SOL    HW1 4961   0.422   0.599   1.464
 1354SOL    HW2 4962   0.489   0.606   1.613
 1355SOL     OW 4963   5.415   4.004   7.014
 1355SOL    HW1 4964   5.357   4.045   6.943
 1355SOL    HW2 4965   5.402   3.905   7.014
 1356SOL     OW 4966   3.433   3.830   2.507
 1356SOL    HW1 4967   3.393   3.779   2.431
 1356SOL    HW2 4968   3.453   3.923   2.477
 1357SOL     OW 4969   2.374   3.321   6.012
 1357SOL    HW1 4970   2.417   3.231   6.020
 1357SOL    HW2 4971   2.436   3.391   6.047
 1358SOL     OW 4972   2.276   2.680   6.673
 1358SOL    HW1 4973   2.316   2.755   6.619
 1358SOL    HW2 4974   2.216   2.718   6.743
 1359SOL     OW 4975   6.178   3.756   1.149
 1359SOL    HW1 4976   6.247   3.828   1.148
 1359SOL    HW2 4977   6.142   3.745   1.241
 1360SOL     OW 4978   3.597   3.571   3.015
 1360SOL    HW1 4979   3.523   3.633   3.036
 1360SOL    HW2 4980   3.663   3.569   3.090
 1361SOL     OW 4981   0.812   6.314   6.215
 1361SOL    HW1 4982   0.745   6.250   6.179
 1361SOL    HW2 4983   0.766   6.394   6.253
 1362SOL     OW 4984   2.945   3.459   5.840
 1362SOL    HW1 4985   2.925   3.362   5.849
 1362SOL    HW2 4986   2.878   3.502   5.779
 1363SOL     OW 4987   6.583   6.173   3.100
 1363SOL    HW1 4988   6.681   6.156   3.114
 1363SOL    HW2 4989   6.571   6.241   3.028
 1364SOL     OW 4990   6.734   3.236   0.884
 1364SOL    HW1 4991   6.718   3.165   0.953
 1364SOL    HW2 4992   6.664   3.307   0.893
 1365SOL     OW 4993   0.710   3.077   5.938
 1365SOL    HW1 4994   0.629   3.023   5.962
 1365SOL    HW2 4995   0.701   3.111   5.845
 1366SOL     OW 4996   6.853   2.670   0.778
 1366SOL    HW1 4997   6.860   2.769   0.766
 1366SOL    HW2 4998   6.772   2.649   0.833
 1367SOL     OW 4999   0.468   4.422   3.954
 1367SOL    HW1 5000   0.379   4.469   3.951
 1367SOL    HW2 5001   0.476   4.361   3.876
 1368SOL     OW 5002   6.850   0.315   4.275
 1368SOL    HW1 5003   6.858   0.219   4.250
 1368SOL    HW2 5004   6.808   0.366   4.200
 1369SOL     OW 5005   1.891   6.091   2.376
 1369SOL    HW1 5006   1.897   5.991   2.377
 1369SOL    HW2 5007   1.804   6.119   2.337
 1370SOL     OW 5008   6.880   2.065   4.190
 1370SOL    HW1 5009   6.834   2.067   4.101
 1370SOL    HW2 5010   6.973   2.102   4.179
 1371SOL     OW 5011   5.514   1.310   4.411
 1371SOL    HW1 5012   5.444   1.356   4.465
 1371SOL    HW2 5013   5.604   1.349   4.433
 1372SOL     OW 5014   6.662   2.876   0.379
 1372SOL    HW1 5015   6.664   2.809   0.305
 1372SOL    HW2 5016   6.619   2.835   0.460
 1373SOL     OW 5017   4.518   2.847   1.648
 1373SOL    HW1 5018   4.542   2.893   1.734
 1373SOL    HW2 5019   4.599   2.841   1.590
 1374SOL     OW 5020   5.017   3.371   0.213
 1374SOL    HW1 5021   4.975   3.415   0.293
 1374SOL    HW2 5022   5.115   3.389   0.213
 1375SOL     OW 5023   6.497   6.121   5.372
 1375SOL    HW1 5024   6.492   6.067   5.456
 1375SOL    HW2 5025   6.536   6.211   5.393
 1376SOL     OW 5026   2.950   4.983   6.056
 1376SOL    HW1 5027   2.863   4.995   6.009
 1376SOL    HW2 5028   2.934   4.935   6.142
 1377SOL     OW 5029   1.257   2.599   3.346
 1377SOL    HW1 5030   1.271   2.686   3.299
 1377SOL    HW2 5031   1.300   2.602   3.436
 1378SOL     OW 5032   3.854   2.021   4.715
 1378SOL    HW1 5033   3.792   2.098   4.695
 1378SOL    HW2 5034   3.833   1.946   4.653
 1379SOL     OW 5035   5.246   5.150   1.382
 1379SOL    HW1 5036   5.317   5.101   1.432
 1379SOL    HW2 5037   5.166   5.161   1.440
 1380SOL     OW 5038   6.647   6.012   1.698
 1380SOL    HW1 5039   6.665   6.079   1.770
 1380SOL    HW2 5040   6.672   5.920   1.731
 1381SOL     OW 5041   6.256   2.161   5.806
 1381SOL    HW1 5042   6.174   2.104   5.804
 1381SOL    HW2 5043   6.319   2.131   5.734
 1382SOL     OW 5044   4.432   2.408   1.514
 1382SOL    HW1 5045   4.467   2.325   1.556
 1382SOL    HW2 5046   4.375   2.385   1.435
 1383SOL     OW 5047   1.454   0.549   2.039
 1383SOL    HW1 5048   1.549   0.580   2.047
 1383SOL    HW2 5049   1.447   0.456   2.076
 1384SOL     OW 5050   5.358   0.568   0.309
 1384SOL    HW1 5051   5.319   0.482   0.341
 1384SOL    HW2 5052   5.446   0.551   0.266
 1385SOL     OW 5053   1.617   5.139   3.697
 1385SOL    HW1 5054   1.609   5.178   3.789
 1385SOL    HW2 5055   1.684   5.191   3.644
 1386SOL     OW 5056   2.745   6.295   4.143
 1386SOL    HW1 5057   2.806   6.216   4.150
 1386SOL    HW2 5058   2.651   6.267   4.162
 1387SOL     OW 5059   3.704   5.492   1.611
 1387SOL    HW1 5060   3.685   5.576   1.559
 1387SOL    HW2 5061   3.625   5.470   1.668
 1388SOL     OW 5062   5.914   0.652   1.666
 1388SOL    HW1 5063   5.979   0.643   1.590
 1388SOL    HW2 5064   5.934   0.735   1.717
 1389SOL     OW 5065   6.593   1.503   3.078
 1389SOL    HW1 5066   6.508   1.554   3.089
 1389SOL    HW2 5067   6.651   1.518   3.158
 1390SOL     OW 5068   1.063   3.370   6.380
 1390SOL    HW1 5069   0.971   3.365   6.340
 1390SOL    HW2 5070   1.110   3.283   6.368
 1391SOL     OW 5071   6.896   1.733   3.968
 1391SOL    HW1 5072   6.839   1.731   4.050
 1391SOL    HW2 5073   6.991   1.751   3.994
 1392SOL     OW 5074   5.371   4.940   5.661
 1392SOL    HW1 5075   5.364   4.929   5.760
 1392SOL    HW2 5076   5.310   5.013   5.631
 1393SOL     OW 5077   5.932   5.938   5.412
 1393SOL    HW1 5078   6.000   5.885   5.464
 1393SOL    HW2 5079   5.979   6.005   5.355
 1394SOL     OW 5080   2.970   6.020   5.388
 1394SOL    HW1 5081   2.908   6.098   5.398
 1394SOL    HW2 5082   2.937   5.945   5.446
 1395SOL     OW 5083   3.075   4.404   5.803
 1395SOL    HW1 5084   2.985   4.427   5.839
 1395SOL    HW2 5085   3.126   4.353   5.872
 1396SOL     OW 5086   0.802   0.063   3.902
 1396SOL    HW1 5087   0.738   0.017   3.840
 1396SOL    HW2 5088   0.766   0.153   3.926
 1397SOL     OW 5089   6.199   0.541   4.640
 1397SOL    HW1 5090   6.290   0.502   4.626
 1397SOL    HW2 5091   6.191   0.575   4.733
 1398SOL     OW 5092   1.402   0.846   4.714
 1398SOL    HW1 5093   1.501   0.842   4.709
 1398SOL    HW2 5094   1.367   0.771   4.770
 1399SOL     OW 5095   3.591   6.544   1.412
 1399SOL    HW1 5096   3.603   6.531   1.314
 1399SOL    HW2 5097   3.578   6.455   1.456
 1400SOL     OW 5098   0.107   1.726   3.128
 1400SOL    HW1 5099   0.121   1.793   3.202
 1400SOL    HW2 5100   0.192   1.716   3.076
 1401SOL     OW 5101   0.663   1.717   5.130
 1401SOL    HW1 5102   0.594   1.646   5.145
 1401SOL    HW2 5103   0.632   1.803   5.172
 1402SOL     OW 5104   6.739   3.541   6.741
 1402SOL    HW1 5105   6.697   3.621   6.784
 1402SOL    HW2 5106   6.839   3.550   6.745
 1403SOL     OW 5107   3.501   0.880   1.987
 1403SOL    HW1 5108   3.556   0.799   1.966
 1403SOL    HW2 5109   3.516   0.906   2.083
 1404SOL     OW 5110   5.452   0.288   0.419
 1404SOL    HW1 5111   5.539   0.326   0.448
 1404SOL    HW2 5112   5.377   0.344   0.455
 1405SOL     OW 5113   2.175   4.007   1.027
 1405SOL    HW1 5114   2.097   3.980   1.084
 1405SOL    HW2 5115   2.199   3.931   0.966
 1406SOL     OW 5116   1.360   5.228   1.607
 1406SOL    HW1 5117   1.457   5.205   1.599
 1406SOL    HW2 5118   1.315   5.161   1.666
 1407SOL     OW 5119   0.191   1.427   2.150
 1407SOL    HW1 5120   0.290   1.438   2.135
 1407SOL    HW2 5121   0.142   1.453   2.066
 1408SOL     OW 5122   5.274   0.499   5.979
 1408SOL    HW1 5123   5.178   0.520   5.958
 1408SOL    HW2 5124   5.307   0.561   6.049
 1409SOL     OW 5125   0.540   0.067   5.289
 1409SOL    HW1 5126   0.630   0.065   5.334
 1409SOL    HW2 5127   0.549   0.108   5.198
 1410SOL     OW 5128   1.964   3.538   6.305
 1410SOL    HW1 5129   1.955   3.638   6.309
 1410SOL    HW2 5130   1.948   3.507   6.212
 1411SOL     OW 5131   2.618   6.415   2.955
 1411SOL    HW1 5132   2.692   6.364   2.912
 1411SOL    HW2 5133   2.589   6.489   2.894
 1412SOL     OW 5134   0.585   2.468   6.913
 1412SOL    HW1 5135   0.640   2.399   6.960
 1412SOL    HW2 5136   0.497   2.477   6.959
 1413SOL     OW 5137   1.793   0.850   5.163
 1413SOL    HW1 5138   1.748   0.924   5.113
 1413SOL    HW2 5139   1.774   0.763   5.118
 1414SOL     OW 5140   2.711   1.063   1.532
 1414SOL    HW1 5141   2.778   1.057   1.458
 1414SOL    HW2 5142   2.688   1.159   1.549
 1415SOL     OW 5143   2.640   0.065   4.554
 1415SOL    HW1 5144   2.697   0.137   4.595
 1415SOL    HW2 5145   2.575   0.032   4.623
 1416SOL     OW 5146   4.591   4.603   3.462
 1416SOL    HW1 5147   4.591   4.511   3.501
 1416SOL    HW2 5148   4.536   4.603   3.378
 1417SOL     OW 5149   2.401   2.449   0.064
 1417SOL    HW1 5150   2.482   2.439   0.122
 1417SOL    HW2 5151   2.319   2.448   0.120
 1418SOL     OW 5152   3.098   3.121   3.336
 1418SOL    HW1 5153   3.185   3.081   3.363
 1418SOL    HW2 5154   3.031   3.049   3.320
 1419SOL     OW 5155   3.476   6.453   4.555
 1419SOL    HW1 5156   3.475   6.467   4.456
 1419SOL    HW2 5157   3.532   6.523   4.598
 1420SOL     OW 5158   1.646   6.378   1.783
 1420SOL    HW1 5159   1.658   6.407   1.878
 1420SOL    HW2 5160   1.611   6.284   1.781
 1421SOL     OW 5161   1.779   2.630   3.010
 1421SOL    HW1 5162   1.768   2.680   3.096
 1421SOL    HW2 5163   1.738   2.683   2.936
 1422SOL     OW 5164   2.489   4.603   1.818
 1422SOL    HW1 5165   2.467   4.605   1.720
 1422SOL    HW2 5166   2.582   4.567   1.830
 1423SOL     OW 5167   5.362   6.508   2.190
 1423SOL    HW1 5168   5.263   6.511   2.178
 1423SOL    HW2 5169   5.388   6.568   2.266
 1424SOL     OW 5170   5.921   4.615   4.719
 1424SOL    HW1 5171   5.889   4.540   4.776
 1424SOL    HW2 5172   5.846   4.680   4.704
 1425SOL     OW 5173   1.627   6.181   4.095
 1425SOL    HW1 5174   1.635   6.108   4.163
 1425SOL    HW2 5175   1.708   6.182   4.036
 1426SOL     OW 5176   1.153   2.602   5.667
 1426SOL    HW1 5177   1.129   2.699   5.670
 1426SOL    HW2 5178   1.191   2.573   5.755
 1427SOL     OW 5179   0.095   6.832   2.776
 1427SOL    HW1 5180   0.069   6.772   2.700
 1427SOL    HW2 5181   0.058   6.795   2.861
 1428SOL     OW 5182   5.318   2.297   1.117
 1428SOL    HW1 5183   5.374   2.293   1.035
 1428SOL    HW2 5184   5.369   2.259   1.194
 1429SOL     OW 5185   6.250   1.943   0.454
 1429SOL    HW1 5186   6.157   1.908   0.443
 1429SOL    HW2 5187   6.315   1.866   0.455
 1430SOL     OW 5188   1.639   4.164   3.783
 1430SOL    HW1 5189   1.576   4.094   3.817
 1430SOL    HW2 5190   1.686   4.131   3.701
 1431SOL     OW 5191   2.405   2.192   1.360
 1431SOL    HW1 5192   2.338   2.118   1.369
 1431SOL    HW2 5193   2.371   2.273   1.409
 1432SOL     OW 5194   2.777   1.650   3.609
 1432SOL    HW1 5195   2.865   1.630   3.653
 1432SOL    HW2 5196   2.718   1.697   3.674
 1433SOL     OW 5197   4.444   1.471   4.433
 1433SOL    HW1 5198   4.377   1.401   4.459
 1433SOL    HW2 5199   4.401   1.561   4.435
 1434SOL     OW 5200   6.674   0.966   5.412
 1434SOL    HW1 5201   6.621   0.996   5.333
 1434SOL    HW2 5202   6.721   0.880   5.392
 1435SOL     OW 5203   6.019   0.950   2.393
 1435SOL    HW1 5204   6.119   0.953   2.404
 1435SOL    HW2 5205   5.977   1.019   2.452
 1436SOL     OW 5206   5.105   3.885   0.036
 1436SOL    HW1 5207   5.071   3.794   0.015
 1436SOL    HW2 5208   5.048   3.953   7.012
 1437SOL     OW 5209   2.335   2.495   3.993
 1437SOL    HW1 5210   2.351   2.540   3.905
 1437SOL    HW2 5211   2.279   2.413   3.978
 1438SOL     OW 5212   3.429   6.263   1.169
 1438SOL    HW1 5213   3.437   6.174   1.215
 1438SOL    HW2 5214   3.520   6.299   1.151
 1439SOL     OW 5215   6.809   5.907   2.098
 1439SOL    HW1 5216   6.804   5.887   2.000
 1439SOL    HW2 5217   6.730   5.865   2.144
 1440SOL     OW 5218   3.056   3.785   1.317
 1440SOL    HW1 5219   3.125   3.734   1.265
 1440SOL    HW2 5220   2.983   3.723   1.345
 1441SOL     OW 5221   6.313   0.746   2.272
 1441SOL    HW1 5222   6.387   0.765   2.208
 1441SOL    HW2 5223   6.314   0.814   2.346
 1442SOL     OW 5224   6.581   6.013   0.187
 1442SOL    HW1 5225   6.549   6.093   0.136
 1442SOL    HW2 5226   6.502   5.956   0.211
 1443SOL     OW 5227   0.304   2.546   2.335
 1443SOL    HW1 5228   0.402   2.532   2.324
 1443SOL    HW2 5229   0.285   2.587   2.424
 1444SOL     OW 5230   5.137   0.043   0.858
 1444SOL    HW1 5231   5.098   0.003   0.775
 1444SOL    HW2 5232   5.188   6.996   0.908
 1445SOL     OW 5233   0.797   3.090   2.754
 1445SOL    HW1 5234   0.801   3.110   2.852
 1445SOL    HW2 5235   0.867   3.022   2.731
 1446SOL     OW 5236   6.857   0.432   0.160
 1446SOL    HW1 5237   6.926   0.370   0.121
 1446SOL    HW2 5238   6.772   0.423   0.109
 1447SOL     OW 5239   5.548   5.158   3.352
 1447SOL    HW1 5240   5.569   5.135   3.257
 1447SOL    HW2 5241   5.633   5.166   3.404
 1448SOL     OW 5242   6.811   2.546   4.698
 1448SOL    HW1 5243   6.791   2.595   4.783
 1448SOL    HW2 5244   6.868   2.603   4.639
 1449SOL     OW 5245   1.260   3.826   5.668
 1449SOL    HW1 5246   1.182   3.783   5.621
 1449SOL    HW2 5247   1.231   3.914   5.706
 1450SOL     OW 5248   0.816   2.811   5.931
 1450SOL    HW1 5249   0.811   2.911   5.932
 1450SOL    HW2 5250   0.726   2.773   5.956
 1451SOL     OW 5251   1.085   6.031   2.150
 1451SOL    HW1 5252   1.097   6.130   2.159
 1451SOL    HW2 5253   1.148   5.996   2.080
 1452SOL     OW 5254   4.729   2.581   5.452
 1452SOL    HW1 5255   4.650   2.543   5.500
 1452SOL    HW2 5256   4.730   2.680   5.465
 1453SOL     OW 5257   0.646   4.458   5.265
 1453SOL    HW1 5258   0.694   4.438   5.350
 1453SOL    HW2 5259   0.698   4.421   5.188
 1454SOL     OW 5260   2.209   1.895   3.081
 1454SOL    HW1 5261   2.300   1.888   3.041
 1454SOL    HW2 5262   2.189   1.812   3.133
 1455SOL     OW 5263   1.460   6.177   2.526
 1455SOL    HW1 5264   1.362   6.170   2.541
 1455SOL    HW2 5265   1.497   6.087   2.503
 1456SOL     OW 5266   6.532   6.403   6.297
 1456SOL    HW1 5267   6.472   6.326   6.321
 1456SOL    HW2 5268   6.583   6.382   6.214
 1457SOL     OW 5269   0.870   4.457   0.767
 1457SOL    HW1 5270   0.859   4.557   0.765
 1457SOL    HW2 5271   0.912   4.426   0.682
 1458SOL     OW 5272   5.360   4.866   5.022
 1458SOL    HW1 5273   5.447   4.916   5.025
 1458SOL    HW2 5274   5.310   4.880   5.107
 1459SOL     OW 5275   4.384   6.506   6.008
 1459SOL    HW1 5276   4.300   6.556   5.988
 1459SOL    HW2 5277   4.361   6.424   6.061
 1460SOL     OW 5278   1.468   6.788   4.926
 1460SOL    HW1 5279   1.466   6.785   4.826
 1460SOL    HW2 5280   1.506   6.876   4.956
 1461SOL     OW 5281   0.318   3.640   3.132
 1461SOL    HW1 5282   0.305   3.605   3.225
 1461SOL    HW2 5283   0.413   3.667   3.119
 1462SOL     OW 5284   0.991   1.134   6.620
 1462SOL    HW1 5285   1.067   1.098   6.674
 1462SOL    HW2 5286   0.905   1.113   6.666
 1463SOL     OW 5287   1.488   5.057   5.717
 1463SOL    HW1 5288   1.441   5.038   5.631
 1463SOL    HW2 5289   1.490   4.973   5.773
 1464SOL     OW 5290   6.964   4.014   3.517
 1464SOL    HW1 5291   6.943   4.031   3.421
 1464SOL    HW2 5292   0.038   3.992   3.526
 1465SOL     OW 5293   1.541   2.035   4.132
 1465SOL    HW1 5294   1.593   1.950   4.142
 1465SOL    HW2 5295   1.546   2.088   4.216
 1466SOL     OW 5296   4.021   2.099   2.161
 1466SOL    HW1 5297   3.958   2.051   2.100
 1466SOL    HW2 5298   3.980   2.104   2.252
 1467SOL     OW 5299   2.072   1.513   4.357
 1467SOL    HW1 5300   2.079   1.609   4.384
 1467SOL    HW2 5301   1.977   1.483   4.366
 1468SOL     OW 5302   1.986   5.476   1.685
 1468SOL    HW1 5303   1.911   5.519   1.735
 1468SOL    HW2 5304   1.953   5.392   1.642
 1469SOL     OW 5305   6.846   6.075   3.038
 1469SOL    HW1 5306   6.935   6.067   2.993
 1469SOL    HW2 5307   6.782   6.011   2.996
 1470SOL     OW 5308   7.010   2.730   1.038
 1470SOL    HW1 5309   6.980   2.797   0.971
 1470SOL    HW2 5310   6.981   2.639   1.010
 1471SOL     OW 5311   0.774   0.079   0.700
 1471SOL    HW1 5312   0.759   0.009   0.631
 1471SOL    HW2 5313   0.761   0.170   0.659
 1472SOL     OW 5314   2.444   6.297   6.654
 1472SOL    HW1 5315   2.498   6.381   6.640
 1472SOL    HW2 5316   2.386   6.308   6.734
 1473SOL     OW 5317   2.869   5.452   4.761
 1473SOL    HW1 5318   2.903   5.405   4.843
 1473SOL    HW2 5319   2.806   5.525   4.788
 1474SOL     OW 5320   4.076   4.951   1.661
 1474SOL    HW1 5321   4.043   4.995   1.578
 1474SOL    HW2 5322   4.175   4.938   1.654
 1475SOL     OW 5323   5.146   1.140   0.191
 1475SOL    HW1 5324   5.094   1.119   0.108
 1475SOL    HW2 5325   5.227   1.081   0.195
 1476SOL     OW 5326   2.911   1.055   1.325
 1476SOL    HW1 5327   2.895   1.103   1.240
 1476SOL    HW2 5328   3.009   1.059   1.348
 1477SOL     OW 5329   4.067   0.301   0.549
 1477SOL    HW1 5330   4.141   0.298   0.481
 1477SOL    HW2 5331   4.026   0.211   0.558
 1478SOL     OW 5332   5.854   6.486   5.340
 1478SOL    HW1 5333   5.813   6.555   5.400
 1478SOL    HW2 5334   5.835   6.395   5.375
 1479SOL     OW 5335   3.701   3.747   1.984
 1479SOL    HW1 5336   3.647   3.679   1.934
 1479SOL    HW2 5337   3.723   3.823   1.923
 1480SOL     OW 5338   2.245   6.818   6.311
 1480SOL    HW1 5339   2.177   6.776   6.372
 1480SOL    HW2 5340   2.241   6.918   6.321
 1481SOL     OW 5341   5.651   2.398   5.829
 1481SOL    HW1 5342   5.611   2.351   5.907
 1481SOL    HW2 5343   5.679   2.331   5.760
 1482SOL     OW 5344   4.563   0.573   0.738
 1482SOL    HW1 5345   4.558   0.479   0.704
 1482SOL    HW2 5346   4.584   0.635   0.663
 1483SOL     OW 5347   5.209   1.801   5.381
 1483SOL    HW1 5348   5.211   1.880   5.442
 1483SOL    HW2 5349   5.158   1.824   5.298
 1484SOL     OW 5350   3.417   5.215   4.025
 1484SOL    HW1 5351   3.404   5.135   3.966
 1484SOL    HW2 5352   3.457   5.290   3.972
 1485SOL     OW 5353   4.946   0.921   3.676
 1485SOL    HW1 5354   4.881   0.932   3.601
 1485SOL    HW2 5355   5.033   0.964   3.651
 1486SOL     OW 5356   4.591   6.804   3.664
 1486SOL    HW1 5357   4.552   6.866   3.597
 1486SOL    HW2 5358   4.520   6.772   3.726
 1487SOL     OW 5359   0.472   0.772   6.851
 1487SOL    HW1 5360   0.432   0.709   6.785
 1487SOL    HW2 5361   0.402   0.834   6.885
 1488SOL     OW 5362   5.981   1.064   2.885
 1488SOL    HW1 5363   6.006   1.037   2.978
 1488SOL    HW2 5364   6.063   1.092   2.835
 1489SOL     OW 5365   3.687   4.917   6.876
 1489SOL    HW1 5366   3.619   4.980   6.836
 1489SOL    HW2 5367   3.768   4.969   6.902
 1490SOL     OW 5368   0.421   3.022   1.123
 1490SOL    HW1 5369   0.402   2.960   1.047
 1490SOL    HW2 5370   0.520   3.024   1.140
 1491SOL     OW 5371   6.714   3.882   2.103
 1491SOL    HW1 5372   6.743   3.956   2.042
 1491SOL    HW2 5373   6.771   3.882   2.185
 1492SOL     OW 5374   6.871   0.469   2.093
 1492SOL    HW1 5375   6.935   0.513   2.155
 1492SOL    HW2 5376   6.778   0.502   2.112
 1493SOL     OW 5377   4.097   0.884   6.406
 1493SOL    HW1 5378   4.073   0.981   6.395
 1493SOL    HW2 5379   4.044   0.846   6.482
 1494SOL     OW 5380   5.798   2.381   6.518
 1494SOL    HW1 5381   5.726   2.336   6.572
 1494SOL    HW2 5382   5.757   2.450   6.458
 1495SOL     OW 5383   6.662   3.594   3.461
 1495SOL    HW1 5384   6.721   3.663   3.418
 1495SOL    HW2 5385   6.583   3.639   3.503
 1496SOL     OW 5386   0.028   0.237   0.070
 1496SOL    HW1 5387   0.052   0.165   0.134
 1496SOL    HW2 5388   0.106   0.298   0.056
 1497SOL     OW 5389   4.997   2.720   2.565
 1497SOL    HW1 5390   4.969   2.780   2.490
 1497SOL    HW2 5391   4.924   2.715   2.633
 1498SOL     OW 5392   2.649   4.758   1.182
 1498SOL    HW1 5393   2.725   4.749   1.245
 1498SOL    HW2 5394   2.682   4.755   1.088
 1499SOL     OW 5395   0.753   3.549   5.624
 1499SOL    HW1 5396   0.803   3.611   5.684
 1499SOL    HW2 5397   0.668   3.520   5.669
 1500SOL     OW 5398   1.237   6.197   0.068
 1500SOL    HW1 5399   1.228   6.215   6.993
 1500SOL    HW2 5400   1.146   6.188   0.108
 1501SOL     OW 5401   6.016   1.955   6.970
 1501SOL    HW1 5402   6.065   1.907   6.898
 1501SOL    HW2 5403   5.937   1.900   6.999
 1502SOL     OW 5404   5.765   1.456   6.297
 1502SOL    HW1 5405   5.837   1.517   6.263
 1502SOL    HW2 5406   5.702   1.509   6.355
 1503SOL     OW 5407   1.104   2.860   2.678
 1503SOL    HW1 5408   1.146   2.777   2.715
 1503SOL    HW2 5409   1.010   2.839   2.648
 1504SOL     OW 5410   0.660   7.004   3.685
 1504SOL    HW1 5411   0.600   0.059   3.699
 1504SOL    HW2 5412   0.644   6.965   3.595
 1505SOL     OW 5413   5.847   6.229   5.417
 1505SOL    HW1 5414   5.940   6.201   5.439
 1505SOL    HW2 5415   5.791   6.229   5.501
 1506SOL     OW 5416   1.165   0.330   0.830
 1506SOL    HW1 5417   1.095   0.363   0.894
 1506SOL    HW2 5418   1.129   0.252   0.778
 1507SOL     OW 5419   0.944   1.363   4.542
 1507SOL    HW1 5420   0.949   1.456   4.579
 1507SOL    HW2 5421   0.877   1.310   4.595
 1508SOL     OW 5422   1.031   1.634   0.665
 1508SOL    HW1 5423   1.056   1.602   0.757
 1508SOL    HW2 5424   0.948   1.690   0.671
 1509SOL     OW 5425   5.161   1.398   5.109
 1509SOL    HW1 5426   5.068   1.425   5.133
 1509SOL    HW2 5427   5.163   1.300   5.089
 1510SOL     OW 5428   4.397   6.978   4.174
 1510SOL    HW1 5429   4.438   0.036   4.215
 1510SOL    HW2 5430   4.448   6.953   4.092
 1511SOL     OW 5431   3.109   3.993   4.199
 1511SOL    HW1 5432   3.120   4.022   4.104
 1511SOL    HW2 5433   3.194   4.011   4.250
 1512SOL     OW 5434   5.895   5.511   1.083
 1512SOL    HW1 5435   5.817   5.573   1.088
 1512SOL    HW2 5436   5.879   5.443   1.011
 1513SOL     OW 5437   3.168   6.952   5.257
 1513SOL    HW1 5438   3.113   6.964   5.340
 1513SOL    HW2 5439   3.179   6.855   5.238
 1514SOL     OW 5440   3.447   2.631   5.328
 1514SOL    HW1 5441   3.429   2.650   5.424
 1514SOL    HW2 5442   3.501   2.704   5.289
 1515SOL     OW 5443   6.711   1.892   2.321
 1515SOL    HW1 5444   6.660   1.839   2.389
 1515SOL    HW2 5445   6.762   1.964   2.367
 1516SOL     OW 5446   5.833   5.587   5.116
 1516SOL    HW1 5447   5.752   5.600   5.059
 1516SOL    HW2 5448   5.822   5.639   5.201
 1517SOL     OW 5449   4.089   6.900   3.486
 1517SOL    HW1 5450   4.112   6.936   3.576
 1517SOL    HW2 5451   3.995   6.866   3.487
 1518SOL     OW 5452   6.223   2.921   0.366
 1518SOL    HW1 5453   6.202   2.848   0.431
 1518SOL    HW2 5454   6.315   2.956   0.384
 1519SOL     OW 5455   0.279   5.236   0.936
 1519SOL    HW1 5456   0.297   5.164   1.003
 1519SOL    HW2 5457   0.215   5.202   0.867
 1520SOL     OW 5458   0.531   4.601   1.420
 1520SOL    HW1 5459   0.524   4.608   1.321
 1520SOL    HW2 5460   0.467   4.664   1.463
 1521SOL     OW 5461   2.377   4.784   0.455
 1521SOL    HW1 5462   2.325   4.705   0.424
 1521SOL    HW2 5463   2.344   4.813   0.545
 1522SOL     OW 5464   5.265   5.563   4.203
 1522SOL    HW1 5465   5.349   5.553   4.256
 1522SOL    HW2 5466   5.186   5.542   4.262
 1523SOL     OW 5467   3.563   0.165   6.859
 1523SOL    HW1 5468   3.598   0.139   6.769
 1523SOL    HW2 5469   3.639   0.191   6.918
 1524SOL     OW 5470   2.738   2.277   2.462
 1524SOL    HW1 5471   2.760   2.180   2.453
 1524SOL    HW2 5472   2.734   2.319   2.372
 1525SOL     OW 5473   6.070   2.989   1.046
 1525SOL    HW1 5474   6.127   2.978   1.128
 1525SOL    HW2 5475   6.054   3.087   1.031
 1526SOL     OW 5476   0.560   1.166   0.170
 1526SOL    HW1 5477   0.582   1.219   0.088
 1526SOL    HW2 5478   0.533   1.228   0.244
 1527SOL     OW 5479   3.990   1.217   4.646
 1527SOL    HW1 5480   3.899   1.255   4.628
 1527SOL    HW2 5481   4.022   1.168   4.565
 1528SOL     OW 5482   4.231   5.033   1.031
 1528SOL    HW1 5483   4.256   4.986   1.115
 1528SOL    HW2 5484   4.238   5.132   1.044
 1529SOL     OW 5485   5.091   1.357   0.017
 1529SOL    HW1 5486   5.163   1.384   0.082
 1529SOL    HW2 5487   5.004   1.351   0.065
 1530SOL     OW 5488   3.586   0.598   1.589
 1530SOL    HW1 5489   3.675   0.643   1.575
 1530SOL    HW2 5490   3.593   0.537   1.668
 1531SOL     OW 5491   4.321   0.372   4.508
 1531SOL    HW1 5492   4.353   0.291   4.459
 1531SOL    HW2 5493   4.287   0.346   4.598
 1532SOL     OW 5494   3.573   4.668   5.856
 1532SOL    HW1 5495   3.668   4.639   5.870
 1532SOL    HW2 5496   3.536   4.623   5.775
 1533SOL     OW 5497   5.701   5.906   0.604
 1533SOL    HW1 5498   5.613   5.903   0.651
 1533SOL    HW2 5499   5.772   5.934   0.669
 1534SOL     OW 5500   3.862   5.531   6.923
 1534SOL    HW1 5501   3.910   5.609   6.884
 1534SOL    HW2 5502   3.782   5.510   6.867
 1535SOL     OW 5503   5.792   6.015   4.581
 1535SOL    HW1 5504   5.869   6.007   4.518
 1535SOL    HW2 5505   5.741   5.929   4.582
 1536SOL     OW 5506   4.374   4.930   0.282
 1536SOL    HW1 5507   4.333   5.001   0.339
 1536SOL    HW2 5508   4.302   4.874   0.241
 1537SOL     OW 5509   3.978   5.839   3.905
 1537SOL    HW1 5510   3.918   5.878   3.836
 1537SOL    HW2 5511   3.959   5.741   3.914
 1538SOL     OW 5512   3.373   1.144   0.037
 1538SOL    HW1 5513   3.453   1.170   7.005
 1538SOL    HW2 5514   3.307   1.096   7.002
 1539SOL     OW 5515   4.877   3.286   1.932
 1539SOL    HW1 5516   4.829   3.199   1.942
 1539SOL    HW2 5517   4.913   3.315   2.020
 1540SOL     OW 5518   1.126   6.939   5.086
 1540SOL    HW1 5519   1.038   6.969   5.049
 1540SOL    HW2 5520   1.199   6.999   5.052
 1541SOL     OW 5521   3.560   3.229   4.326
 1541SOL    HW1 5522   3.506   3.309   4.353
 1541SOL    HW2 5523   3.643   3.259   4.280
 1542SOL     OW 5524   6.420   6.959   2.128
 1542SOL    HW1 5525   6.341   6.961   2.068
 1542SOL    HW2 5526   6.497   7.006   2.084
 1543SOL     OW 5527   3.744   5.316   6.367
 1543SOL    HW1 5528   3.689   5.254   6.310
 1543SOL    HW2 5529   3.768   5.398   6.315
 1544SOL     OW 5530   3.232   3.745   3.856
 1544SOL    HW1 5531   3.137   3.714   3.855
 1544SOL    HW2 5532   3.290   3.673   3.893
 1545SOL     OW 5533   6.282   0.935   2.486
 1545SOL    HW1 5534   6.258   1.005   2.554
 1545SOL    HW2 5535   6.376   0.904   2.501
 1546SOL     OW 5536   5.540   5.721   6.025
 1546SOL    HW1 5537   5.474   5.774   6.079
 1546SOL    HW2 5538   5.538   5.753   5.930
 1547SOL     OW 5539   1.842   3.862   1.034
 1547SOL    HW1 5540   1.903   3.875   1.113
 1547SOL    HW2 5541   1.833   3.765   1.014
 1548SOL     OW 5542   6.240   3.820   0.249
 1548SOL    HW1 5543   6.233   3.857   0.157
 1548SOL    HW2 5544   6.150   3.791   0.281
 1549SOL     OW 5545   4.091   1.680   3.812
 1549SOL    HW1 5546   4.028   1.607   3.841
 1549SOL    HW2 5547   4.180   1.665   3.855
 1550SOL     OW 5548   3.259   3.050   1.601
 1550SOL    HW1 5549   3.324   3.091   1.665
 1550SOL    HW2 5550   3.214   2.973   1.645
 1551SOL     OW 5551   1.271   5.249   0.143
 1551SOL    HW1 5552   1.218   5.325   0.105
 1551SOL    HW2 5553   1.363   5.250   0.104
 1552SOL     OW 5554   2.514   4.938   0.852
 1552SOL    HW1 5555   2.427   4.889   0.843
 1552SOL    HW2 5556   2.578   4.881   0.904
 1553SOL     OW 5557   0.170   1.307   6.296
 1553SOL    HW1 5558   0.174   1.358   6.210
 1553SOL    HW2 5559   0.087   1.251   6.298
 1554SOL     OW 5560   2.863   2.059   3.965
 1554SOL    HW1 5561   2.806   2.013   4.033
 1554SOL    HW2 5562   2.827   2.041   3.874
 1555SOL     OW 5563   5.903   3.308   6.670
 1555SOL    HW1 5564   5.897   3.328   6.572
 1555SOL    HW2 5565   5.832   3.359   6.719
 1556SOL     OW 5566   1.675   0.965   6.235
 1556SOL    HW1 5567   1.703   0.875   6.269
 1556SOL    HW2 5568   1.738   0.994   6.163
 1557SOL     OW 5569   1.856   4.134   6.009
 1557SOL    HW1 5570   1.798   4.160   6.087
 1557SOL    HW2 5571   1.801   4.082   5.943
 1558SOL     OW 5572   6.287   0.542   4.348
 1558SOL    HW1 5573   6.231   0.592   4.414
 1558SOL    HW2 5574   6.274   0.581   4.257
 1559SOL     OW 5575   1.352   3.363   6.644
 1559SOL    HW1 5576   1.435   3.416   6.625
 1559SOL    HW2 5577   1.348   3.284   6.582
 1560SOL     OW 5578   0.193   0.509   6.846
 1560SOL    HW1 5579   0.095   0.492   6.832
 1560SOL    HW2 5580   0.227   0.568   6.773
 1561SOL     OW 5581   4.748   6.217   3.426
 1561SOL    HW1 5582   4.778   6.264   3.509
 1561SOL    HW2 5583   4.648   6.218   3.422
 1562SOL     OW 5584   4.547   6.180   2.270
 1562SOL    HW1 5585   4.597   6.095   2.257
 1562SOL    HW2 5586   4.598   6.255   2.226
 1563SOL     OW 5587   3.254   0.634   5.794
 1563SOL    HW1 5588   3.303   0.721   5.786
 1563SOL    HW2 5589   3.274   0.577   5.714
 1564SOL     OW 5590   1.475   0.600   2.911
 1564SOL    HW1 5591   1.391   0.649   2.934
 1564SOL    HW2 5592   1.518   0.565   2.994
 1565SOL     OW 5593   4.745   4.197   2.800
 1565SOL    HW1 5594   4.826   4.154   2.760
 1565SOL    HW2 5595   4.759   4.211   2.898
 1566SOL     OW 5596   5.897   3.307   3.226
 1566SOL    HW1 5597   5.923   3.389   3.277
 1566SOL    HW2 5598   5.800   3.286   3.243
 1567SOL     OW 5599   5.669   6.054   0.109
 1567SOL    HW1 5600   5.669   6.148   0.142
 1567SOL    HW2 5601   5.725   6.047   0.027
 1568SOL     OW 5602   1.597   0.532   0.214
 1568SOL    HW1 5603   1.524   0.486   0.163
 1568SOL    HW2 5604   1.621   0.618   0.168
 1569SOL     OW 5605   4.730   6.018   3.751
 1569SOL    HW1 5606   4.691   6.013   3.659
 1569SOL    HW2 5607   4.828   6.035   3.745
 1570SOL     OW 5608   2.480   1.233   1.147
 1570SOL    HW1 5609   2.402   1.290   1.172
 1570SOL    HW2 5610   2.558   1.254   1.206
 1571SOL     OW 5611   6.042   3.509   0.849
 1571SOL    HW1 5612   5.970   3.441   0.835
 1571SOL    HW2 5613   6.032   3.550   0.940
 1572SOL     OW 5614   0.161   0.329   2.934
 1572SOL    HW1 5615   0.062   0.319   2.935
 1572SOL    HW2 5616   0.199   0.278   2.857
 1573SOL     OW 5617   5.038   0.497   1.621
 1573SOL    HW1 5618   4.942   0.471   1.607
 1573SOL    HW2 5619   5.070   0.460   1.708
 1574SOL     OW 5620   0.483   2.283   1.460
 1574SOL    HW1 5621   0.557   2.283   1.528
 1574SOL    HW2 5622   0.490   2.200   1.404
 1575SOL     OW 5623   3.193   2.296   0.662
 1575SOL    HW1 5624   3.268   2.249   0.616
 1575SOL    HW2 5625   3.106   2.257   0.632
 1576SOL     OW 5626   5.601   5.823   3.822
 1576SOL    HW1 5627   5.598   5.823   3.922
 1576SOL    HW2 5628   5.677   5.880   3.791
 1577SOL     OW 5629   2.658   1.742   5.031
 1577SOL    HW1 5630   2.584   1.686   4.994
 1577SOL    HW2 5631   2.639   1.839   5.012
 1578SOL     OW 5632   5.633   3.309   5.584
 1578SOL    HW1 5633   5.716   3.357   5.555
 1578SOL    HW2 5634   5.637   3.214   5.551
 1579SOL     OW 5635   0.275   1.475   3.373
 1579SOL    HW1 5636   0.237   1.400   3.319
 1579SOL    HW2 5637   0.248   1.465   3.469
 1580SOL     OW 5638   2.643   4.071   5.354
 1580SOL    HW1 5639   2.595   4.047   5.270
 1580SOL    HW2 5640   2.718   4.006   5.370
 1581SOL     OW 5641   6.483   4.829   4.140
 1581SOL    HW1 5642   6.576   4.859   4.122
 1581SOL    HW2 5643   6.486   4.747   4.198
 1582SOL     OW 5644   0.811   4.995   4.489
 1582SOL    HW1 5645   0.875   4.962   4.419
 1582SOL    HW2 5646   0.722   4.950   4.477
 1583SOL     OW 5647   1.988   2.787   3.946
 1583SOL    HW1 5648   2.024   2.827   4.030
 1583SOL    HW2 5649   2.014   2.845   3.868
 1584SOL     OW 5650   2.123   6.805   5.285
 1584SOL    HW1 5651   2.148   6.800   5.382
 1584SOL    HW2 5652   2.177   6.740   5.233
 1585SOL     OW 5653   5.303   2.195   3.304
 1585SOL    HW1 5654   5.297   2.109   3.254
 1585SOL    HW2 5655   5.232   2.258   3.271
 1586SOL     OW 5656   4.128   3.856   1.920
 1586SOL    HW1 5657   4.129   3.774   1.863
 1586SOL    HW2 5658   4.176   3.930   1.873
 1587SOL     OW 5659   2.692   5.480   6.430
 1587SOL    HW1 5660   2.777   5.441   6.393
 1587SOL    HW2 5661   2.674   5.441   6.520
 1588SOL     OW 5662   4.817   1.485   2.888
 1588SOL    HW1 5663   4.851   1.454   2.799
 1588SOL    HW2 5664   4.895   1.499   2.950
 1589SOL     OW 5665   5.479   3.714   3.552
 1589SOL    HW1 5666   5.537   3.782   3.596
 1589SOL    HW2 5667   5.536   3.643   3.511
 1590SOL     OW 5668   1.823   6.421   6.928
 1590SOL    HW1 5669   1.866   6.345   6.977
 1590SOL    HW2 5670   1.731   6.393   6.898
 1591SOL     OW 5671   0.983   4.369   2.589
 1591SOL    HW1 5672   0.982   4.329   2.681
 1591SOL    HW2 5673   0.958   4.465   2.594
 1592SOL     OW 5674   3.125   3.211   1.437
 1592SOL    HW1 5675   3.082   3.284   1.489
 1592SOL    HW2 5676   3.186   3.158   1.497
 1593SOL     OW 5677   0.842   6.401   5.125
 1593SOL    HW1 5678   0.796   6.325   5.080
 1593SOL    HW2 5679   0.940   6.400   5.102
 1594SOL     OW 5680   0.174   5.216   3.118
 1594SOL    HW1 5681   0.213   5.177   3.035
 1594SOL    HW2 5682   0.188   5.152   3.194
 1595SOL     OW 5683   0.494   4.974   6.483
 1595SOL    HW1 5684   0.541   5.009   6.402
 1595SOL    HW2 5685   0.440   5.047   6.525
 1596SOL     OW 5686   1.506   4.264   5.303
 1596SOL    HW1 5687   1.539   4.184   5.253
 1596SOL    HW2 5688   1.541   4.261   5.397
 1597SOL     OW 5689   2.379   6.139   0.933
 1597SOL    HW1 5690   2.341   6.073   0.868
 1597SOL    HW2 5691   2.345   6.120   1.025
 1598SOL     OW 5692   1.052   4.009   0.354
 1598SOL    HW1 5693   0.998   3.986   0.273
 1598SOL    HW2 5694   1.080   4.105   0.349
 1599SOL     OW 5695   4.289   4.262   6.293
 1599SOL    HW1 5696   4.329   4.210   6.217
 1599SOL    HW2 5697   4.285   4.204   6.375
 1600SOL     OW 5698   5.404   1.577   4.902
 1600SOL    HW1 5699   5.426   1.593   4.999
 1600SOL    HW2 5700   5.324   1.517   4.895
 1601SOL     OW 5701   2.216   4.678   4.713
 1601SOL    HW1 5702   2.275   4.598   4.728
 1601SOL    HW2 5703   2.122   4.648   4.697
 1602SOL     OW 5704   1.544   5.815   3.275
 1602SOL    HW1 5705   1.517   5.784   3.366
 1602SOL    HW2 5706   1.511   5.750   3.206
 1603SOL     OW 5707   1.522   6.664   1.929
 1603SOL    HW1 5708   1.431   6.676   1.970
 1603SOL    HW2 5709   1.566   6.584   1.970
 1604SOL     OW 5710   5.878   5.230   6.696
 1604SOL    HW1 5711   5.875   5.167   6.774
 1604SOL    HW2 5712   5.897   5.178   6.612
 1605SOL     OW 5713   6.616   0.085   2.707
 1605SOL    HW1 5714   6.531   0.135   2.692
 1605SOL    HW2 5715   6.632   0.022   2.631
 1606SOL     OW 5716   4.458   0.192   5.523
 1606SOL    HW1 5717   4.529   0.261   5.512
 1606SOL    HW2 5718   4.372   0.225   5.485
 1607SOL     OW 5719   4.492   2.472   0.909
 1607SOL    HW1 5720   4.568   2.412   0.934
 1607SOL    HW2 5721   4.451   2.510   0.992
 1608SOL     OW 5722   1.875   6.858   6.452
 1608SOL    HW1 5723   1.927   6.836   6.369
 1608SOL    HW2 5724   1.778   6.842   6.436
 1609SOL     OW 5725   6.463   2.491   6.398
 1609SOL    HW1 5726   6.544   2.448   6.358
 1609SOL    HW2 5727   6.400   2.420   6.429
 1610SOL     OW 5728   5.669   4.715   4.805
 1610SOL    HW1 5729   5.630   4.633   4.762
 1610SOL    HW2 5730   5.688   4.696   4.901
 1611SOL     OW 5731   3.547   2.861   2.171
 1611SOL    HW1 5732   3.630   2.883   2.119
 1611SOL    HW2 5733   3.474   2.836   2.108
 1612SOL     OW 5734   2.425   1.713   5.402
 1612SOL    HW1 5735   2.454   1.801   5.362
 1612SOL    HW2 5736   2.491   1.642   5.376
 1613SOL     OW 5737   2.032   6.159   0.648
 1613SOL    HW1 5738   2.056   6.244   0.601
 1613SOL    HW2 5739   1.941   6.168   0.688
 1614SOL     OW 5740   6.535   3.057   0.015
 1614SOL    HW1 5741   6.469   3.023   6.971
 1614SOL    HW2 5742   6.628   3.038   7.006
 1615SOL     OW 5743   7.003   4.682   7.022
 1615SOL    HW1 5744   6.980   4.638   6.935
 1615SOL    HW2 5745   6.953   4.638   0.073
 1616SOL     OW 5746   4.368   2.226   6.436
 1616SOL    HW1 5747   4.352   2.292   6.509
 1616SOL    HW2 5748   4.308   2.146   6.449
 1617SOL     OW 5749   6.548   0.870   2.454
 1617SOL    HW1 5750   6.604   0.903   2.530
 1617SOL    HW2 5751   6.607   0.855   2.374
 1618SOL     OW 5752   0.077   3.688   1.723
 1618SOL    HW1 5753   0.174   3.677   1.703
 1618SOL    HW2 5754   0.032   3.598   1.722
 1619SOL     OW 5755   0.729   3.355   4.138
 1619SOL    HW1 5756   0.798   3.413   4.096
 1619SOL    HW2 5757   0.716   3.273   4.083
 1620SOL     OW 5758   1.698   5.945   0.764
 1620SOL    HW1 5759   1.599   5.956   0.763
 1620SOL    HW2 5760   1.724   5.881   0.836
 1621SOL     OW 5761   0.656   0.428   6.796
 1621SOL    HW1 5762   0.583   0.435   6.864
 1621SOL    HW2 5763   0.695   0.518   6.779
 1622SOL     OW 5764   1.587   2.202   4.368
 1622SOL    HW1 5765   1.582   2.268   4.443
 1622SOL    HW2 5766   1.607   2.250   4.283
 1623SOL     OW 5767   2.295   3.201   6.366
 1623SOL    HW1 5768   2.273   3.298   6.375
 1623SOL    HW2 5769   2.213   3.147   6.382
 1624SOL     OW 5770   2.931   0.663   6.424
 1624SOL    HW1 5771   2.878   0.692   6.504
 1624SOL    HW2 5772   2.869   0.623   6.357
 1625SOL     OW 5773   1.174   4.782   2.054
 1625SOL    HW1 5774   1.235   4.719   2.101
 1625SOL    HW2 5775   1.193   4.782   1.956
 1626SOL     OW 5776   2.682   2.649   6.949
 1626SOL    HW1 5777   2.607   2.702   6.911
 1626SOL    HW2 5778   2.682   2.658   0.026
 1627SOL     OW 5779   6.187   1.930   4.260
 1627SOL    HW1 5780   6.118   2.001   4.241
 1627SOL    HW2 5781   6.273   1.974   4.287
 1628SOL     OW 5782   3.290   5.020   0.702
 1628SOL    HW1 5783   3.269   5.105   0.655
 1628SOL    HW2 5784   3.205   4.968   0.716
 1629SOL     OW 5785   3.219   2.112   4.602
 1629SOL    HW1 5786   3.235   2.159   4.516
 1629SOL    HW2 5787   3.262   2.022   4.599
 1630SOL     OW 5788   0.595   5.727   5.047
 1630SOL    HW1 5789   0.540   5.741   4.964
 1630SOL    HW2 5790   0.534   5.702   5.123
 1631SOL     OW 5791   6.829   0.388   5.678
 1631SOL    HW1 5792   6.925   0.381   5.705
 1631SOL    HW2 5793   6.783   0.456   5.735
 1632SOL     OW 5794   0.779   1.037   6.752
 1632SOL    HW1 5795   0.815   0.965   6.812
 1632SOL    HW2 5796   0.683   1.054   6.774
 1633SOL     OW 5797   5.689   2.479   2.885
 1633SOL    HW1 5798   5.610   2.470   2.946
 1633SOL    HW2 5799   5.659   2.468   2.790
 1634SOL     OW 5800   3.888   5.332   6.608
 1634SOL    HW1 5801   3.845   5.340   6.519
 1634SOL    HW2 5802   3.923   5.421   6.636
 1635SOL     OW 5803   6.551   5.226   4.855
 1635SOL    HW1 5804   6.571   5.302   4.792
 1635SOL    HW2 5805   6.631   5.167   4.862
 1636SOL     OW 5806   2.440   5.214   1.831
 1636SOL    HW1 5807   2.405   5.268   1.907
 1636SOL    HW2 5808   2.368   5.152   1.798
 1637SOL     OW 5809   0.054   2.854   2.468
 1637SOL    HW1 5810   0.075   2.949   2.493
 1637SOL    HW2 5811   0.060   2.845   2.368
 1638SOL     OW 5812   6.994   2.920   3.853
 1638SOL    HW1 5813   6.921   2.983   3.881
 1638SOL    HW2 5814   0.024   2.961   3.779
 1639SOL     OW 5815   5.437   5.475   2.894
 1639SOL    HW1 5816   5.436   5.489   2.993
 1639SOL    HW2 5817   5.348   5.499   2.855
 1640SOL     OW 5818   5.988   2.019   0.625
 1640SOL    HW1 5819   5.949   1.965   0.551
 1640SOL    HW2 5820   5.915   2.044   0.689
 1641SOL     OW 5821   5.328   3.013   3.668
 1641SOL    HW1 5822   5.386   3.007   3.587
 1641SOL    HW2 5823   5.235   3.036   3.641
 1642SOL     OW 5824   6.858   3.095   0.389
 1642SOL    HW1 5825   6.780   3.033   0.399
 1642SOL    HW2 5826   6.900   3.081   0.299
 1643SOL     OW 5827   3.811   6.464   5.109
 1643SOL    HW1 5828   3.888   6.516   5.146
 1643SOL    HW2 5829   3.843   6.374   5.079
 1644SOL     OW 5830   3.309   1.855   1.500
 1644SOL    HW1 5831   3.367   1.818   1.428
 1644SOL    HW2 5832   3.365   1.897   1.570
 1645SOL     OW 5833   2.900   6.090   5.987
 1645SOL    HW1 5834   2.900   5.994   6.015
 1645SOL    HW2 5835   2.849   6.099   5.902
 1646SOL     OW 5836   2.924   5.353   1.208
 1646SOL    HW1 5837   2.970   5.363   1.119
 1646SOL    HW2 5838   2.871   5.269   1.209
 1647SOL     OW 5839   5.910   2.435   3.235
 1647SOL    HW1 5840   5.994   2.425   3.288
 1647SOL    HW2 5841   5.912   2.372   3.157
 1648SOL     OW 5842   5.272   6.995   1.953
 1648SOL    HW1 5843   5.281   6.948   2.041
 1648SOL    HW2 5844   5.341   6.960   1.890
 1649SOL     OW 5845   3.017   0.488   2.718
 1649SOL    HW1 5846   2.997   0.584   2.698
 1649SOL    HW2 5847   3.075   0.451   2.645
 1650SOL     OW 5848   2.715   0.268   3.923
 1650SOL    HW1 5849   2.729   0.180   3.877
 1650SOL    HW2 5850   2.707   0.253   4.022
 1651SOL     OW 5851   0.317   0.585   0.379
 1651SOL    HW1 5852   0.361   0.658   0.433
 1651SOL    HW2 5853   0.388   0.527   0.338
 1652SOL     OW 5854   3.008   2.075   0.757
 1652SOL    HW1 5855   3.000   2.117   0.848
 1652SOL    HW2 5856   3.100   2.038   0.746
 1653SOL     OW 5857   6.929   5.542   1.011
 1653SOL    HW1 5858   6.832   5.566   1.019
 1653SOL    HW2 5859   6.951   5.472   1.079
 1654SOL     OW 5860   6.369   3.085   2.803
 1654SOL    HW1 5861   6.449   3.028   2.786
 1654SOL    HW2 5862   6.286   3.031   2.792
 1655SOL     OW 5863   5.417   4.976   5.938
 1655SOL    HW1 5864   5.385   5.070   5.948
 1655SOL    HW2 5865   5.489   4.958   6.005
 1656SOL     OW 5866   1.494   4.580   3.731
 1656SOL    HW1 5867   1.557   4.544   3.662
 1656SOL    HW2 5868   1.535   4.659   3.777
 1657SOL     OW 5869   1.227   1.196   5.659
 1657SOL    HW1 5870   1.282   1.122   5.698
 1657SOL    HW2 5871   1.157   1.224   5.724
 1658SOL     OW 5872   5.898   6.352   3.232
 1658SOL    HW1 5873   5.910   6.310   3.322
 1658SOL    HW2 5874   5.988   6.363   3.189
 1659SOL     OW 5875   3.603   1.992   6.826
 1659SOL    HW1 5876   3.676   1.932   6.794
 1659SOL    HW2 5877   3.572   2.051   6.751
 1660SOL     OW 5878   0.844   5.330   3.648
 1660SOL    HW1 5879   0.922   5.320   3.710
 1660SOL    HW2 5880   0.848   5.260   3.578
 1661SOL     OW 5881   3.480   1.845   2.618
 1661SOL    HW1 5882   3.508   1.754   2.590
 1661SOL    HW2 5883   3.387   1.841   2.654
 1662SOL     OW 5884   6.518   2.153   3.540
 1662SOL    HW1 5885   6.460   2.146   3.459
 1662SOL    HW2 5886   6.602   2.100   3.525
 1663SOL     OW 5887   3.077   6.922   3.161
 1663SOL    HW1 5888   3.008   6.904   3.231
 1663SOL    HW2 5889   3.163   6.880   3.187
 1664SOL     OW 5890   1.903   0.230   4.187
 1664SOL    HW1 5891   1.942   0.321   4.201
 1664SOL    HW2 5892   1.936   0.192   4.101
 1665SOL     OW 5893   0.685   1.685   2.678
 1665SOL    HW1 5894   0.727   1.611   2.625
 1665SOL    HW2 5895   0.609   1.648   2.731
 1666SOL     OW 5896   5.855   2.829   6.467
 1666SOL    HW1 5897   5.864   2.926   6.447
 1666SOL    HW2 5898   5.935   2.798   6.518
 1667SOL     OW 5899   6.096   6.583   6.813
 1667SOL    HW1 5900   6.179   6.633   6.837
 1667SOL    HW2 5901   6.110   6.534   6.727
 1668SOL     OW 5902   4.695   0.206   4.655
 1668SOL    HW1 5903   4.668   0.212   4.751
 1668SOL    HW2 5904   4.654   0.125   4.613
 1669SOL     OW 5905   5.813   6.337   0.042
 1669SOL    HW1 5906   5.875   6.414   0.026
 1669SOL    HW2 5907   5.726   6.354   7.019
 1670SOL     OW 5908   6.360   5.208   6.000
 1670SOL    HW1 5909   6.344   5.181   6.095
 1670SOL    HW2 5910   6.436   5.154   5.963
 1671SOL     OW 5911   4.324   3.078   0.929
 1671SOL    HW1 5912   4.372   2.991   0.938
 1671SOL    HW2 5913   4.390   3.152   0.918
 1672SOL     OW 5914   2.028   4.037   2.499
 1672SOL    HW1 5915   2.001   4.114   2.556
 1672SOL    HW2 5916   2.008   3.952   2.548
 1673SOL     OW 5917   6.053   3.093   5.224
 1673SOL    HW1 5918   6.146   3.058   5.233
 1673SOL    HW2 5919   6.051   3.167   5.156
 1674SOL     OW 5920   1.308   4.172   0.848
 1674SOL    HW1 5921   1.314   4.192   0.750
 1674SOL    HW2 5922   1.316   4.073   0.862
 1675SOL     OW 5923   4.946   1.036   6.316
 1675SOL    HW1 5924   4.909   1.129   6.304
 1675SOL    HW2 5925   4.875   0.969   6.294
 1676SOL     OW 5926   2.365   1.641   2.470
 1676SOL    HW1 5927   2.295   1.573   2.447
 1676SOL    HW2 5928   2.323   1.716   2.519
 1677SOL     OW 5929   5.998   2.039   5.755
 1677SOL    HW1 5930   5.972   1.993   5.841
 1677SOL    HW2 5931   5.971   2.135   5.760
 1678SOL     OW 5932   5.557   5.728   2.795
 1678SOL    HW1 5933   5.535   5.651   2.855
 1678SOL    HW2 5934   5.618   5.791   2.843
 1679SOL     OW 5935   1.269   3.342   5.439
 1679SOL    HW1 5936   1.359   3.373   5.408
 1679SOL    HW2 5937   1.207   3.420   5.445
 1680SOL     OW 5938   0.572   1.336   4.340
 1680SOL    HW1 5939   0.647   1.271   4.329
 1680SOL    HW2 5940   0.608   1.427   4.355
 1681SOL     OW 5941   6.535   5.142   1.276
 1681SOL    HW1 5942   6.617   5.198   1.293
 1681SOL    HW2 5943   6.561   5.046   1.276
 1682SOL     OW 5944   0.102   3.129   5.063
 1682SOL    HW1 5945   0.156   3.046   5.052
 1682SOL    HW2 5946   0.158   3.209   5.041
 1683SOL     OW 5947   4.443   5.294   1.231
 1683SOL    HW1 5948   4.519   5.230   1.229
 1683SOL    HW2 5949   4.415   5.317   1.138
 1684SOL     OW 5950   0.495   6.750   4.697
 1684SOL    HW1 5951   0.488   6.666   4.643
 1684SOL    HW2 5952   0.404   6.790   4.707
 1685SOL     OW 5953   1.732   1.522   6.727
 1685SOL    HW1 5954   1.730   1.613   6.685
 1685SOL    HW2 5955   1.818   1.476   6.703
 1686SOL     OW 5956   1.350   5.230   5.151
 1686SOL    HW1 5957   1.365   5.322   5.116
 1686SOL    HW2 5958   1.436   5.178   5.147
 1687SOL     OW 5959   1.607   4.549   2.253
 1687SOL    HW1 5960   1.548   4.575   2.330
 1687SOL    HW2 5961   1.679   4.617   2.242
 1688SOL     OW 5962   1.124   1.618   2.911
 1688SOL    HW1 5963   1.084   1.674   2.838
 1688SOL    HW2 5964   1.219   1.646   2.926
 1689SOL     OW 5965   3.226   2.022   2.020
 1689SOL    HW1 5966   3.325   2.016   2.008
 1689SOL    HW2 5967   3.182   2.027   1.931
 1690SOL     OW 5968   1.757   1.694   2.295
 1690SOL    HW1 5969   1.683   1.647   2.343
 1690SOL    HW2 5970   1.735   1.791   2.285
 1691SOL     OW 5971   5.095   3.591   3.314
 1691SOL    HW1 5972   5.005   3.611   3.274
 1691SOL    HW2 5973   5.148   3.676   3.321
 1692SOL     OW 5974   6.962   7.021   1.401
 1692SOL    HW1 5975   7.020   0.078   1.392
 1692SOL    HW2 5976   6.915   0.000   1.490
 1693SOL     OW 5977   2.098   3.015   3.532
 1693SOL    HW1 5978   2.160   2.937   3.540
 1693SOL    HW2 5979   2.133   3.077   3.461
 1694SOL     OW 5980   4.182   5.638   4.765
 1694SOL    HW1 5981   4.163   5.545   4.796
 1694SOL    HW2 5982   4.126   5.702   4.816
 1695SOL     OW 5983   2.046   2.164   5.407
 1695SOL    HW1 5984   1.969   2.226   5.420
 1695SOL    HW2 5985   2.093   2.151   5.495
 1696SOL     OW 5986   5.109   5.627   0.175
 1696SOL    HW1 5987   5.055   5.686   0.116
 1696SOL    HW2 5988   5.159   5.683   0.241
 1697SOL     OW 5989   1.071   0.030   1.340
 1697SOL    HW1 5990   1.169   0.044   1.329
 1697SOL    HW2 5991   1.055   6.969   1.391
 1698SOL     OW 5992   5.177   1.972   1.262
 1698SOL    HW1 5993   5.141   1.888   1.303
 1698SOL    HW2 5994   5.241   2.015   1.326
 1699SOL     OW 5995   2.570   2.897   1.145
 1699SOL    HW1 5996   2.546   2.877   1.240
 1699SOL    HW2 5997   2.658   2.945   1.143
 1700SOL     OW 5998   6.438   2.369   3.210
 1700SOL    HW1 5999   6.402   2.293   3.265
 1700SOL    HW2 6000   6.518   2.339   3.160
 1701SOL     OW 6001   5.571   2.345   4.741
 1701SOL    HW1 6002   5.572   2.272   4.810
 1701SOL    HW2 6003   5.515   2.317   4.663
 1702SOL     OW 6004   6.036   3.663   1.380
 1702SOL    HW1 6005   5.953   3.614   1.354
 1702SOL    HW2 6006   6.034   3.682   1.478
 1703SOL     OW 6007   2.790   3.904   1.633
 1703SOL    HW1 6008   2.779   3.894   1.731
 1703SOL    HW2 6009   2.763   3.819   1.588
 1704SOL     OW 6010   0.738   1.322   0.892
 1704SOL    HW1 6011   0.692   1.237   0.864
 1704SOL    HW2 6012   0.837   1.310   0.888
 1705SOL     OW 6013   3.842   2.416   1.344
 1705SOL    HW1 6014   3.791   2.499   1.366
 1705SOL    HW2 6015   3.778   2.345   1.314
 1706SOL     OW 6016   3.897   0.525   0.587
 1706SOL    HW1 6017   3.967   0.487   0.526
 1706SOL    HW2 6018   3.942   0.577   0.661
 1707SOL     OW 6019   4.395   1.774   2.787
 1707SOL    HW1 6020   4.458   1.702   2.815
 1707SOL    HW2 6021   4.435   1.864   2.806
 1708SOL     OW 6022   6.561   6.372   2.916
 1708SOL    HW1 6023   6.653   6.412   2.909
 1708SOL    HW2 6024   6.509   6.394   2.834
 1709SOL     OW 6025   2.332   0.029   2.149
 1709SOL    HW1 6026   2.420   7.009   2.168
 1709SOL    HW2 6027   2.341   0.129   2.155
 1710SOL     OW 6028   0.375   4.218   3.443
 1710SOL    HW1 6029   0.304   4.236   3.375
 1710SOL    HW2 6030   0.463   4.205   3.397
 1711SOL     OW 6031   1.226   4.440   5.058
 1711SOL    HW1 6032   1.229   4.497   4.976
 1711SOL    HW2 6033   1.302   4.466   5.119
 1712SOL     OW 6034   0.602   4.259   0.335
 1712SOL    HW1 6035   0.555   4.238   0.250
 1712SOL    HW2 6036   0.618   4.175   0.387
 1713SOL     OW 6037   1.929   2.521   1.648
 1713SOL    HW1 6038   1.997   2.587   1.615
 1713SOL    HW2 6039   1.840   2.565   1.656
 1714SOL     OW 6040   4.051   1.792   6.562
 1714SOL    HW1 6041   4.123   1.838   6.510
 1714SOL    HW2 6042   4.089   1.760   6.649
 1715SOL     OW 6043   0.289   3.023   3.418
 1715SOL    HW1 6044   0.263   2.930   3.392
 1715SOL    HW2 6045   0.232   3.089   3.369
 1716SOL     OW 6046   5.947   0.327   1.452
 1716SOL    HW1 6047   5.885   0.386   1.400
 1716SOL    HW2 6048   6.035   0.373   1.463
 1717SOL     OW 6049   2.131   5.990   0.121
 1717SOL    HW1 6050   2.121   6.013   0.218
 1717SOL    HW2 6051   2.223   6.016   0.090
 1718SOL     OW 6052   2.155   3.530   0.028
 1718SOL    HW1 6053   2.239   3.568   7.012
 1718SOL    HW2 6054   2.077   3.558   6.995
 1719SOL     OW 6055   2.162   3.172   1.470
 1719SOL    HW1 6056   2.206   3.217   1.392
 1719SOL    HW2 6057   2.221   3.180   1.550
 1720SOL     OW 6058   6.859   1.826   0.747
 1720SOL    HW1 6059   6.856   1.726   0.754
 1720SOL    HW2 6060   6.848   1.853   0.651
 1721SOL     OW 6061   1.729   6.161   2.890
 1721SOL    HW1 6062   1.778   6.216   2.957
 1721SOL    HW2 6063   1.756   6.189   2.798
 1722SOL     OW 6064   5.725   0.358   2.658
 1722SOL    HW1 6065   5.776   0.277   2.688
 1722SOL    HW2 6066   5.751   0.436   2.715
 1723SOL     OW 6067   6.170   2.284   3.100
 1723SOL    HW1 6068   6.208   2.194   3.122
 1723SOL    HW2 6069   6.244   2.349   3.088
 1724SOL     OW 6070   5.967   0.893   0.603
 1724SOL    HW1 6071   6.025   0.973   0.619
 1724SOL    HW2 6072   5.901   0.884   0.678
 1725SOL     OW 6073   3.715   4.451   0.312
 1725SOL    HW1 6074   3.735   4.398   0.230
 1725SOL    HW2 6075   3.752   4.543   0.303
 1726SOL     OW 6076   6.512   4.850   4.468
 1726SOL    HW1 6077   6.553   4.819   4.554
 1726SOL    HW2 6078   6.420   4.883   4.485
 1727SOL     OW 6079   3.983   3.833   4.956
 1727SOL    HW1 6080   4.003   3.921   4.913
 1727SOL    HW2 6081   3.934   3.774   4.892
 1728SOL     OW 6082   5.325   4.692   4.386
 1728SOL    HW1 6083   5.290   4.772   4.435
 1728SOL    HW2 6084   5.280   4.686   4.297
 1729SOL     OW 6085   1.661   3.604   3.137
 1729SOL    HW1 6086   1.708   3.588   3.051
 1729SOL    HW2 6087   1.633   3.516   3.177
 1730SOL     OW 6088   6.434   1.384   4.624
 1730SOL    HW1 6089   6.463   1.429   4.540
 1730SOL    HW2 6090   6.493   1.305   4.642
 1731SOL     OW 6091   1.957   5.118   1.775
 1731SOL    HW1 6092   1.927   5.054   1.704
 1731SOL    HW2 6093   2.050   5.149   1.756
 1732SOL     OW 6094   1.814   4.832   0.352
 1732SOL    HW1 6095   1.860   4.748   0.381
 1732SOL    HW2 6096   1.762   4.869   0.429
 1733SOL     OW 6097   1.029   3.997   1.997
 1733SOL    HW1 6098   0.938   4.023   1.965
 1733SOL    HW2 6099   1.058   4.060   2.069
 1734SOL     OW 6100   4.314   3.189   1.196
 1734SOL    HW1 6101   4.312   3.135   1.112
 1734SOL    HW2 6102   4.268   3.140   1.269
 1735SOL     OW 6103   6.151   5.619   1.820
 1735SOL    HW1 6104   6.110   5.679   1.888
 1735SOL    HW2 6105   6.080   5.560   1.780
 1736SOL     OW 6106   4.582   3.209   6.814
 1736SOL    HW1 6107   4.618   3.222   6.722
 1736SOL    HW2 6108   4.649   3.241   6.881
 1737SOL     OW 6109   2.293   0.520   3.831
 1737SOL    HW1 6110   2.360   0.592   3.848
 1737SOL    HW2 6111   2.339   0.434   3.814
 1738SOL     OW 6112   2.058   2.560   2.618
 1738SOL    HW1 6113   1.965   2.590   2.595
 1738SOL    HW2 6114   2.120   2.638   2.613
 1739SOL     OW 6115   4.398   2.421   4.931
 1739SOL    HW1 6116   4.474   2.370   4.971
 1739SOL    HW2 6117   4.316   2.407   4.987
 1740SOL     OW 6118   0.188   0.991   6.658
 1740SOL    HW1 6119   0.236   1.072   6.690
 1740SOL    HW2 6120   0.091   1.013   6.646
 1741SOL     OW 6121   2.204   0.946   2.621
 1741SOL    HW1 6122   2.239   0.853   2.616
 1741SOL    HW2 6123   2.272   1.005   2.665
 1742SOL     OW 6124   5.096   6.695   5.858
 1742SOL    HW1 6125   5.039   6.681   5.940
 1742SOL    HW2 6126   5.036   6.702   5.778
 1743SOL     OW 6127   2.424   0.951   2.233
 1743SOL    HW1 6128   2.502   0.938   2.172
 1743SOL    HW2 6129   2.378   1.037   2.211
 1744SOL     OW 6130   2.216   0.716   1.252
 1744SOL    HW1 6131   2.309   0.744   1.231
 1744SOL    HW2 6132   2.165   0.794   1.290
 1745SOL     OW 6133   6.767   1.753   4.210
 1745SOL    HW1 6134   6.794   1.842   4.247
 1745SOL    HW2 6135   6.676   1.729   4.244
 1746SOL     OW 6136   2.891   5.827   6.061
 1746SOL    HW1 6137   2.949   5.790   5.989
 1746SOL    HW2 6138   2.865   5.753   6.124
 1747SOL     OW 6139   4.788   6.820   2.213
 1747SOL    HW1 6140   4.774   6.780   2.122
 1747SOL    HW2 6141   4.771   6.918   2.209
 1748SOL     OW 6142   5.935   1.733   3.978
 1748SOL    HW1 6143   5.960   1.750   3.883
 1748SOL    HW2 6144   5.928   1.634   3.993
 1749SOL     OW 6145   3.943   6.978   6.338
 1749SOL    HW1 6146   3.872   6.958   6.405
 1749SOL    HW2 6147   3.923   0.041   6.292
 1750SOL     OW 6148   5.634   1.010   3.009
 1750SOL    HW1 6149   5.718   1.021   3.062
 1750SOL    HW2 6150   5.651   1.036   2.914
 1751SOL     OW 6151   2.450   4.830   4.887
 1751SOL    HW1 6152   2.515   4.778   4.832
 1751SOL    HW2 6153   2.398   4.768   4.945
 1752SOL     OW 6154   6.465   2.131   0.709
 1752SOL    HW1 6155   6.458   2.106   0.613
 1752SOL    HW2 6156   6.397   2.079   0.761
 1753SOL     OW 6157   0.749   0.131   6.977
 1753SOL    HW1 6158   0.837   0.088   6.998
 1753SOL    HW2 6159   0.734   0.131   6.878
 1754SOL     OW 6160   3.713   4.149   0.412
 1754SOL    HW1 6161   3.698   4.099   0.498
 1754SOL    HW2 6162   3.757   4.236   0.431
 1755SOL     OW 6163   5.425   4.662   1.864
 1755SOL    HW1 6164   5.472   4.624   1.944
 1755SOL    HW2 6165   5.329   4.677   1.886
 1756SOL     OW 6166   5.853   4.966   3.975
 1756SOL    HW1 6167   5.840   5.006   4.066
 1756SOL    HW2 6168   5.911   4.885   3.983
 1757SOL     OW 6169   2.092   6.437   4.906
 1757SOL    HW1 6170   2.085   6.383   4.990
 1757SOL    HW2 6171   2.188   6.449   4.882
 1758SOL     OW 6172   3.029   1.624   3.048
 1758SOL    HW1 6173   3.094   1.576   3.108
 1758SOL    HW2 6174   3.062   1.717   3.032
 1759SOL     OW 6175   0.688   4.869   6.188
 1759SOL    HW1 6176   0.735   4.845   6.273
 1759SOL    HW2 6177   0.629   4.948   6.204
 1760SOL     OW 6178   6.308   1.874   1.512
 1760SOL    HW1 6179   6.402   1.900   1.488
 1760SOL    HW2 6180   6.309   1.785   1.558
 1761SOL     OW 6181   6.918   1.128   0.670
 1761SOL    HW1 6182   6.978   1.165   0.598
 1761SOL    HW2 6183   6.973   1.102   0.749
 1762SOL     OW 6184   6.199   2.042   5.203
 1762SOL    HW1 6185   6.213   1.946   5.223
 1762SOL    HW2 6186   6.237   2.098   5.276
 1763SOL     OW 6187   2.185   3.725   4.230
 1763SOL    HW1 6188   2.092   3.692   4.217
 1763SOL    HW2 6189   2.184   3.824   4.243
 1764SOL     OW 6190   2.045   3.835   3.001
 1764SOL    HW1 6191   2.092   3.748   3.017
 1764SOL    HW2 6192   1.970   3.844   3.066
 1765SOL     OW 6193   2.827   1.358   0.063
 1765SOL    HW1 6194   2.917   1.397   0.083
 1765SOL    HW2 6195   2.802   1.380   6.992
 1766SOL     OW 6196   5.605   3.228   4.974
 1766SOL    HW1 6197   5.663   3.179   4.908
 1766SOL    HW2 6198   5.520   3.177   4.987
 1767SOL     OW 6199   5.282   3.972   2.534
 1767SOL    HW1 6200   5.292   3.903   2.462
 1767SOL    HW2 6201   5.350   4.044   2.521
 1768SOL     OW 6202   4.886   0.388   4.641
 1768SOL    HW1 6203   4.973   0.338   4.649
 1768SOL    HW2 6204   4.812   0.323   4.623
 1769SOL     OW 6205   3.987   2.171   4.309
 1769SOL    HW1 6206   4.038   2.101   4.359
 1769SOL    HW2 6207   4.030   2.260   4.322
 1770SOL     OW 6208   1.907   5.514   4.735
 1770SOL    HW1 6209   1.884   5.612   4.735
 1770SOL    HW2 6210   1.979   5.497   4.668
 1771SOL     OW 6211   2.709   5.843   6.992
 1771SOL    HW1 6212   2.698   5.846   6.893
 1771SOL    HW2 6213   2.806   5.854   7.015
 1772SOL     OW 6214   3.520   0.129   3.978
 1772SOL    HW1 6215   3.568   0.216   3.965
 1772SOL    HW2 6216   3.587   0.055   3.986
 1773SOL     OW 6217   2.425   5.055   5.807
 1773SOL    HW1 6218   2.398   5.080   5.901
 1773SOL    HW2 6219   2.354   4.995   5.768
 1774SOL     OW 6220   4.369   5.441   2.062
 1774SOL    HW1 6221   4.363   5.540   2.046
 1774SOL    HW2 6222   4.326   5.419   2.149
 1775SOL     OW 6223   1.076   3.736   2.755
 1775SOL    HW1 6224   1.132   3.729   2.837
 1775SOL    HW2 6225   1.099   3.662   2.692
 1776SOL     OW 6226   3.969   6.340   4.530
 1776SOL    HW1 6227   4.043   6.305   4.587
 1776SOL    HW2 6228   3.922   6.264   4.486
 1777SOL     OW 6229   3.911   5.620   6.579
 1777SOL    HW1 6230   3.986   5.655   6.524
 1777SOL    HW2 6231   3.854   5.696   6.610
 1778SOL     OW 6232   4.583   3.467   5.728
 1778SOL    HW1 6233   4.652   3.412   5.680
 1778SOL    HW2 6234   4.627   3.548   5.766
 1779SOL     OW 6235   4.088   0.212   4.346
 1779SOL    HW1 6236   4.162   0.147   4.365
 1779SOL    HW2 6237   4.120   0.305   4.363
 1780SOL     OW 6238   3.649   3.040   6.991
 1780SOL    HW1 6239   3.599   2.953   6.982
 1780SOL    HW2 6240   3.681   3.050   0.061
 1781SOL     OW 6241   3.839   6.243   2.559
 1781SOL    HW1 6242   3.765   6.233   2.493
 1781SOL    HW2 6243   3.807   6.213   2.649
 1782SOL     OW 6244   2.895   1.884   3.081
 1782SOL    HW1 6245   2.987   1.903   3.048
 1782SOL    HW2 6246   2.841   1.843   3.007
 1783SOL     OW 6247   2.403   5.534   5.579
 1783SOL    HW1 6248   2.416   5.630   5.604
 1783SOL    HW2 6249   2.475   5.479   5.622
 1784SOL     OW 6250   4.527   0.953   6.462
 1784SOL    HW1 6251   4.541   1.033   6.404
 1784SOL    HW2 6252   4.453   0.897   6.424
 1785SOL     OW 6253   6.050   3.809   2.964
 1785SOL    HW1 6254   6.129   3.803   2.903
 1785SOL    HW2 6255   6.001   3.722   2.964
 1786SOL     OW 6256   2.273   2.997   0.175
 1786SOL    HW1 6257   2.265   2.906   0.133
 1786SOL    HW2 6258   2.187   3.046   0.165
 1787SOL     OW 6259   2.778   1.329   4.953
 1787SOL    HW1 6260   2.841   1.402   4.976
 1787SOL    HW2 6261   2.761   1.272   5.034
 1788SOL     OW 6262   2.513   3.833   6.229
 1788SOL    HW1 6263   2.527   3.929   6.253
 1788SOL    HW2 6264   2.488   3.781   6.311
 1789SOL     OW 6265   5.717   1.806   1.857
 1789SOL    HW1 6266   5.733   1.801   1.759
 1789SOL    HW2 6267   5.756   1.726   1.902
 1790SOL     OW 6268   3.909   6.288   3.675
 1790SOL    HW1 6269   3.945   6.359   3.736
 1790SOL    HW2 6270   3.810   6.295   3.670
 1791SOL     OW 6271   6.655   0.703   3.462
 1791SOL    HW1 6272   6.739   0.728   3.414
 1791SOL    HW2 6273   6.625   0.779   3.520
 1792SOL     OW 6274   6.397   3.287   5.066
 1792SOL    HW1 6275   6.410   3.386   5.072
 1792SOL    HW2 6276   6.420   3.256   4.973
 1793SOL     OW 6277   6.061   6.999   3.843
 1793SOL    HW1 6278   6.037   6.979   3.938
 1793SOL    HW2 6279   5.981   0.015   3.796
 1794SOL     OW 6280   5.214   6.444   5.470
 1794SOL    HW1 6281   5.146   6.411   5.535
 1794SOL    HW2 6282   5.277   6.369   5.447
 1795SOL     OW 6283   1.110   2.336   1.434
 1795SOL    HW1 6284   1.149   2.262   1.380
 1795SOL    HW2 6285   1.088   2.413   1.374
 1796SOL     OW 6286   2.625   0.756   5.675
 1796SOL    HW1 6287   2.661   0.778   5.584
 1796SOL    HW2 6288   2.673   0.675   5.711
 1797SOL     OW 6289   1.571   6.911   0.317
 1797SOL    HW1 6290   1.546   7.007   0.304
 1797SOL    HW2 6291   1.605   6.873   0.231
 1798SOL     OW 6292   4.596   2.613   3.768
 1798SOL    HW1 6293   4.674   2.649   3.716
 1798SOL    HW2 6294   4.601   2.646   3.862
 1799SOL     OW 6295   0.035   2.814   5.364
 1799SOL    HW1 6296   7.012   2.811   5.453
 1799SOL    HW2 6297   0.128   2.779   5.374
 1800SOL     OW 6298   4.101   4.560   1.442
 1800SOL    HW1 6299   4.195   4.569   1.473
 1800SOL    HW2 6300   4.073   4.643   1.394
 1801SOL     OW 6301   0.305   0.097   1.731
 1801SOL    HW1 6302   0.270   0.078   1.640
 1801SOL    HW2 6303   0.233   0.079   1.799
 1802SOL     OW 6304   5.023   5.875   4.403
 1802SOL    HW1 6305   5.093   5.854   4.472
 1802SOL    HW2 6306   4.994   5.791   4.358
 1803SOL     OW 6307   0.239   5.515   6.663
 1803SOL    HW1 6308   0.316   5.498   6.724
 1803SOL    HW2 6309   0.273   5.554   6.577
 1804SOL     OW 6310   2.135   3.965   5.244
 1804SOL    HW1 6311   2.176   3.925   5.326
 1804SOL    HW2 6312   2.207   3.989   5.179
 1805SOL     OW 6313   5.446   3.904   5.974
 1805SOL    HW1 6314   5.386   3.982   5.957
 1805SOL    HW2 6315   5.390   3.822   5.992
 1806SOL     OW 6316   0.674   0.095   6.612
 1806SOL    HW1 6317   0.617   0.156   6.668
 1806SOL    HW2 6318   0.615   0.035   6.559
 1807SOL     OW 6319   5.362   2.772   4.572
 1807SOL    HW1 6320   5.452   2.760   4.614
 1807SOL    HW2 6321   5.291   2.743   4.636
 1808SOL     OW 6322   0.490   4.224   5.503
 1808SOL    HW1 6323   0.438   4.160   5.447
 1808SOL    HW2 6324   0.509   4.182   5.592
 1809SOL     OW 6325   2.400   2.323   4.898
 1809SOL    HW1 6326   2.428   2.325   4.994
 1809SOL    HW2 6327   2.446   2.397   4.848
 1810SOL     OW 6328   2.508   6.869   4.020
 1810SOL    HW1 6329   2.408   6.876   4.023
 1810SOL    HW2 6330   2.547   6.954   3.986
 1811SOL     OW 6331   5.885   6.034   3.155
 1811SOL    HW1 6332   5.981   6.010   3.169
 1811SOL    HW2 6333   5.845   6.066   3.241
 1812SOL     OW 6334   4.041   5.834   4.929
 1812SOL    HW1 6335   4.064   5.850   5.025
 1812SOL    HW2 6336   3.942   5.820   4.920
 1813SOL     OW 6337   6.057   4.471   0.613
 1813SOL    HW1 6338   6.061   4.373   0.595
 1813SOL    HW2 6339   6.092   4.521   0.533
 1814SOL     OW 6340   5.038   0.032   2.180
 1814SOL    HW1 6341   5.085   0.011   2.094
 1814SOL    HW2 6342   4.939   0.029   2.165
 1815SOL     OW 6343   0.601   2.193   1.891
 1815SOL    HW1 6344   0.688   2.171   1.935
 1815SOL    HW2 6345   0.526   2.146   1.938
 1816SOL     OW 6346   2.838   3.344   0.851
 1816SOL    HW1 6347   2.758   3.346   0.792
 1816SOL    HW2 6348   2.916   3.381   0.802
 1817SOL     OW 6349   2.580   6.928   2.118
 1817SOL    HW1 6350   2.558   6.863   2.045
 1817SOL    HW2 6351   2.633   7.004   2.080
 1818SOL     OW 6352   1.598   0.180   3.024
 1818SOL    HW1 6353   1.551   0.121   3.090
 1818SOL    HW2 6354   1.541   0.191   2.942
 1819SOL     OW 6355   0.852   4.314   2.101
 1819SOL    HW1 6356   0.773   4.265   2.136
 1819SOL    HW2 6357   0.839   4.334   2.004
 1820SOL     OW 6358   3.969   1.017   3.004
 1820SOL    HW1 6359   4.027   1.042   3.082
 1820SOL    HW2 6360   3.953   1.097   2.947
 1821SOL     OW 6361   1.594   1.475   2.316
 1821SOL    HW1 6362   1.561   1.481   2.221
 1821SOL    HW2 6363   1.548   1.400   2.363
 1822SOL     OW 6364   3.608   2.581   1.149
 1822SOL    HW1 6365   3.678   2.640   1.109
 1822SOL    HW2 6366   3.607   2.592   1.248
 1823SOL     OW 6367   3.504   6.181   3.722
 1823SOL    HW1 6368   3.556   6.180   3.636
 1823SOL    HW2 6369   3.488   6.087   3.752
 1824SOL     OW 6370   4.102   2.444   1.049
 1824SOL    HW1 6371   4.176   2.500   1.087
 1824SOL    HW2 6372   4.089   2.467   0.952
 1825SOL     OW 6373   1.143   0.428   2.388
 1825SOL    HW1 6374   1.054   0.414   2.432
 1825SOL    HW2 6375   1.165   0.348   2.332
 1826SOL     OW 6376   3.065   1.519   1.208
 1826SOL    HW1 6377   2.988   1.472   1.166
 1826SOL    HW2 6378   3.045   1.538   1.304
 1827SOL     OW 6379   0.249   4.846   2.164
 1827SOL    HW1 6380   0.213   4.759   2.196
 1827SOL    HW2 6381   0.348   4.849   2.180
 1828SOL     OW 6382   0.293   2.757   6.953
 1828SOL    HW1 6383   0.312   2.740   6.857
 1828SOL    HW2 6384   0.194   2.766   6.966
 1829SOL     OW 6385   5.063   0.144   3.145
 1829SOL    HW1 6386   5.010   0.117   3.064
 1829SOL    HW2 6387   5.084   0.241   3.139
 1830SOL     OW 6388   5.443   6.009   3.689
 1830SOL    HW1 6389   5.431   5.911   3.674
 1830SOL    HW2 6390   5.418   6.031   3.783
 1831SOL     OW 6391   5.914   6.733   2.664
 1831SOL    HW1 6392   5.960   6.648   2.689
 1831SOL    HW2 6393   5.928   6.801   2.736
 1832SOL     OW 6394   5.494   2.020   1.368
 1832SOL    HW1 6395   5.440   1.960   1.427
 1832SOL    HW2 6396   5.522   2.101   1.420
 1833SOL     OW 6397   5.467   0.447   4.452
 1833SOL    HW1 6398   5.545   0.402   4.495
 1833SOL    HW2 6399   5.388   0.386   4.456
 1834SOL     OW 6400   3.453   4.149   0.282
 1834SOL    HW1 6401   3.416   4.242   0.279
 1834SOL    HW2 6402   3.547   4.151   0.314
 1835SOL     OW 6403   0.940   4.208   1.626
 1835SOL    HW1 6404   0.858   4.156   1.605
 1835SOL    HW2 6405   0.948   4.285   1.562
 1836SOL     OW 6406   0.175   2.239   1.087
 1836SOL    HW1 6407   0.208   2.293   1.165
 1836SOL    HW2 6408   0.248   2.230   1.019
 1837SOL     OW 6409   0.444   1.864   4.277
 1837SOL    HW1 6410   0.515   1.880   4.346
 1837SOL    HW2 6411   0.388   1.786   4.305
 1838SOL     OW 6412   0.508   1.816   3.942
 1838SOL    HW1 6413   0.602   1.846   3.957
 1838SOL    HW2 6414   0.462   1.806   4.030
 1839SOL     OW 6415   5.033   2.546   4.941
 1839SOL    HW1 6416   5.051   2.532   5.038
 1839SOL    HW2 6417   4.939   2.518   4.921
 1840SOL     OW 6418   2.701   6.141   1.764
 1840SOL    HW1 6419   2.781   6.081   1.768
 1840SOL    HW2 6420   2.618   6.085   1.756
 1841SOL     OW 6421   2.060   3.422   4.344
 1841SOL    HW1 6422   2.109   3.470   4.271
 1841SOL    HW2 6423   1.962   3.439   4.335
 1842SOL     OW 6424   0.215   5.517   1.230
 1842SOL    HW1 6425   0.179   5.448   1.293
 1842SOL    HW2 6426   0.310   5.537   1.253
 1843SOL     OW 6427   1.731   2.426   4.892
 1843SOL    HW1 6428   1.804   2.370   4.851
 1843SOL    HW2 6429   1.753   2.523   4.879
 1844SOL     OW 6430   4.035   1.445   5.066
 1844SOL    HW1 6431   4.028   1.452   4.967
 1844SOL    HW2 6432   4.031   1.536   5.107
 1845SOL     OW 6433   2.376   0.011   6.802
 1845SOL    HW1 6434   2.389   7.018   6.900
 1845SOL    HW2 6435   2.460   7.008   6.753
 1846SOL     OW 6436   4.240   2.109   6.712
 1846SOL    HW1 6437   4.300   2.104   6.792
 1846SOL    HW2 6438   4.264   2.036   6.648
 1847SOL     OW 6439   1.110   0.600   6.511
 1847SOL    HW1 6440   1.156   0.689   6.519
 1847SOL    HW2 6441   1.168   0.538   6.458
 1848SOL     OW 6442   1.971   5.891   2.773
 1848SOL    HW1 6443   2.009   5.799   2.780
 1848SOL    HW2 6444   1.871   5.886   2.776
 1849SOL     OW 6445   3.900   0.941   0.723
 1849SOL    HW1 6446   3.896   1.007   0.798
 1849SOL    HW2 6447   3.956   0.979   0.649
 1850SOL     OW 6448   5.971   1.847   2.941
 1850SOL    HW1 6449   5.872   1.831   2.945
 1850SOL    HW2 6450   6.009   1.844   3.033
 1851SOL     OW 6451   0.544   1.456   1.045
 1851SOL    HW1 6452   0.628   1.433   0.996
 1851SOL    HW2 6453   0.478   1.382   1.035
 1852SOL     OW 6454   4.647   3.682   0.919
 1852SOL    HW1 6455   4.592   3.664   0.837
 1852SOL    HW2 6456   4.591   3.665   1.000
 1853SOL     OW 6457   0.877   3.465   1.621
 1853SOL    HW1 6458   0.826   3.551   1.626
 1853SOL    HW2 6459   0.902   3.435   1.713
 1854SOL     OW 6460   2.888   5.628   4.213
 1854SOL    HW1 6461   2.806   5.670   4.173
 1854SOL    HW2 6462   2.931   5.568   4.146
 1855SOL     OW 6463   4.752   4.723   0.164
 1855SOL    HW1 6464   4.839   4.770   0.151
 1855SOL    HW2 6465   4.749   4.683   0.255
 1856SOL     OW 6466   6.146   2.742   5.651
 1856SOL    HW1 6467   6.106   2.833   5.641
 1856SOL    HW2 6468   6.099   2.678   5.591
 1857SOL     OW 6469   4.585   1.059   5.177
 1857SOL    HW1 6470   4.498   1.011   5.186
 1857SOL    HW2 6471   4.613   1.096   5.266
 1858SOL     OW 6472   5.666   3.219   3.538
 1858SOL    HW1 6473   5.664   3.230   3.637
 1858SOL    HW2 6474   5.748   3.170   3.511
 1859SOL     OW 6475   4.162   2.243   3.816
 1859SOL    HW1 6476   4.201   2.154   3.841
 1859SOL    HW2 6477   4.212   2.280   3.738
 1860SOL     OW 6478   6.623   1.408   3.939
 1860SOL    HW1 6479   6.597   1.429   4.033
 1860SOL    HW2 6480   6.721   1.389   3.934
 1861SOL     OW 6481   4.714   6.343   2.135
 1861SOL    HW1 6482   4.712   6.393   2.049
 1861SOL    HW2 6483   4.765   6.395   2.203
 1862SOL     OW 6484   2.040   6.887   0.161
 1862SOL    HW1 6485   2.030   6.812   0.226
 1862SOL    HW2 6486   2.111   6.864   0.095
 1863SOL     OW 6487   2.713   2.966   0.457
 1863SOL    HW1 6488   2.683   3.049   0.503
 1863SOL    HW2 6489   2.664   2.956   0.370
 1864SOL     OW 6490   0.814   7.016   5.348
 1864SOL    HW1 6491   0.809   0.054   5.427
 1864SOL    HW2 6492   0.908   6.983   5.337
 1865SOL     OW 6493   3.881   0.768   5.508
 1865SOL    HW1 6494   3.976   0.757   5.477
 1865SOL    HW2 6495   3.863   0.865   5.528
 1866SOL     OW 6496   4.257   4.600   2.095
 1866SOL    HW1 6497   4.342   4.552   2.075
 1866SOL    HW2 6498   4.240   4.599   2.194
 1867SOL     OW 6499   0.691   3.654   0.259
 1867SOL    HW1 6500   0.709   3.692   0.349
 1867SOL    HW2 6501   0.642   3.567   0.269
 1868SOL     OW 6502   5.546   4.522   6.969
 1868SOL    HW1 6503   5.509   4.438   7.008
 1868SOL    HW2 6504   5.511   4.534   6.876
 1869SOL     OW 6505   6.585   1.917   5.222
 1869SOL    HW1 6506   6.560   1.822   5.207
 1869SOL    HW2 6507   6.530   1.976   5.161
 1870SOL     OW 6508   1.849   4.356   5.759
 1870SOL    HW1 6509   1.887   4.384   5.671
 1870SOL    HW2 6510   1.923   4.341   5.825
 1871SOL     OW 6511   1.298   6.866   0.810
 1871SOL    HW1 6512   1.219   6.892   0.866
 1871SOL    HW2 6513   1.378   6.855   0.869
 1872SOL     OW 6514   3.118   4.118   6.788
 1872SOL    HW1 6515   3.154   4.127   6.881
 1872SOL    HW2 6516   3.137   4.202   6.737
 1873SOL     OW 6517   4.398   1.276   5.281
 1873SOL    HW1 6518   4.469   1.229   5.229
 1873SOL    HW2 6519   4.309   1.262   5.238
 1874SOL     OW 6520   2.790   1.650   1.202
 1874SOL    HW1 6521   2.838   1.703   1.272
 1874SOL    HW2 6522   2.812   1.686   1.112
 1875SOL     OW 6523   0.893   0.422   6.968
 1875SOL    HW1 6524   0.809   0.415   6.914
 1875SOL    HW2 6525   0.876   0.479   0.025
 1876SOL     OW 6526   3.469   0.179   5.943
 1876SOL    HW1 6527   3.541   0.170   5.874
 1876SOL    HW2 6528   3.404   0.249   5.914
 1877SOL     OW 6529   0.526   0.253   3.655
 1877SOL    HW1 6530   0.545   0.264   3.558
 1877SOL    HW2 6531   0.578   0.319   3.708
 1878SOL     OW 6532   6.676   1.815   3.858
 1878SOL    HW1 6533   6.766   1.779   3.880
 1878SOL    HW2 6534   6.609   1.778   3.923
 1879SOL     OW 6535   1.285   3.707   4.330
 1879SOL    HW1 6536   1.212   3.668   4.274
 1879SOL    HW2 6537   1.245   3.759   4.406
 1880SOL     OW 6538   6.870   0.807   5.065
 1880SOL    HW1 6539   6.888   0.891   5.013
 1880SOL    HW2 6540   6.861   0.830   5.162
 1881SOL     OW 6541   6.274   2.307   1.998
 1881SOL    HW1 6542   6.265   2.214   2.033
 1881SOL    HW2 6543   6.286   2.305   1.899
 1882SOL     OW 6544   1.298   4.659   6.402
 1882SOL    HW1 6545   1.199   4.665   6.396
 1882SOL    HW2 6546   1.329   4.577   6.353
 1883SOL     OW 6547   6.504   2.172   2.607
 1883SOL    HW1 6548   6.412   2.152   2.642
 1883SOL    HW2 6549   6.500   2.249   2.544
 1884SOL     OW 6550   1.627   1.722   0.823
 1884SOL    HW1 6551   1.597   1.738   0.730
 1884SOL    HW2 6552   1.593   1.795   0.883
 1885SOL     OW 6553   1.502   1.815   6.013
 1885SOL    HW1 6554   1.553   1.732   6.034
 1885SOL    HW2 6555   1.495   1.825   5.914
 1886SOL     OW 6556   1.877   0.301   1.520
 1886SOL    HW1 6557   1.909   0.241   1.446
 1886SOL    HW2 6558   1.818   0.372   1.482
 1887SOL     OW 6559   0.500   5.595   5.566
 1887SOL    HW1 6560   0.530   5.655   5.640
 1887SOL    HW2 6561   0.579   5.546   5.529
 1888SOL     OW 6562   3.096   1.641   6.587
 1888SOL    HW1 6563   3.076   1.690   6.672
 1888SOL    HW2 6564   3.166   1.572   6.605
 1889SOL     OW 6565   0.189   3.353   3.739
 1889SOL    HW1 6566   0.159   3.301   3.819
 1889SOL    HW2 6567   0.177   3.450   3.756
 1890SOL     OW 6568   0.709   5.637   4.293
 1890SOL    HW1 6569   0.786   5.686   4.336
 1890SOL    HW2 6570   0.703   5.545   4.331
 1891SOL     OW 6571   4.245   2.897   1.665
 1891SOL    HW1 6572   4.238   2.929   1.759
 1891SOL    HW2 6573   4.340   2.873   1.645
 1892SOL     OW 6574   0.232   0.592   2.114
 1892SOL    HW1 6575   0.176   0.579   2.195
 1892SOL    HW2 6576   0.206   0.525   2.044
 1893SOL     OW 6577   3.769   2.929   2.032
 1893SOL    HW1 6578   3.822   2.913   1.948
 1893SOL    HW2 6579   3.829   2.923   2.111
 1894SOL     OW 6580   3.481   4.143   4.084
 1894SOL    HW1 6581   3.462   4.148   3.986
 1894SOL    HW2 6582   3.523   4.229   4.114
 1895SOL     OW 6583   4.033   0.114   1.002
 1895SOL    HW1 6584   4.070   0.092   0.912
 1895SOL    HW2 6585   3.943   0.155   0.992
 1896SOL     OW 6586   6.484   1.604   0.682
 1896SOL    HW1 6587   6.460   1.672   0.612
 1896SOL    HW2 6588   6.530   1.526   0.637
 1897SOL     OW 6589   1.554   4.893   2.214
 1897SOL    HW1 6590   1.639   4.842   2.221
 1897SOL    HW2 6591   1.477   4.829   2.219
 1898SOL     OW 6592   2.221   4.380   2.372
 1898SOL    HW1 6593   2.157   4.363   2.447
 1898SOL    HW2 6594   2.200   4.469   2.331
 1899SOL     OW 6595   0.843   0.851   0.136
 1899SOL    HW1 6596   0.894   0.930   0.169
 1899SOL    HW2 6597   0.892   0.811   0.058
 1900SOL     OW 6598   2.774   0.803   6.621
 1900SOL    HW1 6599   2.871   0.823   6.638
 1900SOL    HW2 6600   2.739   0.745   6.694
 1901SOL     OW 6601   2.930   2.610   1.172
 1901SOL    HW1 6602   2.949   2.639   1.078
 1901SOL    HW2 6603   2.953   2.684   1.235
 1902SOL     OW 6604   2.362   0.591   4.957
 1902SOL    HW1 6605   2.278   0.537   4.959
 1902SOL    HW2 6606   2.432   0.543   4.904
 1903SOL     OW 6607   0.831   3.487   3.369
 1903SOL    HW1 6608   0.812   3.574   3.415
 1903SOL    HW2 6609   0.750   3.459   3.318
 1904SOL     OW 6610   5.739   5.081   3.039
 1904SOL    HW1 6611   5.738   5.012   2.966
 1904SOL    HW2 6612   5.709   5.169   3.003
 1905SOL     OW 6613   0.805   0.476   3.386
 1905SOL    HW1 6614   0.798   0.412   3.461
 1905SOL    HW2 6615   0.868   0.440   3.317
 1906SOL     OW 6616   2.679   0.466   6.001
 1906SOL    HW1 6617   2.734   0.501   5.925
 1906SOL    HW2 6618   2.674   0.367   5.996
 1907SOL     OW 6619   4.668   2.469   1.232
 1907SOL    HW1 6620   4.569   2.483   1.221
 1907SOL    HW2 6621   4.710   2.456   1.142
 1908SOL     OW 6622   4.127   6.772   6.322
 1908SOL    HW1 6623   4.052   6.837   6.324
 1908SOL    HW2 6624   4.112   6.701   6.391
 1909SOL     OW 6625   0.752   3.208   3.623
 1909SOL    HW1 6626   0.686   3.280   3.646
 1909SOL    HW2 6627   0.827   3.247   3.570
 1910SOL     OW 6628   6.487   6.357   5.726
 1910SOL    HW1 6629   6.483   6.456   5.738
 1910SOL    HW2 6630   6.419   6.329   5.659
 1911SOL     OW 6631   6.846   3.916   4.621
 1911SOL    HW1 6632   6.929   3.972   4.614
 1911SOL    HW2 6633   6.804   3.930   4.711
 1912SOL     OW 6634   3.055   5.559   2.310
 1912SOL    HW1 6635   2.988   5.609   2.365
 1912SOL    HW2 6636   3.018   5.544   2.218
 1913SOL     OW 6637   2.111   6.628   4.395
 1913SOL    HW1 6638   2.145   6.584   4.477
 1913SOL    HW2 6639   2.097   6.559   4.323
 1914SOL     OW 6640   4.023   4.199   6.246
 1914SOL    HW1 6641   4.122   4.213   6.249
 1914SOL    HW2 6642   3.980   4.246   6.323
 1915SOL     OW 6643   4.847   2.704   5.727
 1915SOL    HW1 6644   4.852   2.610   5.762
 1915SOL    HW2 6645   4.857   2.768   5.802
 1916SOL     OW 6646   4.205   6.457   1.222
 1916SOL    HW1 6647   4.136   6.516   1.266
 1916SOL    HW2 6648   4.230   6.496   1.133
 1917SOL     OW 6649   2.563   3.928   6.925
 1917SOL    HW1 6650   2.508   3.939   6.842
 1917SOL    HW2 6651   2.650   3.883   6.901
 1918SOL     OW 6652   1.038   1.097   4.788
 1918SOL    HW1 6653   1.052   1.127   4.883
 1918SOL    HW2 6654   1.122   1.116   4.736
 1919SOL     OW 6655   2.014   1.831   0.803
 1919SOL    HW1 6656   2.043   1.772   0.878
 1919SOL    HW2 6657   2.035   1.786   0.716
 1920SOL     OW 6658   5.846   2.468   2.276
 1920SOL    HW1 6659   5.786   2.431   2.205
 1920SOL    HW2 6660   5.897   2.393   2.318
 1921SOL     OW 6661   1.055   3.015   0.106
 1921SOL    HW1 6662   1.016   2.930   0.142
 1921SOL    HW2 6663   1.023   3.029   0.012
 1922SOL     OW 6664   3.246   3.560   1.862
 1922SOL    HW1 6665   3.288   3.477   1.826
 1922SOL    HW2 6666   3.241   3.630   1.790
 1923SOL     OW 6667   4.963   0.651   0.049
 1923SOL    HW1 6668   4.864   0.658   0.035
 1923SOL    HW2 6669   4.984   0.565   0.096
 1924SOL     OW 6670   4.584   0.148   0.747
 1924SOL    HW1 6671   4.639   0.148   0.831
 1924SOL    HW2 6672   4.628   0.091   0.678
 1925SOL     OW 6673   0.681   4.255   1.742
 1925SOL    HW1 6674   0.588   4.220   1.754
 1925SOL    HW2 6675   0.746   4.189   1.779
 1926SOL     OW 6676   3.743   6.903   1.650
 1926SOL    HW1 6677   3.707   6.847   1.724
 1926SOL    HW2 6678   3.696   6.991   1.648
 1927SOL     OW 6679   2.508   4.039   0.839
 1927SOL    HW1 6680   2.586   3.978   0.856
 1927SOL    HW2 6681   2.478   4.080   0.925
 1928SOL     OW 6682   4.596   4.819   4.398
 1928SOL    HW1 6683   4.509   4.774   4.378
 1928SOL    HW2 6684   4.668   4.777   4.343
 1929SOL     OW 6685   2.981   0.808   2.317
 1929SOL    HW1 6686   2.969   0.741   2.244
 1929SOL    HW2 6687   2.971   0.900   2.280
 1930SOL     OW 6688   5.021   3.193   6.324
 1930SOL    HW1 6689   4.940   3.160   6.274
 1930SOL    HW2 6690   5.025   3.150   6.414
 1931SOL     OW 6691   0.883   1.707   6.669
 1931SOL    HW1 6692   0.855   1.617   6.703
 1931SOL    HW2 6693   0.904   1.701   6.572
 1932SOL     OW 6694   4.572   2.569   3.107
 1932SOL    HW1 6695   4.543   2.517   3.027
 1932SOL    HW2 6696   4.511   2.549   3.184
 1933SOL     OW 6697   0.414   1.842   0.149
 1933SOL    HW1 6698   0.493   1.838   0.210
 1933SOL    HW2 6699   0.415   1.763   0.088
 1934SOL     OW 6700   0.233   0.407   5.601
 1934SOL    HW1 6701   0.295   0.341   5.559
 1934SOL    HW2 6702   0.157   0.358   5.645
 1935SOL     OW 6703   4.545   4.472   4.087
 1935SOL    HW1 6704   4.483   4.538   4.044
 1935SOL    HW2 6705   4.602   4.520   4.153
 1936SOL     OW 6706   5.194   3.841   4.026
 1936SOL    HW1 6707   5.193   3.941   4.036
 1936SOL    HW2 6708   5.210   3.799   4.115
 1937SOL     OW 6709   4.570   6.107   6.836
 1937SOL    HW1 6710   4.607   6.053   6.761
 1937SOL    HW2 6711   4.564   6.203   6.808
 1938SOL     OW 6712   1.242   2.662   6.630
 1938SOL    HW1 6713   1.203   2.703   6.712
 1938SOL    HW2 6714   1.172   2.656   6.559
 1939SOL     OW 6715   0.799   5.301   4.602
 1939SOL    HW1 6716   0.789   5.202   4.611
 1939SOL    HW2 6717   0.889   5.322   4.564
 1940SOL     OW 6718   5.813   4.433   1.837
 1940SOL    HW1 6719   5.867   4.402   1.758
 1940SOL    HW2 6720   5.813   4.362   1.907
 1941SOL     OW 6721   0.219   2.777   3.366
 1941SOL    HW1 6722   0.319   2.782   3.360
 1941SOL    HW2 6723   0.191   2.682   3.378
 1942SOL     OW 6724   5.369   3.503   2.557
 1942SOL    HW1 6725   5.422   3.444   2.496
 1942SOL    HW2 6726   5.421   3.587   2.574
 1943SOL     OW 6727   1.137   1.373   2.221
 1943SOL    HW1 6728   1.135   1.313   2.141
 1943SOL    HW2 6729   1.228   1.370   2.262
 1944SOL     OW 6730   6.889   3.428   0.659
 1944SOL    HW1 6731   6.950   3.361   0.701
 1944SOL    HW2 6732   6.842   3.480   0.730
 1945SOL     OW 6733   4.020   6.725   0.947
 1945SOL    HW1 6734   4.007   6.626   0.944
 1945SOL    HW2 6735   3.971   6.763   1.026
 1946SOL     OW 6736   6.315   5.853   1.245
 1946SOL    HW1 6737   6.414   5.853   1.258
 1946SOL    HW2 6738   6.291   5.789   1.173
 1947SOL     OW 6739   5.965   4.357   3.476
 1947SOL    HW1 6740   5.991   4.453   3.489
 1947SOL    HW2 6741   5.880   4.338   3.526
 1948SOL     OW 6742   5.706   3.987   3.138
 1948SOL    HW1 6743   5.709   3.890   3.112
 1948SOL    HW2 6744   5.705   4.044   3.056
 1949SOL     OW 6745   4.215   4.243   0.301
 1949SOL    HW1 6746   4.250   4.329   0.265
 1949SOL    HW2 6747   4.281   4.169   0.282
 1950SOL     OW 6748   3.757   4.104   3.932
 1950SOL    HW1 6749   3.812   4.178   3.893
 1950SOL    HW2 6750   3.668   4.103   3.888
 1951SOL     OW 6751   6.557   4.300   5.652
 1951SOL    HW1 6752   6.581   4.354   5.571
 1951SOL    HW2 6753   6.640   4.259   5.690
 1952SOL     OW 6754   5.270   4.050   1.069
 1952SOL    HW1 6755   5.182   4.005   1.055
 1952SOL    HW2 6756   5.326   4.040   0.987
 1953SOL     OW 6757   0.367   1.236   6.530
 1953SOL    HW1 6758   0.332   1.248   6.623
 1953SOL    HW2 6759   0.297   1.264   6.465
 1954SOL     OW 6760   4.702   0.075   1.934
 1954SOL    HW1 6761   4.760   0.135   1.879
 1954SOL    HW2 6762   4.725   7.003   1.915
 1955SOL     OW 6763   1.042   1.567   1.913
 1955SOL    HW1 6764   1.097   1.617   1.846
 1955SOL    HW2 6765   1.030   1.473   1.881
 1956SOL     OW 6766   5.808   0.718   2.690
 1956SOL    HW1 6767   5.824   0.643   2.754
 1956SOL    HW2 6768   5.712   0.746   2.694
 1957SOL     OW 6769   5.251   2.823   3.845
 1957SOL    HW1 6770   5.274   2.838   3.749
 1957SOL    HW2 6771   5.288   2.735   3.875
 1958SOL     OW 6772   4.581   1.816   0.847
 1958SOL    HW1 6773   4.642   1.752   0.893
 1958SOL    HW2 6774   4.486   1.795   0.871
 1959SOL     OW 6775   6.798   6.635   4.152
 1959SOL    HW1 6776   6.865   6.655   4.080
 1959SOL    HW2 6777   6.844   6.592   4.229
 1960SOL     OW 6778   6.028   3.235   3.011
 1960SOL    HW1 6779   5.956   3.264   3.075
 1960SOL    HW2 6780   6.007   3.144   2.977
 1961SOL     OW 6781   6.357   4.518   4.924
 1961SOL    HW1 6782   6.364   4.478   5.015
 1961SOL    HW2 6783   6.409   4.463   4.859
 1962SOL     OW 6784   1.494   6.056   3.010
 1962SOL    HW1 6785   1.486   6.114   3.091
 1962SOL    HW2 6786   1.578   6.079   2.961
 1963SOL     OW 6787   1.136   1.234   1.621
 1963SOL    HW1 6788   1.088   1.241   1.534
 1963SOL    HW2 6789   1.186   1.148   1.624
 1964SOL     OW 6790   5.596   4.826   1.670
 1964SOL    HW1 6791   5.531   4.780   1.731
 1964SOL    HW2 6792   5.557   4.832   1.578
 1965SOL     OW 6793   0.822   3.978   3.938
 1965SOL    HW1 6794   0.741   4.004   3.990
 1965SOL    HW2 6795   0.903   3.986   3.997
 1966SOL     OW 6796   1.478   4.831   1.324
 1966SOL    HW1 6797   1.437   4.887   1.252
 1966SOL    HW2 6798   1.406   4.789   1.379
 1967SOL     OW 6799   6.706   2.061   3.964
 1967SOL    HW1 6800   6.709   1.988   3.896
 1967SOL    HW2 6801   6.614   2.068   4.002
 1968SOL     OW 6802   2.227   1.207   5.934
 1968SOL    HW1 6803   2.300   1.155   5.978
 1968SOL    HW2 6804   2.257   1.301   5.919
 1969SOL     OW 6805   3.387   0.740   1.308
 1969SOL    HW1 6806   3.350   0.775   1.394
 1969SOL    HW2 6807   3.487   0.747   1.310
 1970SOL     OW 6808   6.232   6.046   4.943
 1970SOL    HW1 6809   6.171   6.117   4.907
 1970SOL    HW2 6810   6.326   6.066   4.915
 1971SOL     OW 6811   1.288   0.101   5.717
 1971SOL    HW1 6812   1.289   0.045   5.799
 1971SOL    HW2 6813   1.223   0.176   5.728
 1972SOL     OW 6814   5.928   2.579   1.498
 1972SOL    HW1 6815   5.848   2.601   1.553
 1972SOL    HW2 6816   5.994   2.528   1.553
 1973SOL     OW 6817   2.908   3.487   1.062
 1973SOL    HW1 6818   2.890   3.419   0.992
 1973SOL    HW2 6819   2.919   3.577   1.020
 1974SOL     OW 6820   4.304   6.448   4.752
 1974SOL    HW1 6821   4.233   6.491   4.697
 1974SOL    HW2 6822   4.294   6.349   4.747
 1975SOL     OW 6823   2.056   3.250   3.372
 1975SOL    HW1 6824   2.095   3.339   3.393
 1975SOL    HW2 6825   1.964   3.243   3.412
 1976SOL     OW 6826   6.723   0.355   6.491
 1976SOL    HW1 6827   6.743   0.257   6.480
 1976SOL    HW2 6828   6.654   0.383   6.426
 1977SOL     OW 6829   2.309   3.852   6.617
 1977SOL    HW1 6830   2.249   3.909   6.674
 1977SOL    HW2 6831   2.290   3.869   6.521
 1978SOL     OW 6832   2.405   6.797   2.450
 1978SOL    HW1 6833   2.406   6.781   2.549
 1978SOL    HW2 6834   2.495   6.775   2.412
 1979SOL     OW 6835   6.125   5.275   6.474
 1979SOL    HW1 6836   6.044   5.221   6.456
 1979SOL    HW2 6837   6.121   5.312   6.567
 1980SOL     OW 6838   2.612   0.963   1.793
 1980SOL    HW1 6839   2.647   0.958   1.700
 1980SOL    HW2 6840   2.673   0.912   1.854
 1981SOL     OW 6841   4.816   2.674   3.190
 1981SOL    HW1 6842   4.841   2.639   3.280
 1981SOL    HW2 6843   4.722   2.649   3.169
 1982SOL     OW 6844   6.814   3.484   3.767
 1982SOL    HW1 6845   6.792   3.395   3.725
 1982SOL    HW2 6846   6.729   3.533   3.785
 1983SOL     OW 6847   0.466   0.008   0.719
 1983SOL    HW1 6848   0.399   0.076   0.690
 1983SOL    HW2 6849   0.557   0.034   0.686
 1984SOL     OW 6850   5.388   2.464   5.369
 1984SOL    HW1 6851   5.383   2.364   5.376
 1984SOL    HW2 6852   5.385   2.504   5.460
 1985SOL     OW 6853   6.357   5.257   1.444
 1985SOL    HW1 6854   6.413   5.222   1.369
 1985SOL    HW2 6855   6.278   5.196   1.458
 1986SOL     OW 6856   3.209   1.259   6.535
 1986SOL    HW1 6857   3.238   1.190   6.468
 1986SOL    HW2 6858   3.109   1.258   6.543
 1987SOL     OW 6859   1.396   1.003   4.099
 1987SOL    HW1 6860   1.416   1.080   4.039
 1987SOL    HW2 6861   1.448   0.923   4.068
 1988SOL     OW 6862   0.347   1.725   0.904
 1988SOL    HW1 6863   0.264   1.779   0.890
 1988SOL    HW2 6864   0.343   1.681   0.994
 1989SOL     OW 6865   2.719   5.541   5.343
 1989SOL    HW1 6866   2.636   5.560   5.291
 1989SOL    HW2 6867   2.700   5.547   5.441
 1990SOL     OW 6868   3.952   0.831   0.176
 1990SOL    HW1 6869   4.043   0.826   0.219
 1990SOL    HW2 6870   3.924   0.739   0.149
 1991SOL     OW 6871   3.102   5.807   0.251
 1991SOL    HW1 6872   3.197   5.834   0.269
 1991SOL    HW2 6873   3.072   5.743   0.322
 1992SOL     OW 6874   6.840   6.448   0.105
 1992SOL    HW1 6875   6.847   6.438   0.204
 1992SOL    HW2 6876   6.757   6.499   0.083
 1993SOL     OW 6877   2.069   2.791   4.911
 1993SOL    HW1 6878   2.104   2.882   4.888
 1993SOL    HW2 6879   2.144   2.725   4.911
 1994SOL     OW 6880   3.858   3.428   0.402
 1994SOL    HW1 6881   3.803   3.484   0.464
 1994SOL    HW2 6882   3.947   3.472   0.387
 1995SOL     OW 6883   5.404   1.994   5.100
 1995SOL    HW1 6884   5.326   2.041   5.141
 1995SOL    HW2 6885   5.372   1.908   5.059
 1996SOL     OW 6886   3.533   1.528   1.459
 1996SOL    HW1 6887   3.565   1.607   1.510
 1996SOL    HW2 6888   3.575   1.445   1.496
 1997SOL     OW 6889   3.191   1.369   3.920
 1997SOL    HW1 6890   3.155   1.401   4.007
 1997SOL    HW2 6891   3.120   1.320   3.870
 1998SOL     OW 6892   1.076   3.014   1.783
 1998SOL    HW1 6893   1.110   3.046   1.871
 1998SOL    HW2 6894   1.092   2.915   1.776
 1999SOL     OW 6895   0.901   0.464   5.612
 1999SOL    HW1 6896   0.953   0.538   5.570
 1999SOL    HW2 6897   0.879   0.395   5.543
 2000SOL     OW 6898   3.723   3.658   5.943
 2000SOL    HW1 6899   3.723   3.607   6.029
 2000SOL    HW2 6900   3.806   3.713   5.936
 2001SOL     OW 6901   1.649   1.952   6.554
 2001SOL    HW1 6902   1.585   1.919   6.624
 2001SOL    HW2 6903   1.645   1.893   6.474
 2002SOL     OW 6904   0.157   5.782   1.140
 2002SOL    HW1 6905   0.160   5.685   1.164
 2002SOL    HW2 6906   0.184   5.793   1.045
 2003SOL     OW 6907   6.300   4.827   2.107
 2003SOL    HW1 6908   6.363   4.875   2.168
 2003SOL    HW2 6909   6.208   4.830   2.146
 2004SOL     OW 6910   3.494   0.375   3.630
 2004SOL    HW1 6911   3.537   0.293   3.592
 2004SOL    HW2 6912   3.427   0.348   3.699
 2005SOL     OW 6913   0.383   5.978   0.420
 2005SOL    HW1 6914   0.434   6.055   0.458
 2005SOL    HW2 6915   0.416   5.959   0.327
 2006SOL     OW 6916   5.446   0.383   3.522
 2006SOL    HW1 6917   5.539   0.416   3.511
 2006SOL    HW2 6918   5.387   0.458   3.553
 2007SOL     OW 6919   5.026   4.377   0.860
 2007SOL    HW1 6920   5.010   4.406   0.954
 2007SOL    HW2 6921   5.122   4.353   0.848
 2008SOL     OW 6922   2.238   4.122   3.832
 2008SOL    HW1 6923   2.225   4.046   3.768
 2008SOL    HW2 6924   2.149   4.158   3.860
 2009SOL     OW 6925   6.324   6.103   2.094
 2009SOL    HW1 6926   6.324   6.008   2.061
 2009SOL    HW2 6927   6.412   6.145   2.071
 2010SOL     OW 6928   1.805   2.450   1.913
 2010SOL    HW1 6929   1.711   2.477   1.929
 2010SOL    HW2 6930   1.860   2.530   1.889
 2011SOL     OW 6931   6.873   6.266   5.551
 2011SOL    HW1 6932   6.932   6.345   5.571
 2011SOL    HW2 6933   6.930   6.184   5.542
 2012SOL     OW 6934   1.535   3.355   2.419
 2012SOL    HW1 6935   1.492   3.435   2.376
 2012SOL    HW2 6936   1.631   3.375   2.437
 2013SOL     OW 6937   0.524   2.866   3.315
 2013SOL    HW1 6938   0.595   2.889   3.248
 2013SOL    HW2 6939   0.486   2.950   3.353
 2014SOL     OW 6940   2.835   0.354   3.597
 2014SOL    HW1 6941   2.764   0.407   3.642
 2014SOL    HW2 6942   2.824   0.360   3.498
 2015SOL     OW 6943   3.977   0.864   1.898
 2015SOL    HW1 6944   3.921   0.781   1.896
 2015SOL    HW2 6945   3.939   0.927   1.966
 2016SOL     OW 6946   1.629   6.168   5.547
 2016SOL    HW1 6947   1.601   6.114   5.467
 2016SOL    HW2 6948   1.555   6.230   5.572
 2017SOL     OW 6949   4.239   6.751   3.106
 2017SOL    HW1 6950   4.202   6.843   3.099
 2017SOL    HW2 6951   4.265   6.732   3.201
 2018SOL     OW 6952   7.013   2.275   3.010
 2018SOL    HW1 6953   6.992   2.209   2.938
 2018SOL    HW2 6954   6.957   2.357   2.997
 2019SOL     OW 6955   6.452   4.878   6.140
 2019SOL    HW1 6956   6.361   4.866   6.101
 2019SOL    HW2 6957   6.496   4.789   6.150
 2020SOL     OW 6958   1.515   6.364   5.943
 2020SOL    HW1 6959   1.435   6.306   5.958
 2020SOL    HW2 6960   1.592   6.332   5.999
 2021SOL     OW 6961   6.172   6.459   3.212
 2021SOL    HW1 6962   6.201   6.372   3.252
 2021SOL    HW2 6963   6.253   6.509   3.180
 2022SOL     OW 6964   1.853   3.980   5.046
 2022SOL    HW1 6965   1.948   3.951   5.045
 2022SOL    HW2 6966   1.815   3.977   4.954
 2023SOL     OW 6967   0.216   0.451   0.080
 2023SOL    HW1 6968   0.180   0.471   7.012
 2023SOL    HW2 6969   0.266   0.530   0.114
 2024SOL     OW 6970   0.409   5.945   4.405
 2024SOL    HW1 6971   0.426   5.854   4.370
 2024SOL    HW2 6972   0.365   6.001   4.335
 2025SOL     OW 6973   2.180   0.914   4.644
 2025SOL    HW1 6974   2.136   0.827   4.665
 2025SOL    HW2 6975   2.151   0.983   4.711
 2026SOL     OW 6976   5.801   0.735   6.462
 2026SOL    HW1 6977   5.729   0.754   6.396
 2026SOL    HW2 6978   5.879   0.693   6.415
 2027SOL     OW 6979   0.648   5.494   1.863
 2027SOL    HW1 6980   0.649   5.396   1.881
 2027SOL    HW2 6981   0.709   5.541   1.927
 2028SOL     OW 6982   3.724   6.148   2.856
 2028SOL    HW1 6983   3.773   6.061   2.862
 2028SOL    HW2 6984   3.626   6.131   2.855
 2029SOL     OW 6985   6.963   2.296   6.469
 2029SOL    HW1 6986   7.011   2.378   6.500
 2029SOL    HW2 6987   0.006   2.229   6.436
 2030SOL     OW 6988   3.008   5.636   3.319
 2030SOL    HW1 6989   2.953   5.578   3.259
 2030SOL    HW2 6990   3.104   5.634   3.290
 2031SOL     OW 6991   6.955   5.330   2.938
 2031SOL    HW1 6992   6.873   5.337   2.995
 2031SOL    HW2 6993   7.021   5.399   2.966
 2032SOL     OW 6994   3.533   1.557   6.542
 2032SOL    HW1 6995   3.447   1.553   6.593
 2032SOL    HW2 6996   3.546   1.650   6.507
 2033SOL     OW 6997   1.940   0.854   0.898
 2033SOL    HW1 6998   1.848   0.889   0.880
 2033SOL    HW2 6999   1.949   0.761   0.864
 2034SOL     OW 7000   0.437   5.349   5.665
 2034SOL    HW1 7001   0.451   5.445   5.638
 2034SOL    HW2 7002   0.379   5.304   5.597
 2035SOL     OW 7003   6.090   0.164   2.451
 2035SOL    HW1 7004   6.049   0.124   2.370
 2035SOL    HW2 7005   6.051   0.255   2.467
 2036SOL     OW 7006   1.117   3.327   2.668
 2036SOL    HW1 7007   1.091   3.349   2.762
 2036SOL    HW2 7008   1.216   3.333   2.658
 2037SOL     OW 7009   0.279   2.554   6.302
 2037SOL    HW1 7010   0.223   2.544   6.385
 2037SOL    HW2 7011   0.362   2.604   6.324
 2038SOL     OW 7012   2.365   1.584   6.700
 2038SOL    HW1 7013   2.325   1.590   6.609
 2038SOL    HW2 7014   2.443   1.647   6.707
 2039SOL     OW 7015   6.920   6.276   2.655
 2039SOL    HW1 7016   6.847   6.300   2.592
 2039SOL    HW2 7017   6.955   6.185   2.633
 2040SOL     OW 7018   2.552   2.917   0.245
 2040SOL    HW1 7019   2.503   2.987   0.194
 2040SOL    HW2 7020   2.507   2.828   0.231
 2041SOL     OW 7021   1.966   6.917   5.990
 2041SOL    HW1 7022   2.022   6.985   5.943
 2041SOL    HW2 7023   1.871   6.947   5.993
 2042SOL     OW 7024   4.649   0.351   6.346
 2042SOL    HW1 7025   4.666   0.398   6.433
 2042SOL    HW2 7026   4.663   0.415   6.270
 2043SOL     OW 7027   6.987   3.183   1.223
 2043SOL    HW1 7028   6.897   3.191   1.266
 2043SOL    HW2 7029   0.014   3.107   1.264
 2044SOL     OW 7030   5.026   0.933   0.688
 2044SOL    HW1 7031   5.031   0.945   0.588
 2044SOL    HW2 7032   5.064   0.844   0.712
 2045SOL     OW 7033   1.923   5.899   6.157
 2045SOL    HW1 7034   1.953   5.991   6.180
 2045SOL    HW2 7035   1.832   5.883   6.193
 2046SOL     OW 7036   1.045   1.922   5.116
 2046SOL    HW1 7037   0.958   1.960   5.087
 2046SOL    HW2 7038   1.106   1.915   5.037
 2047SOL     OW 7039   6.300   2.146   0.297
 2047SOL    HW1 7040   6.288   2.075   0.366
 2047SOL    HW2 7041   6.322   2.232   0.343
 2048SOL     OW 7042   1.197   1.068   4.529
 2048SOL    HW1 7043   1.280   1.052   4.475
 2048SOL    HW2 7044   1.193   1.164   4.556
 2049SOL     OW 7045   4.850   1.194   4.813
 2049SOL    HW1 7046   4.875   1.274   4.867
 2049SOL    HW2 7047   4.836   1.222   4.717
 2050SOL     OW 7048   0.723   1.013   4.018
 2050SOL    HW1 7049   0.730   1.091   4.080
 2050SOL    HW2 7050   0.761   0.932   4.061
 2051SOL     OW 7051   2.994   6.764   0.986
 2051SOL    HW1 7052   3.062   6.795   1.052
 2051SOL    HW2 7053   2.903   6.792   1.016
 2052SOL     OW 7054   1.838   4.600   6.758
 2052SOL    HW1 7055   1.795   4.683   6.793
 2052SOL    HW2 7056   1.836   4.529   6.829
 2053SOL     OW 7057   0.916   5.257   3.952
 2053SOL    HW1 7058   0.909   5.224   4.046
 2053SOL    HW2 7059   0.957   5.348   3.951
 2054SOL     OW 7060   3.167   3.541   3.532
 2054SOL    HW1 7061   3.246   3.599   3.547
 2054SOL    HW2 7062   3.180   3.454   3.581
 2055SOL     OW 7063   1.841   2.351   5.386
 2055SOL    HW1 7064   1.779   2.279   5.418
 2055SOL    HW2 7065   1.794   2.407   5.318
 2056SOL     OW 7066   3.758   4.742   1.059
 2056SOL    HW1 7067   3.738   4.659   1.111
 2056SOL    HW2 7068   3.803   4.718   0.973
 2057SOL     OW 7069   5.286   2.352   4.633
 2057SOL    HW1 7070   5.213   2.406   4.592
 2057SOL    HW2 7071   5.287   2.368   4.732
 2058SOL     OW 7072   1.201   6.508   3.443
 2058SOL    HW1 7073   1.154   6.580   3.393
 2058SOL    HW2 7074   1.134   6.448   3.486
 2059SOL     OW 7075   2.581   0.020   5.485
 2059SOL    HW1 7076   2.558   7.005   5.395
 2059SOL    HW2 7077   2.501   0.066   5.522
 2060SOL     OW 7078   1.291   3.551   0.029
 2060SOL    HW1 7079   1.241   3.636   0.013
 2060SOL    HW2 7080   1.362   3.566   0.098
 2061SOL     OW 7081   1.882   1.989   2.256
 2061SOL    HW1 7082   1.940   1.918   2.295
 2061SOL    HW2 7083   1.901   2.077   2.301
 2062SOL     OW 7084   6.369   5.492   5.197
 2062SOL    HW1 7085   6.384   5.409   5.143
 2062SOL    HW2 7086   6.286   5.537   5.166
 2063SOL     OW 7087   1.639   0.701   5.577
 2063SOL    HW1 7088   1.639   0.702   5.477
 2063SOL    HW2 7089   1.670   0.612   5.609
 2064SOL     OW 7090   0.403   2.754   4.018
 2064SOL    HW1 7091   0.360   2.807   3.945
 2064SOL    HW2 7092   0.346   2.759   4.100
 2065SOL     OW 7093   4.554   2.820   5.720
 2065SOL    HW1 7094   4.622   2.748   5.736
 2065SOL    HW2 7095   4.543   2.833   5.621
 2066SOL     OW 7096   5.832   2.797   5.857
 2066SOL    HW1 7097   5.874   2.772   5.770
 2066SOL    HW2 7098   5.780   2.719   5.893
 2067SOL     OW 7099   6.365   4.748   1.500
 2067SOL    HW1 7100   6.354   4.703   1.589
 2067SOL    HW2 7101   6.287   4.727   1.442
 2068SOL     OW 7102   3.606   0.663   3.986
 2068SOL    HW1 7103   3.535   0.730   4.010
 2068SOL    HW2 7104   3.693   0.691   4.025
 2069SOL     OW 7105   0.120   2.071   4.132
 2069SOL    HW1 7106   0.092   2.023   4.049
 2069SOL    HW2 7107   0.220   2.082   4.131
 2070SOL     OW 7108   0.794   3.751   1.867
 2070SOL    HW1 7109   0.720   3.710   1.814
 2070SOL    HW2 7110   0.815   3.692   1.945
 2071SOL     OW 7111   6.180   1.630   6.284
 2071SOL    HW1 7112   6.089   1.652   6.250
 2071SOL    HW2 7113   6.237   1.597   6.209
 2072SOL     OW 7114   3.931   4.637   5.274
 2072SOL    HW1 7115   3.856   4.584   5.312
 2072SOL    HW2 7116   4.016   4.611   5.319
 2073SOL     OW 7117   3.299   5.991   0.542
 2073SOL    HW1 7118   3.391   6.009   0.577
 2073SOL    HW2 7119   3.249   5.934   0.608
 2074SOL     OW 7120   1.586   3.640   5.492
 2074SOL    HW1 7121   1.590   3.736   5.465
 2074SOL    HW2 7122   1.678   3.607   5.513
 2075SOL     OW 7123   6.870   2.384   2.194
 2075SOL    HW1 7124   6.967   2.407   2.200
 2075SOL    HW2 7125   6.824   2.412   2.278
 2076SOL     OW 7126   5.434   5.896   4.946
 2076SOL    HW1 7127   5.335   5.882   4.955
 2076SOL    HW2 7128   5.454   5.994   4.948
 2077SOL     OW 7129   0.062   3.486   0.917
 2077SOL    HW1 7130   0.004   3.506   0.997
 2077SOL    HW2 7131   0.100   3.394   0.927
 2078SOL     OW 7132   1.792   3.936   5.775
 2078SOL    HW1 7133   1.709   3.957   5.724
 2078SOL    HW2 7134   1.858   3.892   5.714
 2079SOL     OW 7135   5.350   1.367   1.516
 2079SOL    HW1 7136   5.330   1.344   1.611
 2079SOL    HW2 7137   5.449   1.369   1.502
 2080SOL     OW 7138   2.618   2.759   5.624
 2080SOL    HW1 7139   2.650   2.666   5.609
 2080SOL    HW2 7140   2.660   2.796   5.706
 2081SOL     OW 7141   0.109   6.943   3.299
 2081SOL    HW1 7142   0.174   7.018   3.287
 2081SOL    HW2 7143   0.016   6.977   3.282
 2082SOL     OW 7144   0.420   6.242   2.319
 2082SOL    HW1 7145   0.325   6.268   2.333
 2082SOL    HW2 7146   0.480   6.308   2.365
 2083SOL     OW 7147   6.667   5.813   4.423
 2083SOL    HW1 7148   6.658   5.893   4.483
 2083SOL    HW2 7149   6.704   5.736   4.476
 2084SOL     OW 7150   0.827   1.732   1.855
 2084SOL    HW1 7151   0.868   1.642   1.859
 2084SOL    HW2 7152   0.896   1.802   1.876
 2085SOL     OW 7153   5.058   5.440   0.390
 2085SOL    HW1 7154   5.083   5.502   0.315
 2085SOL    HW2 7155   5.132   5.376   0.406
 2086SOL     OW 7156   4.393   0.182   0.033
 2086SOL    HW1 7157   4.469   0.175   0.097
 2086SOL    HW2 7158   4.416   0.133   6.972
 2087SOL     OW 7159   4.112   2.361   6.975
 2087SOL    HW1 7160   4.082   2.371   6.880
 2087SOL    HW2 7161   4.041   2.397   0.013
 2088SOL     OW 7162   6.861   5.472   5.141
 2088SOL    HW1 7163   6.789   5.502   5.204
 2088SOL    HW2 7164   6.915   5.401   5.185
 2089SOL     OW 7165   2.859   3.218   5.925
 2089SOL    HW1 7166   2.903   3.201   6.013
 2089SOL    HW2 7167   2.828   3.131   5.886
 2090SOL     OW 7168   4.515   3.532   5.338
 2090SOL    HW1 7169   4.462   3.617   5.343
 2090SOL    HW2 7170   4.584   3.540   5.267
 2091SOL     OW 7171   6.279   5.633   2.127
 2091SOL    HW1 7172   6.260   5.637   2.225
 2091SOL    HW2 7173   6.274   5.538   2.095
 2092SOL     OW 7174   4.405   3.924   1.178
 2092SOL    HW1 7175   4.355   3.959   1.099
 2092SOL    HW2 7176   4.494   3.890   1.149
 2093SOL     OW 7177   3.792   2.128   2.913
 2093SOL    HW1 7178   3.892   2.118   2.905
 2093SOL    HW2 7179   3.758   2.184   2.837
 2094SOL     OW 7180   5.399   2.653   0.095
 2094SOL    HW1 7181   5.460   2.614   0.164
 2094SOL    HW2 7182   5.304   2.644   0.125
 2095SOL     OW 7183   5.571   6.560   3.862
 2095SOL    HW1 7184   5.659   6.601   3.836
 2095SOL    HW2 7185   5.509   6.563   3.783
 2096SOL     OW 7186   4.328   6.424   2.023
 2096SOL    HW1 7187   4.323   6.403   1.925
 2096SOL    HW2 7188   4.417   6.465   2.044
 2097SOL     OW 7189   1.616   5.318   6.635
 2097SOL    HW1 7190   1.665   5.238   6.602
 2097SOL    HW2 7191   1.520   5.312   6.610
 2098SOL     OW 7192   3.278   6.420   3.046
 2098SOL    HW1 7193   3.334   6.486   3.098
 2098SOL    HW2 7194   3.237   6.466   2.967
 2099SOL     OW 7195   5.377   1.100   0.412
 2099SOL    HW1 7196   5.431   1.158   0.351
 2099SOL    HW2 7197   5.376   1.007   0.376
 2100SOL     OW 7198   5.657   1.278   0.667
 2100SOL    HW1 7199   5.635   1.373   0.689
 2100SOL    HW2 7200   5.583   1.238   0.612
 2101SOL     OW 7201   0.278   6.452   2.044
 2101SOL    HW1 7202   0.353   6.459   1.978
 2101SOL    HW2 7203   0.195   6.492   2.004
 2102SOL     OW 7204   3.757   3.609   0.563
 2102SOL    HW1 7205   3.705   3.576   0.642
 2102SOL    HW2 7206   3.700   3.672   0.510
 2103SOL     OW 7207   3.348   6.127   0.117
 2103SOL    HW1 7208   3.363   6.037   0.158
 2103SOL    HW2 7209   3.251   6.137   0.093
 2104SOL     OW 7210   1.087   4.693   3.189
 2104SOL    HW1 7211   1.091   4.708   3.287
 2104SOL    HW2 7212   1.161   4.632   3.161
 2105SOL     OW 7213   5.532   4.336   6.666
 2105SOL    HW1 7214   5.614   4.392   6.680
 2105SOL    HW2 7215   5.557   4.239   6.672
 2106SOL     OW 7216   5.103   3.570   2.453
 2106SOL    HW1 7217   5.038   3.591   2.527
 2106SOL    HW2 7218   5.067   3.607   2.367
 2107SOL     OW 7219   5.272   3.728   5.182
 2107SOL    HW1 7220   5.254   3.822   5.154
 2107SOL    HW2 7221   5.287   3.671   5.101
 2108SOL     OW 7222   5.705   6.548   5.722
 2108SOL    HW1 7223   5.616   6.591   5.735
 2108SOL    HW2 7224   5.758   6.599   5.655
 2109SOL     OW 7225   2.646   5.261   2.771
 2109SOL    HW1 7226   2.556   5.230   2.802
 2109SOL    HW2 7227   2.692   5.311   2.844
 2110SOL     OW 7228   3.594   0.884   6.787
 2110SOL    HW1 7229   3.637   0.810   6.736
 2110SOL    HW2 7230   3.507   0.909   6.744
 2111SOL     OW 7231   1.111   2.881   6.005
 2111SOL    HW1 7232   1.183   2.820   6.037
 2111SOL    HW2 7233   1.024   2.832   6.004
 2112SOL     OW 7234   0.718   1.995   0.793
 2112SOL    HW1 7235   0.775   2.023   0.716
 2112SOL    HW2 7236   0.772   1.997   0.877
 2113SOL     OW 7237   1.665   0.163   4.587
 2113SOL    HW1 7238   1.698   0.182   4.679
 2113SOL    HW2 7239   1.661   0.248   4.534
 2114SOL     OW 7240   2.159   2.477   0.158
 2114SOL    HW1 7241   2.096   2.536   0.107
 2114SOL    HW2 7242   2.148   2.382   0.128
 2115SOL     OW 7243   0.254   5.545   3.442
 2115SOL    HW1 7244   0.321   5.560   3.515
 2115SOL    HW2 7245   0.166   5.519   3.483
 2116SOL     OW 7246   0.660   2.244   0.016
 2116SOL    HW1 7247   0.739   2.214   6.986
 2116SOL    HW2 7248   0.583   2.182   7.023
 2117SOL     OW 7249   5.686   1.514   2.203
 2117SOL    HW1 7250   5.733   1.569   2.133
 2117SOL    HW2 7251   5.601   1.478   2.165
 2118SOL     OW 7252   6.093   3.032   2.083
 2118SOL    HW1 7253   6.048   3.052   1.996
 2118SOL    HW2 7254   6.049   2.953   2.125
 2119SOL     OW 7255   3.186   0.373   6.740
 2119SOL    HW1 7256   3.159   0.278   6.727
 2119SOL    HW2 7257   3.263   0.394   6.679
 2120SOL     OW 7258   5.823   1.720   1.229
 2120SOL    HW1 7259   5.770   1.682   1.153
 2120SOL    HW2 7260   5.919   1.727   1.203
 2121SOL     OW 7261   1.950   0.923   6.650
 2121SOL    HW1 7262   1.906   0.848   6.601
 2121SOL    HW2 7263   2.002   0.886   6.727
 2122SOL     OW 7264   5.934   0.677   5.178
 2122SOL    HW1 7265   5.882   0.685   5.093
 2122SOL    HW2 7266   5.975   0.765   5.200
 2123SOL     OW 7267   1.257   5.924   3.232
 2123SOL    HW1 7268   1.239   5.827   3.220
 2123SOL    HW2 7269   1.349   5.946   3.198
 2124SOL     OW 7270   3.433   2.893   5.965
 2124SOL    HW1 7271   3.345   2.940   5.959
 2124SOL    HW2 7272   3.497   2.934   5.900
 2125SOL     OW 7273   1.651   5.875   2.763
 2125SOL    HW1 7274   1.569   5.862   2.706
 2125SOL    HW2 7275   1.638   5.829   2.851
 2126SOL     OW 7276   3.864   4.093   6.673
 2126SOL    HW1 7277   3.911   4.167   6.722
 2126SOL    HW2 7278   3.776   4.126   6.639
 2127SOL     OW 7279   0.503   2.271   5.448
 2127SOL    HW1 7280   0.452   2.357   5.454
 2127SOL    HW2 7281   0.559   2.271   5.365
 2128SOL     OW 7282   5.299   2.926   1.864
 2128SOL    HW1 7283   5.232   2.963   1.800
 2128SOL    HW2 7284   5.380   2.897   1.813
 2129SOL     OW 7285   4.891   4.507   3.966
 2129SOL    HW1 7286   4.985   4.483   3.940
 2129SOL    HW2 7287   4.868   4.461   4.051
 2130SOL     OW 7288   1.903   0.932   2.539
 2130SOL    HW1 7289   1.898   0.986   2.455
 2130SOL    HW2 7290   1.991   0.950   2.584
 2131SOL     OW 7291   5.908   2.044   6.081
 2131SOL    HW1 7292   5.967   1.977   6.126
 2131SOL    HW2 7293   5.840   2.079   6.145
 2132SOL     OW 7294   2.615   2.056   6.559
 2132SOL    HW1 7295   2.539   2.089   6.504
 2132SOL    HW2 7296   2.632   2.119   6.635
 2133SOL     OW 7297   2.561   2.159   1.788
 2133SOL    HW1 7298   2.562   2.254   1.821
 2133SOL    HW2 7299   2.476   2.141   1.739
 2134SOL     OW 7300   0.655   6.608   5.041
 2134SOL    HW1 7301   0.717   6.538   5.076
 2134SOL    HW2 7302   0.568   6.566   5.014
 2135SOL     OW 7303   0.479   1.230   3.441
 2135SOL    HW1 7304   0.572   1.261   3.421
 2135SOL    HW2 7305   0.414   1.281   3.385
 2136SOL     OW 7306   0.715   3.155   3.926
 2136SOL    HW1 7307   0.686   3.061   3.945
 2136SOL    HW2 7308   0.733   3.165   3.828
 2137SOL     OW 7309   1.400   0.055   5.320
 2137SOL    HW1 7310   1.486   0.096   5.291
 2137SOL    HW2 7311   1.416   7.018   5.398
 2138SOL     OW 7312   0.237   2.940   0.352
 2138SOL    HW1 7313   0.199   2.990   0.430
 2138SOL    HW2 7314   0.329   2.972   0.332
 2139SOL     OW 7315   3.052   0.543   5.084
 2139SOL    HW1 7316   3.054   0.443   5.084
 2139SOL    HW2 7317   2.964   0.576   5.117
 2140SOL     OW 7318   2.448   6.065   3.326
 2140SOL    HW1 7319   2.359   6.106   3.344
 2140SOL    HW2 7320   2.504   6.129   3.273
 2141SOL     OW 7321   5.689   2.171   1.053
 2141SOL    HW1 7322   5.695   2.095   1.119
 2141SOL    HW2 7323   5.602   2.166   1.004
 2142SOL     OW 7324   1.844   2.368   3.583
 2142SOL    HW1 7325   1.809   2.298   3.521
 2142SOL    HW2 7326   1.910   2.327   3.646
 2143SOL     OW 7327   3.393   6.805   1.690
 2143SOL    HW1 7328   3.481   6.773   1.657
 2143SOL    HW2 7329   3.347   6.731   1.739
 2144SOL     OW 7330   0.531   0.783   3.713
 2144SOL    HW1 7331   0.470   0.856   3.681
 2144SOL    HW2 7332   0.553   0.722   3.638
 2145SOL     OW 7333   3.246   4.887   3.345
 2145SOL    HW1 7334   3.325   4.901   3.405
 2145SOL    HW2 7335   3.278   4.868   3.252
 2146SOL     OW 7336   3.391   2.869   2.447
 2146SOL    HW1 7337   3.431   2.858   2.356
 2146SOL    HW2 7338   3.362   2.780   2.482
 2147SOL     OW 7339   0.885   1.356   5.856
 2147SOL    HW1 7340   0.950   1.288   5.890
 2147SOL    HW2 7341   0.872   1.428   5.924
 2148SOL     OW 7342   4.889   3.512   2.887
 2148SOL    HW1 7343   4.900   3.560   2.799
 2148SOL    HW2 7344   4.893   3.414   2.871
 2149SOL     OW 7345   4.018   1.167   2.576
 2149SOL    HW1 7346   4.080   1.224   2.522
 2149SOL    HW2 7347   4.072   1.108   2.636
 2150SOL     OW 7348   3.287   2.098   3.609
 2150SOL    HW1 7349   3.281   2.192   3.645
 2150SOL    HW2 7350   3.235   2.036   3.668
 2151SOL     OW 7351   3.812   2.991   5.674
 2151SOL    HW1 7352   3.761   2.996   5.760
 2151SOL    HW2 7353   3.877   3.067   5.669
 2152SOL     OW 7354   6.063   6.441   1.825
 2152SOL    HW1 7355   5.983   6.479   1.779
 2152SOL    HW2 7356   6.037   6.411   1.917
 2153SOL     OW 7357   4.496   2.145   3.554
 2153SOL    HW1 7358   4.462   2.051   3.559
 2153SOL    HW2 7359   4.569   2.157   3.621
 2154SOL     OW 7360   2.930   5.736   4.889
 2154SOL    HW1 7361   2.940   5.805   4.961
 2154SOL    HW2 7362   2.870   5.771   4.817
 2155SOL     OW 7363   0.827   4.440   0.388
 2155SOL    HW1 7364   0.754   4.374   0.371
 2155SOL    HW2 7365   0.893   4.400   0.451
 2156SOL     OW 7366   2.157   0.512   1.818
 2156SOL    HW1 7367   2.160   0.585   1.750
 2156SOL    HW2 7368   2.110   0.544   1.900
 2157SOL     OW 7369   0.596   1.172   5.046
 2157SOL    HW1 7370   0.621   1.084   5.007
 2157SOL    HW2 7371   0.537   1.159   5.125
 2158SOL     OW 7372   3.900   6.633   1.609
 2158SOL    HW1 7373   3.802   6.626   1.629
 2158SOL    HW2 7374   3.937   6.715   1.652
 2159SOL     OW 7375   1.207   6.702   4.986
 2159SOL    HW1 7376   1.304   6.716   4.971
 2159SOL    HW2 7377   1.170   6.779   5.038
 2160SOL     OW 7378   3.080   4.483   0.951
 2160SOL    HW1 7379   3.093   4.386   0.932
 2160SOL    HW2 7380   3.030   4.493   1.037
 2161SOL     OW 7381   5.156   2.734   3.476
 2161SOL    HW1 7382   5.138   2.827   3.445
 2161SOL    HW2 7383   5.149   2.671   3.398
 2162SOL     OW 7384   1.481   0.595   6.589
 2162SOL    HW1 7385   1.452   0.600   6.494
 2162SOL    HW2 7386   1.470   0.684   6.632
 2163SOL     OW 7387   1.969   1.412   0.377
 2163SOL    HW1 7388   1.935   1.393   0.469
 2163SOL    HW2 7389   2.046   1.352   0.357
 2164SOL     OW 7390   1.796   1.059   6.832
 2164SOL    HW1 7391   1.776   1.157   6.833
 2164SOL    HW2 7392   1.856   1.038   6.755
 2165SOL     OW 7393   1.888   6.838   2.754
 2165SOL    HW1 7394   1.804   6.796   2.788
 2165SOL    HW2 7395   1.905   6.923   2.804
 2166SOL     OW 7396   1.026   2.250   5.967
 2166SOL    HW1 7397   1.116   2.285   5.993
 2166SOL    HW2 7398   1.038   2.175   5.901
 2167SOL     OW 7399   3.803   0.781   2.466
 2167SOL    HW1 7400   3.730   0.716   2.445
 2167SOL    HW2 7401   3.882   0.763   2.406
 2168SOL     OW 7402   5.970   3.889   4.599
 2168SOL    HW1 7403   5.943   3.982   4.624
 2168SOL    HW2 7404   5.902   3.850   4.538
 2169SOL     OW 7405   5.239   2.067   6.300
 2169SOL    HW1 7406   5.185   2.076   6.216
 2169SOL    HW2 7407   5.240   1.971   6.328
 2170SOL     OW 7408   4.214   5.001   4.742
 2170SOL    HW1 7409   4.260   5.008   4.653
 2170SOL    HW2 7410   4.130   4.949   4.732
 2171SOL     OW 7411   6.828   2.862   0.037
 2171SOL    HW1 7412   6.768   2.789   0.068
 2171SOL    HW2 7413   6.898   2.880   0.106
 2172SOL     OW 7414   2.949   1.094   0.459
 2172SOL    HW1 7415   3.030   1.082   0.401
 2172SOL    HW2 7416   2.880   1.026   0.434
 2173SOL     OW 7417   5.310   1.454   5.723
 2173SOL    HW1 7418   5.352   1.448   5.814
 2173SOL    HW2 7419   5.237   1.522   5.725
 2174SOL     OW 7420   0.111   4.988   5.298
 2174SOL    HW1 7421   0.099   5.072   5.245
 2174SOL    HW2 7422   0.172   4.926   5.249
 2175SOL     OW 7423   2.194   0.600   4.458
 2175SOL    HW1 7424   2.136   0.641   4.529
 2175SOL    HW2 7425   2.262   0.541   4.502
 2176SOL     OW 7426   2.094   2.685   3.266
 2176SOL    HW1 7427   2.055   2.777   3.257
 2176SOL    HW2 7428   2.105   2.663   3.363
 2177SOL     OW 7429   0.472   2.633   0.644
 2177SOL    HW1 7430   0.388   2.686   0.635
 2177SOL    HW2 7431   0.486   2.577   0.562
 2178SOL     OW 7432   0.959   5.118   0.281
 2178SOL    HW1 7433   0.908   5.181   0.340
 2178SOL    HW2 7434   0.928   5.131   0.186
 2179SOL     OW 7435   1.500   5.419   4.193
 2179SOL    HW1 7436   1.531   5.483   4.264
 2179SOL    HW2 7437   1.539   5.329   4.210
 2180SOL     OW 7438   3.348   3.769   2.775
 2180SOL    HW1 7439   3.412   3.771   2.698
 2180SOL    HW2 7440   3.264   3.817   2.749
 2181SOL     OW 7441   5.262   5.546   5.953
 2181SOL    HW1 7442   5.224   5.505   5.870
 2181SOL    HW2 7443   5.362   5.533   5.954
 2182SOL     OW 7444   0.071   2.697   6.245
 2182SOL    HW1 7445   0.063   2.723   6.342
 2182SOL    HW2 7446   0.154   2.643   6.232
 2183SOL     OW 7447   3.879   3.136   0.738
 2183SOL    HW1 7448   3.792   3.187   0.741
 2183SOL    HW2 7449   3.951   3.192   0.778
 2184SOL     OW 7450   3.803   2.343   6.378
 2184SOL    HW1 7451   3.734   2.390   6.323
 2184SOL    HW2 7452   3.798   2.376   6.472
 2185SOL     OW 7453   1.707   0.928   1.199
 2185SOL    HW1 7454   1.736   0.940   1.294
 2185SOL    HW2 7455   1.722   1.014   1.149
 2186SOL     OW 7456   0.692   6.080   3.177
 2186SOL    HW1 7457   0.745   6.100   3.260
 2186SOL    HW2 7458   0.705   6.155   3.112
 2187SOL     OW 7459   7.013   1.467   6.958
 2187SOL    HW1 7460   6.990   1.514   0.020
 2187SOL    HW2 7461   0.064   1.402   6.974
 2188SOL     OW 7462   5.690   6.870   3.001
 2188SOL    HW1 7463   5.674   6.795   3.066
 2188SOL    HW2 7464   5.688   6.834   2.908
 2189SOL     OW 7465   2.104   6.389   6.327
 2189SOL    HW1 7466   2.045   6.440   6.389
 2189SOL    HW2 7467   2.105   6.434   6.238
 2190SOL     OW 7468   5.450   1.791   1.797
 2190SOL    HW1 7469   5.432   1.693   1.792
 2190SOL    HW2 7470   5.543   1.806   1.831
 2191SOL     OW 7471   3.129   2.784   6.502
 2191SOL    HW1 7472   3.033   2.765   6.482
 2191SOL    HW2 7473   3.184   2.703   6.483
 2192SOL     OW 7474   4.559   5.841   4.826
 2192SOL    HW1 7475   4.562   5.764   4.762
 2192SOL    HW2 7476   4.514   5.813   4.910
 2193SOL     OW 7477   0.838   5.227   5.521
 2193SOL    HW1 7478   0.836   5.137   5.479
 2193SOL    HW2 7479   0.917   5.233   5.582
 2194SOL     OW 7480   2.369   0.016   0.796
 2194SOL    HW1 7481   2.427   0.018   0.877
 2194SOL    HW2 7482   2.363   6.946   0.761
 2195SOL     OW 7483   1.274   5.405   2.635
 2195SOL    HW1 7484   1.372   5.402   2.617
 2195SOL    HW2 7485   1.227   5.344   2.571
 2196SOL     OW 7486   3.586   2.157   6.605
 2196SOL    HW1 7487   3.623   2.249   6.619
 2196SOL    HW2 7488   3.504   2.162   6.548
 2197SOL     OW 7489   4.951   4.859   1.263
 2197SOL    HW1 7490   4.951   4.936   1.200
 2197SOL    HW2 7491   4.955   4.773   1.212
 2198SOL     OW 7492   6.744   3.820   0.632
 2198SOL    HW1 7493   6.703   3.907   0.660
 2198SOL    HW2 7494   6.712   3.747   0.693
 2199SOL     OW 7495   4.557   0.268   1.581
 2199SOL    HW1 7496   4.505   0.296   1.662
 2199SOL    HW2 7497   4.517   0.185   1.543
 2200SOL     OW 7498   3.437   0.307   4.544
 2200SOL    HW1 7499   3.413   0.403   4.559
 2200SOL    HW2 7500   3.523   0.287   4.589
 2201SOL     OW 7501   5.582   3.456   1.904
 2201SOL    HW1 7502   5.585   3.462   2.004
 2201SOL    HW2 7503   5.629   3.373   1.875
 2202SOL     OW 7504   4.630   5.804   3.888
 2202SOL    HW1 7505   4.530   5.804   3.876
 2202SOL    HW2 7506   4.669   5.881   3.837
 2203SOL     OW 7507   3.521   2.044   3.461
 2203SOL    HW1 7508   3.448   2.065   3.525
 2203SOL    HW2 7509   3.484   2.038   3.368
 2204SOL     OW 7510   3.335   2.646   0.484
 2204SOL    HW1 7511   3.332   2.591   0.400
 2204SOL    HW2 7512   3.270   2.608   0.551
 2205SOL     OW 7513   2.865   0.092   0.877
 2205SOL    HW1 7514   2.912   0.167   0.923
 2205SOL    HW2 7515   2.918   0.007   0.888
 2206SOL     OW 7516   2.224   3.271   6.779
 2206SOL    HW1 7517   2.151   3.315   6.725
 2206SOL    HW2 7518   2.312   3.305   6.747
 2207SOL     OW 7519   0.956   4.512   6.244
 2207SOL    HW1 7520   0.857   4.523   6.237
 2207SOL    HW2 7521   1.001   4.577   6.183
 2208SOL     OW 7522   0.270   3.411   1.849
 2208SOL    HW1 7523   0.208   3.409   1.771
 2208SOL    HW2 7524   0.364   3.397   1.818
 2209SOL     OW 7525   0.828   6.002   6.577
 2209SOL    HW1 7526   0.844   5.959   6.488
 2209SOL    HW2 7527   0.729   6.009   6.592
 2210SOL     OW 7528   0.938   6.262   4.260
 2210SOL    HW1 7529   1.021   6.315   4.238
 2210SOL    HW2 7530   0.857   6.317   4.237
 2211SOL     OW 7531   5.978   1.577   5.597
 2211SOL    HW1 7532   5.989   1.576   5.697
 2211SOL    HW2 7533   6.025   1.498   5.557
 2212SOL     OW 7534   1.636   0.027   6.418
 2212SOL    HW1 7535   1.725   0.063   6.389
 2212SOL    HW2 7536   1.621   6.961   6.375
 2213SOL     OW 7537   3.518   1.822   3.724
 2213SOL    HW1 7538   3.590   1.754   3.707
 2213SOL    HW2 7539   3.439   1.802   3.665
 2214SOL     OW 7540   5.056   0.127   4.711
 2214SOL    HW1 7541   5.136   0.072   4.736
 2214SOL    HW2 7542   5.026   0.102   4.619
 2215SOL     OW 7543   6.445   2.183   5.349
 2215SOL    HW1 7544   6.460   2.279   5.374
 2215SOL    HW2 7545   6.529   2.146   5.309
 2216SOL     OW 7546   1.610   6.600   1.417
 2216SOL    HW1 7547   1.545   6.528   1.442
 2216SOL    HW2 7548   1.636   6.590   1.321
 2217SOL     OW 7549   4.177   0.311   1.182
 2217SOL    HW1 7550   4.121   0.253   1.122
 2217SOL    HW2 7551   4.208   0.258   1.260
 2218SOL     OW 7552   0.439   5.783   0.177
 2218SOL    HW1 7553   0.390   5.704   0.215
 2218SOL    HW2 7554   0.537   5.772   0.194
 2219SOL     OW 7555   1.826   3.830   3.169
 2219SOL    HW1 7556   1.784   3.742   3.145
 2219SOL    HW2 7557   1.824   3.841   3.268
 2220SOL     OW 7558   0.589   1.021   6.499
 2220SOL    HW1 7559   0.630   1.051   6.586
 2220SOL    HW2 7560   0.490   1.017   6.508
 2221SOL     OW 7561   6.575   2.510   1.504
 2221SOL    HW1 7562   6.608   2.567   1.579
 2221SOL    HW2 7563   6.604   2.415   1.520
 2222SOL     OW 7564   4.828   6.583   2.846
 2222SOL    HW1 7565   4.831   6.574   2.945
 2222SOL    HW2 7566   4.733   6.593   2.816
 2223SOL     OW 7567   5.685   5.355   2.875
 2223SOL    HW1 7568   5.715   5.385   2.784
 2223SOL    HW2 7569   5.588   5.374   2.886
 2224SOL     OW 7570   1.229   4.436   1.427
 2224SOL    HW1 7571   1.129   4.432   1.421
 2224SOL    HW2 7572   1.257   4.421   1.522
 2225SOL     OW 7573   6.117   4.883   2.313
 2225SOL    HW1 7574   6.090   4.799   2.360
 2225SOL    HW2 7575   6.038   4.943   2.303
 2226SOL     OW 7576   3.974   4.382   0.758
 2226SOL    HW1 7577   3.978   4.459   0.821
 2226SOL    HW2 7578   3.908   4.401   0.686
 2227SOL     OW 7579   6.923   4.006   4.993
 2227SOL    HW1 7580   6.985   4.085   4.990
 2227SOL    HW2 7581   6.976   3.922   4.989
 2228SOL     OW 7582   3.330   4.889   6.282
 2228SOL    HW1 7583   3.262   4.890   6.355
 2228SOL    HW2 7584   3.303   4.954   6.211
 2229SOL     OW 7585   4.610   0.836   3.723
 2229SOL    HW1 7586   4.605   0.924   3.676
 2229SOL    HW2 7587   4.596   0.848   3.821
 2230SOL     OW 7588   1.343   6.310   6.257
 2230SOL    HW1 7589   1.433   6.280   6.290
 2230SOL    HW2 7590   1.312   6.387   6.313
 2231SOL     OW 7591   2.614   6.957   1.428
 2231SOL    HW1 7592   2.550   6.931   1.356
 2231SOL    HW2 7593   2.602   0.031   1.449
 2232SOL     OW 7594   6.013   2.958   3.068
 2232SOL    HW1 7595   6.086   2.985   3.131
 2232SOL    HW2 7596   5.949   2.898   3.115
 2233SOL     OW 7597   4.000   0.290   0.243
 2233SOL    HW1 7598   4.060   0.214   0.265
 2233SOL    HW2 7599   3.987   0.348   0.323
 2234SOL     OW 7600   3.802   1.881   0.944
 2234SOL    HW1 7601   3.846   1.803   0.900
 2234SOL    HW2 7602   3.863   1.960   0.941
 2235SOL     OW 7603   1.429   6.527   0.927
 2235SOL    HW1 7604   1.463   6.619   0.947
 2235SOL    HW2 7605   1.334   6.519   0.958
 2236SOL     OW 7606   0.246   4.274   1.313
 2236SOL    HW1 7607   0.214   4.223   1.233
 2236SOL    HW2 7608   0.250   4.371   1.292
 2237SOL     OW 7609   6.364   2.682   4.429
 2237SOL    HW1 7610   6.301   2.609   4.401
 2237SOL    HW2 7611   6.449   2.674   4.376
 2238SOL     OW 7612   1.157   5.420   1.858
 2238SOL    HW1 7613   1.086   5.490   1.868
 2238SOL    HW2 7614   1.242   5.454   1.898
 2239SOL     OW 7615   4.448   5.170   3.300
 2239SOL    HW1 7616   4.383   5.201   3.369
 2239SOL    HW2 7617   4.421   5.206   3.210
 2240SOL     OW 7618   5.566   4.624   2.310
 2240SOL    HW1 7619   5.520   4.713   2.306
 2240SOL    HW2 7620   5.540   4.569   2.231
 2241SOL     OW 7621   0.635   0.068   2.241
 2241SOL    HW1 7622   0.588   0.151   2.271
 2241SOL    HW2 7623   0.647   0.071   2.141
 2242SOL     OW 7624   4.563   1.514   2.790
 2242SOL    HW1 7625   4.647   1.518   2.843
 2242SOL    HW2 7626   4.585   1.501   2.694
 2243SOL     OW 7627   2.378   6.111   5.541
 2243SOL    HW1 7628   2.361   6.169   5.620
 2243SOL    HW2 7629   2.472   6.078   5.542
 2244SOL     OW 7630   3.042   0.715   4.679
 2244SOL    HW1 7631   3.029   0.762   4.766
 2244SOL    HW2 7632   3.002   0.769   4.605
 2245SOL     OW 7633   1.574   1.370   2.048
 2245SOL    HW1 7634   1.652   1.384   1.987
 2245SOL    HW2 7635   1.496   1.424   2.014
 2246SOL     OW 7636   0.854   3.816   5.590
 2246SOL    HW1 7637   0.925   3.884   5.611
 2246SOL    HW2 7638   0.786   3.815   5.663
 2247SOL     OW 7639   1.850   1.954   6.120
 2247SOL    HW1 7640   1.889   1.972   6.030
 2247SOL    HW2 7641   1.888   1.870   6.157
 2248SOL     OW 7642   5.073   3.315   5.299
 2248SOL    HW1 7643   4.978   3.324   5.329
 2248SOL    HW2 7644   5.087   3.369   5.216
 2249SOL     OW 7645   4.988   5.349   3.949
 2249SOL    HW1 7646   4.915   5.418   3.948
 2249SOL    HW2 7647   4.987   5.301   4.037
 2250SOL     OW 7648   6.706   4.595   0.088
 2250SOL    HW1 7649   6.668   4.683   0.057
 2250SOL    HW2 7650   6.774   4.612   0.159
 2251SOL     OW 7651   6.127   0.820   6.943
 2251SOL    HW1 7652   6.167   0.911   6.933
 2251SOL    HW2 7653   6.113   0.779   6.852
 2252SOL     OW 7654   4.511   2.513   5.602
 2252SOL    HW1 7655   4.423   2.559   5.587
 2252SOL    HW2 7656   4.505   2.418   5.572
 2253SOL     OW 7657   2.019   3.593   6.728
 2253SOL    HW1 7658   1.975   3.575   6.816
 2253SOL    HW2 7659   2.118   3.585   6.739
 2254SOL     OW 7660   2.049   3.796   5.886
 2254SOL    HW1 7661   2.094   3.882   5.862
 2254SOL    HW2 7662   1.961   3.816   5.929
 2255SOL     OW 7663   5.806   2.832   1.701
 2255SOL    HW1 7664   5.897   2.856   1.668
 2255SOL    HW2 7665   5.806   2.736   1.731
 2256SOL     OW 7666   4.019   4.790   1.355
 2256SOL    HW1 7667   4.012   4.884   1.323
 2256SOL    HW2 7668   3.952   4.775   1.428
 2257SOL     OW 7669   2.004   4.239   3.935
 2257SOL    HW1 7670   1.923   4.298   3.939
 2257SOL    HW2 7671   1.975   4.143   3.945
 2258SOL     OW 7672   1.587   5.620   4.356
 2258SOL    HW1 7673   1.535   5.698   4.391
 2258SOL    HW2 7674   1.650   5.589   4.427
 2259SOL     OW 7675   5.478   3.498   6.756
 2259SOL    HW1 7676   5.547   3.541   6.697
 2259SOL    HW2 7677   5.415   3.444   6.699
 2260SOL     OW 7678   5.282   5.419   0.730
 2260SOL    HW1 7679   5.344   5.403   0.807
 2260SOL    HW2 7680   5.315   5.371   0.649
 2261SOL     OW 7681   5.153   6.083   6.837
 2261SOL    HW1 7682   5.199   6.163   6.799
 2261SOL    HW2 7683   5.101   6.110   6.919
 2262SOL     OW 7684   4.713   2.228   3.399
 2262SOL    HW1 7685   4.619   2.210   3.428
 2262SOL    HW2 7686   4.771   2.151   3.425
 2263SOL     OW 7687   0.579   5.107   6.241
 2263SOL    HW1 7688   0.640   5.162   6.184
 2263SOL    HW2 7689   0.512   5.166   6.286
 2264SOL     OW 7690   3.739   3.833   4.274
 2264SOL    HW1 7691   3.820   3.785   4.239
 2264SOL    HW2 7692   3.755   3.932   4.272
 2265SOL     OW 7693   0.043   0.120   1.963
 2265SOL    HW1 7694   7.012   0.038   1.950
 2265SOL    HW2 7695   0.102   0.109   2.043
 2266SOL     OW 7696   5.557   0.051   0.794
 2266SOL    HW1 7697   5.555   6.997   0.856
 2266SOL    HW2 7698   5.590   0.132   0.843
 2267SOL     OW 7699   6.257   2.617   5.868
 2267SOL    HW1 7700   6.184   2.646   5.806
 2267SOL    HW2 7701   6.229   2.634   5.962
 2268SOL     OW 7702   6.827   5.658   6.651
 2268SOL    HW1 7703   6.759   5.629   6.584
 2268SOL    HW2 7704   6.804   5.620   6.741
 2269SOL     OW 7705   6.807   5.486   5.714
 2269SOL    HW1 7706   6.873   5.415   5.739
 2269SOL    HW2 7707   6.718   5.445   5.697
 2270SOL     OW 7708   3.890   3.563   1.568
 2270SOL    HW1 7709   3.887   3.523   1.477
 2270SOL    HW2 7710   3.827   3.640   1.573
 2271SOL     OW 7711   6.772   4.487   2.078
 2271SOL    HW1 7712   6.863   4.529   2.072
 2271SOL    HW2 7713   6.772   4.421   2.153
 2272SOL     OW 7714   5.902   1.970   6.440
 2272SOL    HW1 7715   5.830   2.034   6.413
 2272SOL    HW2 7716   5.863   1.898   6.498
 2273SOL     OW 7717   0.841   1.784   3.028
 2273SOL    HW1 7718   0.928   1.802   3.074
 2273SOL    HW2 7719   0.825   1.685   3.023
 2274SOL     OW 7720   1.261   3.227   4.016
 2274SOL    HW1 7721   1.336   3.177   3.973
 2274SOL    HW2 7722   1.238   3.184   4.103
 2275SOL     OW 7723   5.252   6.765   3.779
 2275SOL    HW1 7724   5.305   6.732   3.857
 2275SOL    HW2 7725   5.182   6.829   3.811
 2276SOL     OW 7726   4.575   4.759   1.692
 2276SOL    HW1 7727   4.477   4.768   1.679
 2276SOL    HW2 7728   4.617   4.721   1.610
 2277SOL     OW 7729   3.461   3.333   0.042
 2277SOL    HW1 7730   3.395   3.330   0.117
 2277SOL    HW2 7731   3.553   3.332   0.079
 2278SOL     OW 7732   5.480   6.162   1.441
 2278SOL    HW1 7733   5.549   6.234   1.428
 2278SOL    HW2 7734   5.499   6.115   1.527
 2279SOL     OW 7735   5.782   3.814   4.922
 2279SOL    HW1 7736   5.861   3.755   4.902
 2279SOL    HW2 7737   5.812   3.910   4.923
 2280SOL     OW 7738   6.115   6.469   6.552
 2280SOL    HW1 7739   6.026   6.426   6.568
 2280SOL    HW2 7740   6.108   6.531   6.473
 2281SOL     OW 7741   3.923   2.861   0.760
 2281SOL    HW1 7742   3.918   2.961   0.763
 2281SOL    HW2 7743   3.832   2.824   0.741
 2282SOL     OW 7744   4.309   5.515   3.168
 2282SOL    HW1 7745   4.241   5.587   3.152
 2282SOL    HW2 7746   4.284   5.433   3.117
 2283SOL     OW 7747   6.851   3.185   3.309
 2283SOL    HW1 7748   6.819   3.092   3.329
 2283SOL    HW2 7749   6.773   3.246   3.295
 2284SOL     OW 7750   2.061   2.898   2.316
 2284SOL    HW1 7751   2.116   2.815   2.307
 2284SOL    HW2 7752   1.965   2.876   2.297
 2285SOL     OW 7753   1.905   4.545   0.302
 2285SOL    HW1 7754   1.912   4.595   0.216
 2285SOL    HW2 7755   1.993   4.550   0.350
 2286SOL     OW 7756   6.675   6.341   4.434
 2286SOL    HW1 7757   6.577   6.333   4.415
 2286SOL    HW2 7758   6.698   6.436   4.454
 2287SOL     OW 7759   2.181   2.627   2.066
 2287SOL    HW1 7760   2.232   2.622   1.981
 2287SOL    HW2 7761   2.236   2.673   2.136
 2288SOL     OW 7762   0.332   6.135   4.197
 2288SOL    HW1 7763   0.324   6.184   4.284
 2288SOL    HW2 7764   0.403   6.179   4.141
 2289SOL     OW 7765   5.682   2.080   1.891
 2289SOL    HW1 7766   5.773   2.120   1.878
 2289SOL    HW2 7767   5.687   1.981   1.879
 2290SOL     OW 7768   3.203   3.221   2.882
 2290SOL    HW1 7769   3.197   3.255   2.976
 2290SOL    HW2 7770   3.169   3.292   2.820
 2291SOL     OW 7771   2.191   2.964   0.503
 2291SOL    HW1 7772   2.235   3.045   0.463
 2291SOL    HW2 7773   2.254   2.919   0.566
 2292SOL     OW 7774   4.262   2.308   2.951
 2292SOL    HW1 7775   4.263   2.390   2.895
 2292SOL    HW2 7776   4.355   2.282   2.974
 2293SOL     OW 7777   6.243   1.046   6.922
 2293SOL    HW1 7778   6.327   1.092   6.894
 2293SOL    HW2 7779   6.203   1.095   7.000
 2294SOL     OW 7780   0.810   2.254   5.662
 2294SOL    HW1 7781   0.729   2.267   5.720
 2294SOL    HW2 7782   0.849   2.343   5.639
 2295SOL     OW 7783   5.969   6.344   1.506
 2295SOL    HW1 7784   5.945   6.365   1.601
 2295SOL    HW2 7785   6.067   6.325   1.500
 2296SOL     OW 7786   3.048   5.409   4.041
 2296SOL    HW1 7787   3.040   5.398   3.942
 2296SOL    HW2 7788   3.136   5.450   4.064
 2297SOL     OW 7789   4.152   4.502   5.347
 2297SOL    HW1 7790   4.228   4.507   5.283
 2297SOL    HW2 7791   4.120   4.408   5.355
 2298SOL     OW 7792   3.943   3.501   4.112
 2298SOL    HW1 7793   4.016   3.467   4.052
 2298SOL    HW2 7794   3.967   3.593   4.145
 2299SOL     OW 7795   5.418   3.023   4.525
 2299SOL    HW1 7796   5.393   2.929   4.550
 2299SOL    HW2 7797   5.457   3.024   4.434
 2300SOL     OW 7798   4.051   6.302   2.254
 2300SOL    HW1 7799   4.115   6.365   2.297
 2300SOL    HW2 7800   4.093   6.262   2.172
 2301SOL     OW 7801   3.719   3.375   4.177
 2301SOL    HW1 7802   3.635   3.425   4.155
 2301SOL    HW2 7803   3.798   3.433   4.159
 2302SOL     OW 7804   4.462   2.379   0.630
 2302SOL    HW1 7805   4.440   2.358   0.726
 2302SOL    HW2 7806   4.385   2.352   0.572
 2303SOL     OW 7807   3.761   2.360   0.713
 2303SOL    HW1 7808   3.693   2.323   0.776
 2303SOL    HW2 7809   3.729   2.447   0.676
 2304SOL     OW 7810   5.893   5.876   1.858
 2304SOL    HW1 7811   5.949   5.941   1.910
 2304SOL    HW2 7812   5.950   5.833   1.788
 2305SOL     OW 7813   2.129   1.043   5.235
 2305SOL    HW1 7814   2.032   1.053   5.256
 2305SOL    HW2 7815   2.161   1.124   5.185
 2306SOL     OW 7816   1.494   5.618   4.011
 2306SOL    HW1 7817   1.535   5.542   4.062
 2306SOL    HW2 7818   1.561   5.692   4.003
 2307SOL     OW 7819   0.200   2.522   5.409
 2307SOL    HW1 7820   0.137   2.558   5.478
 2307SOL    HW2 7821   0.254   2.597   5.371
 2308SOL     OW 7822   2.487   4.900   1.787
 2308SOL    HW1 7823   2.399   4.891   1.834
 2308SOL    HW2 7824   2.561   4.871   1.848
 2309SOL     OW 7825   1.653   6.419   5.313
 2309SOL    HW1 7826   1.705   6.479   5.251
 2309SOL    HW2 7827   1.692   6.424   5.405
 2310SOL     OW 7828   4.897   6.646   1.989
 2310SOL    HW1 7829   4.924   6.564   1.938
 2310SOL    HW2 7830   4.979   6.691   2.025
 2311SOL     OW 7831   2.594   6.267   1.029
 2311SOL    HW1 7832   2.678   6.238   0.983
 2311SOL    HW2 7833   2.515   6.223   0.985
 2312SOL     OW 7834   3.294   5.024   2.874
 2312SOL    HW1 7835   3.278   5.114   2.914
 2312SOL    HW2 7836   3.283   5.029   2.775
 2313SOL     OW 7837   4.777   5.074   2.062
 2313SOL    HW1 7838   4.713   5.028   1.999
 2313SOL    HW2 7839   4.783   5.171   2.038
 2314SOL     OW 7840   2.674   5.439   4.020
 2314SOL    HW1 7841   2.693   5.521   3.966
 2314SOL    HW2 7842   2.704   5.358   3.970
 2315SOL     OW 7843   4.329   3.037   6.365
 2315SOL    HW1 7844   4.283   3.100   6.302
 2315SOL    HW2 7845   4.269   3.015   6.441
 2316SOL     OW 7846   5.608   2.948   2.886
 2316SOL    HW1 7847   5.608   3.048   2.891
 2316SOL    HW2 7848   5.524   2.916   2.841
 2317SOL     OW 7849   1.256   5.062   3.713
 2317SOL    HW1 7850   1.336   5.029   3.662
 2317SOL    HW2 7851   1.222   5.146   3.670
 2318SOL     OW 7852   0.060   1.182   3.517
 2318SOL    HW1 7853   7.012   1.155   3.582
 2318SOL    HW2 7854   0.100   1.268   3.545
 2319SOL     OW 7855   1.265   4.165   4.239
 2319SOL    HW1 7856   1.183   4.212   4.206
 2319SOL    HW2 7857   1.245   4.119   4.325
 2320SOL     OW 7858   6.649   3.437   4.660
 2320SOL    HW1 7859   6.715   3.489   4.605
 2320SOL    HW2 7860   6.686   3.346   4.677
 2321SOL     OW 7861   3.277   6.413   5.534
 2321SOL    HW1 7862   3.287   6.321   5.572
 2321SOL    HW2 7863   3.181   6.438   5.534
 2322SOL     OW 7864   2.288   0.450   5.679
 2322SOL    HW1 7865   2.297   0.547   5.654
 2322SOL    HW2 7866   2.191   0.426   5.683
 2323SOL     OW 7867   5.069   5.287   1.773
 2323SOL    HW1 7868   4.989   5.233   1.796
 2323SOL    HW2 7869   5.150   5.249   1.817
 2324SOL     OW 7870   7.002   5.503   3.541
 2324SOL    HW1 7871   6.995   5.444   3.461
 2324SOL    HW2 7872   7.000   5.599   3.513
 2325SOL     OW 7873   0.353   3.732   0.477
 2325SOL    HW1 7874   0.316   3.738   0.384
 2325SOL    HW2 7875   0.297   3.669   0.531
 2326SOL     OW 7876   1.690   5.243   6.978
 2326SOL    HW1 7877   1.603   5.196   6.974
 2326SOL    HW2 7878   1.699   5.303   6.899
 2327SOL     OW 7879   4.912   2.217   4.675
 2327SOL    HW1 7880   4.824   2.232   4.631
 2327SOL    HW2 7881   4.899   2.169   4.761
 2328SOL     OW 7882   4.768   0.143   3.584
 2328SOL    HW1 7883   4.739   0.166   3.491
 2328SOL    HW2 7884   4.810   0.052   3.584
 2329SOL     OW 7885   0.487   6.192   3.946
 2329SOL    HW1 7886   0.461   6.168   3.853
 2329SOL    HW2 7887   0.549   6.122   3.982
 2330SOL     OW 7888   0.387   4.248   3.036
 2330SOL    HW1 7889   0.405   4.209   2.946
 2330SOL    HW2 7890   0.301   4.298   3.034
 2331SOL     OW 7891   0.803   4.351   5.060
 2331SOL    HW1 7892   0.738   4.275   5.049
 2331SOL    HW2 7893   0.855   4.363   4.976
 2332SOL     OW 7894   5.361   2.170   5.429
 2332SOL    HW1 7895   5.314   2.176   5.518
 2332SOL    HW2 7896   5.460   2.169   5.443
 2333SOL     OW 7897   0.768   5.817   3.773
 2333SOL    HW1 7898   0.846   5.836   3.832
 2333SOL    HW2 7899   0.722   5.734   3.805
 2334SOL     OW 7900   3.063   0.117   0.152
 2334SOL    HW1 7901   3.140   0.167   0.192
 2334SOL    HW2 7902   3.092   0.024   0.129
 2335SOL     OW 7903   5.337   6.678   4.030
 2335SOL    HW1 7904   5.403   6.632   4.090
 2335SOL    HW2 7905   5.270   6.725   4.087
 2336SOL     OW 7906   5.229   1.852   5.899
 2336SOL    HW1 7907   5.323   1.881   5.879
 2336SOL    HW2 7908   5.181   1.926   5.947
 2337SOL     OW 7909   5.219   6.834   3.021
 2337SOL    HW1 7910   5.280   6.897   3.069
 2337SOL    HW2 7911   5.260   6.743   3.019
 2338SOL     OW 7912   0.966   6.481   6.686
 2338SOL    HW1 7913   0.928   6.463   6.777
 2338SOL    HW2 7914   0.948   6.402   6.627
 2339SOL     OW 7915   4.041   4.310   0.102
 2339SOL    HW1 7916   4.055   4.280   0.196
 2339SOL    HW2 7917   3.954   4.275   0.068
 2340SOL     OW 7918   3.438   5.211   4.779
 2340SOL    HW1 7919   3.382   5.234   4.858
 2340SOL    HW2 7920   3.378   5.198   4.699
 2341SOL     OW 7921   5.646   5.121   0.431
 2341SOL    HW1 7922   5.586   5.148   0.356
 2341SOL    HW2 7923   5.592   5.076   0.502
 2342SOL     OW 7924   5.983   0.403   5.528
 2342SOL    HW1 7925   5.889   0.428   5.503
 2342SOL    HW2 7926   6.041   0.484   5.520
 2343SOL     OW 7927   1.236   6.807   1.158
 2343SOL    HW1 7928   1.188   6.894   1.168
 2343SOL    HW2 7929   1.214   6.766   1.070
 2344SOL     OW 7930   1.926   2.306   3.048
 2344SOL    HW1 7931   1.844   2.262   3.012
 2344SOL    HW2 7932   1.982   2.338   2.971
 2345SOL     OW 7933   2.017   1.322   4.614
 2345SOL    HW1 7934   2.113   1.341   4.593
 2345SOL    HW2 7935   1.962   1.332   4.530
 2346SOL     OW 7936   5.157   3.827   5.764
 2346SOL    HW1 7937   5.117   3.801   5.852
 2346SOL    HW2 7938   5.175   3.744   5.711
 2347SOL     OW 7939   1.777   3.038   1.981
 2347SOL    HW1 7940   1.764   3.101   2.057
 2347SOL    HW2 7941   1.811   2.951   2.016
 2348SOL     OW 7942   2.570   6.778   1.901
 2348SOL    HW1 7943   2.618   6.827   1.828
 2348SOL    HW2 7944   2.472   6.777   1.883
 2349SOL     OW 7945   5.127   5.518   5.706
 2349SOL    HW1 7946   5.183   5.472   5.636
 2349SOL    HW2 7947   5.118   5.615   5.683
 2350SOL     OW 7948   2.046   6.655   5.566
 2350SOL    HW1 7949   1.973   6.656   5.635
 2350SOL    HW2 7950   2.133   6.679   5.610
 2351SOL     OW 7951   2.082   5.567   4.102
 2351SOL    HW1 7952   2.130   5.526   4.180
 2351SOL    HW2 7953   2.009   5.505   4.073
 2352SOL     OW 7954   0.798   3.516   2.915
 2352SOL    HW1 7955   0.893   3.487   2.926
 2352SOL    HW2 7956   0.741   3.435   2.897
 2353SOL     OW 7957   3.095   3.990   5.921
 2353SOL    HW1 7958   3.064   4.022   6.011
 2353SOL    HW2 7959   3.194   4.000   5.914
 2354SOL     OW 7960   4.255   2.226   0.830
 2354SOL    HW1 7961   4.255   2.300   0.897
 2354SOL    HW2 7962   4.161   2.206   0.803
 2355SOL     OW 7963   0.408   6.612   0.816
 2355SOL    HW1 7964   0.360   6.682   0.764
 2355SOL    HW2 7965   0.463   6.655   0.888
 2356SOL     OW 7966   2.964   5.248   3.373
 2356SOL    HW1 7967   3.032   5.310   3.334
 2356SOL    HW2 7968   2.960   5.164   3.319
 2357SOL     OW 7969   6.566   4.451   1.697
 2357SOL    HW1 7970   6.546   4.468   1.793
 2357SOL    HW2 7971   6.577   4.538   1.649
 2358SOL     OW 7972   3.773   2.094   5.789
 2358SOL    HW1 7973   3.738   2.178   5.830
 2358SOL    HW2 7974   3.766   2.020   5.855
 2359SOL     OW 7975   1.550   1.489   5.896
 2359SOL    HW1 7976   1.458   1.452   5.906
 2359SOL    HW2 7977   1.556   1.542   5.812
 2360SOL     OW 7978   4.402   4.372   0.599
 2360SOL    HW1 7979   4.451   4.397   0.683
 2360SOL    HW2 7980   4.367   4.455   0.556
 2361SOL     OW 7981   3.973   6.230   1.764
 2361SOL    HW1 7982   4.055   6.258   1.713
 2361SOL    HW2 7983   4.000   6.190   1.852
 2362SOL     OW 7984   4.078   6.293   4.150
 2362SOL    HW1 7985   4.023   6.215   4.181
 2362SOL    HW2 7986   4.045   6.376   4.195
 2363SOL     OW 7987   3.067   3.897   0.650
 2363SOL    HW1 7988   2.986   3.955   0.647
 2363SOL    HW2 7989   3.119   3.906   0.566
 2364SOL     OW 7990   4.510   1.662   2.205
 2364SOL    HW1 7991   4.497   1.706   2.293
 2364SOL    HW2 7992   4.472   1.569   2.208
 2365SOL     OW 7993   4.918   3.769   3.569
 2365SOL    HW1 7994   4.877   3.679   3.559
 2365SOL    HW2 7995   5.014   3.759   3.595
 2366SOL     OW 7996   2.658   4.628   5.246
 2366SOL    HW1 7997   2.648   4.533   5.277
 2366SOL    HW2 7998   2.736   4.634   5.183
 2367SOL     OW 7999   0.515   4.594   5.674
 2367SOL    HW1 8000   0.583   4.660   5.639
 2367SOL    HW2 8001   0.436   4.644   5.709
 2368SOL     OW 8002   5.634   6.215   4.184
 2368SOL    HW1 8003   5.705   6.145   4.177
 2368SOL    HW2 8004   5.549   6.172   4.216
 2369SOL     OW 8005   3.148   1.735   4.224
 2369SOL    HW1 8006   3.247   1.744   4.218
 2369SOL    HW2 8007   3.112   1.801   4.290
 2370SOL     OW 8008   5.633   2.735   1.335
 2370SOL    HW1 8009   5.612   2.700   1.244
 2370SOL    HW2 8010   5.664   2.660   1.393
 2371SOL     OW 8011   1.047   6.868   2.954
 2371SOL    HW1 8012   1.077   6.773   2.944
 2371SOL    HW2 8013   1.026   6.905   2.863
 2372SOL     OW 8014   6.328   1.290   6.142
 2372SOL    HW1 8015   6.295   1.333   6.058
 2372SOL    HW2 8016   6.253   1.286   6.208
 2373SOL     OW 8017   5.940   6.497   6.276
 2373SOL    HW1 8018   6.032   6.462   6.294
 2373SOL    HW2 8019   5.884   6.424   6.236
 2374SOL     OW 8020   5.528   5.917   2.522
 2374SOL    HW1 8021   5.565   5.825   2.518
 2374SOL    HW2 8022   5.579   5.971   2.590
 2375SOL     OW 8023   0.962   0.536   4.067
 2375SOL    HW1 8024   1.050   0.558   4.026
 2375SOL    HW2 8025   0.889   0.585   4.018
 2376SOL     OW 8026   5.800   1.312   2.789
 2376SOL    HW1 8027   5.826   1.216   2.774
 2376SOL    HW2 8028   5.869   1.371   2.748
 2377SOL     OW 8029   4.282   5.227   5.806
 2377SOL    HW1 8030   4.194   5.250   5.847
 2377SOL    HW2 8031   4.297   5.283   5.725
 2378SOL     OW 8032   0.276   1.005   0.354
 2378SOL    HW1 8033   0.308   1.088   0.400
 2378SOL    HW2 8034   0.178   1.013   0.335
 2379SOL     OW 8035   6.830   4.896   0.830
 2379SOL    HW1 8036   6.781   4.983   0.819
 2379SOL    HW2 8037   6.873   4.893   0.920
 2380SOL     OW 8038   5.015   4.667   4.916
 2380SOL    HW1 8039   5.091   4.705   4.864
 2380SOL    HW2 8040   4.939   4.646   4.855
 2381SOL     OW 8041   2.774   5.165   4.654
 2381SOL    HW1 8042   2.820   5.211   4.729
 2381SOL    HW2 8043   2.703   5.105   4.690
 2382SOL     OW 8044   0.861   5.833   1.772
 2382SOL    HW1 8045   0.847   5.774   1.852
 2382SOL    HW2 8046   0.792   5.813   1.703
 2383SOL     OW 8047   4.780   5.494   5.334
 2383SOL    HW1 8048   4.775   5.593   5.339
 2383SOL    HW2 8049   4.876   5.466   5.320
 2384SOL     OW 8050   0.738   1.704   1.545
 2384SOL    HW1 8051   0.792   1.734   1.623
 2384SOL    HW2 8052   0.672   1.634   1.575
 2385SOL     OW 8053   0.851   2.188   1.169
 2385SOL    HW1 8054   0.778   2.120   1.175
 2385SOL    HW2 8055   0.825   2.270   1.219
 2386SOL     OW 8056   4.356   5.849   4.227
 2386SOL    HW1 8057   4.282   5.885   4.284
 2386SOL    HW2 8058   4.366   5.904   4.145
 2387SOL     OW 8059   1.515   1.451   4.060
 2387SOL    HW1 8060   1.535   1.545   4.031
 2387SOL    HW2 8061   1.456   1.453   4.141
 2388SOL     OW 8062   6.477   1.606   5.497
 2388SOL    HW1 8063   6.506   1.529   5.441
 2388SOL    HW2 8064   6.391   1.642   5.463
 2389SOL     OW 8065   5.990   4.655   4.086
 2389SOL    HW1 8066   5.933   4.710   4.147
 2389SOL    HW2 8067   6.051   4.597   4.140
 2390SOL     OW 8068   4.494   4.095   5.816
 2390SOL    HW1 8069   4.456   4.003   5.822
 2390SOL    HW2 8070   4.562   4.098   5.743
 2391SOL     OW 8071   3.954   3.787   6.001
 2391SOL    HW1 8072   3.940   3.846   6.081
 2391SOL    HW2 8073   3.994   3.700   6.031
 2392SOL     OW 8074   3.585   5.299   4.995
 2392SOL    HW1 8075   3.638   5.235   5.050
 2392SOL    HW2 8076   3.553   5.254   4.912
 2393SOL     OW 8077   3.325   5.549   1.206
 2393SOL    HW1 8078   3.260   5.573   1.278
 2393SOL    HW2 8079   3.298   5.463   1.164
 2394SOL     OW 8080   0.763   2.570   3.328
 2394SOL    HW1 8081   0.753   2.669   3.328
 2394SOL    HW2 8082   0.709   2.530   3.403
 2395SOL     OW 8083   0.087   2.085   5.015
 2395SOL    HW1 8084   0.059   2.178   4.991
 2395SOL    HW2 8085   0.183   2.084   5.040
 2396SOL     OW 8086   6.633   1.164   5.174
 2396SOL    HW1 8087   6.603   1.227   5.102
 2396SOL    HW2 8088   6.733   1.169   5.183
 2397SOL     OW 8089   0.500   5.243   5.370
 2397SOL    HW1 8090   0.415   5.204   5.407
 2397SOL    HW2 8091   0.543   5.176   5.309
 2398SOL     OW 8092   2.855   6.070   3.651
 2398SOL    HW1 8093   2.777   6.089   3.711
 2398SOL    HW2 8094   2.910   5.996   3.692
 2399SOL     OW 8095   2.842   2.293   4.266
 2399SOL    HW1 8096   2.924   2.290   4.209
 2399SOL    HW2 8097   2.865   2.262   4.359
 2400SOL     OW 8098   0.818   4.100   0.673
 2400SOL    HW1 8099   0.754   4.058   0.609
 2400SOL    HW2 8100   0.769   4.132   0.753
 2401SOL     OW 8101   3.615   7.017   5.442
 2401SOL    HW1 8102   3.558   0.042   5.375
 2401SOL    HW2 8103   3.711   0.003   5.415
 2402SOL     OW 8104   0.593   3.440   2.093
 2402SOL    HW1 8105   0.499   3.465   2.117
 2402SOL    HW2 8106   0.594   3.350   2.049
 2403SOL     OW 8107   3.731   3.657   2.777
 2403SOL    HW1 8108   3.678   3.628   2.856
 2403SOL    HW2 8109   3.732   3.584   2.709
 2404SOL     OW 8110   6.789   2.033   1.081
 2404SOL    HW1 8111   6.832   1.951   1.119
 2404SOL    HW2 8112   6.733   2.009   1.002
 2405SOL     OW 8113   2.141   4.067   0.641
 2405SOL    HW1 8114   2.044   4.050   0.624
 2405SOL    HW2 8115   2.172   4.009   0.716
 2406SOL     OW 8116   2.557   6.944   5.192
 2406SOL    HW1 8117   2.552   6.845   5.181
 2406SOL    HW2 8118   2.637   6.980   5.143
 2407SOL     OW 8119   3.438   1.445   3.842
 2407SOL    HW1 8120   3.348   1.433   3.883
 2407SOL    HW2 8121   3.477   1.355   3.821
 2408SOL     OW 8122   2.650   6.166   4.714
 2408SOL    HW1 8123   2.595   6.197   4.791
 2408SOL    HW2 8124   2.649   6.235   4.642
 2409SOL     OW 8125   2.288   2.535   1.715
 2409SOL    HW1 8126   2.210   2.588   1.681
 2409SOL    HW2 8127   2.255   2.447   1.750
 2410SOL     OW 8128   0.005   3.591   5.603
 2410SOL    HW1 8129   6.935   3.567   5.629
 2410SOL    HW2 8130   0.070   3.550   5.667
 2411SOL     OW 8131   2.457   3.627   0.076
 2411SOL    HW1 8132   2.494   3.709   0.033
 2411SOL    HW2 8133   2.478   3.548   0.019
 2412SOL     OW 8134   3.763   1.948   6.527
 2412SOL    HW1 8135   3.749   2.040   6.563
 2412SOL    HW2 8136   3.856   1.919   6.545
 2413SOL     OW 8137   7.016   3.036   6.455
 2413SOL    HW1 8138   6.940   3.099   6.441
 2413SOL    HW2 8139   0.079   3.086   6.449
 2414SOL     OW 8140   6.191   2.389   4.580
 2414SOL    HW1 8141   6.258   2.339   4.635
 2414SOL    HW2 8142   6.106   2.337   4.577
 2415SOL     OW 8143   2.775   6.213   0.726
 2415SOL    HW1 8144   2.808   6.298   0.768
 2415SOL    HW2 8145   2.766   6.142   0.796
 2416SOL     OW 8146   6.574   3.591   3.083
 2416SOL    HW1 8147   6.608   3.504   3.120
 2416SOL    HW2 8148   6.638   3.664   3.106
 2417SOL     OW 8149   3.626   3.791   1.180
 2417SOL    HW1 8150   3.628   3.891   1.170
 2417SOL    HW2 8151   3.551   3.753   1.126
 2418SOL     OW 8152   4.794   4.112   5.873
 2418SOL    HW1 8153   4.843   4.179   5.818
 2418SOL    HW2 8154   4.791   4.025   5.824
 2419SOL     OW 8155   2.069   6.430   4.219
 2419SOL    HW1 8156   2.084   6.347   4.272
 2419SOL    HW2 8157   1.971   6.443   4.205
 2420SOL     OW 8158   1.952   4.434   2.495
 2420SOL    HW1 8159   1.938   4.371   2.418
 2420SOL    HW2 8160   1.966   4.382   2.579
 2421SOL     OW 8161   2.907   6.757   4.676
 2421SOL    HW1 8162   2.968   6.681   4.698
 2421SOL    HW2 8163   2.947   6.813   4.603
 2422SOL     OW 8164   4.238   6.336   0.901
 2422SOL    HW1 8165   4.186   6.254   0.879
 2422SOL    HW2 8166   4.326   6.333   0.853
 2423SOL     OW 8167   2.039   4.866   2.086
 2423SOL    HW1 8168   1.979   4.830   2.014
 2423SOL    HW2 8169   2.122   4.902   2.044
 2424SOL     OW 8170   5.513   1.259   6.006
 2424SOL    HW1 8171   5.455   1.340   5.991
 2424SOL    HW2 8172   5.455   1.178   6.014
 2425SOL     OW 8173   4.698   5.351   5.585
 2425SOL    HW1 8174   4.686   5.409   5.504
 2425SOL    HW2 8175   4.631   5.277   5.583
 2426SOL     OW 8176   1.272   4.958   5.519
 2426SOL    HW1 8177   1.297   5.049   5.485
 2426SOL    HW2 8178   1.325   4.889   5.470
 2427SOL     OW 8179   5.022   0.623   6.445
 2427SOL    HW1 8180   5.005   0.557   6.372
 2427SOL    HW2 8181   5.121   0.638   6.455
 2428SOL     OW 8182   0.202   0.942   3.428
 2428SOL    HW1 8183   0.229   0.924   3.334
 2428SOL    HW2 8184   0.165   1.034   3.435
 2429SOL     OW 8185   5.420   5.779   2.246
 2429SOL    HW1 8186   5.464   5.829   2.171
 2429SOL    HW2 8187   5.480   5.780   2.326
 2430SOL     OW 8188   6.074   2.770   6.887
 2430SOL    HW1 8189   6.032   2.686   6.921
 2430SOL    HW2 8190   6.021   2.849   6.920
 2431SOL     OW 8191   6.839   2.213   1.701
 2431SOL    HW1 8192   6.842   2.295   1.757
 2431SOL    HW2 8193   6.863   2.236   1.606
 2432SOL     OW 8194   3.327   5.165   2.184
 2432SOL    HW1 8195   3.340   5.066   2.186
 2432SOL    HW2 8196   3.388   5.208   2.250
 2433SOL     OW 8197   6.805   3.872   0.125
 2433SOL    HW1 8198   6.835   3.968   0.123
 2433SOL    HW2 8199   6.762   3.853   0.213
 2434SOL     OW 8200   4.135   1.974   3.094
 2434SOL    HW1 8201   4.129   2.072   3.114
 2434SOL    HW2 8202   4.123   1.960   2.996
 2435SOL     OW 8203   5.145   6.486   6.847
 2435SOL    HW1 8204   5.210   6.559   6.869
 2435SOL    HW2 8205   5.094   6.510   6.765
 2436SOL     OW 8206   2.307   1.759   1.206
 2436SOL    HW1 8207   2.246   1.703   1.150
 2436SOL    HW2 8208   2.332   1.841   1.155
 2437SOL     OW 8209   6.519   5.445   2.128
 2437SOL    HW1 8210   6.572   5.494   2.059
 2437SOL    HW2 8211   6.498   5.507   2.204
 2438SOL     OW 8212   2.966   1.669   4.636
 2438SOL    HW1 8213   2.966   1.768   4.620
 2438SOL    HW2 8214   2.967   1.621   4.548
 2439SOL     OW 8215   0.667   5.628   0.514
 2439SOL    HW1 8216   0.707   5.713   0.481
 2439SOL    HW2 8217   0.714   5.599   0.598
 2440SOL     OW 8218   4.897   0.873   5.218
 2440SOL    HW1 8219   4.917   0.791   5.165
 2440SOL    HW2 8220   4.862   0.944   5.158
 2441SOL     OW 8221   6.056   7.004   6.985
 2441SOL    HW1 8222   6.144   0.005   0.003
 2441SOL    HW2 8223   6.062   7.015   6.886
 2442SOL     OW 8224   4.997   3.670   2.196
 2442SOL    HW1 8225   4.924   3.603   2.182
 2442SOL    HW2 8226   5.039   3.691   2.108
 2443SOL     OW 8227   2.204   2.267   0.450
 2443SOL    HW1 8228   2.234   2.194   0.388
 2443SOL    HW2 8229   2.203   2.232   0.544
 2444SOL     OW 8230   3.623   5.657   0.894
 2444SOL    HW1 8231   3.606   5.586   0.962
 2444SOL    HW2 8232   3.577   5.741   0.922
 2445SOL     OW 8233   0.665   2.395   0.991
 2445SOL    HW1 8234   0.704   2.480   1.026
 2445SOL    HW2 8235   0.651   2.331   1.066
 2446SOL     OW 8236   1.715   3.572   1.472
 2446SOL    HW1 8237   1.793   3.512   1.457
 2446SOL    HW2 8238   1.674   3.552   1.561
 2447SOL     OW 8239   3.395   0.444   0.884
 2447SOL    HW1 8240   3.302   0.440   0.846
 2447SOL    HW2 8241   3.454   0.496   0.822
 2448SOL     OW 8242   5.913   2.006   3.964
 2448SOL    HW1 8243   5.932   1.908   3.963
 2448SOL    HW2 8244   5.968   2.052   3.895
 2449SOL     OW 8245   1.822   4.115   1.675
 2449SOL    HW1 8246   1.758   4.191   1.688
 2449SOL    HW2 8247   1.805   4.046   1.746
 2450SOL     OW 8248   1.923   5.708   6.555
 2450SOL    HW1 8249   1.982   5.648   6.502
 2450SOL    HW2 8250   1.827   5.684   6.539
 2451SOL     OW 8251   0.925   0.077   4.735
 2451SOL    HW1 8252   1.023   0.066   4.721
 2451SOL    HW2 8253   0.897   0.168   4.703
 2452SOL     OW 8254   2.445   2.238   3.657
 2452SOL    HW1 8255   2.530   2.217   3.608
 2452SOL    HW2 8256   2.456   2.213   3.753
 2453SOL     OW 8257   0.548   1.367   6.967
 2453SOL    HW1 8258   0.533   1.404   6.875
 2453SOL    HW2 8259   0.592   1.435   0.001
 2454SOL     OW 8260   3.899   5.411   1.228
 2454SOL    HW1 8261   3.808   5.419   1.269
 2454SOL    HW2 8262   3.950   5.496   1.245
 2455SOL     OW 8263   4.093   1.059   0.526
 2455SOL    HW1 8264   4.163   0.988   0.534
 2455SOL    HW2 8265   4.060   1.063   0.432
 2456SOL     OW 8266   1.183   4.936   7.009
 2456SOL    HW1 8267   1.228   4.917   0.073
 2456SOL    HW2 8268   1.214   5.024   6.974
 2457SOL     OW 8269   5.463   1.689   5.179
 2457SOL    HW1 8270   5.401   1.748   5.231
 2457SOL    HW2 8271   5.463   1.597   5.218
 2458SOL     OW 8272   0.920   0.250   2.989
 2458SOL    HW1 8273   1.016   0.222   2.985
 2458SOL    HW2 8274   0.878   0.239   2.898
 2459SOL     OW 8275   2.660   6.309   0.425
 2459SOL    HW1 8276   2.621   6.275   0.511
 2459SOL    HW2 8277   2.760   6.303   0.429
 2460SOL     OW 8278   1.621   1.264   6.723
 2460SOL    HW1 8279   1.600   1.354   6.684
 2460SOL    HW2 8280   1.627   1.197   6.649
 2461SOL     OW 8281   3.850   0.930   4.048
 2461SOL    HW1 8282   3.884   0.919   3.955
 2461SOL    HW2 8283   3.917   0.980   4.103
 2462SOL     OW 8284   0.477   4.831   0.954
 2462SOL    HW1 8285   0.453   4.744   0.912
 2462SOL    HW2 8286   0.552   4.874   0.903
 2463SOL     OW 8287   6.746   1.126   6.669
 2463SOL    HW1 8288   6.756   1.226   6.672
 2463SOL    HW2 8289   6.734   1.097   6.574
 2464SOL     OW 8290   0.143   2.367   2.811
 2464SOL    HW1 8291   0.103   2.275   2.820
 2464SOL    HW2 8292   0.092   2.431   2.869
 2465SOL     OW 8293   0.552   5.115   5.746
 2465SOL    HW1 8294   0.520   5.207   5.722
 2465SOL    HW2 8295   0.617   5.084   5.677
 2466SOL     OW 8296   1.788   1.831   1.584
 2466SOL    HW1 8297   1.811   1.883   1.502
 2466SOL    HW2 8298   1.774   1.895   1.660
 2467SOL     OW 8299   5.134   1.365   6.004
 2467SOL    HW1 8300   5.193   1.299   6.052
 2467SOL    HW2 8301   5.167   1.458   6.021
 2468SOL     OW 8302   3.850   0.337   5.851
 2468SOL    HW1 8303   3.892   0.383   5.929
 2468SOL    HW2 8304   3.793   0.402   5.800
 2469SOL     OW 8305   3.841   2.561   5.549
 2469SOL    HW1 8306   3.743   2.579   5.557
 2469SOL    HW2 8307   3.859   2.463   5.564
 2470SOL     OW 8308   3.792   4.727   0.296
 2470SOL    HW1 8309   3.863   4.783   0.254
 2470SOL    HW2 8310   3.724   4.786   0.339
 2471SOL     OW 8311   3.547   6.526   0.877
 2471SOL    HW1 8312   3.469   6.496   0.822
 2471SOL    HW2 8313   3.632   6.495   0.835
 2472SOL     OW 8314   5.032   2.359   4.264
 2472SOL    HW1 8315   4.936   2.351   4.291
 2472SOL    HW2 8316   5.041   2.340   4.167
 2473SOL     OW 8317   0.828   4.305   4.532
 2473SOL    HW1 8318   0.854   4.208   4.533
 2473SOL    HW2 8319   0.894   4.357   4.587
 2474SOL     OW 8320   0.890   5.900   0.855
 2474SOL    HW1 8321   0.850   5.986   0.823
 2474SOL    HW2 8322   0.906   5.906   0.954
 2475SOL     OW 8323   5.243   0.405   0.504
 2475SOL    HW1 8324   5.244   0.361   0.593
 2475SOL    HW2 8325   5.155   0.453   0.491
 2476SOL     OW 8326   5.672   0.815   2.145
 2476SOL    HW1 8327   5.701   0.885   2.080
 2476SOL    HW2 8328   5.752   0.781   2.195
 2477SOL     OW 8329   3.642   0.470   3.396
 2477SOL    HW1 8330   3.548   0.482   3.430
 2477SOL    HW2 8331   3.656   0.527   3.315
 2478SOL     OW 8332   4.348   1.230   3.121
 2478SOL    HW1 8333   4.384   1.259   3.032
 2478SOL    HW2 8334   4.369   1.299   3.190
 2479SOL     OW 8335   0.974   2.636   1.457
 2479SOL    HW1 8336   0.921   2.594   1.531
 2479SOL    HW2 8337   0.946   2.731   1.445
 2480SOL     OW 8338   3.774   2.785   1.040
 2480SOL    HW1 8339   3.725   2.797   0.954
 2480SOL    HW2 8340   3.867   2.821   1.031
 2481SOL     OW 8341   4.046   0.629   1.651
 2481SOL    HW1 8342   4.097   0.714   1.645
 2481SOL    HW2 8343   4.067   0.583   1.737
 2482SOL     OW 8344   5.467   3.702   6.933
 2482SOL    HW1 8345   5.550   3.691   6.986
 2482SOL    HW2 8346   5.460   3.628   6.866
 2483SOL     OW 8347   0.896   2.675   6.966
 2483SOL    HW1 8348   0.826   2.674   6.894
 2483SOL    HW2 8349   0.864   2.732   0.018
 2484SOL     OW 8350   4.473   1.037   1.736
 2484SOL    HW1 8351   4.570   1.044   1.760
 2484SOL    HW2 8352   4.457   1.081   1.647
 2485SOL     OW 8353   5.784   2.127   6.918
 2485SOL    HW1 8354   5.852   2.119   6.844
 2485SOL    HW2 8355   5.710   2.062   6.902
 2486SOL     OW 8356   0.541   4.874   5.511
 2486SOL    HW1 8357   0.455   4.861   5.561
 2486SOL    HW2 8358   0.539   4.819   5.428
 2487SOL     OW 8359   4.668   6.039   1.008
 2487SOL    HW1 8360   4.690   6.132   0.980
 2487SOL    HW2 8361   4.587   6.041   1.068
 2488SOL     OW 8362   6.810   4.059   1.941
 2488SOL    HW1 8363   6.899   4.028   1.909
 2488SOL    HW2 8364   6.781   4.139   1.888
 2489SOL     OW 8365   0.670   6.415   3.992
 2489SOL    HW1 8366   0.592   6.353   3.985
 2489SOL    HW2 8367   0.700   6.419   4.087
 2490SOL     OW 8368   0.744   6.356   1.360
 2490SOL    HW1 8369   0.735   6.311   1.448
 2490SOL    HW2 8370   0.713   6.451   1.368
 2491SOL     OW 8371   4.009   4.427   1.664
 2491SOL    HW1 8372   3.910   4.420   1.668
 2491SOL    HW2 8373   4.037   4.461   1.574
 2492SOL     OW 8374   5.138   3.631   1.193
 2492SOL    HW1 8375   5.126   3.637   1.094
 2492SOL    HW2 8376   5.085   3.703   1.238
 2493SOL     OW 8377   6.851   0.292   1.294
 2493SOL    HW1 8378   6.950   0.289   1.304
 2493SOL    HW2 8379   6.809   0.308   1.384
 2494SOL     OW 8380   5.882   3.637   1.809
 2494SOL    HW1 8381   5.911   3.570   1.740
 2494SOL    HW2 8382   5.885   3.729   1.768
 2495SOL     OW 8383   5.266   5.731   3.495
 2495SOL    HW1 8384   5.252   5.700   3.401
 2495SOL    HW2 8385   5.357   5.704   3.527
 2496SOL     OW 8386   6.987   3.617   6.805
 2496SOL    HW1 8387   6.983   3.658   6.897
 2496SOL    HW2 8388   0.052   3.640   6.763
 2497SOL     OW 8389   0.852   0.333   0.531
 2497SOL    HW1 8390   0.804   0.420   0.519
 2497SOL    HW2 8391   0.938   0.349   0.579
 2498SOL     OW 8392   3.428   2.712   5.618
 2498SOL    HW1 8393   3.351   2.721   5.681
 2498SOL    HW2 8394   3.471   2.801   5.605
 2499SOL     OW 8395   6.049   2.899   1.612
 2499SOL    HW1 8396   6.128   2.932   1.662
 2499SOL    HW2 8397   6.075   2.875   1.518
 2500SOL     OW 8398   3.674   3.543   6.187
 2500SOL    HW1 8399   3.589   3.498   6.214
 2500SOL    HW2 8400   3.735   3.548   6.266
 2501SOL     OW 8401   5.941   5.548   0.112
 2501SOL    HW1 8402   5.975   5.635   0.147
 2501SOL    HW2 8403   6.005   5.511   0.044
 2502SOL     OW 8404   1.967   6.688   4.946
 2502SOL    HW1 8405   1.921   6.701   4.858
 2502SOL    HW2 8406   2.031   6.611   4.940
 2503SOL     OW 8407   3.416   6.560   5.337
 2503SOL    HW1 8408   3.448   6.520   5.251
 2503SOL    HW2 8409   3.367   6.491   5.390
 2504SOL     OW 8410   3.403   5.412   2.610
 2504SOL    HW1 8411   3.351   5.373   2.534
 2504SOL    HW2 8412   3.345   5.474   2.662
 2505SOL     OW 8413   0.433   5.946   3.259
 2505SOL    HW1 8414   0.431   5.917   3.355
 2505SOL    HW2 8415   0.522   5.986   3.238
 2506SOL     OW 8416   6.374   3.823   6.263
 2506SOL    HW1 8417   6.419   3.912   6.270
 2506SOL    HW2 8418   6.429   3.755   6.311
 2507SOL     OW 8419   0.313   3.582   0.175
 2507SOL    HW1 8420   0.238   3.556   0.235
 2507SOL    HW2 8421   0.395   3.530   0.199
 2508SOL     OW 8422   2.926   1.937   4.605
 2508SOL    HW1 8423   2.863   1.988   4.547
 2508SOL    HW2 8424   2.934   1.984   4.694
 2509SOL     OW 8425   6.740   4.303   0.580
 2509SOL    HW1 8426   6.731   4.398   0.550
 2509SOL    HW2 8427   6.735   4.243   0.501
 2510SOL     OW 8428   3.689   4.178   0.791
 2510SOL    HW1 8429   3.753   4.157   0.718
 2510SOL    HW2 8430   3.737   4.224   0.866
 2511SOL     OW 8431   2.080   1.116   4.828
 2511SOL    HW1 8432   2.175   1.140   4.845
 2511SOL    HW2 8433   2.040   1.182   4.764
 2512SOL     OW 8434   4.006   4.246   5.426
 2512SOL    HW1 8435   3.965   4.156   5.435
 2512SOL    HW2 8436   3.936   4.316   5.438
 2513SOL     OW 8437   1.518   5.797   5.029
 2513SOL    HW1 8438   1.483   5.720   5.082
 2513SOL    HW2 8439   1.617   5.792   5.024
 2514SOL     OW 8440   0.534   3.101   4.196
 2514SOL    HW1 8441   0.584   3.138   4.273
 2514SOL    HW2 8442   0.588   3.028   4.153
 2515SOL     OW 8443   1.791   0.016   1.106
 2515SOL    HW1 8444   1.722   6.971   1.130
 2515SOL    HW2 8445   1.751   0.084   1.045
 2516SOL     OW 8446   4.944   0.987   2.248
 2516SOL    HW1 8447   4.937   1.082   2.279
 2516SOL    HW2 8448   4.952   0.927   2.327
 2517SOL     OW 8449   1.754   0.082   6.008
 2517SOL    HW1 8450   1.793   0.140   5.936
 2517SOL    HW2 8451   1.684   0.133   6.057
 2518SOL     OW 8452   1.752   5.274   1.158
 2518SOL    HW1 8453   1.764   5.371   1.134
 2518SOL    HW2 8454   1.804   5.255   1.242
 2519SOL     OW 8455   3.618   1.174   1.367
 2519SOL    HW1 8456   3.675   1.166   1.449
 2519SOL    HW2 8457   3.524   1.196   1.393
 2520SOL     OW 8458   3.242   1.930   6.531
 2520SOL    HW1 8459   3.208   1.873   6.457
 2520SOL    HW2 8460   3.164   1.961   6.587
 2521SOL     OW 8461   3.518   1.847   5.812
 2521SOL    HW1 8462   3.455   1.794   5.868
 2521SOL    HW2 8463   3.540   1.933   5.858
 2522SOL     OW 8464   1.593   1.578   5.571
 2522SOL    HW1 8465   1.647   1.494   5.564
 2522SOL    HW2 8466   1.599   1.629   5.484
 2523SOL     OW 8467   1.655   3.276   1.187
 2523SOL    HW1 8468   1.653   3.280   1.287
 2523SOL    HW2 8469   1.650   3.369   1.149
 2524SOL     OW 8470   0.272   6.481   4.701
 2524SOL    HW1 8471   0.325   6.497   4.618
 2524SOL    HW2 8472   0.175   6.483   4.680
 2525SOL     OW 8473   1.521   3.118   4.810
 2525SOL    HW1 8474   1.517   3.115   4.710
 2525SOL    HW2 8475   1.429   3.132   4.846
 2526SOL     OW 8476   1.551   5.029   6.397
 2526SOL    HW1 8477   1.552   4.929   6.394
 2526SOL    HW2 8478   1.633   5.062   6.446
 2527SOL     OW 8479   5.257   5.820   5.606
 2527SOL    HW1 8480   5.227   5.896   5.664
 2527SOL    HW2 8481   5.219   5.830   5.514
 2528SOL     OW 8482   5.373   4.351   5.491
 2528SOL    HW1 8483   5.427   4.428   5.457
 2528SOL    HW2 8484   5.430   4.294   5.551
 2529SOL     OW 8485   0.537   6.937   0.158
 2529SOL    HW1 8486   0.634   6.914   0.165
 2529SOL    HW2 8487   0.526   0.013   0.160
 2530SOL     OW 8488   2.614   5.986   5.525
 2530SOL    HW1 8489   2.652   5.931   5.450
 2530SOL    HW2 8490   2.558   5.928   5.584
 2531SOL     OW 8491   6.028   6.196   5.687
 2531SOL    HW1 8492   5.929   6.211   5.682
 2531SOL    HW2 8493   6.067   6.258   5.755
 2532SOL     OW 8494   0.079   6.589   0.785
 2532SOL    HW1 8495   0.147   6.552   0.722
 2532SOL    HW2 8496   0.088   6.689   0.788
 2533SOL     OW 8497   4.461   0.549   3.716
 2533SOL    HW1 8498   4.488   0.645   3.728
 2533SOL    HW2 8499   4.375   0.545   3.666
 2534SOL     OW 8500   4.187   1.171   1.525
 2534SOL    HW1 8501   4.211   1.267   1.532
 2534SOL    HW2 8502   4.120   1.147   1.595
 2535SOL     OW 8503   3.239   2.352   6.649
 2535SOL    HW1 8504   3.290   2.353   6.735
 2535SOL    HW2 8505   3.143   2.328   6.668
 2536SOL     OW 8506   1.974   0.345   6.560
 2536SOL    HW1 8507   1.987   0.248   6.585
 2536SOL    HW2 8508   1.877   0.366   6.558
 2537SOL     OW 8509   3.323   0.015   6.511
 2537SOL    HW1 8510   3.340   6.988   6.427
 2537SOL    HW2 8511   3.283   0.104   6.489
 2538SOL     OW 8512   0.337   3.623   4.037
 2538SOL    HW1 8513   0.390   3.573   4.105
 2538SOL    HW2 8514   0.397   3.686   3.988
 2539SOL     OW 8515   4.997   0.876   4.362
 2539SOL    HW1 8516   4.910   0.898   4.405
 2539SOL    HW2 8517   4.994   0.899   4.265
 2540SOL     OW 8518   4.137   1.829   2.855
 2540SOL    HW1 8519   4.070   1.877   2.799
 2540SOL    HW2 8520   4.224   1.826   2.807
 2541SOL     OW 8521   2.615   6.670   5.192
 2541SOL    HW1 8522   2.617   6.667   5.292
 2541SOL    HW2 8523   2.631   6.579   5.156
 2542SOL     OW 8524   3.413   3.415   6.261
 2542SOL    HW1 8525   3.353   3.453   6.190
 2542SOL    HW2 8526   3.413   3.476   6.340
 2543SOL     OW 8527   0.455   0.913   4.377
 2543SOL    HW1 8528   0.403   0.878   4.455
 2543SOL    HW2 8529   0.510   0.840   4.338
 2544SOL     OW 8530   0.407   5.876   0.707
 2544SOL    HW1 8531   0.407   5.913   0.614
 2544SOL    HW2 8532   0.444   5.783   0.705
 2545SOL     OW 8533   1.664   6.379   2.316
 2545SOL    HW1 8534   1.582   6.434   2.301
 2545SOL    HW2 8535   1.736   6.438   2.352
 2546SOL     OW 8536   6.952   2.192   1.196
 2546SOL    HW1 8537   6.895   2.139   1.133
 2546SOL    HW2 8538   0.020   2.204   1.156
 2547SOL     OW 8539   0.269   3.789   0.026
 2547SOL    HW1 8540   0.283   3.702   0.074
 2547SOL    HW2 8541   0.303   3.781   6.956
 2548SOL     OW 8542   0.463   6.760   4.430
 2548SOL    HW1 8543   0.443   6.857   4.414
 2548SOL    HW2 8544   0.551   6.752   4.478
 2549SOL     OW 8545   1.174   0.634   1.784
 2549SOL    HW1 8546   1.214   0.725   1.781
 2549SOL    HW2 8547   1.246   0.566   1.769
 2550SOL     OW 8548   6.412   6.674   0.578
 2550SOL    HW1 8549   6.352   6.596   0.596
 2550SOL    HW2 8550   6.357   6.757   0.570
 2551SOL     OW 8551   3.007   4.773   0.373
 2551SOL    HW1 8552   2.974   4.864   0.399
 2551SOL    HW2 8553   2.996   4.710   0.450
 2552SOL     OW 8554   2.301   5.765   4.862
 2552SOL    HW1 8555   2.346   5.703   4.925
 2552SOL    HW2 8556   2.369   5.815   4.809
 2553SOL     OW 8557   3.944   3.184   5.996
 2553SOL    HW1 8558   3.876   3.251   5.968
 2553SOL    HW2 8559   3.911   3.092   5.975
 2554SOL     OW 8560   2.425   1.066   0.087
 2554SOL    HW1 8561   2.428   0.970   0.115
 2554SOL    HW2 8562   2.333   1.103   0.101
 2555SOL     OW 8563   5.703   1.679   4.136
 2555SOL    HW1 8564   5.756   1.621   4.198
 2555SOL    HW2 8565   5.762   1.709   4.061
 2556SOL     OW 8566   4.302   5.964   0.367
 2556SOL    HW1 8567   4.203   5.954   0.351
 2556SOL    HW2 8568   4.318   5.987   0.463
 2557SOL     OW 8569   1.435   3.595   0.516
 2557SOL    HW1 8570   1.365   3.617   0.584
 2557SOL    HW2 8571   1.408   3.632   0.427
 2558SOL     OW 8572   4.906   0.992   5.455
 2558SOL    HW1 8573   4.902   0.937   5.372
 2558SOL    HW2 8574   5.001   1.018   5.474
 2559SOL     OW 8575   1.231   4.342   5.654
 2559SOL    HW1 8576   1.156   4.356   5.589
 2559SOL    HW2 8577   1.307   4.402   5.631
 2560SOL     OW 8578   6.412   2.366   5.840
 2560SOL    HW1 8579   6.364   2.278   5.837
 2560SOL    HW2 8580   6.348   2.438   5.866
 2561SOL     OW 8581   2.244   4.871   5.169
 2561SOL    HW1 8582   2.214   4.884   5.075
 2561SOL    HW2 8583   2.251   4.773   5.188
 2562SOL     OW 8584   2.274   4.554   1.263
 2562SOL    HW1 8585   2.356   4.550   1.206
 2562SOL    HW2 8586   2.193   4.552   1.204
 2563SOL     OW 8587   3.933   1.575   1.203
 2563SOL    HW1 8588   3.856   1.514   1.184
 2563SOL    HW2 8589   4.009   1.553   1.142
 2564SOL     OW 8590   1.676   5.451   0.143
 2564SOL    HW1 8591   1.676   5.374   0.079
 2564SOL    HW2 8592   1.635   5.531   0.099
 2565SOL     OW 8593   1.146   0.590   6.801
 2565SOL    HW1 8594   1.180   0.584   6.708
 2565SOL    HW2 8595   1.087   0.511   6.820
 2566SOL     OW 8596   2.399   6.666   1.562
 2566SOL    HW1 8597   2.383   6.653   1.464
 2566SOL    HW2 8598   2.492   6.639   1.584
 2567SOL     OW 8599   0.959   0.371   1.015
 2567SOL    HW1 8600   0.905   0.448   0.981
 2567SOL    HW2 8601   0.947   0.363   1.114
 2568SOL     OW 8602   4.604   2.096   0.133
 2568SOL    HW1 8603   4.550   2.046   0.065
 2568SOL    HW2 8604   4.566   2.188   0.144
 2569SOL     OW 8605   3.336   0.872   3.194
 2569SOL    HW1 8606   3.336   0.801   3.123
 2569SOL    HW2 8607   3.305   0.958   3.154
 2570SOL     OW 8608   5.697   0.718   5.538
 2570SOL    HW1 8609   5.701   0.798   5.478
 2570SOL    HW2 8610   5.617   0.725   5.599
 2571SOL     OW 8611   1.611   4.789   3.403
 2571SOL    HW1 8612   1.690   4.849   3.409
 2571SOL    HW2 8613   1.551   4.820   3.329
 2572SOL     OW 8614   3.209   5.339   2.430
 2572SOL    HW1 8615   3.140   5.410   2.419
 2572SOL    HW2 8616   3.164   5.250   2.442
 2573SOL     OW 8617   0.638   1.978   1.194
 2573SOL    HW1 8618   0.619   1.941   1.285
 2573SOL    HW2 8619   0.628   1.906   1.125
 2574SOL     OW 8620   5.089   3.624   0.919
 2574SOL    HW1 8621   5.166   3.576   0.878
 2574SOL    HW2 8622   5.003   3.580   0.892
 2575SOL     OW 8623   5.825   5.484   6.690
 2575SOL    HW1 8624   5.829   5.386   6.672
 2575SOL    HW2 8625   5.812   5.533   6.603
 2576SOL     OW 8626   4.128   6.195   4.704
 2576SOL    HW1 8627   4.214   6.182   4.656
 2576SOL    HW2 8628   4.074   6.111   4.700
 2577SOL     OW 8629   2.865   5.171   2.129
 2577SOL    HW1 8630   2.813   5.174   2.044
 2577SOL    HW2 8631   2.931   5.246   2.130
 2578SOL     OW 8632   3.668   1.568   3.718
 2578SOL    HW1 8633   3.582   1.516   3.722
 2578SOL    HW2 8634   3.704   1.566   3.625
 2579SOL     OW 8635   0.920   6.011   3.899
 2579SOL    HW1 8636   0.933   5.999   3.997
 2579SOL    HW2 8637   1.006   5.991   3.851
 2580SOL     OW 8638   2.357   4.548   0.010
 2580SOL    HW1 8639   2.333   4.512   0.100
 2580SOL    HW2 8640   2.450   4.518   7.009
 2581SOL     OW 8641   1.990   5.261   0.722
 2581SOL    HW1 8642   2.065   5.327   0.712
 2581SOL    HW2 8643   1.997   5.192   0.650
 2582SOL     OW 8644   6.955   4.003   1.499
 2582SOL    HW1 8645   6.912   3.996   1.589
 2582SOL    HW2 8646   6.932   4.091   1.458
 2583SOL     OW 8647   0.728   0.704   6.766
 2583SOL    HW1 8648   0.647   0.741   6.811
 2583SOL    HW2 8649   0.720   0.716   6.667
 2584SOL     OW 8650   4.372   5.422   5.662
 2584SOL    HW1 8651   4.447   5.476   5.699
 2584SOL    HW2 8652   4.301   5.483   5.626
 2585SOL     OW 8653   2.579   4.205   6.795
 2585SOL    HW1 8654   2.625   4.127   6.837
 2585SOL    HW2 8655   2.577   4.282   6.859
 2586SOL     OW 8656   2.972   0.878   5.581
 2586SOL    HW1 8657   2.998   0.968   5.547
 2586SOL    HW2 8658   2.875   0.878   5.606
 2587SOL     OW 8659   6.754   1.538   3.302
 2587SOL    HW1 8660   6.826   1.556   3.369
 2587SOL    HW2 8661   6.699   1.460   3.334
 2588SOL     OW 8662   3.943   2.329   5.266
 2588SOL    HW1 8663   3.866   2.338   5.329
 2588SOL    HW2 8664   4.009   2.401   5.283
 2589SOL     OW 8665   1.324   6.489   6.458
 2589SOL    HW1 8666   1.248   6.482   6.522
 2589SOL    HW2 8667   1.406   6.446   6.496
 2590SOL     OW 8668   2.869   5.227   0.351
 2590SOL    HW1 8669   2.939   5.296   0.366
 2590SOL    HW2 8670   2.806   5.258   0.280
 2591SOL     OW 8671   6.709   5.151   3.593
 2591SOL    HW1 8672   6.759   5.174   3.677
 2591SOL    HW2 8673   6.755   5.076   3.546
 2592SOL     OW 8674   2.567   4.108   6.310
 2592SOL    HW1 8675   2.542   4.160   6.228
 2592SOL    HW2 8676   2.568   4.169   6.389
 2593SOL     OW 8677   3.288   5.785   0.767
 2593SOL    HW1 8678   3.237   5.763   0.850
 2593SOL    HW2 8679   3.305   5.702   0.715
 2594SOL     OW 8680   2.409   4.302   6.178
 2594SOL    HW1 8681   2.344   4.360   6.228
 2594SOL    HW2 8682   2.420   4.337   6.085
 2595SOL     OW 8683   0.491   1.607   4.655
 2595SOL    HW1 8684   0.580   1.592   4.698
 2595SOL    HW2 8685   0.447   1.519   4.638
 2596SOL     OW 8686   2.010   2.936   1.043
 2596SOL    HW1 8687   2.068   2.859   1.019
 2596SOL    HW2 8688   1.973   2.923   1.135
 2597SOL     OW 8689   6.844   5.036   6.862
 2597SOL    HW1 8690   6.854   5.105   6.934
 2597SOL    HW2 8691   6.906   4.959   6.880
 2598SOL     OW 8692   6.669   1.886   1.612
 2598SOL    HW1 8693   6.610   1.915   1.687
 2598SOL    HW2 8694   6.625   1.907   1.525
 2599SOL     OW 8695   1.825   6.381   1.258
 2599SOL    HW1 8696   1.787   6.339   1.340
 2599SOL    HW2 8697   1.751   6.422   1.204
 2600SOL     OW 8698   5.632   3.363   4.284
 2600SOL    HW1 8699   5.706   3.385   4.348
 2600SOL    HW2 8700   5.624   3.436   4.216
 2601SOL     OW 8701   1.780   2.263   2.137
 2601SOL    HW1 8702   1.838   2.186   2.164
 2601SOL    HW2 8703   1.835   2.329   2.086
 2602SOL     OW 8704   1.635   5.097   4.199
 2602SOL    HW1 8705   1.684   5.052   4.124
 2602SOL    HW2 8706   1.701   5.134   4.264
 2603SOL     OW 8707   2.610   1.388   2.329
 2603SOL    HW1 8708   2.528   1.402   2.273
 2603SOL    HW2 8709   2.589   1.327   2.405
 2604SOL     OW 8710   5.302   1.815   2.208
 2604SOL    HW1 8711   5.204   1.818   2.228
 2604SOL    HW2 8712   5.353   1.851   2.286
 2605SOL     OW 8713   1.369   4.005   2.648
 2605SOL    HW1 8714   1.460   4.022   2.686
 2605SOL    HW2 8715   1.377   3.993   2.549
 2606SOL     OW 8716   5.400   5.292   0.984
 2606SOL    HW1 8717   5.442   5.368   1.034
 2606SOL    HW2 8718   5.428   5.205   1.024
 2607SOL     OW 8719   1.828   2.182   1.144
 2607SOL    HW1 8720   1.875   2.102   1.107
 2607SOL    HW2 8721   1.791   2.160   1.235
 2608SOL     OW 8722   2.202   5.548   6.583
 2608SOL    HW1 8723   2.293   5.554   6.624
 2608SOL    HW2 8724   2.146   5.483   6.635
 2609SOL     OW 8725   0.479   1.208   1.201
 2609SOL    HW1 8726   0.443   1.216   1.108
 2609SOL    HW2 8727   0.436   1.131   1.247
 2610SOL     OW 8728   1.156   4.902   4.077
 2610SOL    HW1 8729   1.138   4.819   4.024
 2610SOL    HW2 8730   1.238   4.946   4.041
 2611SOL     OW 8731   4.538   6.132   0.273
 2611SOL    HW1 8732   4.445   6.121   0.309
 2611SOL    HW2 8733   4.603   6.130   0.349
 2612SOL     OW 8734   5.163   6.790   4.568
 2612SOL    HW1 8735   5.191   6.694   4.560
 2612SOL    HW2 8736   5.235   6.842   4.613
 2613SOL     OW 8737   1.560   5.449   6.214
 2613SOL    HW1 8738   1.520   5.456   6.122
 2613SOL    HW2 8739   1.653   5.413   6.206
 2614SOL     OW 8740   5.872   0.762   6.144
 2614SOL    HW1 8741   5.924   0.816   6.210
 2614SOL    HW2 8742   5.804   0.821   6.099
 2615SOL     OW 8743   1.533   3.298   1.818
 2615SOL    HW1 8744   1.528   3.286   1.917
 2615SOL    HW2 8745   1.440   3.311   1.781
 2616SOL     OW 8746   1.177   0.848   5.305
 2616SOL    HW1 8747   1.086   0.882   5.282
 2616SOL    HW2 8748   1.242   0.925   5.305
 2617SOL     OW 8749   5.538   0.388   0.843
 2617SOL    HW1 8750   5.560   0.399   0.746
 2617SOL    HW2 8751   5.504   0.474   0.880
 2618SOL     OW 8752   1.246   5.762   4.940
 2618SOL    HW1 8753   1.327   5.794   4.988
 2618SOL    HW2 8754   1.231   5.665   4.959
 2619SOL     OW 8755   4.133   1.693   2.364
 2619SOL    HW1 8756   4.066   1.701   2.438
 2619SOL    HW2 8757   4.107   1.616   2.305
 2620SOL     OW 8758   6.046   6.044   2.038
 2620SOL    HW1 8759   6.143   6.068   2.038
 2620SOL    HW2 8760   5.997   6.101   2.104
 2621SOL     OW 8761   0.409   5.670   2.711
 2621SOL    HW1 8762   0.438   5.635   2.800
 2621SOL    HW2 8763   0.329   5.620   2.679
 2622SOL     OW 8764   3.140   2.774   6.188
 2622SOL    HW1 8765   3.113   2.684   6.223
 2622SOL    HW2 8766   3.240   2.783   6.193
 2623SOL     OW 8767   0.271   6.403   3.807
 2623SOL    HW1 8768   0.190   6.435   3.757
 2623SOL    HW2 8769   0.297   6.313   3.773
 2624SOL     OW 8770   6.512   2.037   4.640
 2624SOL    HW1 8771   6.497   1.939   4.650
 2624SOL    HW2 8772   6.585   2.066   4.702
 2625SOL     OW 8773   2.113   5.012   5.359
 2625SOL    HW1 8774   2.184   4.969   5.303
 2625SOL    HW2 8775   2.144   5.020   5.454
 2626SOL     OW 8776   6.600   6.860   5.085
 2626SOL    HW1 8777   6.620   6.806   5.168
 2626SOL    HW2 8778   6.508   6.897   5.091
 2627SOL     OW 8779   1.084   6.977   6.279
 2627SOL    HW1 8780   1.034   0.037   6.256
 2627SOL    HW2 8781   1.052   6.902   6.221
 2628SOL     OW 8782   1.782   3.652   3.655
 2628SOL    HW1 8783   1.712   3.586   3.629
 2628SOL    HW2 8784   1.818   3.696   3.573
 2629SOL     OW 8785   3.337   4.042   3.220
 2629SOL    HW1 8786   3.413   4.052   3.285
 2629SOL    HW2 8787   3.250   4.043   3.271
 2630SOL     OW 8788   3.433   1.116   3.095
 2630SOL    HW1 8789   3.400   1.195   3.043
 2630SOL    HW2 8790   3.520   1.084   3.057
 2631SOL     OW 8791   5.473   0.376   6.295
 2631SOL    HW1 8792   5.529   0.406   6.373
 2631SOL    HW2 8793   5.498   0.282   6.271
 2632SOL     OW 8794   5.483   4.809   1.441
 2632SOL    HW1 8795   5.552   4.839   1.374
 2632SOL    HW2 8796   5.392   4.819   1.401
 2633SOL     OW 8797   6.796   2.632   5.412
 2633SOL    HW1 8798   6.730   2.689   5.363
 2633SOL    HW2 8799   6.852   2.689   5.472
 2634SOL     OW 8800   6.842   6.148   4.576
 2634SOL    HW1 8801   6.923   6.187   4.533
 2634SOL    HW2 8802   6.760   6.192   4.538
 2635SOL     OW 8803   5.469   5.420   3.624
 2635SOL    HW1 8804   5.477   5.519   3.638
 2635SOL    HW2 8805   5.501   5.372   3.706
 2636SOL     OW 8806   3.824   0.826   6.145
 2636SOL    HW1 8807   3.908   0.879   6.157
 2636SOL    HW2 8808   3.746   0.888   6.133
 2637SOL     OW 8809   7.000   2.162   3.266
 2637SOL    HW1 8810   0.032   2.084   3.235
 2637SOL    HW2 8811   6.976   2.219   3.187
 2638SOL     OW 8812   0.745   0.014   4.411
 2638SOL    HW1 8813   0.822   0.066   4.447
 2638SOL    HW2 8814   0.778   6.961   4.355
 2639SOL     OW 8815   4.516   5.052   4.994
 2639SOL    HW1 8816   4.447   5.027   5.062
 2639SOL    HW2 8817   4.559   5.138   5.021
 2640SOL     OW 8818   0.587   0.205   5.032
 2640SOL    HW1 8819   0.682   0.205   5.062
 2640SOL    HW2 8820   0.544   0.292   5.057
 2641SOL     OW 8821   5.595   2.546   0.281
 2641SOL    HW1 8822   5.619   2.451   0.304
 2641SOL    HW2 8823   5.641   2.572   0.196
 2642SOL     OW 8824   6.908   1.163   4.501
 2642SOL    HW1 8825   6.996   1.173   4.454
 2642SOL    HW2 8826   6.833   1.181   4.437
 2643SOL     OW 8827   0.646   2.898   4.063
 2643SOL    HW1 8828   0.571   2.834   4.079
 2643SOL    HW2 8829   0.732   2.857   4.094
 2644SOL     OW 8830   4.645   5.383   4.503
 2644SOL    HW1 8831   4.671   5.432   4.586
 2644SOL    HW2 8832   4.672   5.287   4.512
 2645SOL     OW 8833   4.914   5.268   3.536
 2645SOL    HW1 8834   4.896   5.170   3.545
 2645SOL    HW2 8835   4.996   5.292   3.588
 2646SOL     OW 8836   0.694   3.758   6.269
 2646SOL    HW1 8837   0.744   3.681   6.308
 2646SOL    HW2 8838   0.659   3.816   6.343
 2647SOL     OW 8839   5.559   0.189   1.797
 2647SOL    HW1 8840   5.544   0.211   1.700
 2647SOL    HW2 8841   5.657   0.176   1.813
 2648SOL     OW 8842   0.760   0.308   4.260
 2648SOL    HW1 8843   0.753   0.221   4.307
 2648SOL    HW2 8844   0.853   0.345   4.271
 2649SOL     OW 8845   5.149   3.058   1.673
 2649SOL    HW1 8846   5.050   3.055   1.667
 2649SOL    HW2 8847   5.181   3.150   1.648
 2650SOL     OW 8848   3.003   6.060   4.929
 2650SOL    HW1 8849   3.077   6.024   4.985
 2650SOL    HW2 8850   2.974   6.149   4.965
 2651SOL     OW 8851   3.957   1.704   5.707
 2651SOL    HW1 8852   3.891   1.653   5.763
 2651SOL    HW2 8853   3.913   1.787   5.672
 2652SOL     OW 8854   5.012   3.464   5.578
 2652SOL    HW1 8855   4.979   3.434   5.668
 2652SOL    HW2 8856   4.958   3.421   5.506
 2653SOL     OW 8857   3.374   6.094   6.337
 2653SOL    HW1 8858   3.392   6.014   6.395
 2653SOL    HW2 8859   3.277   6.117   6.341
 2654SOL     OW 8860   5.067   6.596   0.192
 2654SOL    HW1 8861   5.030   6.505   0.212
 2654SOL    HW2 8862   5.166   6.591   0.185
 2655SOL     OW 8863   5.011   6.225   3.252
 2655SOL    HW1 8864   4.921   6.223   3.207
 2655SOL    HW2 8865   5.005   6.181   3.341
 2656SOL     OW 8866   3.741   6.036   3.938
 2656SOL    HW1 8867   3.685   5.970   3.988
 2656SOL    HW2 8868   3.772   5.995   3.852
 2657SOL     OW 8869   2.018   3.835   0.329
 2657SOL    HW1 8870   1.963   3.751   0.329
 2657SOL    HW2 8871   2.005   3.882   0.416
 2658SOL     OW 8872   4.019   4.420   6.070
 2658SOL    HW1 8873   4.019   4.332   6.119
 2658SOL    HW2 8874   4.076   4.412   5.988
 2659SOL     OW 8875   5.191   2.141   5.230
 2659SOL    HW1 8876   5.242   2.163   5.313
 2659SOL    HW2 8877   5.097   2.117   5.255
 2660SOL     OW 8878   1.116   1.556   0.919
 2660SOL    HW1 8879   1.201   1.590   0.959
 2660SOL    HW2 8880   1.045   1.554   0.990
 2661SOL     OW 8881   1.396   0.699   1.366
 2661SOL    HW1 8882   1.318   0.660   1.414
 2661SOL    HW2 8883   1.364   0.746   1.283
 2662SOL     OW 8884   3.391   0.690   3.438
 2662SOL    HW1 8885   3.408   0.761   3.370
 2662SOL    HW2 8886   3.437   0.715   3.524
 2663SOL     OW 8887   3.227   6.774   5.885
 2663SOL    HW1 8888   3.268   6.781   5.794
 2663SOL    HW2 8889   3.292   6.808   5.954
 2664SOL     OW 8890   3.675   2.821   5.268
 2664SOL    HW1 8891   3.740   2.745   5.261
 2664SOL    HW2 8892   3.671   2.853   5.363
 2665SOL     OW 8893   2.252   3.641   5.227
 2665SOL    HW1 8894   2.291   3.639   5.319
 2665SOL    HW2 8895   2.307   3.700   5.169
 2666SOL     OW 8896   1.837   3.873   2.662
 2666SOL    HW1 8897   1.868   3.795   2.716
 2666SOL    HW2 8898   1.766   3.843   2.598
 2667SOL     OW 8899   6.405   4.290   3.806
 2667SOL    HW1 8900   6.354   4.241   3.876
 2667SOL    HW2 8901   6.348   4.363   3.768
 2668SOL     OW 8902   5.621   1.417   4.769
 2668SOL    HW1 8903   5.548   1.465   4.818
 2668SOL    HW2 8904   5.707   1.468   4.779
 2669SOL     OW 8905   2.366   6.962   0.290
 2669SOL    HW1 8906   2.311   6.880   0.302
 2669SOL    HW2 8907   2.338   0.008   0.357
 2670SOL     OW 8908   6.945   1.601   6.012
 2670SOL    HW1 8909   6.864   1.614   6.069
 2670SOL    HW2 8910   6.982   1.690   5.987
 2671SOL     OW 8911   3.549   5.631   5.849
 2671SOL    HW1 8912   3.572   5.585   5.763
 2671SOL    HW2 8913   3.583   5.725   5.846
 2672SOL     OW 8914   3.846   1.305   1.891
 2672SOL    HW1 8915   3.785   1.270   1.962
 2672SOL    HW2 8916   3.929   1.341   1.932
 2673SOL     OW 8917   4.763   0.199   2.562
 2673SOL    HW1 8918   4.688   0.244   2.514
 2673SOL    HW2 8919   4.731   0.165   2.651
 2674SOL     OW 8920   0.931   5.486   2.983
 2674SOL    HW1 8921   0.983   5.562   2.945
 2674SOL    HW2 8922   0.838   5.488   2.948
 2675SOL     OW 8923   6.892   6.048   3.622
 2675SOL    HW1 8924   6.910   5.957   3.584
 2675SOL    HW2 8925   6.869   6.039   3.719
 2676SOL     OW 8926   3.073   3.953   3.038
 2676SOL    HW1 8927   3.015   4.007   2.977
 2676SOL    HW2 8928   3.166   3.990   3.037
 2677SOL     OW 8929   1.953   4.656   1.400
 2677SOL    HW1 8930   2.024   4.712   1.358
 2677SOL    HW2 8931   1.907   4.602   1.330
 2678SOL     OW 8932   5.981   2.685   2.645
 2678SOL    HW1 8933   5.897   2.667   2.593
 2678SOL    HW2 8934   5.957   2.707   2.739
 2679SOL     OW 8935   1.513   5.422   2.168
 2679SOL    HW1 8936   1.500   5.357   2.093
 2679SOL    HW2 8937   1.567   5.379   2.241
 2680SOL     OW 8938   0.907   2.184   6.857
 2680SOL    HW1 8939   0.957   2.200   6.772
 2680SOL    HW2 8940   0.904   2.268   6.911
 2681SOL     OW 8941   1.407   2.923   5.399
 2681SOL    HW1 8942   1.326   2.865   5.411
 2681SOL    HW2 8943   1.452   2.935   5.487
 2682SOL     OW 8944   4.722   4.169   2.202
 2682SOL    HW1 8945   4.698   4.219   2.119
 2682SOL    HW2 8946   4.699   4.073   2.192
 2683SOL     OW 8947   2.340   4.223   2.746
 2683SOL    HW1 8948   2.290   4.168   2.814
 2683SOL    HW2 8949   2.353   4.169   2.663
 2684SOL     OW 8950   5.668   5.951   2.259
 2684SOL    HW1 8951   5.603   5.986   2.327
 2684SOL    HW2 8952   5.676   5.852   2.269
 2685SOL     OW 8953   6.813   5.122   4.895
 2685SOL    HW1 8954   6.889   5.183   4.916
 2685SOL    HW2 8955   6.848   5.033   4.865
 2686SOL     OW 8956   1.427   1.130   4.744
 2686SOL    HW1 8957   1.402   1.067   4.670
 2686SOL    HW2 8958   1.521   1.163   4.730
 2687SOL     OW 8959   4.158   1.540   2.088
 2687SOL    HW1 8960   4.095   1.597   2.036
 2687SOL    HW2 8961   4.248   1.540   2.043
 2688SOL     OW 8962   3.719   2.351   6.911
 2688SOL    HW1 8963   3.634   2.405   6.907
 2688SOL    HW2 8964   3.706   2.273   6.972
 2689SOL     OW 8965   0.498   4.238   2.790
 2689SOL    HW1 8966   0.497   4.239   2.690
 2689SOL    HW2 8967   0.499   4.331   2.825
 2690SOL     OW 8968   3.355   1.701   6.265
 2690SOL    HW1 8969   3.418   1.635   6.225
 2690SOL    HW2 8970   3.403   1.756   6.334
 2691SOL     OW 8971   0.066   4.425   4.495
 2691SOL    HW1 8972   0.158   4.389   4.509
 2691SOL    HW2 8973   0.031   4.463   4.580
 2692SOL     OW 8974   2.930   5.706   2.516
 2692SOL    HW1 8975   2.869   5.783   2.535
 2692SOL    HW2 8976   2.922   5.638   2.589
 2693SOL     OW 8977   1.715   5.780   4.034
 2693SOL    HW1 8978   1.740   5.796   4.129
 2693SOL    HW2 8979   1.797   5.755   3.982
 2694SOL     OW 8980   3.326   6.717   3.439
 2694SOL    HW1 8981   3.235   6.716   3.480
 2694SOL    HW2 8982   3.363   6.810   3.441
 2695SOL     OW 8983   6.759   6.663   2.567
 2695SOL    HW1 8984   6.673   6.713   2.559
 2695SOL    HW2 8985   6.836   6.728   2.565
 2696SOL     OW 8986   4.852   4.557   6.364
 2696SOL    HW1 8987   4.878   4.544   6.269
 2696SOL    HW2 8988   4.874   4.475   6.417
 2697SOL     OW 8989   4.151   1.515   1.028
 2697SOL    HW1 8990   4.208   1.481   1.102
 2697SOL    HW2 8991   4.145   1.447   0.955
 2698SOL     OW 8992   1.418   4.780   6.066
 2698SOL    HW1 8993   1.365   4.853   6.109
 2698SOL    HW2 8994   1.433   4.706   6.133
 2699SOL     OW 8995   3.391   5.768   2.298
 2699SOL    HW1 8996   3.370   5.684   2.249
 2699SOL    HW2 8997   3.354   5.763   2.391
 2700SOL     OW 8998   3.161   2.075   1.369
 2700SOL    HW1 8999   3.210   1.992   1.393
 2700SOL    HW2 9000   3.063   2.061   1.381
 2701SOL     OW 9001   5.147   3.188   4.450
 2701SOL    HW1 9002   5.112   3.270   4.494
 2701SOL    HW2 9003   5.247   3.192   4.447
 2702SOL     OW 9004   2.590   1.990   4.558
 2702SOL    HW1 9005   2.517   1.979   4.490
 2702SOL    HW2 9006   2.553   2.033   4.640
 2703SOL     OW 9007   1.881   5.882   1.674
 2703SOL    HW1 9008   1.801   5.912   1.622
 2703SOL    HW2 9009   1.896   5.784   1.658
 2704SOL     OW 9010   6.515   5.531   3.325
 2704SOL    HW1 9011   6.422   5.554   3.295
 2704SOL    HW2 9012   6.510   5.453   3.388
 2705SOL     OW 9013   0.555   0.714   5.180
 2705SOL    HW1 9014   0.621   0.723   5.254
 2705SOL    HW2 9015   0.474   0.665   5.213
 2706SOL     OW 9016   6.488   4.622   4.314
 2706SOL    HW1 9017   6.445   4.544   4.359
 2706SOL    HW2 9018   6.499   4.697   4.379
 2707SOL     OW 9019   3.805   6.855   2.827
 2707SOL    HW1 9020   3.777   6.933   2.884
 2707SOL    HW2 9021   3.875   6.885   2.762
 2708SOL     OW 9022   5.993   2.720   0.140
 2708SOL    HW1 9023   6.091   2.742   0.141
 2708SOL    HW2 9024   5.940   2.802   0.162
 2709SOL     OW 9025   5.101   6.904   6.147
 2709SOL    HW1 9026   5.144   6.941   6.064
 2709SOL    HW2 9027   5.149   6.820   6.174
 2710SOL     OW 9028   1.351   3.473   3.873
 2710SOL    HW1 9029   1.314   3.439   3.959
 2710SOL    HW2 9030   1.437   3.426   3.853
 2711SOL     OW 9031   3.625   2.103   3.745
 2711SOL    HW1 9032   3.711   2.121   3.699
 2711SOL    HW2 9033   3.594   2.011   3.722
 2712SOL     OW 9034   3.884   5.418   2.572
 2712SOL    HW1 9035   3.807   5.381   2.521
 2712SOL    HW2 9036   3.956   5.446   2.508
 2713SOL     OW 9037   4.637   4.782   6.345
 2713SOL    HW1 9038   4.557   4.792   6.405
 2713SOL    HW2 9039   4.698   4.712   6.383
 2714SOL     OW 9040   3.069   3.570   6.535
 2714SOL    HW1 9041   3.038   3.505   6.465
 2714SOL    HW2 9042   2.993   3.590   6.598
 2715SOL     OW 9043   5.265   1.185   1.349
 2715SOL    HW1 9044   5.297   1.267   1.396
 2715SOL    HW2 9045   5.316   1.105   1.381
 2716SOL     OW 9046   4.057   2.129   2.850
 2716SOL    HW1 9047   4.120   2.198   2.887
 2716SOL    HW2 9048   4.088   2.101   2.759
 2717SOL     OW 9049   1.187   1.344   2.566
 2717SOL    HW1 9050   1.166   1.441   2.577
 2717SOL    HW2 9051   1.125   1.303   2.499
 2718SOL     OW 9052   0.208   0.581   6.376
 2718SOL    HW1 9053   0.232   0.635   6.296
 2718SOL    HW2 9054   0.217   0.484   6.355
 2719SOL     OW 9055   1.729   4.220   2.529
 2719SOL    HW1 9056   1.736   4.131   2.484
 2719SOL    HW2 9057   1.729   4.208   2.628
 2720SOL     OW 9058   1.249   0.281   5.257
 2720SOL    HW1 9059   1.280   0.195   5.298
 2720SOL    HW2 9060   1.149   0.285   5.259
 2721SOL     OW 9061   3.060   6.151   1.559
 2721SOL    HW1 9062   2.993   6.222   1.542
 2721SOL    HW2 9063   3.016   6.073   1.604
 2722SOL     OW 9064   4.422   5.746   6.752
 2722SOL    HW1 9065   4.457   5.684   6.681
 2722SOL    HW2 9066   4.457   5.718   6.841
 2723SOL     OW 9067   3.683   6.651   0.277
 2723SOL    HW1 9068   3.710   6.745   0.297
 2723SOL    HW2 9069   3.583   6.646   0.268
 2724SOL     OW 9070   0.939   6.154   0.169
 2724SOL    HW1 9071   0.904   6.207   0.247
 2724SOL    HW2 9072   0.861   6.119   0.116
 2725SOL     OW 9073   5.199   3.634   4.430
 2725SOL    HW1 9074   5.116   3.672   4.472
 2725SOL    HW2 9075   5.196   3.534   4.435
 2726SOL     OW 9076   0.784   1.434   1.738
 2726SOL    HW1 9077   0.765   1.351   1.684
 2726SOL    HW2 9078   0.698   1.474   1.769
 2727SOL     OW 9079   2.304   4.287   4.084
 2727SOL    HW1 9080   2.346   4.253   4.000
 2727SOL    HW2 9081   2.238   4.220   4.118
 2728SOL     OW 9082   5.470   5.378   6.655
 2728SOL    HW1 9083   5.487   5.454   6.717
 2728SOL    HW2 9084   5.455   5.294   6.707
 2729SOL     OW 9085   5.232   6.285   5.890
 2729SOL    HW1 9086   5.271   6.198   5.859
 2729SOL    HW2 9087   5.166   6.317   5.822
 2730SOL     OW 9088   0.266   5.598   2.028
 2730SOL    HW1 9089   0.252   5.612   1.930
 2730SOL    HW2 9090   0.351   5.548   2.043
 2731SOL     OW 9091   3.038   3.272   3.648
 2731SOL    HW1 9092   3.042   3.226   3.737
 2731SOL    HW2 9093   3.074   3.210   3.578
 2732SOL     OW 9094   4.744   1.324   1.401
 2732SOL    HW1 9095   4.835   1.293   1.374
 2732SOL    HW2 9096   4.742   1.335   1.501
 2733SOL     OW 9097   6.665   0.789   6.001
 2733SOL    HW1 9098   6.699   0.848   5.928
 2733SOL    HW2 9099   6.741   0.761   6.059
 2734SOL     OW 9100   3.589   5.985   1.637
 2734SOL    HW1 9101   3.509   5.930   1.615
 2734SOL    HW2 9102   3.575   6.079   1.604
 2735SOL     OW 9103   1.561   2.336   0.647
 2735SOL    HW1 9104   1.637   2.294   0.597
 2735SOL    HW2 9105   1.566   2.309   0.744
 2736SOL     OW 9106   5.311   6.122   3.457
 2736SOL    HW1 9107   5.221   6.161   3.472
 2736SOL    HW2 9108   5.349   6.091   3.544
 2737SOL     OW 9109   3.038   1.832   6.092
 2737SOL    HW1 9110   3.062   1.747   6.044
 2737SOL    HW2 9111   3.051   1.820   6.190
 2738SOL     OW 9112   5.654   0.555   1.586
 2738SOL    HW1 9113   5.747   0.563   1.620
 2738SOL    HW2 9114   5.593   0.527   1.660
 2739SOL     OW 9115   0.846   5.058   1.941
 2739SOL    HW1 9116   0.850   5.049   1.841
 2739SOL    HW2 9117   0.907   4.991   1.983
 2740SOL     OW 9118   0.130   6.023   2.396
 2740SOL    HW1 9119   0.118   6.118   2.366
 2740SOL    HW2 9120   0.063   6.001   2.467
 2741SOL     OW 9121   1.048   2.265   4.407
 2741SOL    HW1 9122   1.053   2.182   4.463
 2741SOL    HW2 9123   1.018   2.342   4.463
 2742SOL     OW 9124   3.483   4.594   1.601
 2742SOL    HW1 9125   3.474   4.496   1.582
 2742SOL    HW2 9126   3.547   4.608   1.676
 2743SOL     OW 9127   6.808   4.720   1.816
 2743SOL    HW1 9128   6.724   4.727   1.869
 2743SOL    HW2 9129   6.869   4.653   1.859
 2744SOL     OW 9130   2.963   3.173   2.259
 2744SOL    HW1 9131   2.924   3.112   2.190
 2744SOL    HW2 9132   3.051   3.135   2.290
 2745SOL     OW 9133   6.680   1.278   5.840
 2745SOL    HW1 9134   6.616   1.221   5.892
 2745SOL    HW2 9135   6.709   1.229   5.758
 2746SOL     OW 9136   0.731   0.665   3.889
 2746SOL    HW1 9137   0.652   0.681   3.830
 2746SOL    HW2 9138   0.721   0.718   3.973
 2747SOL     OW 9139   3.509   5.264   0.399
 2747SOL    HW1 9140   3.527   5.323   0.477
 2747SOL    HW2 9141   3.502   5.319   0.316
 2748SOL     OW 9142   4.811   0.608   1.089
 2748SOL    HW1 9143   4.899   0.573   1.058
 2748SOL    HW2 9144   4.795   0.581   1.184
 2749SOL     OW 9145   1.284   3.322   0.469
 2749SOL    HW1 9146   1.343   3.401   0.485
 2749SOL    HW2 9147   1.289   3.297   0.372
 2750SOL     OW 9148   2.709   5.345   2.514
 2750SOL    HW1 9149   2.733   5.278   2.444
 2750SOL    HW2 9150   2.689   5.297   2.600
 2751SOL     OW 9151   1.780   2.350   1.475
 2751SOL    HW1 9152   1.795   2.449   1.467
 2751SOL    HW2 9153   1.810   2.319   1.565
 2752SOL     OW 9154   4.040   4.827   5.678
 2752SOL    HW1 9155   4.112   4.856   5.615
 2752SOL    HW2 9156   3.952   4.825   5.629
 2753SOL     OW 9157   6.324   6.514   4.896
 2753SOL    HW1 9158   6.386   6.561   4.833
 2753SOL    HW2 9159   6.236   6.561   4.896
 2754SOL     OW 9160   0.339   6.386   6.599
 2754SOL    HW1 9161   0.425   6.436   6.590
 2754SOL    HW2 9162   0.281   6.432   6.667
 2755SOL     OW 9163   2.736   0.003   2.521
 2755SOL    HW1 9164   2.646   0.006   2.477
 2755SOL    HW2 9165   2.790   6.951   2.482
 2756SOL     OW 9166   5.000   6.643   0.516
 2756SOL    HW1 9167   4.900   6.641   0.522
 2756SOL    HW2 9168   5.027   6.672   0.424
 2757SOL     OW 9169   1.138   5.148   1.091
 2757SOL    HW1 9170   1.084   5.164   1.173
 2757SOL    HW2 9171   1.080   5.107   1.020
 2758SOL     OW 9172   5.288   6.901   5.012
 2758SOL    HW1 9173   5.269   6.980   5.071
 2758SOL    HW2 9174   5.385   6.899   4.989
 2759SOL     OW 9175   5.503   6.581   4.231
 2759SOL    HW1 9176   5.432   6.518   4.261
 2759SOL    HW2 9177   5.593   6.541   4.248
 2760SOL     OW 9178   1.935   5.549   2.283
 2760SOL    HW1 9179   1.955   5.494   2.364
 2760SOL    HW2 9180   1.971   5.503   2.202
 2761SOL     OW 9181   0.940   5.590   3.475
 2761SOL    HW1 9182   1.033   5.626   3.469
 2761SOL    HW2 9183   0.934   5.524   3.550
 2762SOL     OW 9184   1.064   6.941   5.353
 2762SOL    HW1 9185   1.132   6.950   5.425
 2762SOL    HW2 9186   1.109   6.950   5.264
 2763SOL     OW 9187   5.690   2.256   3.629
 2763SOL    HW1 9188   5.599   2.241   3.590
 2763SOL    HW2 9189   5.684   2.256   3.729
 2764SOL     OW 9190   5.369   6.865   1.392
 2764SOL    HW1 9191   5.442   6.911   1.444
 2764SOL    HW2 9192   5.287   6.923   1.392
 2765SOL     OW 9193   5.034   1.249   2.031
 2765SOL    HW1 9194   5.059   1.225   1.937
 2765SOL    HW2 9195   5.099   1.206   2.094
 2766SOL     OW 9196   6.175   1.647   0.745
 2766SOL    HW1 9197   6.230   1.563   0.742
 2766SOL    HW2 9198   6.218   1.712   0.807
 2767SOL     OW 9199   6.424   4.292   6.277
 2767SOL    HW1 9200   6.386   4.369   6.328
 2767SOL    HW2 9201   6.420   4.209   6.333
 2768SOL     OW 9202   5.966   1.167   0.338
 2768SOL    HW1 9203   5.932   1.074   0.356
 2768SOL    HW2 9204   5.888   1.229   0.328
 2769SOL     OW 9205   6.660   4.116   3.088
 2769SOL    HW1 9206   6.565   4.125   3.118
 2769SOL    HW2 9207   6.689   4.020   3.099
 2770SOL     OW 9208   1.370   5.263   0.924
 2770SOL    HW1 9209   1.300   5.234   0.989
 2770SOL    HW2 9210   1.454   5.210   0.940
 2771SOL     OW 9211   5.442   1.265   1.158
 2771SOL    HW1 9212   5.525   1.223   1.120
 2771SOL    HW2 9213   5.389   1.194   1.206
 2772SOL     OW 9214   4.610   2.620   0.242
 2772SOL    HW1 9215   4.618   2.533   0.292
 2772SOL    HW2 9216   4.537   2.613   0.175
 2773SOL     OW 9217   4.274   3.276   5.946
 2773SOL    HW1 9218   4.300   3.341   5.874
 2773SOL    HW2 9219   4.176   3.258   5.941
 2774SOL     OW 9220   5.726   2.291   2.080
 2774SOL    HW1 9221   5.729   2.202   2.125
 2774SOL    HW2 9222   5.814   2.310   2.037
 2775SOL     OW 9223   6.953   6.099   1.291
 2775SOL    HW1 9224   6.916   6.055   1.210
 2775SOL    HW2 9225   6.927   6.047   1.373
 2776SOL     OW 9226   4.198   5.693   5.401
 2776SOL    HW1 9227   4.247   5.749   5.467
 2776SOL    HW2 9228   4.262   5.660   5.331
 2777SOL     OW 9229   3.311   0.889   2.644
 2777SOL    HW1 9230   3.388   0.924   2.697
 2777SOL    HW2 9231   3.227   0.898   2.697
 2778SOL     OW 9232   1.868   1.207   5.224
 2778SOL    HW1 9233   1.894   1.298   5.258
 2778SOL    HW2 9234   1.853   1.146   5.301
 2779SOL     OW 9235   4.907   6.950   0.353
 2779SOL    HW1 9236   4.893   6.906   0.265
 2779SOL    HW2 9237   5.004   6.947   0.377
 2780SOL     OW 9238   5.885   5.488   6.034
 2780SOL    HW1 9239   5.847   5.567   5.986
 2780SOL    HW2 9240   5.911   5.514   6.127
 2781SOL     OW 9241   6.124   5.319   1.778
 2781SOL    HW1 9242   6.181   5.242   1.749
 2781SOL    HW2 9243   6.154   5.351   1.868
 2782SOL     OW 9244   2.864   2.795   6.436
 2782SOL    HW1 9245   2.795   2.805   6.364
 2782SOL    HW2 9246   2.847   2.709   6.485
 2783SOL     OW 9247   6.005   3.662   4.762
 2783SOL    HW1 9248   6.024   3.755   4.729
 2783SOL    HW2 9249   5.930   3.623   4.709
 2784SOL     OW 9250   2.241   2.788   0.974
 2784SOL    HW1 9251   2.281   2.780   0.883
 2784SOL    HW2 9252   2.236   2.698   1.016
 2785SOL     OW 9253   6.596   1.494   0.141
 2785SOL    HW1 9254   6.660   1.460   0.071
 2785SOL    HW2 9255   6.504   1.500   0.102
 2786SOL     OW 9256   3.909   6.885   0.740
 2786SOL    HW1 9257   3.855   6.937   0.806
 2786SOL    HW2 9258   3.964   6.816   0.787
 2787SOL     OW 9259   2.198   4.183   6.553
 2787SOL    HW1 9260   2.200   4.141   6.644
 2787SOL    HW2 9261   2.143   4.266   6.556
 2788SOL     OW 9262   2.553   4.174   0.362
 2788SOL    HW1 9263   2.503   4.114   0.298
 2788SOL    HW2 9264   2.518   4.160   0.454
 2789SOL     OW 9265   1.299   1.627   3.901
 2789SOL    HW1 9266   1.220   1.625   3.963
 2789SOL    HW2 9267   1.285   1.561   3.827
 2790SOL     OW 9268   3.924   5.308   2.818
 2790SOL    HW1 9269   3.932   5.347   2.726
 2790SOL    HW2 9270   3.828   5.299   2.842
 2791SOL     OW 9271   1.947   4.605   4.678
 2791SOL    HW1 9272   1.962   4.526   4.617
 2791SOL    HW2 9273   1.855   4.641   4.664
 2792SOL     OW 9274   1.568   1.017   5.523
 2792SOL    HW1 9275   1.502   1.029   5.449
 2792SOL    HW2 9276   1.661   1.031   5.488
 2793SOL     OW 9277   4.988   1.462   2.398
 2793SOL    HW1 9278   4.913   1.498   2.343
 2793SOL    HW2 9279   5.003   1.366   2.375
 2794SOL     OW 9280   0.224   2.495   0.522
 2794SOL    HW1 9281   0.240   2.401   0.554
 2794SOL    HW2 9282   0.177   2.547   0.593
 2795SOL     OW 9283   3.026   4.195   1.235
 2795SOL    HW1 9284   3.000   4.160   1.325
 2795SOL    HW2 9285   3.125   4.211   1.233
 2796SOL     OW 9286   6.490   4.051   2.383
 2796SOL    HW1 9287   6.576   4.035   2.431
 2796SOL    HW2 9288   6.440   4.125   2.428
 2797SOL     OW 9289   5.182   5.721   4.576
 2797SOL    HW1 9290   5.148   5.638   4.532
 2797SOL    HW2 9291   5.257   5.759   4.521
 2798SOL     OW 9292   0.724   4.049   2.906
 2798SOL    HW1 9293   0.729   3.959   2.864
 2798SOL    HW2 9294   0.632   4.088   2.892
 2799SOL     OW 9295   0.330   5.667   6.439
 2799SOL    HW1 9296   0.317   5.728   6.516
 2799SOL    HW2 9297   0.279   5.700   6.360
 2800SOL     OW 9298   4.461   4.471   6.255
 2800SOL    HW1 9299   4.390   4.400   6.260
 2800SOL    HW2 9300   4.424   4.550   6.206
 2801SOL     OW 9301   3.966   5.684   3.258
 2801SOL    HW1 9302   4.033   5.742   3.211
 2801SOL    HW2 9303   3.996   5.668   3.352
 2802SOL     OW 9304   4.060   2.278   6.441
 2802SOL    HW1 9305   3.963   2.299   6.429
 2802SOL    HW2 9306   4.094   2.230   6.360
 2803SOL     OW 9307   2.044   5.903   5.668
 2803SOL    HW1 9308   1.947   5.916   5.648
 2803SOL    HW2 9309   2.058   5.908   5.767
 2804SOL     OW 9310   0.010   4.498   3.455
 2804SOL    HW1 9311   0.093   4.552   3.460
 2804SOL    HW2 9312   6.982   4.506   3.541
 2805SOL     OW 9313   4.618   3.282   1.403
 2805SOL    HW1 9314   4.593   3.240   1.491
 2805SOL    HW2 9315   4.700   3.338   1.416
 2806SOL     OW 9316   5.877   5.457   3.012
 2806SOL    HW1 9317   5.962   5.431   2.966
 2806SOL    HW2 9318   5.799   5.427   2.957
 2807SOL     OW 9319   5.298   4.697   3.727
 2807SOL    HW1 9320   5.244   4.728   3.649
 2807SOL    HW2 9321   5.252   4.621   3.772
 2808SOL     OW 9322   4.732   0.947   3.420
 2808SOL    HW1 9323   4.764   1.013   3.353
 2808SOL    HW2 9324   4.683   0.873   3.373
 2809SOL     OW 9325   6.078   2.842   1.325
 2809SOL    HW1 9326   6.043   2.754   1.358
 2809SOL    HW2 9327   6.009   2.912   1.336
 2810SOL     OW 9328   3.331   6.585   4.852
 2810SOL    HW1 9329   3.415   6.628   4.818
 2810SOL    HW2 9330   3.338   6.486   4.839
 2811SOL     OW 9331   0.981   1.407   2.834
 2811SOL    HW1 9332   1.011   1.314   2.853
 2811SOL    HW2 9333   1.055   1.471   2.856
 2812SOL     OW 9334   4.871   3.577   1.895
 2812SOL    HW1 9335   4.920   3.595   1.809
 2812SOL    HW2 9336   4.829   3.487   1.891
 2813SOL     OW 9337   5.563   6.738   6.101
 2813SOL    HW1 9338   5.640   6.770   6.157
 2813SOL    HW2 9339   5.546   6.641   6.119
 2814SOL     OW 9340   4.304   3.377   6.214
 2814SOL    HW1 9341   4.341   3.324   6.138
 2814SOL    HW2 9342   4.284   3.470   6.183
 2815SOL     OW 9343   6.632   0.968   4.491
 2815SOL    HW1 9344   6.650   1.014   4.404
 2815SOL    HW2 9345   6.547   0.915   4.483
 2816SOL     OW 9346   6.107   6.488   3.774
 2816SOL    HW1 9347   6.116   6.493   3.873
 2816SOL    HW2 9348   6.113   6.580   3.735
 2817SOL     OW 9349   1.567   0.613   0.975
 2817SOL    HW1 9350   1.640   0.632   1.041
 2817SOL    HW2 9351   1.590   0.531   0.922
 2818SOL     OW 9352   0.224   5.088   6.575
 2818SOL    HW1 9353   0.298   5.143   6.536
 2818SOL    HW2 9354   0.178   5.037   6.503
 2819SOL     OW 9355   0.449   2.059   0.825
 2819SOL    HW1 9356   0.544   2.039   0.800
 2819SOL    HW2 9357   0.389   1.992   0.782
 2820SOL     OW 9358   0.413   2.397   2.759
 2820SOL    HW1 9359   0.453   2.417   2.670
 2820SOL    HW2 9360   0.315   2.381   2.749
 2821SOL     OW 9361   2.801   4.159   5.937
 2821SOL    HW1 9362   2.784   4.226   6.010
 2821SOL    HW2 9363   2.776   4.068   5.970
 2822SOL     OW 9364   4.217   2.938   0.215
 2822SOL    HW1 9365   4.202   2.852   0.166
 2822SOL    HW2 9366   4.185   3.015   0.158
 2823SOL     OW 9367   2.286   6.898   1.658
 2823SOL    HW1 9368   2.360   6.845   1.615
 2823SOL    HW2 9369   2.237   6.839   1.722
 2824SOL     OW 9370   2.333   1.152   4.866
 2824SOL    HW1 9371   2.391   1.233   4.870
 2824SOL    HW2 9372   2.391   1.070   4.858
 2825SOL     OW 9373   6.686   6.923   0.836
 2825SOL    HW1 9374   6.732   6.897   0.921
 2825SOL    HW2 9375   6.680   6.843   0.776
 2826SOL     OW 9376   5.715   1.718   5.984
 2826SOL    HW1 9377   5.712   1.747   5.888
 2826SOL    HW2 9378   5.628   1.740   6.028
 2827SOL     OW 9379   6.596   1.392   5.032
 2827SOL    HW1 9380   6.664   1.390   4.958
 2827SOL    HW2 9381   6.633   1.445   5.108
 2828SOL     OW 9382   3.669   1.056   6.075
 2828SOL    HW1 9383   3.752   1.110   6.090
 2828SOL    HW2 9384   3.631   1.078   5.985
 2829SOL     OW 9385   3.936   4.827   6.154
 2829SOL    HW1 9386   3.937   4.730   6.175
 2829SOL    HW2 9387   4.018   4.870   6.192
 2830SOL     OW 9388   6.283   4.339   5.996
 2830SOL    HW1 9389   6.236   4.251   6.005
 2830SOL    HW2 9390   6.382   4.323   5.987
 2831SOL     OW 9391   6.692   5.958   4.725
 2831SOL    HW1 9392   6.755   6.013   4.671
 2831SOL    HW2 9393   6.743   5.912   4.799
 2832SOL     OW 9394   0.480   1.503   1.318
 2832SOL    HW1 9395   0.487   1.407   1.347
 2832SOL    HW2 9396   0.522   1.513   1.228
 2833SOL     OW 9397   5.746   1.830   2.332
 2833SOL    HW1 9398   5.665   1.859   2.280
 2833SOL    HW2 9399   5.825   1.885   2.304
 2834SOL     OW 9400   3.023   1.507   6.280
 2834SOL    HW1 9401   3.078   1.501   6.363
 2834SOL    HW2 9402   2.934   1.546   6.301
 2835SOL     OW 9403   0.616   6.851   1.894
 2835SOL    HW1 9404   0.527   6.837   1.852
 2835SOL    HW2 9405   0.620   6.944   1.931
 2836SOL     OW 9406   0.084   6.886   1.711
 2836SOL    HW1 9407   0.024   6.960   1.679
 2836SOL    HW2 9408   0.143   6.857   1.636
 2837SOL     OW 9409   5.346   3.425   3.177
 2837SOL    HW1 9410   5.320   3.352   3.113
 2837SOL    HW2 9411   5.266   3.457   3.227
 2838SOL     OW 9412   2.141   4.466   1.948
 2838SOL    HW1 9413   2.231   4.461   1.992
 2838SOL    HW2 9414   2.141   4.408   1.867
 2839SOL     OW 9415   5.830   1.208   2.206
 2839SOL    HW1 9416   5.848   1.203   2.304
 2839SOL    HW2 9417   5.759   1.277   2.188
 2840SOL     OW 9418   0.294   1.073   4.844
 2840SOL    HW1 9419   0.347   1.011   4.901
 2840SOL    HW2 9420   0.309   1.168   4.874
 2841SOL     OW 9421   0.558   6.839   6.824
 2841SOL    HW1 9422   0.645   6.841   6.774
 2841SOL    HW2 9423   0.532   6.932   6.850
 2842SOL     OW 9424   6.570   2.363   3.959
 2842SOL    HW1 9425   6.472   2.369   3.936
 2842SOL    HW2 9426   6.619   2.318   3.884
 2843SOL     OW 9427   3.352   1.620   4.465
 2843SOL    HW1 9428   3.309   1.538   4.429
 2843SOL    HW2 9429   3.376   1.607   4.561
 2844SOL     OW 9430   1.113   3.592   0.266
 2844SOL    HW1 9431   1.208   3.601   0.239
 2844SOL    HW2 9432   1.056   3.648   0.206
 2845SOL     OW 9433   0.766   3.656   0.817
 2845SOL    HW1 9434   0.853   3.611   0.838
 2845SOL    HW2 9435   0.707   3.655   0.898
 2846SOL     OW 9436   4.727   1.112   0.076
 2846SOL    HW1 9437   4.664   1.038   0.098
 2846SOL    HW2 9438   4.811   1.073   0.038
 2847SOL     OW 9439   5.125   3.457   3.545
 2847SOL    HW1 9440   5.109   3.488   3.451
 2847SOL    HW2 9441   5.208   3.499   3.580
 2848SOL     OW 9442   0.345   4.451   5.491
 2848SOL    HW1 9443   0.378   4.357   5.495
 2848SOL    HW2 9444   0.410   4.512   5.537
 2849SOL     OW 9445   3.428   0.958   0.989
 2849SOL    HW1 9446   3.490   0.989   1.061
 2849SOL    HW2 9447   3.445   1.010   0.905
 2850SOL     OW 9448   3.327   0.723   1.585
 2850SOL    HW1 9449   3.315   0.804   1.642
 2850SOL    HW2 9450   3.424   0.696   1.585
 2851SOL     OW 9451   1.038   4.366   5.457
 2851SOL    HW1 9452   0.947   4.359   5.497
 2851SOL    HW2 9453   1.033   4.416   5.371
 2852SOL     OW 9454   5.882   4.216   6.804
 2852SOL    HW1 9455   5.809   4.171   6.856
 2852SOL    HW2 9456   5.911   4.156   6.729
 2853SOL     OW 9457   2.914   2.698   0.425
 2853SOL    HW1 9458   2.944   2.793   0.428
 2853SOL    HW2 9459   2.964   2.649   0.353
 2854SOL     OW 9460   2.957   0.963   4.242
 2854SOL    HW1 9461   3.018   1.016   4.183
 2854SOL    HW2 9462   2.864   0.968   4.207
 2855SOL     OW 9463   2.105   0.146   6.092
 2855SOL    HW1 9464   2.179   0.106   6.147
 2855SOL    HW2 9465   2.119   0.122   5.996
 2856SOL     OW 9466   2.458   3.069   6.055
 2856SOL    HW1 9467   2.421   3.021   6.134
 2856SOL    HW2 9468   2.445   3.013   5.973
 2857SOL     OW 9469   2.951   1.524   1.485
 2857SOL    HW1 9470   2.970   1.442   1.539
 2857SOL    HW2 9471   2.862   1.514   1.439
 2858SOL     OW 9472   5.961   3.285   2.138
 2858SOL    HW1 9473   6.018   3.238   2.071
 2858SOL    HW2 9474   5.958   3.383   2.117
 2859SOL     OW 9475   5.194   1.192   0.615
 2859SOL    HW1 9476   5.237   1.164   0.529
 2859SOL    HW2 9477   5.142   1.115   0.653
 2860SOL     OW 9478   4.381   1.922   1.469
 2860SOL    HW1 9479   4.298   1.976   1.484
 2860SOL    HW2 9480   4.373   1.835   1.517
 2861SOL     OW 9481   4.404   5.770   5.614
 2861SOL    HW1 9482   4.343   5.750   5.691
 2861SOL    HW2 9483   4.489   5.719   5.625
 2862SOL     OW 9484   5.834   1.227   3.314
 2862SOL    HW1 9485   5.789   1.311   3.283
 2862SOL    HW2 9486   5.840   1.227   3.414
 2863SOL     OW 9487   6.160   1.207   0.113
 2863SOL    HW1 9488   6.085   1.177   0.172
 2863SOL    HW2 9489   6.231   1.250   0.169
 2864SOL     OW 9490   4.018   7.019   1.297
 2864SOL    HW1 9491   4.058   0.025   1.210
 2864SOL    HW2 9492   3.967   6.934   1.283
 2865SOL     OW 9493   4.868   4.365   5.068
 2865SOL    HW1 9494   4.856   4.452   5.117
 2865SOL    HW2 9495   4.965   4.339   5.070
 2866SOL     OW 9496   6.805   6.911   0.227
 2866SOL    HW1 9497   6.732   6.859   0.272
 2866SOL    HW2 9498   6.835   6.986   0.287
 2867SOL     OW 9499   6.184   4.223   2.411
 2867SOL    HW1 9500   6.142   4.314   2.410
 2867SOL    HW2 9501   6.114   4.153   2.421
 2868SOL     OW 9502   0.912   3.560   5.265
 2868SOL    HW1 9503   0.990   3.571   5.327
 2868SOL    HW2 9504   0.904   3.463   5.239
 2869SOL     OW 9505   6.235   1.161   2.674
 2869SOL    HW1 9506   6.237   1.234   2.606
 2869SOL    HW2 9507   6.244   1.200   2.765
 2870SOL     OW 9508   6.486   1.675   4.207
 2870SOL    HW1 9509   6.447   1.729   4.133
 2870SOL    HW2 9510   6.436   1.693   4.292
 2871SOL     OW 9511   2.046   1.930   6.533
 2871SOL    HW1 9512   1.966   1.908   6.588
 2871SOL    HW2 9513   2.129   1.918   6.588
 2872SOL     OW 9514   2.842   1.460   4.015
 2872SOL    HW1 9515   2.773   1.483   4.084
 2872SOL    HW2 9516   2.811   1.382   3.961
 2873SOL     OW 9517   0.661   5.821   3.076
 2873SOL    HW1 9518   0.717   5.790   3.153
 2873SOL    HW2 9519   0.662   5.920   3.072
 2874SOL     OW 9520   5.269   4.798   2.056
 2874SOL    HW1 9521   5.211   4.792   2.137
 2874SOL    HW2 9522   5.219   4.844   1.983
 2875SOL     OW 9523   3.960   6.531   6.123
 2875SOL    HW1 9524   3.981   6.514   6.027
 2875SOL    HW2 9525   4.044   6.556   6.171
 2876SOL     OW 9526   1.057   0.587   2.024
 2876SOL    HW1 9527   1.082   0.586   1.927
 2876SOL    HW2 9528   1.126   0.537   2.076
 2877SOL     OW 9529   3.598   2.911   5.520
 2877SOL    HW1 9530   3.551   2.998   5.508
 2877SOL    HW2 9531   3.689   2.927   5.560
 2878SOL     OW 9532   3.177   5.080   4.829
 2878SOL    HW1 9533   3.124   5.152   4.874
 2878SOL    HW2 9534   3.152   4.991   4.866
 2879SOL     OW 9535   4.778   5.355   0.331
 2879SOL    HW1 9536   4.861   5.406   0.311
 2879SOL    HW2 9537   4.788   5.260   0.302
 2880SOL     OW 9538   6.543   6.514   0.376
 2880SOL    HW1 9539   6.505   6.592   0.426
 2880SOL    HW2 9540   6.576   6.545   0.287
 2881SOL     OW 9541   6.429   6.214   1.269
 2881SOL    HW1 9542   6.460   6.293   1.216
 2881SOL    HW2 9543   6.490   6.200   1.347
 2882SOL     OW 9544   0.884   3.296   2.552
 2882SOL    HW1 9545   0.838   3.235   2.617
 2882SOL    HW2 9546   0.968   3.330   2.593
 2883SOL     OW 9547   3.820   6.790   3.433
 2883SOL    HW1 9548   3.810   6.693   3.415
 2883SOL    HW2 9549   3.791   6.810   3.527
 2884SOL     OW 9550   0.351   6.328   3.242
 2884SOL    HW1 9551   0.447   6.351   3.226
 2884SOL    HW2 9552   0.304   6.406   3.284
 2885SOL     OW 9553   0.482   2.531   3.004
 2885SOL    HW1 9554   0.450   2.495   2.917
 2885SOL    HW2 9555   0.543   2.609   2.988
 2886SOL     OW 9556   2.399   2.908   6.531
 2886SOL    HW1 9557   2.363   2.971   6.600
 2886SOL    HW2 9558   2.487   2.872   6.561
 2887SOL     OW 9559   2.303   6.676   5.132
 2887SOL    HW1 9560   2.403   6.679   5.137
 2887SOL    HW2 9561   2.275   6.672   5.036
 2888SOL     OW 9562   0.172   4.964   6.221
 2888SOL    HW1 9563   0.229   4.891   6.182
 2888SOL    HW2 9564   0.151   4.942   6.316
 2889SOL     OW 9565   1.613   0.910   2.026
 2889SOL    HW1 9566   1.687   0.846   2.009
 2889SOL    HW2 9567   1.526   0.861   2.026
 2890SOL     OW 9568   3.094   0.437   1.172
 2890SOL    HW1 9569   3.125   0.531   1.154
 2890SOL    HW2 9570   3.004   0.440   1.214
 2891SOL     OW 9571   2.349   4.661   3.618
 2891SOL    HW1 9572   2.324   4.734   3.681
 2891SOL    HW2 9573   2.429   4.612   3.654
 2892SOL     OW 9574   4.974   4.110   6.960
 2892SOL    HW1 9575   5.072   4.116   6.940
 2892SOL    HW2 9576   4.924   4.087   6.877
 2893SOL     OW 9577   2.498   6.176   5.925
 2893SOL    HW1 9578   2.593   6.199   5.945
 2893SOL    HW2 9579   2.439   6.204   6.001
 2894SOL     OW 9580   2.857   2.467   6.847
 2894SOL    HW1 9581   2.899   2.409   6.917
 2894SOL    HW2 9582   2.780   2.517   6.886
 2895SOL     OW 9583   3.870   3.293   6.597
 2895SOL    HW1 9584   3.780   3.248   6.592
 2895SOL    HW2 9585   3.941   3.227   6.571
 2896SOL     OW 9586   2.429   5.626   6.724
 2896SOL    HW1 9587   2.499   5.595   6.787
 2896SOL    HW2 9588   2.472   5.657   6.639
 2897SOL     OW 9589   2.271   6.573   3.731
 2897SOL    HW1 9590   2.280   6.663   3.690
 2897SOL    HW2 9591   2.269   6.581   3.831
 2898SOL     OW 9592   4.633   4.807   2.528
 2898SOL    HW1 9593   4.588   4.744   2.464
 2898SOL    HW2 9594   4.599   4.900   2.513
 2899SOL     OW 9595   0.268   0.705   6.640
 2899SOL    HW1 9596   0.237   0.799   6.643
 2899SOL    HW2 9597   0.228   0.659   6.560
 2900SOL     OW 9598   1.071   4.828   5.655
 2900SOL    HW1 9599   0.984   4.852   5.613
 2900SOL    HW2 9600   1.144   4.883   5.613
 2901SOL     OW 9601   1.933   0.326   2.435
 2901SOL    HW1 9602   1.919   0.376   2.520
 2901SOL    HW2 9603   1.924   0.227   2.451
 2902SOL     OW 9604   5.679   6.572   0.467
 2902SOL    HW1 9605   5.661   6.510   0.543
 2902SOL    HW2 9606   5.753   6.634   0.491
 2903SOL     OW 9607   3.348   0.561   1.792
 2903SOL    HW1 9608   3.359   0.610   1.706
 2903SOL    HW2 9609   3.392   0.613   1.866
 2904SOL     OW 9610   2.417   3.208   5.311
 2904SOL    HW1 9611   2.464   3.136   5.261
 2904SOL    HW2 9612   2.346   3.248   5.253
 2905SOL     OW 9613   1.493   1.412   2.656
 2905SOL    HW1 9614   1.455   1.365   2.576
 2905SOL    HW2 9615   1.448   1.379   2.739
 2906SOL     OW 9616   5.367   5.025   1.647
 2906SOL    HW1 9617   5.291   4.983   1.698
 2906SOL    HW2 9618   5.445   4.963   1.648
 2907SOL     OW 9619   6.597   1.325   5.395
 2907SOL    HW1 9620   6.588   1.265   5.315
 2907SOL    HW2 9621   6.651   1.279   5.465
 2908SOL     OW 9622   4.159   6.606   4.027
 2908SOL    HW1 9623   4.174   6.615   4.126
 2908SOL    HW2 9624   4.212   6.676   3.979
 2909SOL     OW 9625   0.327   4.830   4.470
 2909SOL    HW1 9626   0.330   4.891   4.390
 2909SOL    HW2 9627   0.419   4.796   4.488
 2910SOL     OW 9628   3.495   6.180   5.016
 2910SOL    HW1 9629   3.450   6.222   4.937
 2910SOL    HW2 9630   3.466   6.084   5.023
 2911SOL     OW 9631   2.489   5.210   3.429
 2911SOL    HW1 9632   2.520   5.116   3.441
 2911SOL    HW2 9633   2.441   5.218   3.341
 2912SOL     OW 9634   2.520   5.856   0.641
 2912SOL    HW1 9635   2.445   5.867   0.576
 2912SOL    HW2 9636   2.593   5.922   0.620
 2913SOL     OW 9637   1.944   4.272   2.286
 2913SOL    HW1 9638   1.846   4.254   2.280
 2913SOL    HW2 9639   1.992   4.221   2.215
 2914SOL     OW 9640   6.139   5.077   6.195
 2914SOL    HW1 9641   6.146   5.040   6.288
 2914SOL    HW2 9642   6.051   5.124   6.185
 2915SOL     OW 9643   4.801   1.391   4.044
 2915SOL    HW1 9644   4.729   1.460   4.051
 2915SOL    HW2 9645   4.866   1.418   3.972
 2916SOL     OW 9646   6.365   4.905   5.640
 2916SOL    HW1 9647   6.407   4.966   5.707
 2916SOL    HW2 9648   6.282   4.947   5.604
 2917SOL     OW 9649   3.770   0.270   0.986
 2917SOL    HW1 9650   3.767   0.282   0.886
 2917SOL    HW2 9651   3.676   0.265   1.021
 2918SOL     OW 9652   6.921   3.495   3.222
 2918SOL    HW1 9653   6.823   3.482   3.213
 2918SOL    HW2 9654   6.954   3.446   3.303
 2919SOL     OW 9655   6.107   0.216   0.428
 2919SOL    HW1 9656   6.204   0.229   0.447
 2919SOL    HW2 9657   6.067   0.302   0.395
 2920SOL     OW 9658   3.658   2.020   2.508
 2920SOL    HW1 9659   3.601   1.965   2.569
 2920SOL    HW2 9660   3.617   2.023   2.417
 2921SOL     OW 9661   0.236   1.421   2.624
 2921SOL    HW1 9662   0.322   1.403   2.577
 2921SOL    HW2 9663   0.218   1.348   2.690
 2922SOL     OW 9664   5.833   6.405   6.624
 2922SOL    HW1 9665   5.778   6.329   6.591
 2922SOL    HW2 9666   5.774   6.471   6.671
 2923SOL     OW 9667   6.903   5.404   2.674
 2923SOL    HW1 9668   6.892   5.348   2.755
 2923SOL    HW2 9669   6.997   5.396   2.639
 2924SOL     OW 9670   0.580   1.372   6.018
 2924SOL    HW1 9671   0.592   1.392   5.920
 2924SOL    HW2 9672   0.653   1.310   6.048
 2925SOL     OW 9673   6.017   1.461   2.611
 2925SOL    HW1 9674   5.971   1.512   2.537
 2925SOL    HW2 9675   6.019   1.517   2.693
 2926SOL     OW 9676   6.707   1.554   5.239
 2926SOL    HW1 9677   6.781   1.621   5.245
 2926SOL    HW2 9678   6.711   1.493   5.319
 2927SOL     OW 9679   1.303   2.301   2.076
 2927SOL    HW1 9680   1.344   2.364   2.142
 2927SOL    HW2 9681   1.371   2.275   2.007
 2928SOL     OW 9682   6.639   1.507   6.807
 2928SOL    HW1 9683   6.640   1.575   6.880
 2928SOL    HW2 9684   6.546   1.472   6.795
 2929SOL     OW 9685   0.769   0.786   6.497
 2929SOL    HW1 9686   0.708   0.861   6.473
 2929SOL    HW2 9687   0.832   0.768   6.421
 2930SOL     OW 9688   4.809   6.910   4.789
 2930SOL    HW1 9689   4.865   6.935   4.710
 2930SOL    HW2 9690   4.774   6.817   4.777
 2931SOL     OW 9691   5.222   5.875   6.525
 2931SOL    HW1 9692   5.147   5.824   6.567
 2931SOL    HW2 9693   5.296   5.813   6.500
 2932SOL     OW 9694   1.710   4.368   1.516
 2932SOL    HW1 9695   1.800   4.353   1.474
 2932SOL    HW2 9696   1.715   4.445   1.580
 2933SOL     OW 9697   5.488   2.293   4.033
 2933SOL    HW1 9698   5.438   2.335   4.109
 2933SOL    HW2 9699   5.435   2.217   3.995
 2934SOL     OW 9700   3.768   0.535   1.098
 2934SOL    HW1 9701   3.774   0.440   1.068
 2934SOL    HW2 9702   3.779   0.596   1.020
 2935SOL     OW 9703   6.475   3.354   1.409
 2935SOL    HW1 9704   6.442   3.332   1.501
 2935SOL    HW2 9705   6.399   3.350   1.344
 2936SOL     OW 9706   4.937   5.841   1.338
 2936SOL    HW1 9707   4.890   5.837   1.249
 2936SOL    HW2 9708   4.872   5.869   1.408
 2937SOL     OW 9709   3.213   5.231   0.549
 2937SOL    HW1 9710   3.196   5.247   0.451
 2937SOL    HW2 9711   3.181   5.310   0.601
 2938SOL     OW 9712   4.816   4.836   5.280
 2938SOL    HW1 9713   4.739   4.805   5.335
 2938SOL    HW2 9714   4.791   4.835   5.184
 2939SOL     OW 9715   6.704   6.614   4.462
 2939SOL    HW1 9716   6.770   6.672   4.508
 2939SOL    HW2 9717   6.634   6.670   4.418
 2940SOL     OW 9718   5.384   6.681   5.265
 2940SOL    HW1 9719   5.437   6.609   5.309
 2940SOL    HW2 9720   5.311   6.710   5.326
 2941SOL     OW 9721   1.822   2.366   5.850
 2941SOL    HW1 9722   1.751   2.436   5.844
 2941SOL    HW2 9723   1.881   2.371   5.770
 2942SOL     OW 9724   2.967   0.606   2.126
 2942SOL    HW1 9725   2.876   0.604   2.166
 2942SOL    HW2 9726   2.960   0.624   2.027
 2943SOL     OW 9727   5.225   3.353   2.288
 2943SOL    HW1 9728   5.324   3.366   2.299
 2943SOL    HW2 9729   5.176   3.413   2.351
 2944SOL     OW 9730   3.367   5.294   6.155
 2944SOL    HW1 9731   3.365   5.332   6.062
 2944SOL    HW2 9732   3.282   5.244   6.173
 2945SOL     OW 9733   4.007   3.808   2.639
 2945SOL    HW1 9734   3.909   3.827   2.631
 2945SOL    HW2 9735   4.055   3.850   2.562
 2946SOL     OW 9736   6.502   6.074   5.673
 2946SOL    HW1 9737   6.419   6.126   5.654
 2946SOL    HW2 9738   6.504   6.048   5.770
 2947SOL     OW 9739   0.117   3.910   6.789
 2947SOL    HW1 9740   0.017   3.902   6.793
 2947SOL    HW2 9741   0.158   3.819   6.790
 2948SOL     OW 9742   6.136   3.849   5.626
 2948SOL    HW1 9743   6.141   3.799   5.712
 2948SOL    HW2 9744   6.058   3.815   5.573
 2949SOL     OW 9745   1.912   6.185   1.046
 2949SOL    HW1 9746   1.869   6.243   1.116
 2949SOL    HW2 9747   1.975   6.240   0.991
 2950SOL     OW 9748   5.567   3.736   4.478
 2950SOL    HW1 9749   5.508   3.741   4.397
 2950SOL    HW2 9750   5.514   3.701   4.555
 2951SOL     OW 9751   0.024   2.705   6.950
 2951SOL    HW1 9752   6.966   2.726   6.896
 2951SOL    HW2 9753   0.001   2.709   0.024
 2952SOL     OW 9754   0.803   4.758   3.183
 2952SOL    HW1 9755   0.787   4.770   3.085
 2952SOL    HW2 9756   0.884   4.701   3.197
 2953SOL     OW 9757   5.032   2.599   2.125
 2953SOL    HW1 9758   5.120   2.645   2.136
 2953SOL    HW2 9759   5.041   2.525   2.059
 2954SOL     OW 9760   1.168   6.185   1.781
 2954SOL    HW1 9761   1.228   6.254   1.822
 2954SOL    HW2 9762   1.201   6.162   1.689
 2955SOL     OW 9763   0.502   3.066   0.287
 2955SOL    HW1 9764   0.468   3.047   0.195
 2955SOL    HW2 9765   0.448   3.140   0.328
 2956SOL     OW 9766   0.010   5.581   3.060
 2956SOL    HW1 9767   7.018   5.593   2.962
 2956SOL    HW2 9768   0.075   5.650   3.092
 2957SOL     OW 9769   0.433   3.926   0.958
 2957SOL    HW1 9770   0.454   3.878   0.873
 2957SOL    HW2 9771   0.415   4.023   0.937
 2958SOL     OW 9772   2.326   4.631   5.304
 2958SOL    HW1 9773   2.246   4.581   5.271
 2958SOL    HW2 9774   2.387   4.568   5.352
 2959SOL     OW 9775   5.766   4.878   6.310
 2959SOL    HW1 9776   5.693   4.868   6.378
 2959SOL    HW2 9777   5.789   4.789   6.272
 2960SOL     OW 9778   3.320   1.472   6.985
 2960SOL    HW1 9779   3.314   1.571   6.971
 2960SOL    HW2 9780   3.416   1.444   6.989
 2961SOL     OW 9781   5.199   3.127   4.765
 2961SOL    HW1 9782   5.258   3.112   4.685
 2961SOL    HW2 9783   5.170   3.039   4.802
 2962SOL     OW 9784   4.774   0.403   3.212
 2962SOL    HW1 9785   4.706   0.335   3.183
 2962SOL    HW2 9786   4.731   0.493   3.216
 2963SOL     OW 9787   1.744   1.769   5.689
 2963SOL    HW1 9788   1.704   1.692   5.639
 2963SOL    HW2 9789   1.794   1.827   5.625
 2964SOL     OW 9790   1.772   0.032   2.010
 2964SOL    HW1 9791   1.740   6.978   2.065
 2964SOL    HW2 9792   1.798   7.023   1.919
 2965SOL     OW 9793   0.332   0.889   5.330
 2965SOL    HW1 9794   0.272   0.913   5.407
 2965SOL    HW2 9795   0.312   0.796   5.301
 2966SOL     OW 9796   5.719   4.048   3.672
 2966SOL    HW1 9797   5.690   4.138   3.704
 2966SOL    HW2 9798   5.765   4.057   3.584
 2967SOL     OW 9799   5.826   2.802   4.062
 2967SOL    HW1 9800   5.752   2.856   4.102
 2967SOL    HW2 9801   5.854   2.843   3.975
 2968SOL     OW 9802   0.642   3.843   5.776
 2968SOL    HW1 9803   0.557   3.791   5.770
 2968SOL    HW2 9804   0.664   3.861   5.872
 2969SOL     OW 9805   5.618   1.954   5.260
 2969SOL    HW1 9806   5.535   1.961   5.205
 2969SOL    HW2 9807   5.696   1.935   5.200
 2970SOL     OW 9808   1.230   4.418   6.724
 2970SOL    HW1 9809   1.317   4.458   6.754
 2970SOL    HW2 9810   1.173   4.399   6.804
 2971SOL     OW 9811   5.623   2.926   4.191
 2971SOL    HW1 9812   5.644   3.020   4.164
 2971SOL    HW2 9813   5.539   2.897   4.145
 2972SOL     OW 9814   6.456   4.037   0.060
 2972SOL    HW1 9815   6.430   3.945   0.031
 2972SOL    HW2 9816   6.470   4.037   0.159
 2973SOL     OW 9817   5.547   0.462   3.834
 2973SOL    HW1 9818   5.553   0.363   3.837
 2973SOL    HW2 9819   5.463   0.491   3.881
 2974SOL     OW 9820   5.405   3.961   3.469
 2974SOL    HW1 9821   5.377   3.872   3.432
 2974SOL    HW2 9822   5.375   3.969   3.564
 2975SOL     OW 9823   0.137   1.801   4.953
 2975SOL    HW1 9824   0.123   1.884   5.008
 2975SOL    HW2 9825   0.143   1.826   4.857
 2976SOL     OW 9826   4.131   1.099   3.215
 2976SOL    HW1 9827   4.085   1.185   3.240
 2976SOL    HW2 9828   4.224   1.119   3.185
 2977SOL     OW 9829   2.665   0.199   4.194
 2977SOL    HW1 9830   2.593   0.199   4.263
 2977SOL    HW2 9831   2.725   0.121   4.209
 2978SOL     OW 9832   4.379   5.055   6.956
 2978SOL    HW1 9833   4.456   5.023   7.012
 2978SOL    HW2 9834   4.383   5.011   6.866
 2979SOL     OW 9835   3.357   0.504   3.974
 2979SOL    HW1 9836   3.378   0.469   4.065
 2979SOL    HW2 9837   3.370   0.432   3.906
 2980SOL     OW 9838   1.276   6.445   4.383
 2980SOL    HW1 9839   1.207   6.429   4.313
 2980SOL    HW2 9840   1.266   6.537   4.421
 2981SOL     OW 9841   0.532   0.278   5.647
 2981SOL    HW1 9842   0.513   0.283   5.745
 2981SOL    HW2 9843   0.487   0.198   5.608
 2982SOL     OW 9844   4.050   6.276   3.144
 2982SOL    HW1 9845   4.075   6.357   3.197
 2982SOL    HW2 9846   4.078   6.289   3.049
 2983SOL     OW 9847   0.293   0.331   4.174
 2983SOL    HW1 9848   0.210   0.377   4.205
 2983SOL    HW2 9849   0.286   0.233   4.192
 2984SOL     OW 9850   5.612   5.994   1.003
 2984SOL    HW1 9851   5.647   6.059   1.071
 2984SOL    HW2 9852   5.556   5.925   1.049
 2985SOL     OW 9853   0.854   1.787   4.408
 2985SOL    HW1 9854   0.925   1.823   4.347
 2985SOL    HW2 9855   0.777   1.850   4.411
 2986SOL     OW 9856   2.458   4.136   5.545
 2986SOL    HW1 9857   2.519   4.172   5.616
 2986SOL    HW2 9858   2.513   4.108   5.466
 2987SOL     OW 9859   4.899   1.330   4.581
 2987SOL    HW1 9860   4.899   1.428   4.599
 2987SOL    HW2 9861   4.890   1.314   4.483
 2988SOL     OW 9862   1.096   0.152   2.428
 2988SOL    HW1 9863   1.000   0.168   2.454
 2988SOL    HW2 9864   1.114   0.054   2.426
 2989SOL     OW 9865   6.166   5.477   1.027
 2989SOL    HW1 9866   6.181   5.485   1.125
 2989SOL    HW2 9867   6.068   5.465   1.009
 2990SOL     OW 9868   3.745   0.982   3.443
 2990SOL    HW1 9869   3.677   0.954   3.375
 2990SOL    HW2 9870   3.719   0.944   3.532
 2991SOL     OW 9871   0.452   4.477   0.455
 2991SOL    HW1 9872   0.400   4.503   0.374
 2991SOL    HW2 9873   0.511   4.399   0.434
 2992SOL     OW 9874   2.541   5.663   6.038
 2992SOL    HW1 9875   2.605   5.688   6.110
 2992SOL    HW2 9876   2.537   5.563   6.029
 2993SOL     OW 9877   1.267   4.467   2.161
 2993SOL    HW1 9878   1.274   4.394   2.092
 2993SOL    HW2 9879   1.171   4.486   2.180
 2994SOL     OW 9880   4.564   0.625   6.956
 2994SOL    HW1 9881   4.589   0.530   6.939
 2994SOL    HW2 9882   4.470   0.630   6.989
 2995SOL     OW 9883   1.196   2.684   0.051
 2995SOL    HW1 9884   1.114   2.729   0.087
 2995SOL    HW2 9885   1.177   2.588   0.033
 2996SOL     OW 9886   3.119   6.187   5.210
 2996SOL    HW1 9887   3.069   6.115   5.259
 2996SOL    HW2 9888   3.213   6.191   5.244
 2997SOL     OW 9889   5.007   6.002   1.980
 2997SOL    HW1 9890   4.945   6.077   2.005
 2997SOL    HW2 9891   5.025   5.945   2.061
 2998SOL     OW 9892   4.853   5.657   4.307
 2998SOL    HW1 9893   4.827   5.744   4.265
 2998SOL    HW2 9894   4.788   5.586   4.279
 2999SOL     OW 9895   3.381   6.471   3.634
 2999SOL    HW1 9896   3.324   6.437   3.559
 2999SOL    HW2 9897   3.421   6.393   3.683
 3000SOL     OW 9898   1.336   3.333   5.852
 3000SOL    HW1 9899   1.425   3.289   5.866
 3000SOL    HW2 9900   1.284   3.331   5.937
 3001SOL     OW 9901   5.091   6.905   6.631
 3001SOL    HW1 9902   5.072   7.003   6.623
 3001SOL    HW2 9903   5.127   6.871   6.544
 3002SOL     OW 9904   3.942   0.571   5.230
 3002SOL    HW1 9905   3.875   0.502   5.204
 3002SOL    HW2 9906   3.898   0.642   5.285
 3003SOL     OW 9907   2.805   6.616   6.385
 3003SOL    HW1 9908   2.855   6.678   6.445
 3003SOL    HW2 9909   2.830   6.634   6.290
 3004SOL     OW 9910   6.409   3.847   4.031
 3004SOL    HW1 9911   6.387   3.805   3.943
 3004SOL    HW2 9912   6.507   3.840   4.048
 3005SOL     OW 9913   3.503   3.362   1.452
 3005SOL    HW1 9914   3.477   3.458   1.445
 3005SOL    HW2 9915   3.602   3.355   1.461
 3006SOL     OW 9916   6.872   1.553   0.738
 3006SOL    HW1 9917   6.896   1.526   0.831
 3006SOL    HW2 9918   6.796   1.498   0.705
 3007SOL     OW 9919   5.900   5.029   2.243
 3007SOL    HW1 9920   5.821   5.011   2.301
 3007SOL    HW2 9921   5.870   5.049   2.150
 3008SOL     OW 9922   3.730   0.676   6.346
 3008SOL    HW1 9923   3.711   0.580   6.325
 3008SOL    HW2 9924   3.770   0.720   6.267
 3009SOL     OW 9925   0.556   0.013   2.588
 3009SOL    HW1 9926   0.627   7.005   2.525
 3009SOL    HW2 9927   0.478   6.975   2.584
 3010SOL     OW 9928   3.824   6.138   3.266
 3010SOL    HW1 9929   3.884   6.187   3.202
 3010SOL    HW2 9930   3.750   6.095   3.215
 3011SOL     OW 9931   6.126   0.806   6.617
 3011SOL    HW1 9932   6.222   0.780   6.624
 3011SOL    HW2 9933   6.118   0.905   6.627
 3012SOL     OW 9934   0.175   3.261   3.998
 3012SOL    HW1 9935   0.180   3.197   4.075
 3012SOL    HW2 9936   0.257   3.318   3.996
 3013SOL     OW 9937   5.488   6.040   3.246
 3013SOL    HW1 9938   5.416   6.041   3.315
 3013SOL    HW2 9939   5.575   6.015   3.288
 3014SOL     OW 9940   5.369   1.714   4.335
 3014SOL    HW1 9941   5.417   1.675   4.415
 3014SOL    HW2 9942   5.320   1.796   4.363
 3015SOL     OW 9943   2.978   2.270   6.648
 3015SOL    HW1 9944   2.986   2.317   6.736
 3015SOL    HW2 9945   2.934   2.329   6.581
 3016SOL     OW 9946   2.911   5.629   4.486
 3016SOL    HW1 9947   2.898   5.621   4.387
 3016SOL    HW2 9948   2.968   5.553   4.518
 3017SOL     OW 9949   0.904   5.882   1.139
 3017SOL    HW1 9950   0.926   5.969   1.183
 3017SOL    HW2 9951   0.879   5.814   1.208
 3018SOL     OW 9952   3.438   0.516   6.363
 3018SOL    HW1 9953   3.469   0.441   6.305
 3018SOL    HW2 9954   3.338   0.511   6.373
 3019SOL     OW 9955   3.219   6.424   1.115
 3019SOL    HW1 9956   3.295   6.372   1.153
 3019SOL    HW2 9957   3.160   6.363   1.063
 3020SOL     OW 9958   3.732   3.771   1.439
 3020SOL    HW1 9959   3.826   3.803   1.440
 3020SOL    HW2 9960   3.701   3.758   1.344
 3021SOL     OW 9961   2.080   2.276   6.820
 3021SOL    HW1 9962   2.149   2.304   6.754
 3021SOL    HW2 9963   1.989   2.299   6.786
 3022SOL     OW 9964   3.892   5.928   2.574
 3022SOL    HW1 9965   3.860   5.868   2.501
 3022SOL    HW2 9966   3.816   5.953   2.634
 3023SOL     OW 9967   3.450   6.114   3.346
 3023SOL    HW1 9968   3.402   6.201   3.344
 3023SOL    HW2 9969   3.383   6.040   3.353
 3024SOL     OW 9970   2.845   1.069   6.347
 3024SOL    HW1 9971   2.918   1.004   6.370
 3024SOL    HW2 9972   2.756   1.028   6.365
 3025SOL     OW 9973   3.465   3.108   0.937
 3025SOL    HW1 9974   3.401   3.035   0.964
 3025SOL    HW2 9975   3.452   3.187   0.998
 3026SOL     OW 9976   1.322   3.523   0.874
 3026SOL    HW1 9977   1.409   3.567   0.852
 3026SOL    HW2 9978   1.334   3.423   0.868
 3027SOL     OW 9979   3.915   1.108   2.314
 3027SOL    HW1 9980   3.996   1.097   2.257
 3027SOL    HW2 9981   3.934   1.077   2.407
 3028SOL     OW 9982   1.292   4.872   6.709
 3028SOL    HW1 9983   1.251   4.935   6.775
 3028SOL    HW2 9984   1.305   4.919   6.622
 3029SOL     OW 9985   6.629   4.815   5.599
 3029SOL    HW1 9986   6.530   4.826   5.611
 3029SOL    HW2 9987   6.651   4.820   5.502
 3030SOL     OW 9988   0.976   1.717   5.671
 3030SOL    HW1 9989   0.893   1.772   5.670
 3030SOL    HW2 9990   1.054   1.774   5.643
 3031SOL     OW 9991   0.517   3.483   0.821
 3031SOL    HW1 9992   0.612   3.505   0.798
 3031SOL    HW2 9993   0.516   3.410   0.890
 3032SOL     OW 9994   5.403   0.328   0.113
 3032SOL    HW1 9995   5.309   0.359   0.132
 3032SOL    HW2 9996   5.459   0.339   0.195
 3033SOL     OW 9997   0.571   2.703   0.261
 3033SOL    HW1 9998   0.586   2.768   0.186
 3033SOL    HW2 9999   0.476   2.710   0.293
 3034SOL     OW10000   1.881   6.203   3.241
 3034SOL    HW110001   1.784   6.181   3.228
 3034SOL    HW210002   1.902   6.204   3.338
 3035SOL     OW10003   6.833   1.912   0.475
 3035SOL    HW110004   6.735   1.931   0.471
 3035SOL    HW210005   6.872   1.916   0.384
 3036SOL     OW10006   1.798   4.038   0.047
 3036SOL    HW110007   1.779   4.096   0.127
 3036SOL    HW210008   1.817   4.095   6.991
 3037SOL     OW10009   5.852   5.893   4.888
 3037SOL    HW110010   5.834   5.950   4.808
 3037SOL    HW210011   5.939   5.846   4.877
 3038SOL     OW10012   5.725   6.840   6.545
 3038SOL    HW110013   5.749   6.747   6.519
 3038SOL    HW210014   5.766   6.861   6.634
 3039SOL     OW10015   6.659   4.528   2.367
 3039SOL    HW110016   6.710   4.611   2.341
 3039SOL    HW210017   6.570   4.528   2.321
 3040SOL     OW10018   4.584   3.777   6.314
 3040SOL    HW110019   4.521   3.778   6.236
 3040SOL    HW210020   4.539   3.818   6.393
 3041SOL     OW10021   1.864   2.581   6.052
 3041SOL    HW110022   1.849   2.548   6.145
 3041SOL    HW210023   1.785   2.557   5.995
 3042SOL     OW10024   5.295   0.240   1.928
 3042SOL    HW110025   5.267   0.144   1.919
 3042SOL    HW210026   5.391   0.249   1.901
 3043SOL     OW10027   0.449   5.474   0.488
 3043SOL    HW110028   0.388   5.513   0.419
 3043SOL    HW210029   0.532   5.531   0.495
 3044SOL     OW10030   3.512   4.264   5.176
 3044SOL    HW110031   3.612   4.264   5.168
 3044SOL    HW210032   3.471   4.247   5.087
 3045SOL     OW10033   4.792   0.610   2.781
 3045SOL    HW110034   4.796   0.530   2.841
 3045SOL    HW210035   4.699   0.646   2.779
 3046SOL     OW10036   1.176   3.225   5.205
 3046SOL    HW110037   1.203   3.263   5.294
 3046SOL    HW210038   1.204   3.129   5.200
 3047SOL     OW10039   5.531   5.116   2.005
 3047SOL    HW110040   5.600   5.044   2.010
 3047SOL    HW210041   5.537   5.162   1.916
 3048SOL     OW10042   4.273   3.615   1.476
 3048SOL    HW110043   4.244   3.520   1.461
 3048SOL    HW210044   4.236   3.673   1.404
 3049SOL     OW10045   0.606   6.592   1.339
 3049SOL    HW110046   0.632   6.582   1.243
 3049SOL    HW210047   0.574   6.686   1.356
 3050SOL     OW10048   3.178   6.899   3.619
 3050SOL    HW110049   3.266   6.924   3.579
 3050SOL    HW210050   3.190   6.882   3.717
 3051SOL     OW10051   2.036   4.409   6.591
 3051SOL    HW110052   2.095   4.488   6.612
 3051SOL    HW210053   1.948   4.442   6.557
 3052SOL     OW10054   3.658   0.116   3.288
 3052SOL    HW110055   3.567   0.158   3.287
 3052SOL    HW210056   3.649   0.017   3.277
 3053SOL     OW10057   6.273   0.612   0.027
 3053SOL    HW110058   6.216   0.692   0.005
 3053SOL    HW210059   6.348   0.606   6.984
 3054SOL     OW10060   0.366   2.457   6.678
 3054SOL    HW110061   0.444   2.453   6.741
 3054SOL    HW210062   0.373   2.382   6.612
 3055SOL     OW10063   5.162   0.167   3.706
 3055SOL    HW110064   5.166   0.251   3.759
 3055SOL    HW210065   5.184   0.186   3.610
 3056SOL     OW10066   6.659   0.227   0.073
 3056SOL    HW110067   6.609   0.192   7.018
 3056SOL    HW210068   6.645   0.167   0.152
 3057SOL     OW10069   4.363   5.550   2.782
 3057SOL    HW110070   4.295   5.488   2.821
 3057SOL    HW210071   4.454   5.508   2.788
 3058SOL     OW10072   6.335   5.644   1.469
 3058SOL    HW110073   6.365   5.729   1.512
 3058SOL    HW210074   6.254   5.661   1.414
 3059SOL     OW10075   1.729   3.380   5.174
 3059SOL    HW110076   1.706   3.314   5.102
 3059SOL    HW210077   1.800   3.342   5.233
 3060SOL     OW10078   0.431   6.393   0.267
 3060SOL    HW110079   0.513   6.436   0.305
 3060SOL    HW210080   0.452   6.354   0.177
 3061SOL     OW10081   6.859   0.727   5.426
 3061SOL    HW110082   6.792   0.660   5.393
 3061SOL    HW210083   6.926   0.680   5.484
 3062SOL     OW10084   1.616   0.233   1.291
 3062SOL    HW110085   1.627   0.328   1.321
 3062SOL    HW210086   1.694   0.179   1.323
 3063SOL     OW10087   2.234   5.133   2.329
 3063SOL    HW110088   2.217   5.065   2.257
 3063SOL    HW210089   2.317   5.185   2.307
 3064SOL     OW10090   5.411   3.433   3.727
 3064SOL    HW110091   5.502   3.400   3.753
 3064SOL    HW210092   5.413   3.461   3.631
 3065SOL     OW10093   2.270   0.042   6.488
 3065SOL    HW110094   2.338   0.004   6.551
 3065SOL    HW210095   2.200   0.092   6.539
 3066SOL     OW10096   6.194   4.185   0.259
 3066SOL    HW110097   6.180   4.281   0.282
 3066SOL    HW210098   6.202   4.132   0.343
 3067SOL     OW10099   3.296   1.147   5.016
 3067SOL    HW110100   3.242   1.196   5.084
 3067SOL    HW210101   3.331   1.212   4.949
 3068SOL     OW10102   5.856   6.157   0.767
 3068SOL    HW110103   5.937   6.123   0.815
 3068SOL    HW210104   5.862   6.133   0.670
 3069SOL     OW10105   6.699   5.674   1.527
 3069SOL    HW110106   6.740   5.714   1.445
 3069SOL    HW210107   6.617   5.622   1.501
 3070SOL     OW10108   2.266   1.355   2.671
 3070SOL    HW110109   2.212   1.412   2.733
 3070SOL    HW210110   2.324   1.293   2.724
 3071SOL     OW10111   6.674   6.983   3.643
 3071SOL    HW110112   6.714   6.899   3.607
 3071SOL    HW210113   6.700   6.994   3.738
 3072SOL     OW10114   1.042   6.542   1.561
 3072SOL    HW110115   0.961   6.538   1.619
 3072SOL    HW210116   1.075   6.449   1.544
 3073SOL     OW10117   0.497   3.623   5.126
 3073SOL    HW110118   0.569   3.583   5.069
 3073SOL    HW210119   0.530   3.631   5.221
 3074SOL     OW10120   5.080   2.734   0.335
 3074SOL    HW110121   5.006   2.717   0.400
 3074SOL    HW210122   5.165   2.697   0.372
 3075SOL     OW10123   1.741   6.292   1.521
 3075SOL    HW110124   1.742   6.351   1.602
 3075SOL    HW210125   1.835   6.264   1.499
 3076SOL     OW10126   6.515   0.726   4.713
 3076SOL    HW110127   6.442   0.783   4.674
 3076SOL    HW210128   6.581   0.704   4.641
 3077SOL     OW10129   5.667   4.757   3.213
 3077SOL    HW110130   5.589   4.811   3.180
 3077SOL    HW210131   5.741   4.819   3.240
 3078SOL     OW10132   2.310   3.700   1.697
 3078SOL    HW110133   2.289   3.766   1.769
 3078SOL    HW210134   2.356   3.621   1.736
 3079SOL     OW10135   1.722   2.478   5.163
 3079SOL    HW110136   1.739   2.576   5.153
 3079SOL    HW210137   1.706   2.438   5.073
 3080SOL     OW10138   5.988   5.063   1.657
 3080SOL    HW110139   5.955   5.157   1.664
 3080SOL    HW210140   5.955   5.010   1.736
 3081SOL     OW10141   0.779   4.612   5.888
 3081SOL    HW110142   0.768   4.711   5.886
 3081SOL    HW210143   0.870   4.588   5.855
 3082SOL     OW10144   3.975   6.532   3.813
 3082SOL    HW110145   3.995   6.482   3.898
 3082SOL    HW210146   4.057   6.578   3.781
 3083SOL     OW10147   3.936   6.975   2.620
 3083SOL    HW110148   3.866   0.003   2.570
 3083SOL    HW210149   3.991   0.015   2.674
 3084SOL     OW10150   4.719   4.620   4.240
 3084SOL    HW110151   4.744   4.695   4.178
 3084SOL    HW210152   4.800   4.586   4.286
 3085SOL     OW10153   0.140   4.247   3.273
 3085SOL    HW110154   0.047   4.213   3.286
 3085SOL    HW210155   0.137   4.346   3.256
 3086SOL     OW10156   4.201   1.158   2.218
 3086SOL    HW110157   4.232   1.084   2.278
 3086SOL    HW210158   4.248   1.151   2.130
 3087SOL     OW10159   6.736   4.480   4.153
 3087SOL    HW110160   6.827   4.467   4.193
 3087SOL    HW210161   6.690   4.554   4.201
 3088SOL     OW10162   2.843   5.052   5.305
 3088SOL    HW110163   2.835   4.962   5.349
 3088SOL    HW210164   2.774   5.114   5.343
 3089SOL     OW10165   1.238   3.317   6.904
 3089SOL    HW110166   1.277   3.319   6.811
 3089SOL    HW210167   1.248   3.407   6.946
 3090SOL     OW10168   2.088   1.645   1.041
 3090SOL    HW110169   2.096   1.559   0.990
 3090SOL    HW210170   1.993   1.663   1.063
 3091SOL     OW10171   3.391   6.625   0.259
 3091SOL    HW110172   3.351   6.704   0.212
 3091SOL    HW210173   3.330   6.596   0.333
 3092SOL     OW10174   5.528   6.780   0.018
 3092SOL    HW110175   5.484   6.738   0.097
 3092SOL    HW210176   5.564   6.870   0.044
 3093SOL     OW10177   5.598   5.320   5.983
 3093SOL    HW110178   5.656   5.278   5.913
 3093SOL    HW210179   5.502   5.295   5.967
 3094SOL     OW10180   2.972   6.409   4.937
 3094SOL    HW110181   3.022   6.432   5.021
 3094SOL    HW210182   2.901   6.342   4.958
 3095SOL     OW10183   2.479   4.455   4.384
 3095SOL    HW110184   2.418   4.498   4.317
 3095SOL    HW210185   2.429   4.384   4.434
 3096SOL     OW10186   6.681   0.603   4.523
 3096SOL    HW110187   6.715   0.509   4.528
 3096SOL    HW210188   6.696   0.639   4.431
 3097SOL     OW10189   0.850   2.491   0.670
 3097SOL    HW110190   0.771   2.431   0.685
 3097SOL    HW210191   0.834   2.547   0.588
 3098SOL     OW10192   2.925   3.529   1.327
 3098SOL    HW110193   2.855   3.459   1.342
 3098SOL    HW210194   2.943   3.536   1.229
 3099SOL     OW10195   6.724   5.522   4.874
 3099SOL    HW110196   6.754   5.493   4.965
 3099SOL    HW210197   6.672   5.607   4.882
 3100SOL     OW10198   6.871   0.054   4.529
 3100SOL    HW110199   6.784   0.026   4.569
 3100SOL    HW210200   6.880   0.153   4.534
 3101SOL     OW10201   4.475   6.402   5.338
 3101SOL    HW110202   4.449   6.495   5.365
 3101SOL    HW210203   4.513   6.403   5.246
 3102SOL     OW10204   0.717   4.449   1.542
 3102SOL    HW110205   0.691   4.375   1.604
 3102SOL    HW210206   0.635   4.500   1.515
 3103SOL     OW10207   3.643   1.782   1.151
 3103SOL    HW110208   3.721   1.810   1.096
 3103SOL    HW210209   3.643   1.683   1.162
 3104SOL     OW10210   5.803   6.008   4.123
 3104SOL    HW110211   5.867   6.023   4.198
 3104SOL    HW210212   5.855   5.990   4.039
 3105SOL     OW10213   5.792   5.634   3.504
 3105SOL    HW110214   5.772   5.578   3.424
 3105SOL    HW210215   5.876   5.601   3.548
 3106SOL     OW10216   6.765   2.120   2.440
 3106SOL    HW110217   6.674   2.142   2.474
 3106SOL    HW210218   6.819   2.203   2.432
 3107SOL     OW10219   3.667   0.333   4.276
 3107SOL    HW110220   3.703   0.408   4.221
 3107SOL    HW210221   3.719   0.326   4.361
 3108SOL     OW10222   1.885   1.064   4.196
 3108SOL    HW110223   1.947   1.001   4.245
 3108SOL    HW210224   1.819   1.102   4.260
 3109SOL     OW10225   5.095   5.683   2.576
 3109SOL    HW110226   5.151   5.613   2.531
 3109SOL    HW210227   5.146   5.768   2.582
 3110SOL     OW10228   6.884   2.285   3.526
 3110SOL    HW110229   6.863   2.379   3.551
 3110SOL    HW210230   6.945   2.284   3.447
 3111SOL     OW10231   6.059   5.587   3.626
 3111SOL    HW110232   6.066   5.682   3.655
 3111SOL    HW210233   6.048   5.528   3.706
 3112SOL     OW10234   4.557   2.499   5.941
 3112SOL    HW110235   4.459   2.478   5.939
 3112SOL    HW210236   4.603   2.452   5.866
 3113SOL     OW10237   2.306   0.097   4.019
 3113SOL    HW110238   2.266   0.084   4.109
 3113SOL    HW210239   2.285   0.017   3.961
 3114SOL     OW10240   5.431   4.281   0.098
 3114SOL    HW110241   5.390   4.190   0.087
 3114SOL    HW210242   5.359   4.348   0.115
 3115SOL     OW10243   4.220   4.086   6.977
 3115SOL    HW110244   4.160   4.024   6.927
 3115SOL    HW210245   4.170   4.128   0.029
 3116SOL     OW10246   6.772   3.046   6.859
 3116SOL    HW110247   6.729   3.015   6.774
 3116SOL    HW210248   6.799   2.967   6.914
 3117SOL     OW10249   4.413   4.031   5.365
 3117SOL    HW110250   4.362   4.082   5.434
 3117SOL    HW210251   4.496   4.081   5.341
 3118SOL     OW10252   6.793   4.492   6.456
 3118SOL    HW110253   6.858   4.445   6.516
 3118SOL    HW210254   6.762   4.429   6.385
 3119SOL     OW10255   1.647   4.361   5.062
 3119SOL    HW110256   1.744   4.371   5.038
 3119SOL    HW210257   1.635   4.276   5.113
 3120SOL     OW10258   2.398   6.242   4.861
 3120SOL    HW110259   2.369   6.178   4.932
 3120SOL    HW210260   2.329   6.245   4.789
 3121SOL     OW10261   0.863   1.743   2.205
 3121SOL    HW110262   0.763   1.748   2.210
 3121SOL    HW210263   0.889   1.665   2.147
 3122SOL     OW10264   3.363   5.168   6.429
 3122SOL    HW110265   3.281   5.135   6.380
 3122SOL    HW210266   3.413   5.232   6.370
 3123SOL     OW10267   3.282   6.350   3.412
 3123SOL    HW110268   3.183   6.344   3.399
 3123SOL    HW210269   3.315   6.438   3.376
 3124SOL     OW10270   4.118   0.983   5.382
 3124SOL    HW110271   4.140   0.890   5.352
 3124SOL    HW210272   4.036   1.015   5.335
 3125SOL     OW10273   6.376   2.063   5.567
 3125SOL    HW110274   6.399   2.134   5.501
 3125SOL    HW210275   6.280   2.036   5.553
 3126SOL     OW10276   5.055   4.586   6.191
 3126SOL    HW110277   5.032   4.659   6.256
 3126SOL    HW210278   5.144   4.605   6.150
 3127SOL     OW10279   0.634   1.902   3.371
 3127SOL    HW110280   0.619   1.985   3.317
 3127SOL    HW210281   0.546   1.855   3.383
 3128SOL     OW10282   1.725   0.616   0.450
 3128SOL    HW110283   1.691   0.578   0.364
 3128SOL    HW210284   1.824   0.622   0.448
 3129SOL     OW10285   0.583   4.200   6.123
 3129SOL    HW110286   0.668   4.239   6.087
 3129SOL    HW210287   0.507   4.262   6.102
 3130SOL     OW10288   2.486   4.462   2.354
 3130SOL    HW110289   2.402   4.408   2.363
 3130SOL    HW210290   2.477   4.548   2.405
 3131SOL     OW10291   0.988   3.045   3.305
 3131SOL    HW110292   0.965   3.030   3.401
 3131SOL    HW210293   0.979   3.142   3.284
 3132SOL     OW10294   5.209   5.884   5.329
 3132SOL    HW110295   5.186   5.810   5.265
 3132SOL    HW210296   5.218   5.970   5.278
 3133SOL     OW10297   2.377   2.214   4.224
 3133SOL    HW110298   2.467   2.249   4.196
 3133SOL    HW210299   2.308   2.243   4.158
 3134SOL     OW10300   4.954   3.210   1.403
 3134SOL    HW110301   4.906   3.288   1.363
 3134SOL    HW210302   4.942   3.212   1.503
 3135SOL     OW10303   4.074   1.850   4.757
 3135SOL    HW110304   4.098   1.856   4.854
 3135SOL    HW210305   3.982   1.888   4.744
 3136SOL     OW10306   6.193   6.371   6.258
 3136SOL    HW110307   6.240   6.371   6.169
 3136SOL    HW210308   6.253   6.412   6.326
 3137SOL     OW10309   4.653   1.612   3.833
 3137SOL    HW110310   4.651   1.710   3.854
 3137SOL    HW210311   4.747   1.585   3.812
 3138SOL     OW10312   6.138   2.062   4.541
 3138SOL    HW110313   6.205   2.060   4.467
 3138SOL    HW210314   6.184   2.081   4.627
 3139SOL     OW10315   5.281   6.716   6.215
 3139SOL    HW110316   5.239   6.633   6.179
 3139SOL    HW210317   5.351   6.749   6.152
 3140SOL     OW10318   6.643   6.893   6.683
 3140SOL    HW110319   6.702   6.874   6.761
 3140SOL    HW210320   6.627   6.808   6.633
 3141SOL     OW10321   0.624   6.325   6.821
 3141SOL    HW110322   0.619   6.364   6.728
 3141SOL    HW210323   0.558   6.372   6.880
 3142SOL     OW10324   4.698   6.108   0.493
 3142SOL    HW110325   4.667   6.053   0.571
 3142SOL    HW210326   4.729   6.197   0.526
 3143SOL     OW10327   0.069   1.982   6.724
 3143SOL    HW110328   0.027   1.998   6.635
 3143SOL    HW210329   0.149   1.922   6.713
 3144SOL     OW10330   2.143   3.652   1.165
 3144SOL    HW110331   2.094   3.573   1.202
 3144SOL    HW210332   2.100   3.736   1.196
 3145SOL     OW10333   2.898   5.853   2.755
 3145SOL    HW110334   2.928   5.810   2.840
 3145SOL    HW210335   2.977   5.880   2.701
 3146SOL     OW10336   1.613   6.557   3.184
 3146SOL    HW110337   1.607   6.577   3.282
 3146SOL    HW210338   1.708   6.540   3.159
 3147SOL     OW10339   4.457   5.086   0.599
 3147SOL    HW110340   4.371   5.090   0.550
 3147SOL    HW210341   4.518   5.158   0.566
 3148SOL     OW10342   3.880   5.291   3.998
 3148SOL    HW110343   3.882   5.313   4.096
 3148SOL    HW210344   3.966   5.248   3.972
 3149SOL     OW10345   3.438   0.673   5.390
 3149SOL    HW110346   3.460   0.762   5.430
 3149SOL    HW210347   3.341   0.671   5.364
 3150SOL     OW10348   5.142   6.308   4.634
 3150SOL    HW110349   5.115   6.305   4.538
 3150SOL    HW210350   5.173   6.218   4.663
 3151SOL     OW10351   4.729   1.366   6.549
 3151SOL    HW110352   4.812   1.386   6.600
 3151SOL    HW210353   4.751   1.357   6.451
 3152SOL     OW10354   0.157   5.328   1.409
 3152SOL    HW110355   0.197   5.255   1.354
 3152SOL    HW210356   0.227   5.366   1.471
 3153SOL     OW10357   5.992   4.179   1.271
 3153SOL    HW110358   6.074   4.144   1.317
 3153SOL    HW210359   5.914   4.173   1.333
 3154SOL     OW10360   6.759   2.160   6.640
 3154SOL    HW110361   6.795   2.194   6.553
 3154SOL    HW210362   6.710   2.234   6.687
 3155SOL     OW10363   6.434   4.660   1.252
 3155SOL    HW110364   6.430   4.687   1.348
 3155SOL    HW210365   6.387   4.729   1.196
 3156SOL     OW10366   4.009   3.663   2.873
 3156SOL    HW110367   3.920   3.616   2.874
 3156SOL    HW210368   4.014   3.724   2.794
 3157SOL     OW10369   2.105   3.704   4.788
 3157SOL    HW110370   2.010   3.672   4.782
 3157SOL    HW210371   2.157   3.668   4.711
 3158SOL     OW10372   5.184   0.040   1.411
 3158SOL    HW110373   5.090   0.067   1.432
 3158SOL    HW210374   5.238   0.121   1.390
 3159SOL     OW10375   4.989   6.096   6.305
 3159SOL    HW110376   5.054   6.032   6.264
 3159SOL    HW210377   4.978   6.175   6.246
 3160SOL     OW10378   5.848   3.960   6.114
 3160SOL    HW110379   5.859   4.002   6.205
 3160SOL    HW210380   5.756   3.977   6.080
 3161SOL     OW10381   1.406   1.001   2.810
 3161SOL    HW110382   1.461   1.084   2.819
 3161SOL    HW210383   1.467   0.923   2.792
 3162SOL     OW10384   0.085   5.310   6.995
 3162SOL    HW110385   0.149   5.276   6.925
 3162SOL    HW210386   0.040   5.392   6.961
 3163SOL     OW10387   4.118   3.120   6.616
 3163SOL    HW110388   4.104   3.093   6.711
 3163SOL    HW210389   4.168   3.207   6.614
 3164SOL     OW10390   5.471   4.285   1.100
 3164SOL    HW110391   5.405   4.306   1.172
 3164SOL    HW210392   5.445   4.200   1.054
 3165SOL     OW10393   1.016   0.068   1.942
 3165SOL    HW110394   1.001   0.054   1.844
 3165SOL    HW210395   1.080   0.143   1.955
 3166SOL     OW10396   4.916   2.718   6.177
 3166SOL    HW110397   4.849   2.749   6.244
 3166SOL    HW210398   5.007   2.720   6.218
 3167SOL     OW10399   0.052   4.386   1.826
 3167SOL    HW110400   0.123   4.406   1.759
 3167SOL    HW210401   6.993   4.353   1.779
 3168SOL     OW10402   5.652   2.964   0.654
 3168SOL    HW110403   5.665   2.885   0.594
 3168SOL    HW210404   5.588   2.939   0.727
 3169SOL     OW10405   0.977   3.128   5.949
 3169SOL    HW110406   1.029   3.045   5.973
 3169SOL    HW210407   0.879   3.107   5.949
 3170SOL     OW10408   4.194   0.227   6.863
 3170SOL    HW110409   4.247   0.222   6.778
 3170SOL    HW210410   4.251   0.199   6.940
 3171SOL     OW10411   6.729   0.189   2.020
 3171SOL    HW110412   6.767   0.282   2.021
 3171SOL    HW210413   6.758   0.140   2.102
 3172SOL     OW10414   6.817   6.335   4.801
 3172SOL    HW110415   6.817   6.262   4.733
 3172SOL    HW210416   6.724   6.372   4.811
 3173SOL     OW10417   2.144   0.234   1.910
 3173SOL    HW110418   2.174   0.329   1.907
 3173SOL    HW210419   2.193   0.186   1.983
 3174SOL     OW10420   3.211   2.790   5.775
 3174SOL    HW110421   3.219   2.865   5.841
 3174SOL    HW210422   3.114   2.769   5.762
 3175SOL     OW10423   1.167   6.310   6.850
 3175SOL    HW110424   1.213   6.395   6.822
 3175SOL    HW210425   1.069   6.326   6.857
 3176SOL     OW10426   1.423   4.401   6.298
 3176SOL    HW110427   1.501   4.436   6.245
 3176SOL    HW210428   1.379   4.327   6.248
 3177SOL     OW10429   5.431   5.217   5.323
 3177SOL    HW110430   5.508   5.227   5.260
 3177SOL    HW210431   5.368   5.147   5.287
 3178SOL     OW10432   0.588   4.241   2.168
 3178SOL    HW110433   0.534   4.264   2.249
 3178SOL    HW210434   0.595   4.141   2.160
 3179SOL     OW10435   2.085   2.298   2.610
 3179SOL    HW110436   2.088   2.277   2.708
 3179SOL    HW210437   2.088   2.398   2.598
 3180SOL     OW10438   5.204   0.381   5.404
 3180SOL    HW110439   5.168   0.429   5.484
 3180SOL    HW210440   5.191   0.439   5.323
 3181SOL     OW10441   0.351   1.004   3.641
 3181SOL    HW110442   0.393   1.093   3.625
 3181SOL    HW210443   0.293   0.980   3.563
 3182SOL     OW10444   0.119   6.561   5.607
 3182SOL    HW110445   0.194   6.598   5.662
 3182SOL    HW210446   0.153   6.485   5.552
 3183SOL     OW10447   4.473   5.071   1.586
 3183SOL    HW110448   4.416   5.007   1.636
 3183SOL    HW210449   4.515   5.025   1.507
 3184SOL     OW10450   2.611   1.947   2.658
 3184SOL    HW110451   2.600   1.946   2.559
 3184SOL    HW210452   2.525   1.978   2.700
 3185SOL     OW10453   0.399   6.622   5.303
 3185SOL    HW110454   0.476   6.685   5.308
 3185SOL    HW210455   0.343   6.643   5.222
 3186SOL     OW10456   3.584   1.197   2.654
 3186SOL    HW110457   3.541   1.266   2.596
 3186SOL    HW210458   3.671   1.169   2.614
 3187SOL     OW10459   3.554   4.261   6.818
 3187SOL    HW110460   3.575   4.200   6.741
 3187SOL    HW210461   3.630   4.324   6.832
 3188SOL     OW10462   3.525   5.708   2.812
 3188SOL    HW110463   3.454   5.638   2.825
 3188SOL    HW210464   3.585   5.709   2.891
 3189SOL     OW10465   1.131   0.531   3.317
 3189SOL    HW110466   1.041   0.527   3.273
 3189SOL    HW210467   1.162   0.438   3.337
 3190SOL     OW10468   1.382   5.810   1.525
 3190SOL    HW110469   1.427   5.837   1.440
 3190SOL    HW210470   1.299   5.758   1.504
 3191SOL     OW10471   4.086   0.787   1.023
 3191SOL    HW110472   4.186   0.787   1.017
 3191SOL    HW210473   4.055   0.873   1.065
 3192SOL     OW10474   0.716   2.517   1.555
 3192SOL    HW110475   0.741   2.428   1.593
 3192SOL    HW210476   0.619   2.535   1.570
 3193SOL     OW10477   4.557   1.743   6.602
 3193SOL    HW110478   4.553   1.715   6.506
 3193SOL    HW210479   4.650   1.732   6.636
 3194SOL     OW10480   1.583   3.658   6.332
 3194SOL    HW110481   1.538   3.740   6.366
 3194SOL    HW210482   1.679   3.679   6.312
 3195SOL     OW10483   1.459   3.073   3.818
 3195SOL    HW110484   1.401   2.999   3.784
 3195SOL    HW210485   1.550   3.038   3.839
 3196SOL     OW10486   0.404   0.406   5.054
 3196SOL    HW110487   0.441   0.499   5.055
 3196SOL    HW210488   0.333   0.397   5.124
 3197SOL     OW10489   1.441   5.646   3.503
 3197SOL    HW110490   1.491   5.692   3.577
 3197SOL    HW210491   1.427   5.550   3.527
 3198SOL     OW10492   0.465   1.617   5.992
 3198SOL    HW110493   0.523   1.540   6.020
 3198SOL    HW210494   0.509   1.703   6.020
 3199SOL     OW10495   4.383   1.411   2.213
 3199SOL    HW110496   4.348   1.331   2.163
 3199SOL    HW210497   4.351   1.407   2.307
 3200SOL     OW10498   0.231   1.913   0.359
 3200SOL    HW110499   0.289   1.898   0.279
 3200SOL    HW210500   0.200   2.008   0.361
 3201SOL     OW10501   5.653   3.891   4.035
 3201SOL    HW110502   5.717   3.942   3.978
 3201SOL    HW210503   5.604   3.824   3.979
 3202SOL     OW10504   1.651   5.084   1.708
 3202SOL    HW110505   1.687   5.177   1.720
 3202SOL    HW210506   1.613   5.052   1.794
 3203SOL     OW10507   7.019   1.030   1.148
 3203SOL    HW110508   7.002   0.934   1.125
 3203SOL    HW210509   6.937   1.070   1.188
 3204SOL     OW10510   6.368   5.848   1.985
 3204SOL    HW110511   6.314   5.774   2.025
 3204SOL    HW210512   6.445   5.810   1.934
 3205SOL     OW10513   6.595   3.274   5.341
 3205SOL    HW110514   6.668   3.342   5.331
 3205SOL    HW210515   6.537   3.276   5.259
 3206SOL     OW10516   0.862   6.709   5.485
 3206SOL    HW110517   0.813   6.624   5.463
 3206SOL    HW210518   0.960   6.691   5.487
 3207SOL     OW10519   0.901   0.651   4.830
 3207SOL    HW110520   0.948   0.612   4.750
 3207SOL    HW210521   0.802   0.644   4.816
 3208SOL     OW10522   4.408   5.739   5.059
 3208SOL    HW110523   4.335   5.672   5.074
 3208SOL    HW210524   4.457   5.754   5.144
 3209SOL     OW10525   2.415   0.244   3.806
 3209SOL    HW110526   2.384   0.219   3.897
 3209SOL    HW210527   2.500   0.196   3.785
 3210SOL     OW10528   0.002   4.422   2.748
 3210SOL    HW110529   6.988   4.330   2.735
 3210SOL    HW210530   6.957   4.480   2.792
 3211SOL     OW10531   1.985   4.369   1.487
 3211SOL    HW110532   2.005   4.463   1.459
 3211SOL    HW210533   2.050   4.340   1.557
 3212SOL     OW10534   4.385   2.489   6.617
 3212SOL    HW110535   4.321   2.459   6.687
 3212SOL    HW210536   4.366   2.585   6.594
 3213SOL     OW10537   5.766   5.837   3.023
 3213SOL    HW110538   5.805   5.907   3.083
 3213SOL    HW210539   5.696   5.786   3.073
 3214SOL     OW10540   4.528   6.340   0.006
 3214SOL    HW110541   4.554   6.362   6.935
 3214SOL    HW210542   4.435   6.370   0.024
 3215SOL     OW10543   6.326   2.835   6.914
 3215SOL    HW110544   6.238   2.794   6.893
 3215SOL    HW210545   6.321   2.934   6.901
 3216SOL     OW10546   5.490   6.916   3.665
 3216SOL    HW110547   5.407   6.865   3.639
 3216SOL    HW210548   5.562   6.896   3.598
 3217SOL     OW10549   0.177   4.182   2.522
 3217SOL    HW110550   0.235   4.261   2.543
 3217SOL    HW210551   0.096   4.183   2.581
 3218SOL     OW10552   3.960   0.442   3.076
 3218SOL    HW110553   3.996   0.533   3.096
 3218SOL    HW210554   3.940   0.394   3.162
 3219SOL     OW10555   0.587   0.007   3.402
 3219SOL    HW110556   0.544   0.097   3.392
 3219SOL    HW210557   0.593   6.987   3.312
 3220SOL     OW10558   6.992   4.565   5.152
 3220SOL    HW110559   6.941   4.479   5.155
 3220SOL    HW210560   0.062   4.547   5.119
 3221SOL     OW10561   2.706   6.941   3.591
 3221SOL    HW110562   2.783   6.998   3.560
 3221SOL    HW210563   2.724   6.846   3.568
 3222SOL     OW10564   5.328   2.039   2.769
 3222SOL    HW110565   5.387   2.015   2.847
 3222SOL    HW210566   5.309   1.957   2.715
 3223SOL     OW10567   2.642   4.651   6.120
 3223SOL    HW110568   2.548   4.674   6.146
 3223SOL    HW210569   2.661   4.687   6.028
 3224SOL     OW10570   3.766   5.438   0.167
 3224SOL    HW110571   3.809   5.477   0.086
 3224SOL    HW210572   3.836   5.412   0.233
 3225SOL     OW10573   3.199   3.787   0.194
 3225SOL    HW110574   3.280   3.816   0.142
 3225SOL    HW210575   3.117   3.802   0.138
 3226SOL     OW10576   1.579   0.775   4.079
 3226SOL    HW110577   1.508   0.705   4.088
 3226SOL    HW210578   1.618   0.771   3.987
 3227SOL     OW10579   3.785   1.299   5.632
 3227SOL    HW110580   3.752   1.249   5.712
 3227SOL    HW210581   3.764   1.396   5.643
 3228SOL     OW10582   5.388   3.727   4.273
 3228SOL    HW110583   5.326   3.718   4.351
 3228SOL    HW210584   5.386   3.643   4.219
 3229SOL     OW10585   4.275   1.417   5.778
 3229SOL    HW110586   4.319   1.402   5.689
 3229SOL    HW210587   4.176   1.410   5.768
 3230SOL     OW10588   0.662   0.633   3.148
 3230SOL    HW110589   0.600   0.565   3.107
 3230SOL    HW210590   0.732   0.586   3.202
 3231SOL     OW10591   6.041   6.052   0.920
 3231SOL    HW110592   5.989   5.978   0.962
 3231SOL    HW210593   6.137   6.043   0.946
 3232SOL     OW10594   2.869   4.801   4.614
 3232SOL    HW110595   2.860   4.802   4.714
 3232SOL    HW210596   2.799   4.742   4.574
 3233SOL     OW10597   0.402   3.974   1.464
 3233SOL    HW110598   0.371   3.934   1.378
 3233SOL    HW210599   0.469   4.046   1.446
 3234SOL     OW10600   0.286   1.606   6.690
 3234SOL    HW110601   0.313   1.698   6.720
 3234SOL    HW210602   0.367   1.554   6.664
 3235SOL     OW10603   5.489   6.768   2.760
 3235SOL    HW110604   5.423   6.704   2.798
 3235SOL    HW210605   5.463   6.861   2.785
 3236SOL     OW10606   1.293   3.063   2.835
 3236SOL    HW110607   1.229   3.015   2.773
 3236SOL    HW210608   1.362   3.110   2.780
 3237SOL     OW10609   3.840   6.771   4.931
 3237SOL    HW110610   3.936   6.786   4.905
 3237SOL    HW210611   3.821   6.818   5.017
 3238SOL     OW10612   0.373   6.468   6.232
 3238SOL    HW110613   0.402   6.408   6.158
 3238SOL    HW210614   0.282   6.443   6.262
 3239SOL     OW10615   6.427   0.070   5.620
 3239SOL    HW110616   6.412   0.035   5.528
 3239SOL    HW210617   6.507   0.130   5.620
 3240SOL     OW10618   1.384   0.386   4.530
 3240SOL    HW110619   1.483   0.385   4.513
 3240SOL    HW210620   1.346   0.472   4.496
 3241SOL     OW10621   4.663   1.108   4.070
 3241SOL    HW110622   4.652   1.205   4.089
 3241SOL    HW210623   4.742   1.094   4.010
 3242SOL     OW10624   3.978   6.547   6.680
 3242SOL    HW110625   3.919   6.565   6.602
 3242SOL    HW210626   4.057   6.493   6.650
 3243SOL     OW10627   4.250   5.381   0.319
 3243SOL    HW110628   4.344   5.415   0.319
 3243SOL    HW210629   4.204   5.409   0.235
 3244SOL     OW10630   3.434   5.850   6.476
 3244SOL    HW110631   3.467   5.801   6.556
 3244SOL    HW210632   3.496   5.833   6.399
 3245SOL     OW10633   3.714   2.648   6.837
 3245SOL    HW110634   3.683   2.660   6.742
 3245SOL    HW210635   3.785   2.578   6.839
 3246SOL     OW10636   5.133   6.334   2.872
 3246SOL    HW110637   5.210   6.270   2.868
 3246SOL    HW210638   5.048   6.283   2.878
 3247SOL     OW10639   6.910   2.541   3.597
 3247SOL    HW110640   6.810   2.550   3.591
 3247SOL    HW210641   6.939   2.558   3.691
 3248SOL     OW10642   6.152   3.339   1.553
 3248SOL    HW110643   6.165   3.350   1.454
 3248SOL    HW210644   6.055   3.353   1.575
 3249SOL     OW10645   2.804   4.786   4.916
 3249SOL    HW110646   2.840   4.737   4.995
 3249SOL    HW210647   2.739   4.727   4.867
 3250SOL     OW10648   4.556   6.748   2.619
 3250SOL    HW110649   4.621   6.814   2.581
 3250SOL    HW210650   4.480   6.736   2.555
 3251SOL     OW10651   3.368   2.141   2.994
 3251SOL    HW110652   3.367   2.130   2.895
 3251SOL    HW210653   3.280   2.179   3.025
 3252SOL     OW10654   2.916   0.731   2.664
 3252SOL    HW110655   2.991   0.798   2.672
 3252SOL    HW210656   2.861   0.753   2.583
 3253SOL     OW10657   5.366   2.917   1.268
 3253SOL    HW110658   5.384   3.004   1.314
 3253SOL    HW210659   5.283   2.876   1.306
 3254SOL     OW10660   4.301   4.783   3.199
 3254SOL    HW110661   4.353   4.819   3.277
 3254SOL    HW210662   4.220   4.839   3.185
 3255SOL     OW10663   4.165   5.656   0.430
 3255SOL    HW110664   4.246   5.617   0.473
 3255SOL    HW210665   4.101   5.686   0.501
 3256SOL     OW10666   5.060   0.196   5.752
 3256SOL    HW110667   4.987   0.162   5.693
 3256SOL    HW210668   5.129   0.125   5.764
 3257SOL     OW10669   1.314   2.365   1.204
 3257SOL    HW110670   1.373   2.331   1.278
 3257SOL    HW210671   1.283   2.457   1.226
 3258SOL     OW10672   5.198   6.619   1.860
 3258SOL    HW110673   5.165   6.671   1.939
 3258SOL    HW210674   5.139   6.540   1.845
 3259SOL     OW10675   4.459   6.465   3.940
 3259SOL    HW110676   4.404   6.406   3.881
 3259SOL    HW210677   4.410   6.551   3.957
 3260SOL     OW10678   2.442   1.993   6.874
 3260SOL    HW110679   2.515   2.061   6.885
 3260SOL    HW210680   2.390   2.015   6.791
 3261SOL     OW10681   4.781   6.765   1.106
 3261SOL    HW110682   4.834   6.849   1.113
 3261SOL    HW210683   4.839   6.691   1.071
 3262SOL     OW10684   3.650   1.809   3.360
 3262SOL    HW110685   3.612   1.888   3.407
 3262SOL    HW210686   3.700   1.839   3.279
 3263SOL     OW10687   4.767   6.850   1.857
 3263SOL    HW110688   4.833   6.780   1.882
 3263SOL    HW210689   4.730   6.829   1.766
 3264SOL     OW10690   6.522   4.570   6.882
 3264SOL    HW110691   6.444   4.631   6.898
 3264SOL    HW210692   6.572   4.557   6.968
 3265SOL     OW10693   5.265   0.839   6.190
 3265SOL    HW110694   5.336   0.773   6.167
 3265SOL    HW210695   5.177   0.806   6.159
 3266SOL     OW10696   0.945   1.763   6.411
 3266SOL    HW110697   0.947   1.674   6.363
 3266SOL    HW210698   0.987   1.832   6.352
 3267SOL     OW10699   3.386   2.103   1.177
 3267SOL    HW110700   3.300   2.129   1.220
 3267SOL    HW210701   3.457   2.093   1.248
 3268SOL     OW10702   1.056   4.331   6.418
 3268SOL    HW110703   1.100   4.393   6.483
 3268SOL    HW210704   1.020   4.383   6.341
 3269SOL     OW10705   4.082   4.445   1.186
 3269SOL    HW110706   4.174   4.461   1.148
 3269SOL    HW210707   4.082   4.470   1.283
 3270SOL     OW10708   0.807   5.733   4.639
 3270SOL    HW110709   0.801   5.635   4.661
 3270SOL    HW210710   0.859   5.745   4.555
 3271SOL     OW10711   6.261   2.309   0.942
 3271SOL    HW110712   6.175   2.262   0.923
 3271SOL    HW210713   6.261   2.399   0.897
 3272SOL     OW10714   3.770   0.320   0.708
 3272SOL    HW110715   3.834   0.379   0.660
 3272SOL    HW210716   3.762   0.233   0.660
 3273SOL     OW10717   0.313   6.886   2.611
 3273SOL    HW110718   0.355   6.795   2.603
 3273SOL    HW210719   0.238   6.882   2.676
 3274SOL     OW10720   2.983   2.251   6.035
 3274SOL    HW110721   3.063   2.243   6.094
 3274SOL    HW210722   2.905   2.284   6.089
 3275SOL     OW10723   2.033   0.617   6.954
 3275SOL    HW110724   2.133   0.625   6.961
 3275SOL    HW210725   2.005   0.638   6.861
 3276SOL     OW10726   3.328   6.261   6.657
 3276SOL    HW110727   3.285   6.323   6.592
 3276SOL    HW210728   3.305   6.289   6.750
 3277SOL     OW10729   0.017   5.696   4.956
 3277SOL    HW110730   0.033   5.741   5.044
 3277SOL    HW210731   0.014   5.764   4.883
 3278SOL     OW10732   1.372   0.627   6.334
 3278SOL    HW110733   1.321   0.701   6.291
 3278SOL    HW210734   1.322   0.541   6.322
 3279SOL     OW10735   0.926   6.953   1.117
 3279SOL    HW110736   0.973   6.971   1.204
 3279SOL    HW210737   0.887   0.014   1.082
 3280SOL     OW10738   2.058   4.760   6.043
 3280SOL    HW110739   2.059   4.840   6.103
 3280SOL    HW210740   2.004   4.687   6.085
 3281SOL     OW10741   2.587   5.459   0.471
 3281SOL    HW110742   2.545   5.507   0.394
 3281SOL    HW210743   2.547   5.491   0.557
 3282SOL     OW10744   2.404   5.223   3.177
 3282SOL    HW110745   2.318   5.171   3.180
 3282SOL    HW210746   2.466   5.180   3.110
 3283SOL     OW10747   2.471   1.144   3.433
 3283SOL    HW110748   2.563   1.171   3.405
 3283SOL    HW210749   2.473   1.051   3.471
 3284SOL     OW10750   6.776   4.826   6.723
 3284SOL    HW110751   6.810   4.916   6.752
 3284SOL    HW210752   6.683   4.813   6.756
 3285SOL     OW10753   0.673   1.603   3.456
 3285SOL    HW110754   0.658   1.683   3.515
 3285SOL    HW210755   0.748   1.623   3.392
 3286SOL     OW10756   3.516   3.457   4.678
 3286SOL    HW110757   3.577   3.414   4.745
 3286SOL    HW210758   3.556   3.543   4.647
 3287SOL     OW10759   1.960   5.059   0.520
 3287SOL    HW110760   1.931   5.151   0.494
 3287SOL    HW210761   2.022   5.022   0.451
 3288SOL     OW10762   0.623   6.128   6.165
 3288SOL    HW110763   0.529   6.144   6.136
 3288SOL    HW210764   0.624   6.055   6.234
 3289SOL     OW10765   1.095   6.468   5.031
 3289SOL    HW110766   1.130   6.416   4.952
 3289SOL    HW210767   1.129   6.562   5.027
 3290SOL     OW10768   6.443   5.495   1.250
 3290SOL    HW110769   6.390   5.410   1.239
 3290SOL    HW210770   6.404   5.549   1.324
 3291SOL     OW10771   1.182   6.292   0.428
 3291SOL    HW110772   1.240   6.359   0.380
 3291SOL    HW210773   1.236   6.212   0.451
 3292SOL     OW10774   6.612   6.885   5.833
 3292SOL    HW110775   6.601   6.909   5.737
 3292SOL    HW210776   6.648   6.792   5.840
 3293SOL     OW10777   6.905   0.883   2.875
 3293SOL    HW110778   6.825   0.863   2.931
 3293SOL    HW210779   6.932   0.979   2.889
 3294SOL     OW10780   0.210   0.305   6.601
 3294SOL    HW110781   0.265   0.382   6.571
 3294SOL    HW210782   0.224   0.289   6.698
 3295SOL     OW10783   1.694   3.492   0.593
 3295SOL    HW110784   1.732   3.402   0.574
 3295SOL    HW210785   1.608   3.503   0.543
 3296SOL     OW10786   2.283   6.580   2.200
 3296SOL    HW110787   2.316   6.500   2.151
 3296SOL    HW210788   2.242   6.552   2.287
 3297SOL     OW10789   3.227   2.556   6.449
 3297SOL    HW110790   3.217   2.475   6.507
 3297SOL    HW210791   3.322   2.562   6.417
 3298SOL     OW10792   6.553   3.317   2.636
 3298SOL    HW110793   6.516   3.288   2.548
 3298SOL    HW210794   6.491   3.383   2.678
 3299SOL     OW10795   1.661   0.161   5.207
 3299SOL    HW110796   1.754   0.132   5.182
 3299SOL    HW210797   1.666   0.247   5.257
 3300SOL     OW10798   6.367   6.214   4.624
 3300SOL    HW110799   6.433   6.261   4.684
 3300SOL    HW210800   6.338   6.129   4.667
 3301SOL     OW10801   0.605   3.434   3.239
 3301SOL    HW110802   0.606   3.497   3.161
 3301SOL    HW210803   0.530   3.369   3.228
 3302SOL     OW10804   1.204   4.611   3.689
 3302SOL    HW110805   1.304   4.607   3.684
 3302SOL    HW210806   1.177   4.673   3.763
 3303SOL     OW10807   3.994   3.769   3.815
 3303SOL    HW110808   3.997   3.749   3.913
 3303SOL    HW210809   3.985   3.684   3.763
 3304SOL     OW10810   0.662   6.355   4.264
 3304SOL    HW110811   0.584   6.415   4.244
 3304SOL    HW210812   0.636   6.288   4.333
 3305SOL     OW10813   2.152   1.178   2.463
 3305SOL    HW110814   2.184   1.235   2.538
 3305SOL    HW210815   2.156   1.082   2.491
 3306SOL     OW10816   2.114   4.126   3.188
 3306SOL    HW110817   2.184   4.181   3.233
 3306SOL    HW210818   2.027   4.140   3.234
 3307SOL     OW10819   6.869   6.033   0.717
 3307SOL    HW110820   6.856   5.957   0.780
 3307SOL    HW210821   6.820   6.014   0.632
 3308SOL     OW10822   5.065   5.961   0.951
 3308SOL    HW110823   5.017   5.945   0.864
 3308SOL    HW210824   5.024   5.904   1.022
 3309SOL     OW10825   0.544   4.874   2.936
 3309SOL    HW110826   0.583   4.960   2.969
 3309SOL    HW210827   0.615   4.804   2.935
 3310SOL     OW10828   0.641   5.209   2.553
 3310SOL    HW110829   0.691   5.125   2.575
 3310SOL    HW210830   0.689   5.287   2.594
 3311SOL     OW10831   4.293   6.649   1.004
 3311SOL    HW110832   4.360   6.702   0.952
 3311SOL    HW210833   4.204   6.694   0.999
 3312SOL     OW10834   3.317   3.634   6.441
 3312SOL    HW110835   3.307   3.719   6.390
 3312SOL    HW210836   3.240   3.624   6.504
 3313SOL     OW10837   0.221   5.109   3.826
 3313SOL    HW110838   0.306   5.156   3.805
 3313SOL    HW210839   0.144   5.169   3.804
 3314SOL     OW10840   1.511   3.430   5.309
 3314SOL    HW110841   1.520   3.517   5.357
 3314SOL    HW210842   1.600   3.403   5.272
 3315SOL     OW10843   0.158   1.786   3.959
 3315SOL    HW110844   0.238   1.729   3.943
 3315SOL    HW210845   0.167   1.872   3.908
 3316SOL     OW10846   4.709   2.050   6.723
 3316SOL    HW110847   4.759   1.963   6.723
 3316SOL    HW210848   4.770   2.123   6.755
 3317SOL     OW10849   4.382   2.521   1.153
 3317SOL    HW110850   4.323   2.474   1.218
 3317SOL    HW210851   4.362   2.619   1.154
 3318SOL     OW10852   2.681   5.845   5.317
 3318SOL    HW110853   2.612   5.845   5.245
 3318SOL    HW210854   2.735   5.761   5.311
 3319SOL     OW10855   0.345   6.122   4.704
 3319SOL    HW110856   0.415   6.165   4.647
 3319SOL    HW210857   0.298   6.051   4.652
 3320SOL     OW10858   6.192   1.366   5.879
 3320SOL    HW110859   6.154   1.288   5.830
 3320SOL    HW210860   6.253   1.417   5.819
 3321SOL     OW10861   3.221   3.287   3.145
 3321SOL    HW110862   3.205   3.373   3.194
 3321SOL    HW210863   3.219   3.211   3.209
 3322SOL     OW10864   4.225   1.751   0.485
 3322SOL    HW110865   4.240   1.850   0.485
 3322SOL    HW210866   4.303   1.704   0.525
 3323SOL     OW10867   2.363   4.962   0.254
 3323SOL    HW110868   2.403   4.922   0.337
 3323SOL    HW210869   2.263   4.957   0.260
 3324SOL     OW10870   0.722   3.441   0.484
 3324SOL    HW110871   0.783   3.449   0.405
 3324SOL    HW210872   0.724   3.526   0.536
 3325SOL     OW10873   1.647   2.689   1.086
 3325SOL    HW110874   1.720   2.689   1.017
 3325SOL    HW210875   1.558   2.699   1.042
 3326SOL     OW10876   6.530   1.601   0.948
 3326SOL    HW110877   6.566   1.514   0.983
 3326SOL    HW210878   6.490   1.586   0.858
 3327SOL     OW10879   2.934   6.963   2.150
 3327SOL    HW110880   2.979   6.892   2.095
 3327SOL    HW210881   2.910   6.924   2.239
 3328SOL     OW10882   5.041   0.908   1.998
 3328SOL    HW110883   4.981   0.953   2.064
 3328SOL    HW210884   5.074   0.822   2.038
 3329SOL     OW10885   4.897   0.280   5.390
 3329SOL    HW110886   4.906   0.377   5.368
 3329SOL    HW210887   4.951   0.226   5.325
 3330SOL     OW10888   6.305   6.328   2.602
 3330SOL    HW110889   6.277   6.279   2.684
 3330SOL    HW210890   6.241   6.307   2.527
 3331SOL     OW10891   2.050   3.529   2.440
 3331SOL    HW110892   2.073   3.557   2.534
 3331SOL    HW210893   1.951   3.517   2.433
 3332SOL     OW10894   4.304   5.293   0.734
 3332SOL    HW110895   4.244   5.338   0.669
 3332SOL    HW210896   4.375   5.242   0.685
 3333SOL     OW10897   4.184   3.753   1.276
 3333SOL    HW110898   4.106   3.814   1.260
 3333SOL    HW210899   4.268   3.797   1.246
 3334SOL     OW10900   1.551   1.843   2.863
 3334SOL    HW110901   1.637   1.893   2.853
 3334SOL    HW210902   1.486   1.899   2.915
 3335SOL     OW10903   3.777   4.280   5.201
 3335SOL    HW110904   3.775   4.214   5.125
 3335SOL    HW210905   3.864   4.329   5.200
 3336SOL     OW10906   4.294   6.336   3.667
 3336SOL    HW110907   4.243   6.361   3.585
 3336SOL    HW210908   4.229   6.306   3.738
 3337SOL     OW10909   3.432   3.793   3.066
 3337SOL    HW110910   3.418   3.816   2.969
 3337SOL    HW210911   3.397   3.867   3.123
 3338SOL     OW10912   2.224   1.625   1.662
 3338SOL    HW110913   2.126   1.637   1.681
 3338SOL    HW210914   2.263   1.712   1.631
 3339SOL     OW10915   2.317   0.171   5.566
 3339SOL    HW110916   2.296   0.191   5.471
 3339SOL    HW210917   2.321   0.256   5.619
 3340SOL     OW10918   4.226   1.320   4.511
 3340SOL    HW110919   4.164   1.380   4.460
 3340SOL    HW210920   4.176   1.277   4.587
 3341SOL     OW10921   2.469   4.672   2.978
 3341SOL    HW110922   2.503   4.624   2.898
 3341SOL    HW210923   2.384   4.629   3.009
 3342SOL     OW10924   6.804   0.464   3.293
 3342SOL    HW110925   6.762   0.390   3.240
 3342SOL    HW210926   6.888   0.431   3.335
 3343SOL     OW10927   4.931   5.281   6.674
 3343SOL    HW110928   4.882   5.356   6.631
 3343SOL    HW210929   5.026   5.279   6.643
 3344SOL     OW10930   6.569   2.768   2.455
 3344SOL    HW110931   6.642   2.825   2.493
 3344SOL    HW210932   6.486   2.778   2.511
 3345SOL     OW10933   0.140   5.069   0.281
 3345SOL    HW110934   0.238   5.052   0.290
 3345SOL    HW210935   0.102   5.006   0.213
 3346SOL     OW10936   1.996   1.338   6.908
 3346SOL    HW110937   1.930   1.331   6.983
 3346SOL    HW210938   2.044   1.426   6.914
 3347SOL     OW10939   0.195   3.223   6.416
 3347SOL    HW110940   0.274   3.165   6.435
 3347SOL    HW210941   0.178   3.283   6.495
 3348SOL     OW10942   4.117   3.859   5.786
 3348SOL    HW110943   4.053   3.845   5.861
 3348SOL    HW210944   4.130   3.957   5.771
 3349SOL     OW10945   2.557   4.916   3.431
 3349SOL    HW110946   2.616   4.862   3.491
 3349SOL    HW210947   2.567   4.883   3.337
 3350SOL     OW10948   0.158   3.768   5.405
 3350SOL    HW110949   0.096   3.745   5.480
 3350SOL    HW210950   0.252   3.748   5.431
 3351SOL     OW10951   5.657   1.149   1.596
 3351SOL    HW110952   5.592   1.090   1.549
 3351SOL    HW210953   5.659   1.239   1.552
 3352SOL     OW10954   4.761   2.703   6.721
 3352SOL    HW110955   4.828   2.647   6.671
 3352SOL    HW210956   4.763   2.796   6.684
 3353SOL     OW10957   3.051   0.699   1.639
 3353SOL    HW110958   3.150   0.706   1.653
 3353SOL    HW210959   3.020   0.608   1.664
 3354SOL     OW10960   4.017   3.428   6.298
 3354SOL    HW110961   3.945   3.362   6.276
 3354SOL    HW210962   3.976   3.507   6.344
 3355SOL     OW10963   2.145   0.428   4.973
 3355SOL    HW110964   2.135   0.422   4.873
 3355SOL    HW210965   2.058   0.410   5.017
 3356SOL     OW10966   1.711   6.890   5.179
 3356SOL    HW110967   1.708   6.980   5.136
 3356SOL    HW210968   1.684   6.821   5.111
 3357SOL     OW10969   3.563   3.641   1.692
 3357SOL    HW110970   3.498   3.623   1.618
 3357SOL    HW210971   3.562   3.739   1.714
 3358SOL     OW10972   0.092   0.863   2.326
 3358SOL    HW110973   0.085   0.765   2.306
 3358SOL    HW210974   0.155   0.906   2.261
 3359SOL     OW10975   6.606   6.125   4.064
 3359SOL    HW110976   6.668   6.196   4.099
 3359SOL    HW210977   6.596   6.054   4.133
 3360SOL     OW10978   6.990   2.966   5.801
 3360SOL    HW110979   6.983   2.987   5.899
 3360SOL    HW210980   0.048   3.009   5.763
 3361SOL     OW10981   0.119   0.598   4.728
 3361SOL    HW110982   0.029   0.618   4.767
 3361SOL    HW210983   0.125   0.637   4.636
 3362SOL     OW10984   3.559   1.628   4.042
 3362SOL    HW110985   3.620   1.702   4.014
 3362SOL    HW210986   3.522   1.583   3.961
 3363SOL     OW10987   5.655   3.468   1.061
 3363SOL    HW110988   5.691   3.376   1.047
 3363SOL    HW210989   5.731   3.533   1.068
 3364SOL     OW10990   1.874   4.597   3.676
 3364SOL    HW110991   1.925   4.677   3.709
 3364SOL    HW210992   1.843   4.543   3.754
 3365SOL     OW10993   1.983   3.612   3.869
 3365SOL    HW110994   2.061   3.670   3.845
 3365SOL    HW210995   1.924   3.601   3.789
 3366SOL     OW10996   6.330   4.007   4.459
 3366SOL    HW110997   6.269   3.957   4.398
 3366SOL    HW210998   6.393   3.944   4.504
 3367SOL     OW10999   3.961   3.168   4.143
 3367SOL    HW111000   3.963   3.102   4.218
 3367SOL    HW211001   3.900   3.243   4.165
 3368SOL     OW11002   1.447   5.957   0.696
 3368SOL    HW111003   1.447   5.916   0.605
 3368SOL    HW211004   1.417   5.889   0.763
 3369SOL     OW11005   4.268   2.762   1.135
 3369SOL    HW111006   4.177   2.744   1.172
 3369SOL    HW211007   4.259   2.807   1.046
 3370SOL     OW11008   0.482   5.500   2.154
 3370SOL    HW111009   0.478   5.523   2.251
 3370SOL    HW211010   0.558   5.547   2.111
 3371SOL     OW11011   2.385   2.798   3.294
 3371SOL    HW111012   2.326   2.832   3.221
 3371SOL    HW211013   2.448   2.730   3.256
 3372SOL     OW11014   6.554   3.779   1.369
 3372SOL    HW111015   6.589   3.842   1.439
 3372SOL    HW211016   6.489   3.827   1.310
 3373SOL     OW11017   0.509   2.738   0.900
 3373SOL    HW111018   0.587   2.801   0.903
 3373SOL    HW211019   0.512   2.686   0.814
 3374SOL     OW11020   0.715   0.297   3.986
 3374SOL    HW111021   0.622   0.332   3.972
 3374SOL    HW211022   0.741   0.309   4.082
 3375SOL     OW11023   6.893   5.071   6.415
 3375SOL    HW111024   6.881   5.084   6.514
 3375SOL    HW211025   6.923   4.977   6.398
 3376SOL     OW11026   2.506   3.794   5.367
 3376SOL    HW111027   2.605   3.799   5.353
 3376SOL    HW211028   2.461   3.867   5.315
 3377SOL     OW11029   6.158   4.709   3.260
 3377SOL    HW111030   6.216   4.646   3.209
 3377SOL    HW211031   6.120   4.663   3.340
 3378SOL     OW11032   0.902   6.378   0.411
 3378SOL    HW111033   0.837   6.337   0.475
 3378SOL    HW211034   0.993   6.338   0.426
 3379SOL     OW11035   0.221   3.958   3.520
 3379SOL    HW111036   0.289   3.891   3.550
 3379SOL    HW211037   0.262   4.049   3.519
 3380SOL     OW11038   3.529   4.328   5.957
 3380SOL    HW111039   3.561   4.233   5.965
 3380SOL    HW211040   3.429   4.328   5.948
 3381SOL     OW11041   1.563   3.803   1.074
 3381SOL    HW111042   1.564   3.715   1.121
 3381SOL    HW211043   1.657   3.832   1.055
 3382SOL     OW11044   0.338   2.567   1.065
 3382SOL    HW111045   0.401   2.628   1.017
 3382SOL    HW211046   0.344   2.475   1.025
 3383SOL     OW11047   5.286   5.315   0.111
 3383SOL    HW111048   5.192   5.283   0.097
 3383SOL    HW211049   5.296   5.408   0.075
 3384SOL     OW11050   2.354   4.411   0.221
 3384SOL    HW111051   2.388   4.431   0.313
 3384SOL    HW211052   2.294   4.331   0.223
 3385SOL     OW11053   0.706   1.693   3.733
 3385SOL    HW111054   0.721   1.600   3.765
 3385SOL    HW211055   0.648   1.742   3.799
 3386SOL     OW11056   6.573   4.771   6.416
 3386SOL    HW111057   6.515   4.690   6.425
 3386SOL    HW211058   6.666   4.743   6.394
 3387SOL     OW11059   6.478   0.188   3.951
 3387SOL    HW111060   6.405   0.127   3.924
 3387SOL    HW211061   6.480   0.267   3.890
 3388SOL     OW11062   6.304   3.521   1.062
 3388SOL    HW111063   6.385   3.534   1.005
 3388SOL    HW211064   6.267   3.611   1.087
 3389SOL     OW11065   6.290   6.345   0.920
 3389SOL    HW111066   6.191   6.351   0.909
 3389SOL    HW211067   6.314   6.256   0.958
 3390SOL     OW11068   3.765   6.774   6.203
 3390SOL    HW111069   3.845   6.716   6.185
 3390SOL    HW211070   3.690   6.718   6.237
 3391SOL     OW11071   5.537   3.033   3.819
 3391SOL    HW111072   5.457   3.024   3.759
 3391SOL    HW211073   5.507   3.066   3.908
 3392SOL     OW11074   4.307   6.901   5.475
 3392SOL    HW111075   4.264   6.958   5.406
 3392SOL    HW211076   4.237   6.860   5.533
 3393SOL     OW11077   5.706   6.346   1.418
 3393SOL    HW111078   5.673   6.437   1.442
 3393SOL    HW211079   5.796   6.331   1.460
 3394SOL     OW11080   3.180   5.587   1.636
 3394SOL    HW111081   3.141   5.512   1.690
 3394SOL    HW211082   3.156   5.575   1.540
 3395SOL     OW11083   3.046   0.449   3.206
 3395SOL    HW111084   3.048   0.545   3.178
 3395SOL    HW211085   2.951   0.421   3.220
 3396SOL     OW11086   3.939   1.812   4.254
 3396SOL    HW111087   3.932   1.713   4.241
 3396SOL    HW211088   3.952   1.856   4.165
 3397SOL     OW11089   2.306   5.827   6.843
 3397SOL    HW111090   2.358   5.819   6.929
 3397SOL    HW211091   2.324   5.748   6.786
 3398SOL     OW11092   6.958   1.494   4.517
 3398SOL    HW111093   6.951   1.578   4.571
 3398SOL    HW211094   6.868   1.452   4.508
 3399SOL     OW11095   6.781   5.199   2.358
 3399SOL    HW111096   6.783   5.294   2.388
 3399SOL    HW211097   6.815   5.193   2.264
 3400SOL     OW11098   5.679   2.058   5.962
 3400SOL    HW111099   5.640   2.131   6.018
 3400SOL    HW211100   5.775   2.044   5.986
 3401SOL     OW11101   0.330   3.329   5.622
 3401SOL    HW111102   0.338   3.342   5.523
 3401SOL    HW211103   0.268   3.252   5.640
 3402SOL     OW11104   6.446   4.220   1.482
 3402SOL    HW111105   6.483   4.245   1.392
 3402SOL    HW211106   6.471   4.291   1.548
 3403SOL     OW11107   4.313   6.813   6.896
 3403SOL    HW111108   4.366   6.834   6.978
 3403SOL    HW211109   4.220   6.786   6.922
 3404SOL     OW11110   5.318   3.826   4.918
 3404SOL    HW111111   5.284   3.920   4.928
 3404SOL    HW211112   5.252   3.772   4.865
 3405SOL     OW11113   5.539   6.086   5.874
 3405SOL    HW111114   5.535   5.995   5.833
 3405SOL    HW211115   5.474   6.091   5.951
 3406SOL     OW11116   1.842   4.419   1.955
 3406SOL    HW111117   1.843   4.322   1.979
 3406SOL    HW211118   1.935   4.454   1.955
 3407SOL     OW11119   1.271   3.984   0.497
 3407SOL    HW111120   1.252   3.925   0.576
 3407SOL    HW211121   1.188   3.992   0.441
 3408SOL     OW11122   4.790   2.399   3.902
 3408SOL    HW111123   4.844   2.420   3.821
 3408SOL    HW211124   4.737   2.480   3.929
 3409SOL     OW11125   4.920   0.606   0.775
 3409SOL    HW111126   4.933   0.512   0.809
 3409SOL    HW211127   5.004   0.639   0.734
 3410SOL     OW11128   5.037   0.241   2.583
 3410SOL    HW111129   5.043   0.297   2.665
 3410SOL    HW211130   4.941   0.226   2.559
 3411SOL     OW11131   6.962   2.357   0.531
 3411SOL    HW111132   7.000   2.377   0.622
 3411SOL    HW211133   6.976   2.435   0.471
 3412SOL     OW11134   5.545   3.365   1.358
 3412SOL    HW111135   5.460   3.382   1.308
 3412SOL    HW211136   5.558   3.437   1.426
 3413SOL     OW11137   0.241   2.221   6.053
 3413SOL    HW111138   0.302   2.277   6.110
 3413SOL    HW211139   0.290   2.192   5.971
 3414SOL     OW11140   3.420   3.968   0.550
 3414SOL    HW111141   3.336   3.971   0.496
 3414SOL    HW211142   3.416   4.037   0.622
 3415SOL     OW11143   2.140   2.659   5.245
 3415SOL    HW111144   2.041   2.670   5.235
 3415SOL    HW211145   2.176   2.611   5.165
 3416SOL     OW11146   5.825   6.960   6.763
 3416SOL    HW111147   5.925   6.957   6.760
 3416SOL    HW211148   5.792   0.019   6.717
 3417SOL     OW11149   6.580   6.776   3.049
 3417SOL    HW111150   6.528   6.840   2.993
 3417SOL    HW211151   6.665   6.752   3.002
 3418SOL     OW11152   5.140   4.563   1.058
 3418SOL    HW111153   5.129   4.493   1.129
 3418SOL    HW211154   5.050   4.593   1.027
 3419SOL     OW11155   3.377   5.991   6.058
 3419SOL    HW111156   3.332   6.059   6.000
 3419SOL    HW211157   3.356   6.010   6.154
 3420SOL     OW11158   4.251   2.263   3.457
 3420SOL    HW111159   4.333   2.209   3.476
 3420SOL    HW211160   4.170   2.208   3.474
 3421SOL     OW11161   6.104   2.352   3.427
 3421SOL    HW111162   6.108   2.442   3.470
 3421SOL    HW211163   6.069   2.286   3.493
 3422SOL     OW11164   2.124   0.058   1.010
 3422SOL    HW111165   2.032   0.042   0.976
 3422SOL    HW211166   2.191   0.027   0.943
 3423SOL     OW11167   1.019   4.942   5.916
 3423SOL    HW111168   0.919   4.944   5.913
 3423SOL    HW211169   1.054   4.946   5.822
 3424SOL     OW11170   4.445   0.341   1.831
 3424SOL    HW111171   4.415   0.425   1.877
 3424SOL    HW211172   4.513   0.295   1.888
 3425SOL     OW11173   5.512   3.680   1.231
 3425SOL    HW111174   5.593   3.737   1.249
 3425SOL    HW211175   5.539   3.602   1.174
 3426SOL     OW11176   5.363   2.886   6.945
 3426SOL    HW111177   5.457   2.852   6.932
 3426SOL    HW211178   5.324   2.845   0.004
 3427SOL     OW11179   0.934   2.772   0.227
 3427SOL    HW111180   0.965   2.688   0.271
 3427SOL    HW211181   0.853   2.807   0.275
 3428SOL     OW11182   5.141   6.004   5.787
 3428SOL    HW111183   5.055   6.055   5.784
 3428SOL    HW211184   5.132   5.926   5.849
 3429SOL     OW11185   6.519   0.649   0.848
 3429SOL    HW111186   6.586   0.723   0.843
 3429SOL    HW211187   6.427   0.686   0.833
 3430SOL     OW11188   1.772   4.538   5.395
 3430SOL    HW111189   1.749   4.589   5.312
 3430SOL    HW211190   1.871   4.530   5.404
 3431SOL     OW11191   2.241   6.112   2.962
 3431SOL    HW111192   2.233   6.200   3.009
 3431SOL    HW211193   2.152   6.084   2.927
 3432SOL     OW11194   1.895   4.203   1.269
 3432SOL    HW111195   1.946   4.247   1.344
 3432SOL    HW211196   1.825   4.143   1.307
 3433SOL     OW11197   2.611   1.019   6.615
 3433SOL    HW111198   2.596   1.048   6.710
 3433SOL    HW211199   2.676   0.943   6.613
 3434SOL     OW11200   2.847   2.331   1.147
 3434SOL    HW111201   2.750   2.311   1.162
 3434SOL    HW211202   2.863   2.428   1.162
 3435SOL     OW11203   2.340   0.728   6.964
 3435SOL    HW111204   2.400   0.737   0.021
 3435SOL    HW211205   2.350   0.637   6.925
 3436SOL     OW11206   3.508   5.941   6.987
 3436SOL    HW111207   3.526   5.933   6.889
 3436SOL    HW211208   3.460   6.027   7.004
 3437SOL     OW11209   1.541   6.392   6.603
 3437SOL    HW111210   1.592   6.477   6.618
 3437SOL    HW211211   1.596   6.331   6.546
 3438SOL     OW11212   1.076   3.825   1.421
 3438SOL    HW111213   1.071   3.842   1.519
 3438SOL    HW211214   1.056   3.729   1.402
 3439SOL     OW11215   2.307   5.858   2.035
 3439SOL    HW111216   2.358   5.789   1.983
 3439SOL    HW211217   2.245   5.813   2.099
 3440SOL     OW11218   4.055   3.866   4.555
 3440SOL    HW111219   4.034   3.769   4.543
 3440SOL    HW211220   4.154   3.879   4.560
 3441SOL     OW11221   5.180   5.184   5.687
 3441SOL    HW111222   5.147   5.248   5.757
 3441SOL    HW211223   5.204   5.234   5.605
 3442SOL     OW11224   3.598   3.283   0.754
 3442SOL    HW111225   3.644   3.372   0.761
 3442SOL    HW211226   3.553   3.262   0.841
 3443SOL     OW11227   2.017   6.357   1.990
 3443SOL    HW111228   2.027   6.390   1.897
 3443SOL    HW211229   1.996   6.434   2.051
 3444SOL     OW11230   5.951   3.660   0.632
 3444SOL    HW111231   5.983   3.641   0.725
 3444SOL    HW211232   5.861   3.619   0.618
 3445SOL     OW11233   5.546   4.331   3.280
 3445SOL    HW111234   5.585   4.249   3.322
 3445SOL    HW211235   5.497   4.384   3.349
 3446SOL     OW11236   5.030   1.201   1.116
 3446SOL    HW111237   4.958   1.153   1.165
 3446SOL    HW211238   5.085   1.254   1.181
 3447SOL     OW11239   5.412   1.094   6.967
 3447SOL    HW111240   5.504   1.064   6.940
 3447SOL    HW211241   5.362   1.123   6.886
 3448SOL     OW11242   1.524   6.077   4.636
 3448SOL    HW111243   1.463   6.108   4.708
 3448SOL    HW211244   1.569   5.992   4.664
 3449SOL     OW11245   5.953   4.070   5.377
 3449SOL    HW111246   6.009   4.081   5.458
 3449SOL    HW211247   6.006   4.026   5.305
 3450SOL     OW11248   1.224   6.192   1.005
 3450SOL    HW111249   1.142   6.176   1.059
 3450SOL    HW211250   1.210   6.159   0.911
 3451SOL     OW11251   2.434   0.332   1.071
 3451SOL    HW111252   2.527   0.316   1.104
 3451SOL    HW211253   2.375   0.361   1.147
 3452SOL     OW11254   4.619   0.284   4.979
 3452SOL    HW111255   4.624   0.186   4.962
 3452SOL    HW211256   4.701   0.313   5.030
 3453SOL     OW11257   4.679   6.426   6.050
 3453SOL    HW111258   4.714   6.400   6.140
 3453SOL    HW211259   4.676   6.526   6.042
 3454SOL     OW11260   1.291   2.791   1.860
 3454SOL    HW111261   1.267   2.795   1.957
 3454SOL    HW211262   1.211   2.765   1.806
 3455SOL     OW11263   0.628   3.582   6.066
 3455SOL    HW111264   0.714   3.536   6.045
 3455SOL    HW211265   0.640   3.644   6.143
 3456SOL     OW11266   5.297   4.344   2.331
 3456SOL    HW111267   5.280   4.421   2.393
 3456SOL    HW211268   5.371   4.287   2.368
 3457SOL     OW11269   3.584   5.367   5.284
 3457SOL    HW111270   3.636   5.451   5.276
 3457SOL    HW211271   3.562   5.332   5.193
 3458SOL     OW11272   3.985   1.604   2.824
 3458SOL    HW111273   4.065   1.582   2.768
 3458SOL    HW211274   4.011   1.667   2.897
 3459SOL     OW11275   4.490   6.925   3.422
 3459SOL    HW111276   4.568   6.936   3.362
 3459SOL    HW211277   4.474   7.010   3.473
 3460SOL     OW11278   4.288   1.533   5.299
 3460SOL    HW111279   4.234   1.533   5.383
 3460SOL    HW211280   4.334   1.445   5.289
 3461SOL     OW11281   5.779   5.358   5.699
 3461SOL    HW111282   5.778   5.271   5.748
 3461SOL    HW211283   5.752   5.344   5.604
 3462SOL     OW11284   1.738   4.412   6.988
 3462SOL    HW111285   1.794   4.408   0.048
 3462SOL    HW211286   1.757   4.332   6.931
 3463SOL     OW11287   6.074   4.146   1.006
 3463SOL    HW111288   6.101   4.225   0.951
 3463SOL    HW211289   6.047   4.177   1.098
 3464SOL     OW11290   0.307   4.695   6.436
 3464SOL    HW111291   0.379   4.755   6.471
 3464SOL    HW211292   0.327   4.670   6.341
 3465SOL     OW11293   2.192   0.581   1.023
 3465SOL    HW111294   2.109   0.527   1.006
 3465SOL    HW211295   2.190   0.616   1.116
 3466SOL     OW11296   6.446   3.809   5.187
 3466SOL    HW111297   6.432   3.710   5.183
 3466SOL    HW211298   6.467   3.842   5.095
 3467SOL     OW11299   1.854   2.012   6.950
 3467SOL    HW111300   1.851   2.075   6.872
 3467SOL    HW211301   1.867   2.064   0.011
 3468SOL     OW11302   3.041   0.254   4.437
 3468SOL    HW111303   3.064   0.236   4.532
 3468SOL    HW211304   2.997   0.343   4.429
 3469SOL     OW11305   5.829   2.273   2.997
 3469SOL    HW111306   5.758   2.324   2.949
 3469SOL    HW211307   5.908   2.261   2.938
 3470SOL     OW11308   0.185   5.769   0.873
 3470SOL    HW111309   0.201   5.670   0.868
 3470SOL    HW211310   0.257   5.817   0.823
 3471SOL     OW11311   3.891   6.187   5.057
 3471SOL    HW111312   3.873   6.161   4.962
 3471SOL    HW211313   3.989   6.181   5.075
 3472SOL     OW11314   2.863   1.179   5.471
 3472SOL    HW111315   2.772   1.209   5.444
 3472SOL    HW211316   2.856   1.124   5.555
 3473SOL     OW11317   5.048   0.458   6.218
 3473SOL    HW111318   5.011   0.444   6.126
 3473SOL    HW211319   5.077   0.370   6.256
 3474SOL     OW11320   4.831   5.345   1.184
 3474SOL    HW111321   4.802   5.379   1.273
 3474SOL    HW211322   4.926   5.314   1.189
 3475SOL     OW11323   1.513   5.895   4.422
 3475SOL    HW111324   1.524   5.975   4.481
 3475SOL    HW211325   1.422   5.896   4.380
 3476SOL     OW11326   4.751   0.891   4.506
 3476SOL    HW111327   4.706   0.966   4.457
 3476SOL    HW211328   4.700   0.806   4.490
 3477SOL     OW11329   3.859   6.353   1.169
 3477SOL    HW111330   3.828   6.293   1.095
 3477SOL    HW211331   3.834   6.312   1.257
 3478SOL     OW11332   3.979   5.156   0.670
 3478SOL    HW111333   3.918   5.100   0.614
 3478SOL    HW211334   4.016   5.101   0.744
 3479SOL     OW11335   0.785   0.518   1.993
 3479SOL    HW111336   0.790   0.452   1.918
 3479SOL    HW211337   0.876   0.531   2.032
 3480SOL     OW11338   0.727   1.337   3.414
 3480SOL    HW111339   0.793   1.357   3.342
 3480SOL    HW211340   0.697   1.422   3.458
 3481SOL     OW11341   2.513   6.584   0.025
 3481SOL    HW111342   2.595   6.539   7.012
 3481SOL    HW211343   2.540   6.661   0.083
 3482SOL     OW11344   0.331   2.497   0.013
 3482SOL    HW111345   0.394   2.480   0.089
 3482SOL    HW211346   0.288   2.587   0.025
 3483SOL     OW11347   3.185   0.028   1.294
 3483SOL    HW111348   3.243   0.108   1.312
 3483SOL    HW211349   3.178   6.996   1.377
 3484SOL     OW11350   4.047   3.844   3.414
 3484SOL    HW111351   4.058   3.849   3.315
 3484SOL    HW211352   4.065   3.750   3.445
 3485SOL     OW11353   1.105   2.450   5.257
 3485SOL    HW111354   1.140   2.440   5.164
 3485SOL    HW211355   1.076   2.360   5.290
 3486SOL     OW11356   4.351   1.818   1.933
 3486SOL    HW111357   4.432   1.876   1.942
 3486SOL    HW211358   4.300   1.818   2.019
 3487SOL     OW11359   6.417   1.338   6.759
 3487SOL    HW111360   6.465   1.253   6.738
 3487SOL    HW211361   6.400   1.389   6.675
 3488SOL     OW11362   5.218   3.348   3.920
 3488SOL    HW111363   5.255   3.358   3.828
 3488SOL    HW211364   5.182   3.255   3.932
 3489SOL     OW11365   3.746   0.774   1.266
 3489SOL    HW111366   3.782   0.743   1.354
 3489SOL    HW211367   3.765   0.706   1.196
 3490SOL     OW11368   3.968   4.321   6.764
 3490SOL    HW111369   3.890   4.373   6.799
 3490SOL    HW211370   4.053   4.361   6.797
 3491SOL     OW11371   0.216   2.852   4.652
 3491SOL    HW111372   0.158   2.828   4.730
 3491SOL    HW211373   0.173   2.926   4.600
 3492SOL     OW11374   6.751   4.362   6.800
 3492SOL    HW111375   6.781   4.291   6.736
 3492SOL    HW211376   6.666   4.333   6.845
 3493SOL     OW11377   6.587   4.728   0.958
 3493SOL    HW111378   6.604   4.705   0.862
 3493SOL    HW211379   6.560   4.825   0.965
 3494SOL     OW11380   3.394   0.619   0.479
 3494SOL    HW111381   3.442   0.668   0.407
 3494SOL    HW211382   3.454   0.610   0.559
 3495SOL     OW11383   4.920   4.711   1.000
 3495SOL    HW111384   4.835   4.725   1.051
 3495SOL    HW211385   4.906   4.739   0.905
 3496SOL     OW11386   2.379   3.023   1.029
 3496SOL    HW111387   2.447   2.983   1.090
 3496SOL    HW211388   2.316   2.952   0.998
 3497SOL     OW11389   4.354   0.448   3.935
 3497SOL    HW111390   4.282   0.516   3.940
 3497SOL    HW211391   4.412   0.465   3.855
 3498SOL     OW11392   2.518   1.540   1.981
 3498SOL    HW111393   2.511   1.640   1.983
 3498SOL    HW211394   2.588   1.513   1.915
 3499SOL     OW11395   6.532   3.162   3.806
 3499SOL    HW111396   6.541   3.258   3.777
 3499SOL    HW211397   6.536   3.103   3.725
 3500SOL     OW11398   6.152   3.943   6.822
 3500SOL    HW111399   6.230   3.985   6.775
 3500SOL    HW211400   6.153   3.969   6.918
 3501SOL     OW11401   1.371   4.395   4.298
 3501SOL    HW111402   1.369   4.298   4.275
 3501SOL    HW211403   1.283   4.422   4.337
 3502SOL     OW11404   1.012   3.273   1.295
 3502SOL    HW111405   0.972   3.308   1.210
 3502SOL    HW211406   0.939   3.254   1.361
 3503SOL     OW11407   5.205   5.983   4.821
 3503SOL    HW111408   5.198   5.883   4.817
 3503SOL    HW211409   5.246   6.017   4.737
 3504SOL     OW11410   2.289   3.366   1.638
 3504SOL    HW111411   2.313   3.411   1.724
 3504SOL    HW211412   2.275   3.436   1.567
 3505SOL     OW11413   5.228   5.034   5.236
 3505SOL    HW111414   5.270   4.954   5.280
 3505SOL    HW211415   5.130   5.035   5.254
 3506SOL     OW11416   4.805   5.477   3.206
 3506SOL    HW111417   4.753   5.513   3.284
 3506SOL    HW211418   4.808   5.377   3.213
 3507SOL     OW11419   0.928   6.641   6.442
 3507SOL    HW111420   0.975   6.730   6.448
 3507SOL    HW211421   0.947   6.588   6.524
 3508SOL     OW11422   5.707   3.608   6.642
 3508SOL    HW111423   5.760   3.672   6.586
 3508SOL    HW211424   5.768   3.563   6.707
 3509SOL     OW11425   6.657   6.659   0.710
 3509SOL    HW111426   6.677   6.578   0.766
 3509SOL    HW211427   6.568   6.648   0.667
 3510SOL     OW11428   2.311   2.741   2.294
 3510SOL    HW111429   2.355   2.820   2.336
 3510SOL    HW211430   2.375   2.665   2.290
 3511SOL     OW11431   0.715   1.899   6.486
 3511SOL    HW111432   0.750   1.915   6.579
 3511SOL    HW211433   0.763   1.821   6.446
 3512SOL     OW11434   2.494   3.383   0.929
 3512SOL    HW111435   2.580   3.331   0.926
 3512SOL    HW211436   2.465   3.395   1.024
 3513SOL     OW11437   6.117   4.610   1.395
 3513SOL    HW111438   6.062   4.586   1.316
 3513SOL    HW211439   6.088   4.698   1.431
 3514SOL     OW11440   0.163   6.062   1.600
 3514SOL    HW111441   0.235   6.047   1.668
 3514SOL    HW211442   0.176   6.151   1.557
 3515SOL     OW11443   3.032   6.266   3.637
 3515SOL    HW111444   2.966   6.190   3.631
 3515SOL    HW211445   3.048   6.303   3.545
 3516SOL     OW11446   3.246   1.315   1.174
 3516SOL    HW111447   3.235   1.287   1.079
 3516SOL    HW211448   3.186   1.392   1.194
 3517SOL     OW11449   1.324   1.129   6.304
 3517SOL    HW111450   1.342   1.089   6.215
 3517SOL    HW211451   1.410   1.143   6.353
 3518SOL     OW11452   4.274   2.735   5.745
 3518SOL    HW111453   4.202   2.775   5.688
 3518SOL    HW211454   4.363   2.770   5.716
 3519SOL     OW11455   1.888   6.252   0.211
 3519SOL    HW111456   1.817   6.265   0.281
 3519SOL    HW211457   1.847   6.215   0.128
 3520SOL     OW11458   3.952   5.738   1.270
 3520SOL    HW111459   4.036   5.792   1.283
 3520SOL    HW211460   3.966   5.672   1.197
 3521SOL     OW11461   6.240   2.593   0.864
 3521SOL    HW111462   6.145   2.599   0.834
 3521SOL    HW211463   6.253   2.651   0.944
 3522SOL     OW11464   3.261   4.919   2.543
 3522SOL    HW111465   3.249   4.923   2.443
 3522SOL    HW211466   3.309   5.001   2.574
 3523SOL     OW11467   2.307   4.627   5.026
 3523SOL    HW111468   2.334   4.562   4.955
 3523SOL    HW211469   2.363   4.611   5.108
 3524SOL     OW11470   2.812   0.286   0.551
 3524SOL    HW111471   2.866   0.201   0.557
 3524SOL    HW211472   2.810   0.329   0.641
 3525SOL     OW11473   0.784   2.571   2.632
 3525SOL    HW111474   0.848   2.641   2.601
 3525SOL    HW211475   0.834   2.489   2.660
 3526SOL     OW11476   1.874   1.069   2.323
 3526SOL    HW111477   1.946   1.127   2.285
 3526SOL    HW211478   1.795   1.068   2.261
 3527SOL     OW11479   5.539   2.811   5.769
 3527SOL    HW111480   5.614   2.834   5.707
 3527SOL    HW211481   5.561   2.841   5.862
 3528SOL     OW11482   0.221   6.788   4.755
 3528SOL    HW111483   0.208   6.887   4.770
 3528SOL    HW211484   0.158   6.738   4.814
 3529SOL     OW11485   3.770   6.357   6.194
 3529SOL    HW111486   3.797   6.297   6.269
 3529SOL    HW211487   3.846   6.418   6.171
 3530SOL     OW11488   2.017   5.486   3.513
 3530SOL    HW111489   2.095   5.431   3.484
 3530SOL    HW211490   2.048   5.575   3.545
 3531SOL     OW11491   5.670   4.111   7.011
 3531SOL    HW111492   5.651   4.209   7.011
 3531SOL    HW211493   5.583   4.061   7.011
 3532SOL     OW11494   1.883   6.643   6.773
 3532SOL    HW111495   1.974   6.668   6.807
 3532SOL    HW211496   1.840   6.578   6.835
 3533SOL     OW11497   1.308   1.348   2.907
 3533SOL    HW111498   1.234   1.285   2.932
 3533SOL    HW211499   1.269   1.436   2.883
 3534SOL     OW11500   4.940   0.699   4.961
 3534SOL    HW111501   4.886   0.750   4.893
 3534SOL    HW211502   4.934   0.601   4.941
 3535SOL     OW11503   5.316   5.244   5.979
 3535SOL    HW111504   5.318   5.189   6.063
 3535SOL    HW211505   5.222   5.272   5.961
 3536SOL     OW11506   1.114   4.082   3.231
 3536SOL    HW111507   1.054   4.010   3.266
 3536SOL    HW211508   1.080   4.113   3.142
 3537SOL     OW11509   2.708   5.570   1.152
 3537SOL    HW111510   2.670   5.621   1.229
 3537SOL    HW211511   2.768   5.498   1.186
 3538SOL     OW11512   2.689   0.950   4.154
 3538SOL    HW111513   2.598   0.942   4.114
 3538SOL    HW211514   2.720   0.861   4.187
 3539SOL     OW11515   4.871   5.439   5.769
 3539SOL    HW111516   4.820   5.385   5.702
 3539SOL    HW211517   4.947   5.486   5.723
 3540SOL     OW11518   3.044   3.303   0.044
 3540SOL    HW111519   2.953   3.320   0.082
 3540SOL    HW211520   3.109   3.289   0.119
 3541SOL     OW11521   3.682   2.731   0.777
 3541SOL    HW111522   3.596   2.698   0.816
 3541SOL    HW211523   3.685   2.709   0.680
 3542SOL     OW11524   5.410   2.376   6.416
 3542SOL    HW111525   5.416   2.444   6.489
 3542SOL    HW211526   5.340   2.403   6.350
 3543SOL     OW11527   1.024   2.605   3.736
 3543SOL    HW111528   1.101   2.660   3.768
 3543SOL    HW211529   1.024   2.600   3.636
 3544SOL     OW11530   2.726   4.367   6.113
 3544SOL    HW111531   2.706   4.465   6.118
 3544SOL    HW211532   2.711   4.325   6.202
 3545SOL     OW11533   3.609   6.639   1.665
 3545SOL    HW111534   3.571   6.579   1.735
 3545SOL    HW211535   3.577   6.609   1.575
 3546SOL     OW11536   0.279   3.418   3.378
 3546SOL    HW111537   0.238   3.331   3.350
 3546SOL    HW211538   0.217   3.465   3.441
 3547SOL     OW11539   0.399   3.725   5.486
 3547SOL    HW111540   0.401   3.742   5.585
 3547SOL    HW211541   0.492   3.712   5.453
 3548SOL     OW11542   5.915   0.353   4.925
 3548SOL    HW111543   5.965   0.288   4.868
 3548SOL    HW211544   5.973   0.385   4.999
 3549SOL     OW11545   2.706   5.883   6.727
 3549SOL    HW111546   2.656   5.967   6.745
 3549SOL    HW211547   2.653   5.824   6.666
 3550SOL     OW11548   5.520   1.142   5.374
 3550SOL    HW111549   5.562   1.232   5.364
 3550SOL    HW211550   5.429   1.143   5.331
 3551SOL     OW11551   4.069   1.949   4.455
 3551SOL    HW111552   4.077   1.928   4.553
 3551SOL    HW211553   3.987   1.906   4.418
 3552SOL     OW11554   0.531   6.035   2.850
 3552SOL    HW111555   0.459   6.008   2.912
 3552SOL    HW211556   0.515   5.993   2.760
 3553SOL     OW11557   4.242   5.675   0.149
 3553SOL    HW111558   4.211   5.599   0.091
 3553SOL    HW211559   4.216   5.657   0.244
 3554SOL     OW11560   4.768   3.463   1.028
 3554SOL    HW111561   4.826   3.398   0.980
 3554SOL    HW211562   4.748   3.540   0.967
 3555SOL     OW11563   2.553   2.034   5.039
 3555SOL    HW111564   2.576   2.127   5.068
 3555SOL    HW211565   2.521   1.982   5.117
 3556SOL     OW11566   4.799   0.796   5.829
 3556SOL    HW111567   4.862   0.767   5.756
 3556SOL    HW211568   4.852   0.821   5.911
 3557SOL     OW11569   6.587   1.073   1.419
 3557SOL    HW111570   6.577   0.979   1.449
 3557SOL    HW211571   6.498   1.107   1.387
 3558SOL     OW11572   3.202   5.892   1.900
 3558SOL    HW111573   3.199   5.806   1.953
 3558SOL    HW211574   3.239   5.965   1.957
 3559SOL     OW11575   4.025   5.948   4.673
 3559SOL    HW111576   3.950   5.904   4.623
 3559SOL    HW211577   4.029   5.912   4.766
 3560SOL     OW11578   2.236   5.859   4.300
 3560SOL    HW111579   2.332   5.871   4.278
 3560SOL    HW211580   2.184   5.840   4.217
 3561SOL     OW11581   4.844   4.166   5.318
 3561SOL    HW111582   4.839   4.239   5.250
 3561SOL    HW211583   4.806   4.198   5.404
 3562SOL     OW11584   2.078   1.400   5.548
 3562SOL    HW111585   2.111   1.468   5.614
 3562SOL    HW211586   2.149   1.379   5.482
 3563SOL     OW11587   5.742   2.310   5.566
 3563SOL    HW111588   5.825   2.260   5.592
 3563SOL    HW211589   5.674   2.245   5.530
 3564SOL     OW11590   6.532   4.452   1.967
 3564SOL    HW111591   6.628   4.461   1.994
 3564SOL    HW211592   6.490   4.379   2.021
 3565SOL     OW11593   3.658   5.749   3.056
 3565SOL    HW111594   3.723   5.823   3.036
 3565SOL    HW211595   3.708   5.671   3.093
 3566SOL     OW11596   1.395   0.764   5.719
 3566SOL    HW111597   1.482   0.771   5.670
 3566SOL    HW211598   1.412   0.739   5.814
 3567SOL     OW11599   0.640   4.153   6.384
 3567SOL    HW111600   0.603   4.160   6.291
 3567SOL    HW211601   0.600   4.072   6.429
 3568SOL     OW11602   6.138   3.638   5.816
 3568SOL    HW111603   6.135   3.646   5.915
 3568SOL    HW211604   6.083   3.560   5.786
 3569SOL     OW11605   1.747   2.120   5.147
 3569SOL    HW111606   1.741   2.142   5.050
 3569SOL    HW211607   1.831   2.069   5.165
 3570SOL     OW11608   5.932   1.325   4.092
 3570SOL    HW111609   5.931   1.367   4.183
 3570SOL    HW211610   5.877   1.242   4.093
 3571SOL     OW11611   6.340   5.850   6.019
 3571SOL    HW111612   6.251   5.827   5.979
 3571SOL    HW211613   6.339   5.828   6.117
 3572SOL     OW11614   5.687   4.288   4.633
 3572SOL    HW111615   5.766   4.240   4.672
 3572SOL    HW211616   5.621   4.222   4.599
 3573SOL     OW11617   1.248   3.219   3.259
 3573SOL    HW111618   1.225   3.176   3.347
 3573SOL    HW211619   1.259   3.148   3.190
 3574SOL     OW11620   0.598   4.021   0.497
 3574SOL    HW111621   0.551   4.085   0.558
 3574SOL    HW211622   0.532   3.958   0.457
 3575SOL     OW11623   5.882   4.667   2.247
 3575SOL    HW111624   5.815   4.723   2.297
 3575SOL    HW211625   5.879   4.691   2.150
 3576SOL     OW11626   0.651   1.127   6.266
 3576SOL    HW111627   0.570   1.116   6.208
 3576SOL    HW211628   0.637   1.080   6.353
 3577SOL     OW11629   0.375   3.205   6.818
 3577SOL    HW111630   0.309   3.141   6.857
 3577SOL    HW211631   0.327   3.281   6.776
 3578SOL     OW11632   3.044   4.883   0.729
 3578SOL    HW111633   2.978   4.928   0.669
 3578SOL    HW211634   3.006   4.798   0.763
 3579SOL     OW11635   6.654   3.719   4.943
 3579SOL    HW111636   6.614   3.811   4.950
 3579SOL    HW211637   6.580   3.652   4.930
 3580SOL     OW11638   6.596   1.964   2.085
 3580SOL    HW111639   6.625   2.058   2.066
 3580SOL    HW211640   6.630   1.937   2.175
 3581SOL     OW11641   0.439   0.747   2.685
 3581SOL    HW111642   0.385   0.799   2.619
 3581SOL    HW211643   0.412   0.772   2.778
 3582SOL     OW11644   1.372   0.094   6.219
 3582SOL    HW111645   1.302   0.145   6.169
 3582SOL    HW211646   1.343   7.022   6.229
 3583SOL     OW11647   1.129   5.580   0.077
 3583SOL    HW111648   1.137   5.578   0.176
 3583SOL    HW211649   1.218   5.603   0.037
 3584SOL     OW11650   5.351   6.138   6.506
 3584SOL    HW111651   5.300   6.052   6.508
 3584SOL    HW211652   5.322   6.195   6.582
 3585SOL     OW11653   3.416   4.910   4.182
 3585SOL    HW111654   3.384   4.989   4.234
 3585SOL    HW211655   3.377   4.826   4.221
 3586SOL     OW11656   6.411   3.680   5.789
 3586SOL    HW111657   6.318   3.651   5.813
 3586SOL    HW211658   6.416   3.701   5.692
 3587SOL     OW11659   4.061   6.352   0.523
 3587SOL    HW111660   4.106   6.421   0.581
 3587SOL    HW211661   3.975   6.389   0.488
 3588SOL     OW11662   1.245   2.311   6.165
 3588SOL    HW111663   1.325   2.371   6.165
 3588SOL    HW211664   1.267   2.227   6.215
 3589SOL     OW11665   2.880   0.678   5.425
 3589SOL    HW111666   2.919   0.762   5.462
 3589SOL    HW211667   2.783   0.693   5.404
 3590SOL     OW11668   1.671   5.459   5.824
 3590SOL    HW111669   1.680   5.425   5.730
 3590SOL    HW211670   1.716   5.395   5.887
 3591SOL     OW11671   5.147   2.195   6.050
 3591SOL    HW111672   5.058   2.206   6.006
 3591SOL    HW211673   5.212   2.259   6.010
 3592SOL     OW11674   5.333   2.960   2.833
 3592SOL    HW111675   5.254   3.004   2.876
 3592SOL    HW211676   5.304   2.875   2.789
 3593SOL     OW11677   1.525   6.742   3.675
 3593SOL    HW111678   1.429   6.735   3.649
 3593SOL    HW211679   1.549   6.838   3.691
 3594SOL     OW11680   2.774   1.205   3.928
 3594SOL    HW111681   2.701   1.198   3.860
 3594SOL    HW211682   2.836   1.128   3.917
 3595SOL     OW11683   2.677   6.379   6.280
 3595SOL    HW111684   2.690   6.468   6.324
 3595SOL    HW211685   2.602   6.331   6.326
 3596SOL     OW11686   6.597   1.390   2.044
 3596SOL    HW111687   6.694   1.411   2.033
 3596SOL    HW211688   6.553   1.462   2.098
 3597SOL     OW11689   3.763   5.917   4.449
 3597SOL    HW111690   3.754   5.897   4.547
 3597SOL    HW211691   3.768   5.832   4.398
 3598SOL     OW11692   1.221   6.999   5.951
 3598SOL    HW111693   1.292   6.933   5.976
 3598SOL    HW211694   1.132   6.954   5.951
 3599SOL     OW11695   6.907   1.747   5.254
 3599SOL    HW111696   7.001   1.738   5.221
 3599SOL    HW211697   6.886   1.843   5.270
 3600SOL     OW11698   5.971   2.579   0.848
 3600SOL    HW111699   5.988   2.669   0.889
 3600SOL    HW211700   5.905   2.529   0.904
 3601SOL     OW11701   0.143   3.994   0.220
 3601SOL    HW111702   0.204   3.926   0.179
 3601SOL    HW211703   0.197   4.058   0.275
 3602SOL     OW11704   2.209   1.185   6.804
 3602SOL    HW111705   2.132   1.227   6.853
 3602SOL    HW211706   2.208   1.086   6.819
 3603SOL     OW11707   3.994   4.812   3.537
 3603SOL    HW111708   4.077   4.803   3.591
 3603SOL    HW211709   3.974   4.726   3.491
 3604SOL     OW11710   0.191   2.038   2.856
 3604SOL    HW111711   0.228   1.960   2.908
 3604SOL    HW211712   0.092   2.028   2.848
 3605SOL     OW11713   5.825   3.767   6.424
 3605SOL    HW111714   5.873   3.851   6.447
 3605SOL    HW211715   5.859   3.732   6.337
 3606SOL     OW11716   6.785   4.348   5.354
 3606SOL    HW111717   6.849   4.289   5.403
 3606SOL    HW211718   6.738   4.408   5.419
 3607SOL     OW11719   4.967   6.923   0.660
 3607SOL    HW111720   5.014   6.925   0.572
 3607SOL    HW211721   4.936   6.830   0.679
 3608SOL     OW11722   0.672   2.258   1.644
 3608SOL    HW111723   0.762   2.219   1.620
 3608SOL    HW211724   0.648   2.231   1.737
 3609SOL     OW11725   6.586   0.900   5.125
 3609SOL    HW111726   6.571   0.998   5.125
 3609SOL    HW211727   6.634   0.873   5.041
 3610SOL     OW11728   1.150   6.295   5.803
 3610SOL    HW111729   1.222   6.316   5.737
 3610SOL    HW211730   1.100   6.379   5.826
 3611SOL     OW11731   3.298   5.450   5.311
 3611SOL    HW111732   3.259   5.390   5.379
 3611SOL    HW211733   3.397   5.436   5.307
 3612SOL     OW11734   1.043   6.325   0.825
 3612SOL    HW111735   1.064   6.230   0.800
 3612SOL    HW211736   1.067   6.385   0.749
 3613SOL     OW11737   5.405   4.754   0.400
 3613SOL    HW111738   5.463   4.674   0.391
 3613SOL    HW211739   5.311   4.731   0.374
 3614SOL     OW11740   3.666   3.174   2.766
 3614SOL    HW111741   3.613   3.200   2.846
 3614SOL    HW211742   3.606   3.132   2.698
 3615SOL     OW11743   5.543   5.686   5.486
 3615SOL    HW111744   5.469   5.744   5.452
 3615SOL    HW211745   5.630   5.720   5.450
 3616SOL     OW11746   6.793   2.208   5.381
 3616SOL    HW111747   6.871   2.226   5.441
 3616SOL    HW211748   6.781   2.109   5.372
 3617SOL     OW11749   6.539   2.085   6.321
 3617SOL    HW111750   6.528   2.128   6.411
 3617SOL    HW211751   6.551   2.156   6.252
 3618SOL     OW11752   1.940   1.736   5.893
 3618SOL    HW111753   1.850   1.718   5.852
 3618SOL    HW211754   1.979   1.818   5.851
 3619SOL     OW11755   5.644   1.982   3.853
 3619SOL    HW111756   5.724   2.023   3.896
 3619SOL    HW211757   5.652   1.883   3.855
 3620SOL     OW11758   5.791   0.527   5.356
 3620SOL    HW111759   5.746   0.597   5.413
 3620SOL    HW211760   5.853   0.572   5.291
 3621SOL     OW11761   2.616   2.753   5.927
 3621SOL    HW111762   2.531   2.803   5.910
 3621SOL    HW211763   2.597   2.655   5.926
 3622SOL     OW11764   0.856   2.006   2.262
 3622SOL    HW111765   0.870   1.907   2.268
 3622SOL    HW211766   0.842   2.031   2.166
 3623SOL     OW11767   5.370   5.113   3.861
 3623SOL    HW111768   5.395   5.018   3.841
 3623SOL    HW211769   5.336   5.157   3.777
 3624SOL     OW11770   2.483   6.905   3.076
 3624SOL    HW111771   2.388   6.933   3.066
 3624SOL    HW211772   2.538   6.983   3.104
 3625SOL     OW11773   6.061   3.015   5.615
 3625SOL    HW111774   6.081   3.085   5.547
 3625SOL    HW211775   6.059   3.056   5.706
 3626SOL     OW11776   1.746   3.663   5.124
 3626SOL    HW111777   1.752   3.563   5.122
 3626SOL    HW211778   1.829   3.701   5.166
 3627SOL     OW11779   3.776   3.852   3.389
 3627SOL    HW111780   3.872   3.848   3.417
 3627SOL    HW211781   3.771   3.864   3.290
 3628SOL     OW11782   2.187   5.726   2.255
 3628SOL    HW111783   2.158   5.816   2.287
 3628SOL    HW211784   2.119   5.658   2.282
 3629SOL     OW11785   5.886   1.919   5.366
 3629SOL    HW111786   5.843   1.848   5.421
 3629SOL    HW211787   5.871   1.900   5.269
 3630SOL     OW11788   5.845   2.401   4.702
 3630SOL    HW111789   5.765   2.401   4.761
 3630SOL    HW211790   5.837   2.476   4.636
 3631SOL     OW11791   2.452   0.201   4.383
 3631SOL    HW111792   2.373   0.152   4.348
 3631SOL    HW211793   2.482   0.159   4.469
 3632SOL     OW11794   5.068   0.948   0.980
 3632SOL    HW111795   5.078   1.032   1.032
 3632SOL    HW211796   5.054   0.970   0.883
 3633SOL     OW11797   2.912   2.604   6.156
 3633SOL    HW111798   2.846   2.674   6.185
 3633SOL    HW211799   2.914   2.600   6.056
 3634SOL     OW11800   1.844   6.385   4.785
 3634SOL    HW111801   1.845   6.452   4.711
 3634SOL    HW211802   1.902   6.418   4.860
 3635SOL     OW11803   2.632   1.540   5.290
 3635SOL    HW111804   2.691   1.534   5.371
 3635SOL    HW211805   2.672   1.603   5.224
 3636SOL     OW11806   0.098   5.988   6.016
 3636SOL    HW111807   0.010   5.942   6.031
 3636SOL    HW211808   0.085   6.087   6.015
 3637SOL     OW11809   5.819   1.586   1.971
 3637SOL    HW111810   5.793   1.496   1.935
 3637SOL    HW211811   5.917   1.587   1.991
 3638SOL     OW11812   6.551   4.266   4.100
 3638SOL    HW111813   6.609   4.203   4.048
 3638SOL    HW211814   6.596   4.355   4.107
 3639SOL     OW11815   3.052   4.188   0.921
 3639SOL    HW111816   2.968   4.153   0.964
 3639SOL    HW211817   3.113   4.112   0.901
 3640SOL     OW11818   3.088   6.217   0.662
 3640SOL    HW111819   3.077   6.262   0.751
 3640SOL    HW211820   3.186   6.211   0.641
 3641SOL     OW11821   3.256   1.446   5.027
 3641SOL    HW111822   3.258   1.390   4.944
 3641SOL    HW211823   3.172   1.427   5.078
 3642SOL     OW11824   4.550   0.452   5.238
 3642SOL    HW111825   4.602   0.440   5.153
 3642SOL    HW211826   4.476   0.516   5.223
 3643SOL     OW11827   3.010   5.319   4.944
 3643SOL    HW111828   3.109   5.334   4.952
 3643SOL    HW211829   2.971   5.307   5.036
 3644SOL     OW11830   6.512   2.658   0.840
 3644SOL    HW111831   6.419   2.623   0.848
 3644SOL    HW211832   6.511   2.758   0.845
 3645SOL     OW11833   4.888   1.481   3.356
 3645SOL    HW111834   4.818   1.494   3.426
 3645SOL    HW211835   4.957   1.417   3.389
 3646SOL     OW11836   0.304   5.078   5.498
 3646SOL    HW111837   0.349   5.000   5.542
 3646SOL    HW211838   0.231   5.044   5.438
 3647SOL     OW11839   0.980   3.195   0.286
 3647SOL    HW111840   1.003   3.169   0.379
 3647SOL    HW211841   1.008   3.123   0.223
 3648SOL     OW11842   4.313   5.319   2.387
 3648SOL    HW111843   4.405   5.302   2.351
 3648SOL    HW211844   4.276   5.234   2.425
 3649SOL     OW11845   4.427   3.646   0.751
 3649SOL    HW111846   4.383   3.711   0.813
 3649SOL    HW211847   4.374   3.561   0.747
 3650SOL     OW11848   6.659   6.462   1.340
 3650SOL    HW111849   6.753   6.474   1.308
 3650SOL    HW211850   6.596   6.476   1.264
 3651SOL     OW11851   0.822   6.015   2.180
 3651SOL    HW111852   0.798   5.938   2.239
 3651SOL    HW211853   0.922   6.020   2.170
 3652SOL     OW11854   4.714   6.577   3.545
 3652SOL    HW111855   4.665   6.655   3.584
 3652SOL    HW211856   4.649   6.513   3.505
 3653SOL     OW11857   6.086   1.277   3.091
 3653SOL    HW111858   6.024   1.269   3.013
 3653SOL    HW211859   6.067   1.362   3.140
 3654SOL     OW11860   2.699   6.581   0.364
 3654SOL    HW111861   2.778   6.605   0.420
 3654SOL    HW211862   2.654   6.500   0.402
 3655SOL     OW11863   1.552   0.004   4.389
 3655SOL    HW111864   1.557   6.929   4.404
 3655SOL    HW211865   1.589   0.052   4.469
 3656SOL     OW11866   2.053   2.431   2.201
 3656SOL    HW111867   2.119   2.500   2.170
 3656SOL    HW211868   2.052   2.355   2.136
 3657SOL     OW11869   4.007   5.795   6.921
 3657SOL    HW111870   3.962   5.878   6.888
 3657SOL    HW211871   4.065   5.817   6.999
 3658SOL     OW11872   0.928   5.355   4.920
 3658SOL    HW111873   0.873   5.438   4.906
 3658SOL    HW211874   0.922   5.327   5.016
 3659SOL     OW11875   3.089   4.812   0.119
 3659SOL    HW111876   3.061   4.781   0.210
 3659SOL    HW211877   3.051   4.903   0.102
 3660SOL     OW11878   4.774   6.132   1.973
 3660SOL    HW111879   4.745   6.208   2.031
 3660SOL    HW211880   4.732   6.047   2.006
 3661SOL     OW11881   5.196   1.986   1.004
 3661SOL    HW111882   5.183   1.976   1.103
 3661SOL    HW211883   5.141   2.061   0.970
 3662SOL     OW11884   3.587   6.939   5.026
 3662SOL    HW111885   3.637   6.879   5.089
 3662SOL    HW211886   3.519   6.991   5.078
 3663SOL     OW11887   1.677   1.764   0.349
 3663SOL    HW111888   1.733   1.845   0.365
 3663SOL    HW211889   1.715   1.711   0.274
 3664SOL     OW11890   4.910   1.437   0.421
 3664SOL    HW111891   5.008   1.458   0.430
 3664SOL    HW211892   4.860   1.483   0.493
 3665SOL     OW11893   0.623   6.777   5.327
 3665SOL    HW111894   0.688   6.853   5.334
 3665SOL    HW211895   0.673   6.693   5.306
 3666SOL     OW11896   1.590   4.791   3.843
 3666SOL    HW111897   1.628   4.851   3.913
 3666SOL    HW211898   1.529   4.844   3.783
 3667SOL     OW11899   6.384   1.006   6.480
 3667SOL    HW111900   6.340   1.089   6.514
 3667SOL    HW211901   6.454   1.030   6.413
 3668SOL     OW11902   1.198   0.132   2.694
 3668SOL    HW111903   1.144   0.206   2.654
 3668SOL    HW211904   1.193   0.136   2.793
 3669SOL     OW11905   5.757   1.796   4.445
 3669SOL    HW111906   5.828   1.833   4.504
 3669SOL    HW211907   5.725   1.868   4.382
 3670SOL     OW11908   2.181   5.549   6.993
 3670SOL    HW111909   2.230   5.480   6.940
 3670SOL    HW211910   2.113   5.504   0.027
 3671SOL     OW11911   6.861   0.583   3.030
 3671SOL    HW111912   6.827   0.543   3.116
 3671SOL    HW211913   6.905   0.671   3.049
 3672SOL     OW11914   6.754   2.252   0.350
 3672SOL    HW111915   6.745   2.168   0.297
 3672SOL    HW211916   6.809   2.234   0.432
 3673SOL     OW11917   4.190   1.335   6.518
 3673SOL    HW111918   4.117   1.281   6.475
 3673SOL    HW211919   4.270   1.277   6.532
 3674SOL     OW11920   0.187   6.526   6.792
 3674SOL    HW111921   0.102   6.507   6.841
 3674SOL    HW211922   0.265   6.511   6.853
 3675SOL     OW11923   1.649   2.598   5.811
 3675SOL    HW111924   1.583   2.559   5.747
 3675SOL    HW211925   1.626   2.694   5.828
 3676SOL     OW11926   3.450   5.355   3.754
 3676SOL    HW111927   3.542   5.320   3.768
 3676SOL    HW211928   3.452   5.436   3.694
 3677SOL     OW11929   0.165   6.597   3.069
 3677SOL    HW111930   0.230   6.643   3.129
 3677SOL    HW211931   0.203   6.510   3.039
 3678SOL     OW11932   1.483   2.182   3.881
 3678SOL    HW111933   1.453   2.114   3.813
 3678SOL    HW211934   1.494   2.138   3.970
 3679SOL     OW11935   0.290   1.123   2.647
 3679SOL    HW111936   0.230   1.044   2.635
 3679SOL    HW211937   0.362   1.121   2.578
 3680SOL     OW11938   5.964   2.972   3.861
 3680SOL    HW111939   5.874   2.966   3.819
 3680SOL    HW211940   6.024   2.902   3.822
 3681SOL     OW11941   1.071   0.481   6.158
 3681SOL    HW111942   1.083   0.492   6.059
 3681SOL    HW211943   0.995   0.537   6.189
 3682SOL     OW11944   6.617   1.696   5.710
 3682SOL    HW111945   6.616   1.796   5.717
 3682SOL    HW211946   6.561   1.667   5.633
 3683SOL     OW11947   6.392   6.414   4.329
 3683SOL    HW111948   6.308   6.389   4.376
 3683SOL    HW211949   6.392   6.374   4.237
 3684SOL     OW11950   2.094   2.985   1.734
 3684SOL    HW111951   2.088   2.888   1.711
 3684SOL    HW211952   2.158   3.030   1.671
 3685SOL     OW11953   6.407   5.814   6.530
 3685SOL    HW111954   6.479   5.883   6.523
 3685SOL    HW211955   6.436   5.742   6.594
 3686SOL     OW11956   6.375   4.560   2.229
 3686SOL    HW111957   6.338   4.648   2.199
 3686SOL    HW211958   6.327   4.486   2.182
 3687SOL     OW11959   3.061   6.529   6.829
 3687SOL    HW111960   3.156   6.496   6.824
 3687SOL    HW211961   3.052   6.589   6.908
 3688SOL     OW11962   0.834   3.422   6.967
 3688SOL    HW111963   0.907   3.354   6.961
 3688SOL    HW211964   0.797   3.423   0.037
 3689SOL     OW11965   1.487   1.357   5.418
 3689SOL    HW111966   1.581   1.372   5.450
 3689SOL    HW211967   1.462   1.262   5.432
 3690SOL     OW11968   4.992   0.850   6.006
 3690SOL    HW111969   4.983   0.947   6.027
 3690SOL    HW211970   5.073   0.836   5.949
 3691SOL     OW11971   2.437   3.377   6.679
 3691SOL    HW111972   2.504   3.449   6.693
 3691SOL    HW211973   2.483   3.295   6.643
 3692SOL     OW11974   0.864   5.896   4.893
 3692SOL    HW111975   0.894   5.823   4.955
 3692SOL    HW211976   0.791   5.861   4.834
 3693SOL     OW11977   2.044   2.319   3.273
 3693SOL    HW111978   1.980   2.260   3.322
 3693SOL    HW211979   2.012   2.332   3.179
 3694SOL     OW11980   0.766   5.711   3.322
 3694SOL    HW111981   0.828   5.656   3.378
 3694SOL    HW211982   0.674   5.671   3.326
 3695SOL     OW11983   1.367   2.218   2.769
 3695SOL    HW111984   1.311   2.292   2.807
 3695SOL    HW211985   1.358   2.136   2.826
 3696SOL     OW11986   4.518   6.023   5.658
 3696SOL    HW111987   4.560   6.009   5.748
 3696SOL    HW211988   4.442   5.959   5.647
 3697SOL     OW11989   6.942   6.811   3.574
 3697SOL    HW111990   6.938   6.726   3.626
 3697SOL    HW211991   6.919   6.793   3.479
 3698SOL     OW11992   3.387   0.346   5.319
 3698SOL    HW111993   3.396   0.419   5.251
 3698SOL    HW211994   3.290   0.335   5.342
 3699SOL     OW11995   0.090   3.584   2.702
 3699SOL    HW111996   0.040   3.641   2.637
 3699SOL    HW211997   0.069   3.615   2.795
 3700SOL     OW11998   6.096   6.996   4.121
 3700SOL    HW111999   6.021   6.965   4.179
 3700SOL    HW212000   6.181   6.954   4.153
 3701SOL     OW12001   0.339   1.066   4.184
 3701SOL    HW112002   0.316   0.991   4.121
 3701SOL    HW212003   0.399   1.031   4.256
 3702SOL     OW12004   4.143   0.201   1.854
 3702SOL    HW112005   4.100   0.147   1.781
 3702SOL    HW212006   4.198   0.141   1.912
 3703SOL     OW12007   4.096   4.160   5.759
 3703SOL    HW112008   4.134   4.247   5.791
 3703SOL    HW212009   3.997   4.159   5.773
 3704SOL     OW12010   2.965   1.428   2.578
 3704SOL    HW112011   3.063   1.425   2.557
 3704SOL    HW212012   2.945   1.511   2.629
 3705SOL     OW12013   4.589   0.609   4.019
 3705SOL    HW112014   4.563   0.558   3.936
 3705SOL    HW212015   4.576   0.707   4.003
 3706SOL     OW12016   1.751   2.941   4.709
 3706SOL    HW112017   1.658   2.962   4.739
 3706SOL    HW212018   1.815   2.960   4.783
 3707SOL     OW12019   5.207   2.586   6.034
 3707SOL    HW112020   5.183   2.595   5.938
 3707SOL    HW212021   5.215   2.677   6.075
 3708SOL     OW12022   6.416   0.816   6.653
 3708SOL    HW112023   6.495   0.770   6.613
 3708SOL    HW212024   6.401   0.904   6.607
 3709SOL     OW12025   3.926   1.004   5.832
 3709SOL    HW112026   4.021   0.986   5.858
 3709SOL    HW212027   3.865   0.974   5.904
 3710SOL     OW12028   6.697   5.724   0.200
 3710SOL    HW112029   6.749   5.809   0.203
 3710SOL    HW212030   6.760   5.646   0.205
 3711SOL     OW12031   0.411   5.949   2.336
 3711SOL    HW112032   0.435   6.045   2.317
 3711SOL    HW212033   0.319   5.945   2.374
 3712SOL     OW12034   0.337   6.741   6.690
 3712SOL    HW112035   0.424   6.766   6.732
 3712SOL    HW212036   0.295   6.665   6.741
 3713SOL     OW12037   2.041   5.976   5.198
 3713SOL    HW112038   1.947   5.995   5.227
 3713SOL    HW212039   2.104   6.036   5.248
 3714SOL     OW12040   4.973   6.697   4.257
 3714SOL    HW112041   5.042   6.768   4.269
 3714SOL    HW212042   4.931   6.706   4.166
 3715SOL     OW12043   5.961   4.833   4.289
 3715SOL    HW112044   5.988   4.914   4.342
 3715SOL    HW212045   5.982   4.750   4.341
 3716SOL     OW12046   6.400   0.304   4.478
 3716SOL    HW112047   6.437   0.268   4.392
 3716SOL    HW212048   6.369   0.398   4.465
 3717SOL     OW12049   6.276   5.713   0.953
 3717SOL    HW112050   6.357   5.710   0.894
 3717SOL    HW212051   6.253   5.620   0.981
 3718SOL     OW12052   1.050   6.925   6.854
 3718SOL    HW112053   1.091   6.843   6.814
 3718SOL    HW212054   1.054   6.919   6.954
 3719SOL     OW12055   5.131   4.695   0.369
 3719SOL    HW112056   5.076   4.740   0.439
 3719SOL    HW212057   5.147   4.600   0.396
 3720SOL     OW12058   6.452   2.095   6.621
 3720SOL    HW112059   6.358   2.085   6.590
 3720SOL    HW212060   6.491   2.005   6.641
 3721SOL     OW12061   6.209   4.839   6.642
 3721SOL    HW112062   6.153   4.895   6.704
 3721SOL    HW212063   6.251   4.898   6.573
 3722SOL     OW12064   6.929   5.957   2.533
 3722SOL    HW112065   6.840   5.997   2.513
 3722SOL    HW212066   6.940   5.872   2.482
 3723SOL     OW12067   5.572   6.636   2.029
 3723SOL    HW112068   5.520   6.579   2.092
 3723SOL    HW212069   5.666   6.646   2.064
 3724SOL     OW12070   1.474   5.094   6.924
 3724SOL    HW112071   1.497   4.997   6.921
 3724SOL    HW212072   1.411   5.115   6.849
 3725SOL     OW12073   6.319   6.140   0.129
 3725SOL    HW112074   6.354   6.205   0.061
 3725SOL    HW212075   6.289   6.189   0.210
 3726SOL     OW12076   6.478   4.005   1.866
 3726SOL    HW112077   6.486   4.056   1.952
 3726SOL    HW212078   6.422   3.923   1.882
 3727SOL     OW12079   0.607   3.208   5.688
 3727SOL    HW112080   0.576   3.295   5.725
 3727SOL    HW212081   0.690   3.222   5.635
 3728SOL     OW12082   2.361   3.283   0.637
 3728SOL    HW112083   2.388   3.198   0.681
 3728SOL    HW212084   2.292   3.329   0.692
 3729SOL     OW12085   0.597   2.120   3.227
 3729SOL    HW112086   0.544   2.189   3.178
 3729SOL    HW212087   0.682   2.160   3.261
 3730SOL     OW12088   2.751   0.713   0.183
 3730SOL    HW112089   2.744   0.663   0.269
 3730SOL    HW212090   2.743   0.649   0.106
 3731SOL     OW12091   4.934   2.085   1.042
 3731SOL    HW112092   4.966   2.179   1.048
 3731SOL    HW212093   4.843   2.078   1.081
 3732SOL     OW12094   2.309   3.394   5.728
 3732SOL    HW112095   2.228   3.452   5.718
 3732SOL    HW212096   2.323   3.372   5.824
 3733SOL     OW12097   2.575   4.076   1.474
 3733SOL    HW112098   2.654   4.068   1.534
 3733SOL    HW212099   2.505   4.133   1.518
 3734SOL     OW12100   4.648   1.019   2.714
 3734SOL    HW112101   4.725   1.080   2.731
 3734SOL    HW212102   4.571   1.072   2.677
 3735SOL     OW12103   1.333   2.314   2.519
 3735SOL    HW112104   1.368   2.293   2.611
 3735SOL    HW212105   1.253   2.373   2.527
 3736SOL     OW12106   0.244   2.882   0.941
 3736SOL    HW112107   0.287   2.798   0.909
 3736SOL    HW212108   0.150   2.864   0.967
 3737SOL     OW12109   5.449   7.017   3.093
 3737SOL    HW112110   5.397   7.011   3.178
 3737SOL    HW212111   5.541   6.981   3.108
 3738SOL     OW12112   6.090   5.703   3.011
 3738SOL    HW112113   6.071   5.773   3.080
 3738SOL    HW212114   6.007   5.650   2.994
 3739SOL     OW12115   1.672   3.955   2.410
 3739SOL    HW112116   1.589   3.903   2.392
 3739SOL    HW212117   1.709   3.989   2.323
 3740SOL     OW12118   4.688   0.993   6.759
 3740SOL    HW112119   4.716   0.943   6.841
 3740SOL    HW212120   4.732   0.952   6.679
 3741SOL     OW12121   4.296   3.407   0.829
 3741SOL    HW112122   4.374   3.366   0.876
 3741SOL    HW212123   4.218   3.345   0.832
 3742SOL     OW12124   3.183   2.279   6.227
 3742SOL    HW112125   3.239   2.228   6.293
 3742SOL    HW212126   3.231   2.363   6.202
 3743SOL     OW12127   6.537   5.254   0.449
 3743SOL    HW112128   6.516   5.271   0.353
 3743SOL    HW212129   6.524   5.339   0.501
 3744SOL     OW12130   0.620   4.662   3.943
 3744SOL    HW112131   0.698   4.668   3.879
 3744SOL    HW212132   0.566   4.581   3.923
 3745SOL     OW12133   3.653   5.244   2.822
 3745SOL    HW112134   3.615   5.267   2.912
 3745SOL    HW212135   3.650   5.145   2.809
 3746SOL     OW12136   4.363   1.727   1.659
 3746SOL    HW112137   4.328   1.693   1.746
 3746SOL    HW212138   4.423   1.658   1.618
 3747SOL     OW12139   3.178   6.483   6.487
 3747SOL    HW112140   3.159   6.563   6.430
 3747SOL    HW212141   3.094   6.432   6.503
 3748SOL     OW12142   6.108   1.002   1.624
 3748SOL    HW112143   6.141   1.038   1.537
 3748SOL    HW212144   6.152   0.914   1.642
 3749SOL     OW12145   1.573   6.750   4.381
 3749SOL    HW112146   1.662   6.747   4.335
 3749SOL    HW212147   1.501   6.735   4.313
 3750SOL     OW12148   0.535   3.836   0.122
 3750SOL    HW112149   0.440   3.817   0.098
 3750SOL    HW212150   0.573   3.757   0.171
 3751SOL     OW12151   0.187   3.971   3.125
 3751SOL    HW112152   0.201   4.067   3.149
 3751SOL    HW212153   0.140   3.924   3.200
 3752SOL     OW12154   5.825   1.052   5.817
 3752SOL    HW112155   5.904   1.095   5.775
 3752SOL    HW212156   5.828   0.953   5.802
 3753SOL     OW12157   6.326   1.268   4.243
 3753SOL    HW112158   6.268   1.254   4.162
 3753SOL    HW212159   6.294   1.349   4.293
 3754SOL     OW12160   2.180   1.460   2.388
 3754SOL    HW112161   2.244   1.438   2.314
 3754SOL    HW212162   2.146   1.376   2.429
 3755SOL     OW12163   3.070   4.885   4.457
 3755SOL    HW112164   2.999   4.840   4.512
 3755SOL    HW212165   3.044   4.879   4.360
 3756SOL     OW12166   2.582   5.858   0.226
 3756SOL    HW112167   2.482   5.853   0.221
 3756SOL    HW212168   2.622   5.827   0.139
 3757SOL     OW12169   6.311   4.628   1.751
 3757SOL    HW112170   6.385   4.585   1.805
 3757SOL    HW212171   6.280   4.710   1.798
 3758SOL     OW12172   1.686   0.633   3.361
 3758SOL    HW112173   1.634   0.718   3.350
 3758SOL    HW212174   1.652   0.583   3.441
 3759SOL     OW12175   5.233   0.850   4.157
 3759SOL    HW112176   5.244   0.932   4.212
 3759SOL    HW212177   5.234   0.769   4.216
 3760SOL     OW12178   6.980   0.487   3.900
 3760SOL    HW112179   0.043   0.439   3.881
 3760SOL    HW212180   6.993   0.551   3.976
 3761SOL     OW12181   5.266   1.483   4.510
 3761SOL    HW112182   5.232   1.513   4.420
 3761SOL    HW212183   5.188   1.469   4.571
 3762SOL     OW12184   1.114   4.007   2.684
 3762SOL    HW112185   1.102   3.914   2.717
 3762SOL    HW212186   1.212   4.025   2.672
 3763SOL     OW12187   0.008   4.282   0.450
 3763SOL    HW112188   6.941   4.289   0.408
 3763SOL    HW212189   0.076   4.322   0.389
 3764SOL     OW12190   1.969   0.300   3.145
 3764SOL    HW112191   2.045   0.240   3.170
 3764SOL    HW212192   2.001   0.395   3.146
 3765SOL     OW12193   6.437   1.954   1.174
 3765SOL    HW112194   6.349   1.932   1.131
 3765SOL    HW212195   6.485   2.021   1.118
 3766SOL     OW12196   1.766   3.187   3.380
 3766SOL    HW112197   1.670   3.177   3.352
 3766SOL    HW212198   1.787   3.119   3.450
 3767SOL     OW12199   3.254   4.283   6.024
 3767SOL    HW112200   3.265   4.352   6.095
 3767SOL    HW212201   3.176   4.224   6.046
 3768SOL     OW12202   1.500   0.476   4.819
 3768SOL    HW112203   1.488   0.476   4.918
 3768SOL    HW212204   1.418   0.438   4.775
 3769SOL     OW12205   4.836   5.915   4.816
 3769SOL    HW112206   4.740   5.894   4.795
 3769SOL    HW212207   4.873   5.976   4.746
 3770SOL     OW12208   1.281   1.293   0.698
 3770SOL    HW112209   1.195   1.243   0.683
 3770SOL    HW212210   1.272   1.386   0.662
 3771SOL     OW12211   0.013   4.848   0.400
 3771SOL    HW112212   0.085   4.780   0.398
 3771SOL    HW212213   0.053   4.940   0.395
 3772SOL     OW12214   1.094   6.060   0.775
 3772SOL    HW112215   1.058   6.014   0.856
 3772SOL    HW212216   1.060   6.015   0.693
 3773SOL     OW12217   5.939   3.206   6.128
 3773SOL    HW112218   5.866   3.154   6.084
 3773SOL    HW212219   5.993   3.145   6.187
 3774SOL     OW12220   5.435   5.954   1.301
 3774SOL    HW112221   5.338   5.966   1.322
 3774SOL    HW212222   5.488   6.028   1.343
 3775SOL     OW12223   4.120   5.030   3.169
 3775SOL    HW112224   4.197   5.084   3.135
 3775SOL    HW212225   4.085   5.072   3.253
 3776SOL     OW12226   3.818   2.891   6.651
 3776SOL    HW112227   3.874   2.808   6.653
 3776SOL    HW212228   3.770   2.901   6.738
 3777SOL     OW12229   2.493   6.218   4.259
 3777SOL    HW112230   2.414   6.278   4.266
 3777SOL    HW212231   2.546   6.221   4.344
 3778SOL     OW12232   3.065   5.556   5.269
 3778SOL    HW112233   3.156   5.515   5.267
 3778SOL    HW212234   3.001   5.496   5.220
 3779SOL     OW12235   6.835   5.502   0.394
 3779SOL    HW112236   6.843   5.579   0.458
 3779SOL    HW212237   6.862   5.418   0.440
 3780SOL     OW12238   6.596   2.895   1.688
 3780SOL    HW112239   6.535   2.826   1.650
 3780SOL    HW212240   6.653   2.933   1.615
 3781SOL     OW12241   2.039   6.513   5.332
 3781SOL    HW112242   2.052   6.573   5.411
 3781SOL    HW212243   1.967   6.550   5.274
 3782SOL     OW12244   4.732   6.174   1.701
 3782SOL    HW112245   4.750   6.156   1.798
 3782SOL    HW212246   4.803   6.234   1.664
 3783SOL     OW12247   5.318   5.380   5.538
 3783SOL    HW112248   5.377   5.329   5.476
 3783SOL    HW212249   5.374   5.439   5.596
 3784SOL     OW12250   5.128   2.516   3.259
 3784SOL    HW112251   5.144   2.481   3.167
 3784SOL    HW212252   5.034   2.495   3.287
 3785SOL     OW12253   0.924   3.250   4.424
 3785SOL    HW112254   0.826   3.253   4.443
 3785SOL    HW212255   0.944   3.308   4.345
 3786SOL     OW12256   2.507   2.433   4.506
 3786SOL    HW112257   2.469   2.517   4.466
 3786SOL    HW212258   2.432   2.371   4.528
 3787SOL     OW12259   4.091   0.263   3.427
 3787SOL    HW112260   4.108   0.179   3.377
 3787SOL    HW212261   4.027   0.321   3.376
 3788SOL     OW12262   0.459   3.329   5.022
 3788SOL    HW112263   0.362   3.353   5.017
 3788SOL    HW212264   0.511   3.387   4.960
 3789SOL     OW12265   1.552   2.482   2.967
 3789SOL    HW112266   1.641   2.515   3.001
 3789SOL    HW212267   1.494   2.458   3.045
 3790SOL     OW12268   0.442   6.316   0.729
 3790SOL    HW112269   0.458   6.280   0.821
 3790SOL    HW212270   0.440   6.416   0.732
 3791SOL     OW12271   5.651   0.911   6.034
 3791SOL    HW112272   5.716   0.961   5.977
 3791SOL    HW212273   5.559   0.946   6.018
 3792SOL     OW12274   0.820   0.798   4.136
 3792SOL    HW112275   0.910   0.773   4.171
 3792SOL    HW212276   0.749   0.753   4.191
 3793SOL     OW12277   6.524   6.279   0.490
 3793SOL    HW112278   6.538   6.361   0.434
 3793SOL    HW212279   6.589   6.279   0.566
 3794SOL     OW12280   1.988   4.239   0.997
 3794SOL    HW112281   1.956   4.204   1.085
 3794SOL    HW212282   2.086   4.221   0.987
 3795SOL     OW12283   2.822   6.052   0.951
 3795SOL    HW112284   2.776   6.033   1.038
 3795SOL    HW212285   2.913   6.087   0.969
 3796SOL     OW12286   4.154   2.069   0.565
 3796SOL    HW112287   4.124   2.041   0.656
 3796SOL    HW212288   4.077   2.111   0.515
 3797SOL     OW12289   0.761   4.263   3.079
 3797SOL    HW112290   0.674   4.313   3.081
 3797SOL    HW212291   0.751   4.182   3.020
 3798SOL     OW12292   2.541   6.663   2.828
 3798SOL    HW112293   2.495   6.635   2.743
 3798SOL    HW212294   2.535   6.762   2.838
 3799SOL     OW12295   6.379   2.575   3.370
 3799SOL    HW112296   6.412   2.505   3.306
 3799SOL    HW212297   6.372   2.536   3.461
 3800SOL     OW12298   5.470   1.758   3.205
 3800SOL    HW112299   5.452   1.797   3.296
 3800SOL    HW212300   5.391   1.704   3.176
 3801SOL     OW12301   5.377   6.805   2.146
 3801SOL    HW112302   5.416   6.871   2.211
 3801SOL    HW212303   5.451   6.766   2.090
 3802SOL     OW12304   6.683   2.213   2.015
 3802SOL    HW112305   6.760   2.257   2.062
 3802SOL    HW212306   6.605   2.276   2.013
 3803SOL     OW12307   3.039   3.759   4.107
 3803SOL    HW112308   2.987   3.768   4.022
 3803SOL    HW212309   3.056   3.850   4.145
 3804SOL     OW12310   3.698   0.203   4.700
 3804SOL    HW112311   3.721   0.261   4.779
 3804SOL    HW212312   3.746   0.237   4.619
 3805SOL     OW12313   2.268   3.224   0.382
 3805SOL    HW112314   2.305   3.275   0.304
 3805SOL    HW212315   2.297   3.268   0.467
 3806SOL     OW12316   4.415   4.546   6.610
 3806SOL    HW112317   4.472   4.618   6.651
 3806SOL    HW212318   4.473   4.481   6.562
 3807SOL     OW12319   1.295   5.372   4.003
 3807SOL    HW112320   1.361   5.409   4.070
 3807SOL    HW212321   1.237   5.447   3.970
 3808SOL     OW12322   4.879   0.221   5.947
 3808SOL    HW112323   4.958   0.232   5.886
 3808SOL    HW212324   4.813   0.159   5.906
 3809SOL     OW12325   5.757   2.001   1.264
 3809SOL    HW112326   5.668   2.002   1.310
 3809SOL    HW212327   5.790   1.907   1.259
 3810SOL     OW12328   6.766   2.571   2.645
 3810SOL    HW112329   6.744   2.516   2.565
 3810SOL    HW212330   6.682   2.610   2.683
 3811SOL     OW12331   0.064   5.219   5.148
 3811SOL    HW112332   0.011   5.247   5.068
 3811SOL    HW212333   0.131   5.290   5.170
 3812SOL     OW12334   3.904   6.039   6.867
 3812SOL    HW112335   3.825   6.070   6.920
 3812SOL    HW212336   3.982   6.100   6.885
 3813SOL     OW12337   6.422   3.743   0.803
 3813SOL    HW112338   6.395   3.647   0.801
 3813SOL    HW212339   6.394   3.787   0.718
 3814SOL     OW12340   6.554   6.889   4.464
 3814SOL    HW112341   6.558   6.922   4.559
 3814SOL    HW212342   6.462   6.906   4.428
 3815SOL     OW12343   4.973   3.084   0.484
 3815SOL    HW112344   5.011   3.162   0.434
 3815SOL    HW212345   4.886   3.110   0.525
 3816SOL     OW12346   1.029   6.122   5.463
 3816SOL    HW112347   1.093   6.191   5.429
 3816SOL    HW212348   0.981   6.080   5.386
 3817SOL     OW12349   4.966   3.660   2.659
 3817SOL    HW112350   5.034   3.707   2.714
 3817SOL    HW212351   4.908   3.726   2.611
 3818SOL     OW12352   0.537   0.804   1.879
 3818SOL    HW112353   0.624   0.787   1.832
 3818SOL    HW212354   0.533   0.749   1.962
 3819SOL     OW12355   6.501   4.384   3.300
 3819SOL    HW112356   6.481   4.293   3.264
 3819SOL    HW212357   6.545   4.376   3.390
 3820SOL     OW12358   5.599   6.853   4.316
 3820SOL    HW112359   5.653   6.838   4.399
 3820SOL    HW212360   5.571   6.765   4.277
 3821SOL     OW12361   0.481   0.106   6.868
 3821SOL    HW112362   0.387   0.086   6.896
 3821SOL    HW212363   0.516   0.183   6.922
 3822SOL     OW12364   3.710   0.940   0.172
 3822SOL    HW112365   3.806   0.919   0.190
 3822SOL    HW212366   3.683   1.020   0.225
 3823SOL     OW12367   5.078   4.836   5.995
 3823SOL    HW112368   4.981   4.813   6.007
 3823SOL    HW212369   5.114   4.872   6.080
 3824SOL     OW12370   1.313   3.093   0.204
 3824SOL    HW112371   1.310   3.006   0.253
 3824SOL    HW212372   1.232   3.100   0.145
 3825SOL     OW12373   1.214   4.228   0.218
 3825SOL    HW112374   1.226   4.214   0.120
 3825SOL    HW212375   1.298   4.267   0.256
 3826SOL     OW12376   6.247   4.348   2.126
 3826SOL    HW112377   6.297   4.269   2.091
 3826SOL    HW212378   6.203   4.324   2.213
 3827SOL     OW12379   0.979   0.970   1.539
 3827SOL    HW112380   0.920   0.986   1.618
 3827SOL    HW212381   0.971   1.047   1.476
 3828SOL     OW12382   3.447   4.212   4.525
 3828SOL    HW112383   3.435   4.310   4.507
 3828SOL    HW212384   3.514   4.200   4.599
 3829SOL     OW12385   0.519   4.808   2.178
 3829SOL    HW112386   0.556   4.872   2.244
 3829SOL    HW212387   0.563   4.718   2.189
 3830SOL     OW12388   0.813   0.397   5.311
 3830SOL    HW112389   0.717   0.424   5.325
 3830SOL    HW212390   0.862   0.472   5.266
 3831SOL     OW12391   4.632   1.771   3.227
 3831SOL    HW112392   4.713   1.801   3.177
 3831SOL    HW212393   4.552   1.820   3.194
 3832SOL     OW12394   0.583   0.377   2.090
 3832SOL    HW112395   0.551   0.334   2.006
 3832SOL    HW212396   0.670   0.423   2.073
 3833SOL     OW12397   1.182   6.644   6.278
 3833SOL    HW112398   1.236   6.601   6.350
 3833SOL    HW212399   1.085   6.636   6.299
 3834SOL     OW12400   4.474   4.427   1.052
 3834SOL    HW112401   4.440   4.514   1.089
 3834SOL    HW212402   4.501   4.440   0.957
 3835SOL     OW12403   3.414   5.865   5.629
 3835SOL    HW112404   3.405   5.878   5.530
 3835SOL    HW212405   3.361   5.936   5.676
 3836SOL     OW12406   0.505   5.503   6.321
 3836SOL    HW112407   0.447   5.584   6.333
 3836SOL    HW212408   0.517   5.485   6.224
 3837SOL     OW12409   3.819   5.140   5.171
 3837SOL    HW112410   3.803   5.045   5.197
 3837SOL    HW212411   3.838   5.146   5.073
 3838SOL     OW12412   1.752   0.898   3.551
 3838SOL    HW112413   1.682   0.968   3.544
 3838SOL    HW212414   1.718   0.812   3.512
 3839SOL     OW12415   4.368   0.092   3.186
 3839SOL    HW112416   4.275   0.105   3.220
 3839SOL    HW212417   4.419   0.033   3.248
 3840SOL     OW12418   2.510   0.600   6.684
 3840SOL    HW112419   2.445   0.524   6.674
 3840SOL    HW212420   2.603   0.567   6.669
 3841SOL     OW12421   0.051   4.456   4.211
 3841SOL    HW112422   0.036   4.456   4.310
 3841SOL    HW212423   0.120   4.525   4.188
 3842SOL     OW12424   2.131   2.754   4.609
 3842SOL    HW112425   2.047   2.700   4.600
 3842SOL    HW212426   2.107   2.851   4.619
 3843SOL     OW12427   5.117   3.119   0.960
 3843SOL    HW112428   5.039   3.180   0.949
 3843SOL    HW212429   5.162   3.137   1.047
 3844SOL     OW12430   1.403   5.203   0.566
 3844SOL    HW112431   1.323   5.165   0.518
 3844SOL    HW212432   1.479   5.211   0.502
 3845SOL     OW12433   1.920   5.743   0.234
 3845SOL    HW112434   1.963   5.819   0.283
 3845SOL    HW212435   1.869   5.778   0.156
 3846SOL     OW12436   0.535   2.989   4.582
 3846SOL    HW112437   0.467   2.971   4.511
 3846SOL    HW212438   0.488   3.006   4.669
 3847SOL     OW12439   5.440   1.943   4.727
 3847SOL    HW112440   5.351   1.989   4.738
 3847SOL    HW212441   5.426   1.854   4.684
 3848SOL     OW12442   4.962   2.936   2.785
 3848SOL    HW112443   4.920   2.958   2.697
 3848SOL    HW212444   4.914   2.859   2.827
 3849SOL     OW12445   0.706   6.552   6.330
 3849SOL    HW112446   0.632   6.571   6.395
 3849SOL    HW212447   0.784   6.611   6.350
 3850SOL     OW12448   2.805   2.804   1.501
 3850SOL    HW112449   2.810   2.869   1.577
 3850SOL    HW212450   2.895   2.797   1.458
 3851SOL     OW12451   0.249   5.227   3.570
 3851SOL    HW112452   0.179   5.277   3.621
 3851SOL    HW212453   0.335   5.278   3.572
 3852SOL     OW12454   3.114   6.922   4.207
 3852SOL    HW112455   3.133   7.020   4.202
 3852SOL    HW212456   3.016   6.906   4.197
 3853SOL     OW12457   2.262   1.659   3.883
 3853SOL    HW112458   2.286   1.565   3.861
 3853SOL    HW212459   2.192   1.660   3.954
 3854SOL     OW12460   1.742   2.975   3.020
 3854SOL    HW112461   1.665   2.930   2.975
 3854SOL    HW212462   1.735   2.961   3.119
 3855SOL     OW12463   4.427   6.246   0.734
 3855SOL    HW112464   4.455   6.294   0.651
 3855SOL    HW212465   4.381   6.161   0.710
 3856SOL     OW12466   0.855   2.111   6.374
 3856SOL    HW112467   0.838   2.111   6.275
 3856SOL    HW212468   0.826   2.024   6.413
 3857SOL     OW12469   2.488   6.530   5.716
 3857SOL    HW112470   2.499   6.628   5.701
 3857SOL    HW212471   2.492   6.510   5.814
 3858SOL     OW12472   3.805   1.611   5.928
 3858SOL    HW112473   3.805   1.687   5.993
 3858SOL    HW212474   3.746   1.538   5.962
 3859SOL     OW12475   6.106   0.896   1.188
 3859SOL    HW112476   6.028   0.896   1.125
 3859SOL    HW212477   6.169   0.823   1.161
 3860SOL     OW12478   1.878   0.501   4.509
 3860SOL    HW112479   1.903   0.457   4.423
 3860SOL    HW212480   1.887   0.600   4.500
 3861SOL     OW12481   4.132   5.865   2.683
 3861SOL    HW112482   4.182   5.940   2.725
 3861SOL    HW212483   4.035   5.889   2.676
 3862SOL     OW12484   0.504   0.468   4.300
 3862SOL    HW112485   0.426   0.411   4.274
 3862SOL    HW212486   0.586   0.411   4.306
 3863SOL     OW12487   5.687   0.857   0.606
 3863SOL    HW112488   5.740   0.833   0.524
 3863SOL    HW212489   5.606   0.799   0.612
 3864SOL     OW12490   2.417   0.869   4.839
 3864SOL    HW112491   2.394   0.851   4.743
 3864SOL    HW212492   2.384   0.793   4.896
 3865SOL     OW12493   4.488   0.722   0.486
 3865SOL    HW112494   4.393   0.739   0.461
 3865SOL    HW212495   4.541   0.806   0.476
 3866SOL     OW12496   3.986   1.438   6.819
 3866SOL    HW112497   4.027   1.406   6.904
 3866SOL    HW212498   4.058   1.474   6.759
 3867SOL     OW12499   1.322   4.853   3.293
 3867SOL    HW112500   1.251   4.841   3.363
 3867SOL    HW212501   1.366   4.766   3.275
 3868SOL     OW12502   4.010   0.344   6.629
 3868SOL    HW112503   4.067   0.262   6.626
 3868SOL    HW212504   4.066   0.422   6.658
 3869SOL     OW12505   6.804   3.123   3.943
 3869SOL    HW112506   6.804   3.200   4.007
 3869SOL    HW212507   6.770   3.154   3.854
 3870SOL     OW12508   6.548   6.787   2.466
 3870SOL    HW112509   6.541   6.854   2.392
 3870SOL    HW212510   6.482   6.714   2.452
 3871SOL     OW12511   3.015   6.751   3.421
 3871SOL    HW112512   3.072   6.826   3.454
 3871SOL    HW212513   2.999   6.686   3.495
 3872SOL     OW12514   3.408   3.056   3.788
 3872SOL    HW112515   3.396   3.090   3.694
 3872SOL    HW212516   3.482   2.989   3.790
 3873SOL     OW12517   5.004   3.936   0.912
 3873SOL    HW112518   4.987   3.983   0.825
 3873SOL    HW212519   5.003   3.837   0.896
 3874SOL     OW12520   4.034   0.583   0.351
 3874SOL    HW112521   3.961   0.591   0.283
 3874SOL    HW212522   4.117   0.548   0.307
 3875SOL     OW12523   1.626   3.387   3.882
 3875SOL    HW112524   1.655   3.371   3.977
 3875SOL    HW212525   1.707   3.401   3.825
 3876SOL     OW12526   3.404   5.383   0.830
 3876SOL    HW112527   3.433   5.438   0.908
 3876SOL    HW212528   3.378   5.292   0.861
 3877SOL     OW12529   6.517   2.212   1.003
 3877SOL    HW112530   6.428   2.244   0.969
 3877SOL    HW212531   6.561   2.156   0.933
 3878SOL     OW12532   4.769   6.653   4.665
 3878SOL    HW112533   4.847   6.616   4.715
 3878SOL    HW212534   4.685   6.629   4.713
 3879SOL     OW12535   6.078   4.986   0.442
 3879SOL    HW112536   6.010   5.059   0.451
 3879SOL    HW212537   6.059   4.914   0.508
 3880SOL     OW12538   4.899   3.797   4.493
 3880SOL    HW112539   4.854   3.808   4.404
 3880SOL    HW212540   4.981   3.855   4.496
 3881SOL     OW12541   1.836   3.602   0.949
 3881SOL    HW112542   1.925   3.596   0.994
 3881SOL    HW212543   1.817   3.516   0.901
 3882SOL     OW12544   1.481   1.534   0.163
 3882SOL    HW112545   1.455   1.527   0.067
 3882SOL    HW212546   1.554   1.469   0.182
 3883SOL     OW12547   4.445   0.901   2.882
 3883SOL    HW112548   4.477   0.875   2.973
 3883SOL    HW212549   4.509   0.965   2.841
 3884SOL     OW12550   0.526   5.555   2.429
 3884SOL    HW112551   0.558   5.495   2.502
 3884SOL    HW212552   0.427   5.567   2.436
 3885SOL     OW12553   6.050   6.075   3.460
 3885SOL    HW112554   6.122   6.048   3.524
 3885SOL    HW212555   5.984   6.133   3.506
 3886SOL     OW12556   4.537   5.854   5.373
 3886SOL    HW112557   4.523   5.945   5.335
 3886SOL    HW212558   4.497   5.849   5.464
 3887SOL     OW12559   0.854   6.632   0.350
 3887SOL    HW112560   0.878   6.663   0.442
 3887SOL    HW212561   0.885   6.538   0.337
 3888SOL     OW12562   6.518   6.326   4.838
 3888SOL    HW112563   6.432   6.361   4.875
 3888SOL    HW212564   6.532   6.232   4.871
 3889SOL     OW12565   6.589   2.701   6.896
 3889SOL    HW112566   6.517   2.770   6.901
 3889SOL    HW212567   6.585   2.642   6.977
 3890SOL     OW12568   6.060   4.606   3.552
 3890SOL    HW112569   6.146   4.574   3.593
 3890SOL    HW212570   6.016   4.671   3.612
 3891SOL     OW12571   4.866   3.994   3.735
 3891SOL    HW112572   4.882   3.917   3.673
 3891SOL    HW212573   4.864   4.079   3.682
 3892SOL     OW12574   0.704   2.986   1.184
 3892SOL    HW112575   0.780   2.976   1.249
 3892SOL    HW212576   0.738   2.972   1.091
 3893SOL     OW12577   4.090   4.148   0.876
 3893SOL    HW112578   4.055   4.233   0.836
 3893SOL    HW212579   4.176   4.165   0.923
 3894SOL     OW12580   5.244   0.735   6.637
 3894SOL    HW112581   5.169   0.798   6.659
 3894SOL    HW212582   5.320   0.786   6.597
 3895SOL     OW12583   1.339   6.705   5.335
 3895SOL    HW112584   1.392   6.772   5.282
 3895SOL    HW212585   1.316   6.743   5.424
 3896SOL     OW12586   1.012   1.422   6.565
 3896SOL    HW112587   1.034   1.325   6.559
 3896SOL    HW212588   0.935   1.435   6.627
 3897SOL     OW12589   4.041   5.632   2.868
 3897SOL    HW112590   3.948   5.624   2.832
 3897SOL    HW212591   4.103   5.654   2.793
 3898SOL     OW12592   3.352   1.917   6.959
 3898SOL    HW112593   3.431   1.936   6.901
 3898SOL    HW212594   3.381   1.863   0.015
 3899SOL     OW12595   4.562   6.687   6.094
 3899SOL    HW112596   4.538   6.720   6.185
 3899SOL    HW212597   4.494   6.620   6.064
 3900SOL     OW12598   4.823   2.639   3.617
 3900SOL    HW112599   4.869   2.570   3.673
 3900SOL    HW212600   4.852   2.730   3.645
 3901SOL     OW12601   3.436   0.844   6.117
 3901SOL    HW112602   3.467   0.782   6.046
 3901SOL    HW212603   3.451   0.803   6.207
 3902SOL     OW12604   6.251   3.071   2.359
 3902SOL    HW112605   6.223   3.093   2.266
 3902SOL    HW212606   6.203   2.988   2.389
 3903SOL     OW12607   3.674   6.953   0.221
 3903SOL    HW112608   3.590   6.975   0.271
 3903SOL    HW212609   3.653   6.948   0.123
 3904SOL     OW12610   2.034   0.626   6.666
 3904SOL    HW112611   2.032   0.536   6.621
 3904SOL    HW212612   2.062   0.695   6.599
 3905SOL     OW12613   6.353   6.675   5.984
 3905SOL    HW112614   6.429   6.641   5.929
 3905SOL    HW212615   6.366   6.773   6.002
 3906SOL     OW12616   5.759   6.746   5.532
 3906SOL    HW112617   5.846   6.796   5.529
 3906SOL    HW212618   5.683   6.809   5.522
 3907SOL     OW12619   5.920   0.782   4.391
 3907SOL    HW112620   5.850   0.836   4.438
 3907SOL    HW212621   5.915   0.687   4.422
 3908SOL     OW12622   0.683   2.506   6.465
 3908SOL    HW112623   0.764   2.563   6.478
 3908SOL    HW212624   0.681   2.435   6.536
 3909SOL     OW12625   5.990   6.046   4.298
 3909SOL    HW112626   6.038   6.118   4.348
 3909SOL    HW212627   6.048   5.965   4.291
 3910SOL     OW12628   3.305   3.766   2.280
 3910SOL    HW112629   3.322   3.832   2.207
 3910SOL    HW212630   3.266   3.682   2.241
 3911SOL     OW12631   5.770   1.676   5.470
 3911SOL    HW112632   5.774   1.636   5.378
 3911SOL    HW212633   5.853   1.653   5.520
 3912SOL     OW12634   5.503   0.288   5.043
 3912SOL    HW112635   5.505   0.384   5.073
 3912SOL    HW212636   5.568   0.276   4.968
 3913SOL     OW12637   2.406   6.485   6.022
 3913SOL    HW112638   2.356   6.569   6.043
 3913SOL    HW212639   2.370   6.410   6.076
 3914SOL     OW12640   2.884   0.717   1.426
 3914SOL    HW112641   2.903   0.813   1.404
 3914SOL    HW212642   2.944   0.688   1.501
 3915SOL     OW12643   5.260   6.127   0.816
 3915SOL    HW112644   5.192   6.081   0.873
 3915SOL    HW212645   5.243   6.106   0.720
 3916SOL     OW12646   1.074   0.128   3.678
 3916SOL    HW112647   1.014   0.198   3.716
 3916SOL    HW212648   1.140   0.099   3.747
 3917SOL     OW12649   6.440   6.316   6.971
 3917SOL    HW112650   6.533   6.283   6.957
 3917SOL    HW212651   6.396   6.331   6.882
 3918SOL     OW12652   5.835   5.686   1.487
 3918SOL    HW112653   5.742   5.721   1.498
 3918SOL    HW212654   5.893   5.757   1.448
 3919SOL     OW12655   4.616   6.789   0.500
 3919SOL    HW112656   4.670   6.706   0.487
 3919SOL    HW212657   4.672   6.860   0.542
 3920SOL     OW12658   2.872   3.315   0.341
 3920SOL    HW112659   2.820   3.395   0.368
 3920SOL    HW212660   2.913   3.273   0.421
 3921SOL     OW12661   0.144   3.413   1.628
 3921SOL    HW112662   0.076   3.439   1.559
 3921SOL    HW212663   0.140   3.314   1.643
 3922SOL     OW12664   6.562   3.680   1.967
 3922SOL    HW112665   6.605   3.699   1.879
 3922SOL    HW212666   6.583   3.754   2.031
 3923SOL     OW12667   0.317   1.229   0.533
 3923SOL    HW112668   0.384   1.275   0.475
 3923SOL    HW212669   0.238   1.289   0.546
 3924SOL     OW12670   5.709   4.796   3.825
 3924SOL    HW112671   5.711   4.833   3.732
 3924SOL    HW212672   5.748   4.862   3.888
 3925SOL     OW12673   2.165   5.462   1.011
 3925SOL    HW112674   2.211   5.443   0.924
 3925SOL    HW212675   2.137   5.376   1.053
 3926SOL     OW12676   5.906   5.270   2.393
 3926SOL    HW112677   5.969   5.215   2.448
 3926SOL    HW212678   5.856   5.211   2.329
 3927SOL     OW12679   6.072   2.419   4.949
 3927SOL    HW112680   5.990   2.464   4.985
 3927SOL    HW212681   6.106   2.469   4.869
 3928SOL     OW12682   4.138   6.218   6.544
 3928SOL    HW112683   4.046   6.235   6.581
 3928SOL    HW212684   4.206   6.256   6.607
 3929SOL     OW12685   0.342   0.443   4.784
 3929SOL    HW112686   0.366   0.423   4.879
 3929SOL    HW212687   0.251   0.485   4.781
 3930SOL     OW12688   3.056   2.210   4.123
 3930SOL    HW112689   3.144   2.209   4.075
 3930SOL    HW212690   2.989   2.157   4.072
 3931SOL     OW12691   1.621   1.678   1.224
 3931SOL    HW112692   1.554   1.741   1.263
 3931SOL    HW212693   1.574   1.599   1.186
 3932SOL     OW12694   1.301   4.205   3.649
 3932SOL    HW112695   1.203   4.224   3.641
 3932SOL    HW212696   1.344   4.276   3.704
 3933SOL     OW12697   1.825   6.100   7.019
 3933SOL    HW112698   1.849   6.005   0.014
 3933SOL    HW212699   1.730   6.105   6.989
 3934SOL     OW12700   0.347   0.951   6.998
 3934SOL    HW112701   0.387   0.967   0.065
 3934SOL    HW212702   0.252   0.921   7.009
 3935SOL     OW12703   2.746   6.643   6.811
 3935SOL    HW112704   2.800   6.673   6.732
 3935SOL    HW212705   2.761   6.545   6.826
 3936SOL     OW12706   6.951   4.913   5.494
 3936SOL    HW112707   6.873   4.974   5.498
 3936SOL    HW212708   7.006   4.934   5.413
 3937SOL     OW12709   0.250   1.420   2.966
 3937SOL    HW112710   0.156   1.442   2.939
 3937SOL    HW212711   0.296   1.503   2.997
 3938SOL     OW12712   0.332   2.051   3.604
 3938SOL    HW112713   0.235   2.073   3.607
 3938SOL    HW212714   0.361   2.015   3.693
 3939SOL     OW12715   1.989   2.990   2.911
 3939SOL    HW112716   1.984   3.032   2.821
 3939SOL    HW212717   1.897   2.963   2.940
 3940SOL     OW12718   5.120   4.594   1.456
 3940SOL    HW112719   5.178   4.576   1.536
 3940SOL    HW212720   5.150   4.538   1.379
 3941SOL     OW12721   5.313   3.298   5.409
 3941SOL    HW112722   5.387   3.318   5.345
 3941SOL    HW212723   5.225   3.299   5.361
 3942SOL     OW12724   0.371   6.782   6.221
 3942SOL    HW112725   0.391   6.684   6.235
 3942SOL    HW212726   0.424   6.815   6.143
 3943SOL     OW12727   6.528   2.786   3.382
 3943SOL    HW112728   6.449   2.847   3.375
 3943SOL    HW212729   6.501   2.693   3.356
 3944SOL     OW12730   4.515   2.663   5.043
 3944SOL    HW112731   4.480   2.746   4.999
 3944SOL    HW212732   4.486   2.583   4.991
 3945SOL     OW12733   0.904   2.367   0.273
 3945SOL    HW112734   1.004   2.372   0.279
 3945SOL    HW212735   0.872   2.282   0.315
 3946SOL     OW12736   5.189   4.908   4.487
 3946SOL    HW112737   5.222   4.977   4.423
 3946SOL    HW212738   5.137   4.952   4.561
 3947SOL     OW12739   4.893   6.553   6.983
 3947SOL    HW112740   4.973   6.508   6.943
 3947SOL    HW212741   4.921   6.639   0.003
 3948SOL     OW12742   0.111   4.991   2.355
 3948SOL    HW112743   0.156   4.922   2.299
 3948SOL    HW212744   0.083   5.068   2.297
 3949SOL     OW12745   4.968   0.327   3.380
 3949SOL    HW112746   4.899   0.339   3.309
 3949SOL    HW212747   4.943   0.249   3.437
 3950SOL     OW12748   1.969   4.619   0.665
 3950SOL    HW112749   1.955   4.522   0.687
 3950SOL    HW212750   1.908   4.675   0.721
 3951SOL     OW12751   4.652   0.250   1.225
 3951SOL    HW112752   4.715   0.207   1.290
 3951SOL    HW212753   4.575   0.290   1.274
 3952SOL     OW12754   6.872   2.432   1.878
 3952SOL    HW112755   6.895   2.398   1.969
 3952SOL    HW212756   6.815   2.514   1.887
 3953SOL     OW12757   3.796   5.022   1.136
 3953SOL    HW112758   3.755   4.932   1.125
 3953SOL    HW212759   3.723   5.089   1.152
 3954SOL     OW12760   4.047   5.333   5.168
 3954SOL    HW112761   3.977   5.266   5.193
 3954SOL    HW212762   4.102   5.298   5.092
 3955SOL     OW12763   2.896   0.028   6.099
 3955SOL    HW112764   2.871   6.956   6.082
 3955SOL    HW212765   2.815   0.086   6.088
 3956SOL     OW12766   1.024   1.067   2.667
 3956SOL    HW112767   1.018   0.970   2.690
 3956SOL    HW212768   1.019   1.077   2.567
 3957SOL     OW12769   4.803   6.741   4.031
 3957SOL    HW112770   4.842   6.833   4.037
 3957SOL    HW212771   4.852   6.689   3.961
 3958SOL     OW12772   5.741   1.239   4.613
 3958SOL    HW112773   5.685   1.310   4.656
 3958SOL    HW212774   5.836   1.248   4.643
 3959SOL     OW12775   4.362   6.706   0.367
 3959SOL    HW112776   4.460   6.714   0.387
 3959SOL    HW212777   4.310   6.709   0.452
 3960SOL     OW12778   5.225   1.158   6.204
 3960SOL    HW112779   5.294   1.089   6.222
 3960SOL    HW212780   5.207   1.210   6.288
 3961SOL     OW12781   5.392   1.562   2.402
 3961SOL    HW112782   5.396   1.486   2.337
 3961SOL    HW212783   5.368   1.526   2.493
 3962SOL     OW12784   2.386   4.639   6.756
 3962SOL    HW112785   2.389   4.614   6.853
 3962SOL    HW212786   2.291   4.638   6.724
 3963SOL     OW12787   4.595   5.426   2.866
 3963SOL    HW112788   4.619   5.381   2.952
 3963SOL    HW212789   4.663   5.405   2.797
 3964SOL     OW12790   4.513   5.073   3.650
 3964SOL    HW112791   4.501   5.167   3.682
 3964SOL    HW212792   4.454   5.012   3.703
 3965SOL     OW12793   4.835   2.882   4.408
 3965SOL    HW112794   4.844   2.922   4.316
 3965SOL    HW212795   4.826   2.956   4.475
 3966SOL     OW12796   4.581   6.149   6.187
 3966SOL    HW112797   4.613   6.151   6.282
 3966SOL    HW212798   4.618   6.069   6.141
 3967SOL     OW12799   2.150   3.787   2.343
 3967SOL    HW112800   2.128   3.690   2.355
 3967SOL    HW212801   2.235   3.808   2.391
 3968SOL     OW12802   4.587   0.695   0.974
 3968SOL    HW112803   4.683   0.681   0.996
 3968SOL    HW212804   4.562   0.636   0.896
 3969SOL     OW12805   0.983   4.484   2.295
 3969SOL    HW112806   0.935   4.422   2.233
 3969SOL    HW212807   0.998   4.437   2.383
 3970SOL     OW12808   5.586   6.360   3.369
 3970SOL    HW112809   5.566   6.343   3.273
 3970SOL    HW212810   5.516   6.317   3.426
 3971SOL     OW12811   3.375   5.215   3.522
 3971SOL    HW112812   3.445   5.257   3.464
 3971SOL    HW212813   3.380   5.252   3.614
 3972SOL     OW12814   1.206   3.775   0.688
 3972SOL    HW112815   1.282   3.805   0.745
 3972SOL    HW212816   1.121   3.815   0.723
 3973SOL     OW12817   1.700   5.770   6.229
 3973SOL    HW112818   1.708   5.712   6.148
 3973SOL    HW212819   1.665   5.717   6.305
 3974SOL     OW12820   1.945   0.116   5.171
 3974SOL    HW112821   1.991   0.031   5.144
 3974SOL    HW212822   1.943   0.122   5.271
 3975SOL     OW12823   5.381   1.540   6.011
 3975SOL    HW112824   5.284   1.562   6.006
 3975SOL    HW212825   5.423   1.588   6.088
 3976SOL     OW12826   1.442   6.185   1.909
 3976SOL    HW112827   1.470   6.094   1.877
 3976SOL    HW212828   1.434   6.184   2.009
 3977SOL     OW12829   2.132   3.221   6.069
 3977SOL    HW112830   2.135   3.170   6.155
 3977SOL    HW212831   2.225   3.253   6.047
 3978SOL     OW12832   5.796   5.252   3.465
 3978SOL    HW112833   5.741   5.232   3.546
 3978SOL    HW212834   5.889   5.275   3.493
 3979SOL     OW12835   3.736   1.155   0.000
 3979SOL    HW112836   3.670   1.171   6.951
 3979SOL    HW212837   3.723   1.063   0.038
 3980SOL     OW12838   5.811   5.933   6.909
 3980SOL    HW112839   5.886   5.889   6.859
 3980SOL    HW212840   5.726   5.883   6.893
 3981SOL     OW12841   3.430   0.160   0.778
 3981SOL    HW112842   3.493   0.157   0.701
 3981SOL    HW212843   3.411   0.256   0.802
 3982SOL     OW12844   2.586   6.559   3.365
 3982SOL    HW112845   2.610   6.566   3.268
 3982SOL    HW212846   2.625   6.636   3.415
 3983SOL     OW12847   4.897   4.848   4.334
 3983SOL    HW112848   4.905   4.770   4.397
 3983SOL    HW212849   4.988   4.881   4.310
 3984SOL     OW12850   6.766   1.251   2.231
 3984SOL    HW112851   6.690   1.301   2.189
 3984SOL    HW212852   6.834   1.228   2.162
 3985SOL     OW12853   2.654   4.605   6.674
 3985SOL    HW112854   2.562   4.605   6.714
 3985SOL    HW212855   2.648   4.629   6.577
 3986SOL     OW12856   5.087   1.496   2.706
 3986SOL    HW112857   5.044   1.522   2.619
 3986SOL    HW212858   5.135   1.409   2.695
 3987SOL     OW12859   3.967   5.034   3.401
 3987SOL    HW112860   3.981   4.959   3.466
 3987SOL    HW212861   3.922   4.999   3.319
 3988SOL     OW12862   2.828   5.139   6.797
 3988SOL    HW112863   2.909   5.197   6.810
 3988SOL    HW212864   2.858   5.048   6.767
 3989SOL     OW12865   6.848   2.688   6.780
 3989SOL    HW112866   6.870   2.592   6.795
 3989SOL    HW212867   6.762   2.710   6.827
 3990SOL     OW12868   4.459   2.037   2.513
 3990SOL    HW112869   4.556   2.015   2.499
 3990SOL    HW212870   4.426   2.092   2.437
 3991SOL     OW12871   6.783   1.320   2.493
 3991SOL    HW112872   6.802   1.293   2.399
 3991SOL    HW212873   6.868   1.346   2.539
 3992SOL     OW12874   3.572   1.522   6.939
 3992SOL    HW112875   3.642   1.535   6.869
 3992SOL    HW212876   3.616   1.506   0.004
 3993SOL     OW12877   1.310   2.806   2.145
 3993SOL    HW112878   1.248   2.793   2.222
 3993SOL    HW212879   1.400   2.835   2.178
 3994SOL     OW12880   1.963   6.760   6.222
 3994SOL    HW112881   1.966   6.677   6.167
 3994SOL    HW212882   1.961   6.840   6.162
 3995SOL     OW12883   1.779   3.844   6.141
 3995SOL    HW112884   1.735   3.929   6.171
 3995SOL    HW212885   1.740   3.815   6.054
 3996SOL     OW12886   0.443   6.461   4.925
 3996SOL    HW112887   0.501   6.402   4.869
 3996SOL    HW212888   0.367   6.496   4.870
 3997SOL     OW12889   5.609   1.407   2.957
 3997SOL    HW112890   5.657   1.436   3.039
 3997SOL    HW212891   5.675   1.373   2.890
 3998SOL     OW12892   3.535   1.149   3.787
 3998SOL    HW112893   3.584   1.121   3.870
 3998SOL    HW212894   3.451   1.097   3.778
 3999SOL     OW12895   5.778   2.510   4.014
 3999SOL    HW112896   5.820   2.599   4.034
 3999SOL    HW212897   5.763   2.460   4.099
 4000SOL     OW12898   2.970   0.007   3.529
 4000SOL    HW112899   3.050   6.984   3.568
 4000SOL    HW212900   2.999   0.066   3.454
 4001SOL     OW12901   2.523   1.500   3.877
 4001SOL    HW112902   2.564   1.567   3.815
 4001SOL    HW212903   2.554   1.519   3.971
 4002SOL     OW12904   3.441   4.094   0.874
 4002SOL    HW112905   3.400   4.169   0.927
 4002SOL    HW212906   3.526   4.125   0.832
 4003SOL     OW12907   3.260   0.038   3.972
 4003SOL    HW112908   3.230   0.112   4.032
 4003SOL    HW212909   3.358   0.021   3.985
 4004SOL     OW12910   5.415   1.986   4.175
 4004SOL    HW112911   5.389   1.938   4.092
 4004SOL    HW212912   5.513   1.977   4.190
 4005SOL     OW12913   4.933   5.441   0.104
 4005SOL    HW112914   5.003   5.513   0.103
 4005SOL    HW212915   4.978   5.352   0.108
 4006SOL     OW12916   4.569   5.304   2.297
 4006SOL    HW112917   4.616   5.267   2.217
 4006SOL    HW212918   4.583   5.403   2.300
 4007SOL     OW12919   0.130   2.528   6.559
 4007SOL    HW112920   0.220   2.532   6.603
 4007SOL    HW212921   0.084   2.616   6.568
 4008SOL     OW12922   2.904   2.011   4.888
 4008SOL    HW112923   2.961   2.029   4.968
 4008SOL    HW212924   2.845   2.090   4.871
 4009SOL     OW12925   4.635   3.124   1.184
 4009SOL    HW112926   4.632   3.192   1.257
 4009SOL    HW212927   4.570   3.051   1.204
 4010SOL     OW12928   2.257   2.863   1.359
 4010SOL    HW112929   2.221   2.947   1.400
 4010SOL    HW212930   2.354   2.874   1.338
 4011SOL     OW12931   0.888   1.458   2.131
 4011SOL    HW112932   0.965   1.432   2.189
 4011SOL    HW212933   0.914   1.448   2.035
 4012SOL     OW12934   6.815   4.262   1.746
 4012SOL    HW112935   6.757   4.343   1.741
 4012SOL    HW212936   6.834   4.229   1.654
 4013SOL     OW12937   3.714   1.516   5.046
 4013SOL    HW112938   3.711   1.597   4.989
 4013SOL    HW212939   3.785   1.526   5.116
 4014SOL     OW12940   5.755   6.346   2.394
 4014SOL    HW112941   5.709   6.400   2.464
 4014SOL    HW212942   5.692   6.327   2.319
 4015SOL     OW12943   5.026   4.790   6.361
 4015SOL    HW112944   4.997   4.875   6.317
 4015SOL    HW212945   4.946   4.742   6.397
 4016SOL     OW12946   2.375   6.234   6.148
 4016SOL    HW112947   2.305   6.162   6.139
 4016SOL    HW212948   2.418   6.227   6.238
 4017SOL     OW12949   0.111   6.079   0.744
 4017SOL    HW112950   0.013   6.071   0.722
 4017SOL    HW212951   0.129   6.034   0.831
 4018SOL     OW12952   3.845   5.713   2.392
 4018SOL    HW112953   3.934   5.672   2.414
 4018SOL    HW212954   3.773   5.645   2.405
 4019SOL     OW12955   5.060   4.687   3.289
 4019SOL    HW112956   5.076   4.701   3.192
 4019SOL    HW212957   5.094   4.597   3.316
 4020SOL     OW12958   4.623   2.005   5.255
 4020SOL    HW112959   4.582   2.009   5.347
 4020SOL    HW212960   4.551   2.010   5.186
 4021SOL     OW12961   3.503   5.061   6.741
 4021SOL    HW112962   3.509   5.000   6.662
 4021SOL    HW212963   3.441   5.137   6.719
 4022SOL     OW12964   4.683   1.617   0.051
 4022SOL    HW112965   4.712   1.699   0.101
 4022SOL    HW212966   4.734   1.538   0.085
 4023SOL     OW12967   6.257   1.970   4.911
 4023SOL    HW112968   6.291   1.880   4.939
 4023SOL    HW212969   6.222   2.019   4.990
 4024SOL     OW12970   3.691   5.967   4.700
 4024SOL    HW112971   3.603   5.965   4.651
 4024SOL    HW212972   3.717   6.062   4.716
 4025SOL     OW12973   0.982   3.628   3.202
 4025SOL    HW112974   1.050   3.571   3.154
 4025SOL    HW212975   0.944   3.576   3.278
 4026SOL     OW12976   5.546   5.872   4.104
 4026SOL    HW112977   5.635   5.915   4.122
 4026SOL    HW212978   5.555   5.773   4.113
 4027SOL     OW12979   3.646   4.142   1.846
 4027SOL    HW112980   3.671   4.078   1.774
 4027SOL    HW212981   3.728   4.184   1.884
 4028SOL     OW12982   1.975   2.325   4.231
 4028SOL    HW112983   2.042   2.377   4.284
 4028SOL    HW212984   1.967   2.233   4.270
 4029SOL     OW12985   1.869   3.629   5.530
 4029SOL    HW112986   1.903   3.584   5.448
 4029SOL    HW212987   1.904   3.723   5.534
 4030SOL     OW12988   0.423   1.624   5.544
 4030SOL    HW112989   0.331   1.641   5.509
 4030SOL    HW212990   0.480   1.585   5.472
 4031SOL     OW12991   4.450   5.546   3.650
 4031SOL    HW112992   4.389   5.525   3.574
 4031SOL    HW212993   4.413   5.622   3.703
 4032SOL     OW12994   5.779   6.804   4.079
 4032SOL    HW112995   5.697   6.860   4.075
 4032SOL    HW212996   5.825   6.805   3.989
 4033SOL     OW12997   2.888   3.682   4.391
 4033SOL    HW112998   2.883   3.587   4.362
 4033SOL    HW212999   2.841   3.740   4.324
 4034SOL     OW13000   6.643   1.499   4.465
 4034SOL    HW113001   6.617   1.466   4.375
 4034SOL    HW213002   6.656   1.598   4.461
 4035SOL     OW13003   0.399   4.399   6.561
 4035SOL    HW113004   0.486   4.404   6.512
 4035SOL    HW213005   0.379   4.487   6.603
 4036SOL     OW13006   6.061   6.067   2.740
 4036SOL    HW113007   6.028   6.094   2.649
 4036SOL    HW213008   6.004   5.993   2.775
 4037SOL     OW13009   0.799   3.412   6.711
 4037SOL    HW113010   0.892   3.441   6.685
 4037SOL    HW213011   0.787   3.423   6.809
 4038SOL     OW13012   5.153   4.423   3.384
 4038SOL    HW113013   5.181   4.333   3.350
 4038SOL    HW213014   5.209   4.447   3.464
 4039SOL     OW13015   5.446   6.319   0.246
 4039SOL    HW113016   5.536   6.332   0.288
 4039SOL    HW213017   5.383   6.282   0.314
 4040SOL     OW13018   3.174   6.789   1.213
 4040SOL    HW113019   3.171   6.889   1.222
 4040SOL    HW213020   3.267   6.760   1.191
 4041SOL     OW13021   1.464   6.341   3.456
 4041SOL    HW113022   1.386   6.401   3.476
 4041SOL    HW213023   1.537   6.393   3.413
 4042SOL     OW13024   5.786   5.313   1.620
 4042SOL    HW113025   5.703   5.269   1.651
 4042SOL    HW213026   5.771   5.354   1.530
 4043SOL     OW13027   5.357   2.164   2.456
 4043SOL    HW113028   5.268   2.146   2.414
 4043SOL    HW213029   5.409   2.079   2.463
 4044SOL     OW13030   5.886   0.019   3.450
 4044SOL    HW113031   5.979   7.010   3.432
 4044SOL    HW213032   5.822   6.966   3.442
 4045SOL     OW13033   1.776   5.112   6.556
 4045SOL    HW113034   1.818   5.027   6.588
 4045SOL    HW213035   1.844   5.168   6.510
 4046SOL     OW13036   1.082   2.693   1.706
 4046SOL    HW113037   0.989   2.680   1.742
 4046SOL    HW213038   1.077   2.705   1.607
 4047SOL     OW13039   3.161   3.752   1.660
 4047SOL    HW113040   3.189   3.798   1.576
 4047SOL    HW213041   3.082   3.799   1.700
 4048SOL     OW13042   5.213   0.485   0.843
 4048SOL    HW113043   5.257   0.404   0.805
 4048SOL    HW213044   5.151   0.458   0.917
 4049SOL     OW13045   5.387   6.648   5.555
 4049SOL    HW113046   5.306   6.598   5.523
 4049SOL    HW213047   5.399   6.632   5.653
 4050SOL     OW13048   1.457   6.209   0.604
 4050SOL    HW113049   1.477   6.291   0.657
 4050SOL    HW213050   1.463   6.129   0.664
 4051SOL     OW13051   3.028   4.484   0.664
 4051SOL    HW113052   3.093   4.430   0.611
 4051SOL    HW213053   3.046   4.472   0.762
 4052SOL     OW13054   0.792   0.561   0.138
 4052SOL    HW113055   0.750   0.509   0.212
 4052SOL    HW213056   0.770   0.658   0.149
 4053SOL     OW13057   3.440   4.954   3.497
 4053SOL    HW113058   3.489   4.922   3.578
 4053SOL    HW213059   3.428   5.053   3.502
 4054SOL     OW13060   3.636   2.301   1.140
 4054SOL    HW113061   3.589   2.247   1.070
 4054SOL    HW213062   3.630   2.398   1.117
 4055SOL     OW13063   3.743   1.844   6.103
 4055SOL    HW113064   3.665   1.905   6.116
 4055SOL    HW213065   3.828   1.893   6.122
 4056SOL     OW13066   3.832   3.223   6.891
 4056SOL    HW113067   3.755   3.163   6.914
 4056SOL    HW213068   3.823   3.253   6.796
 4057SOL     OW13069   4.516   2.824   6.345
 4057SOL    HW113070   4.530   2.802   6.249
 4057SOL    HW213071   4.475   2.915   6.353
 4058SOL     OW13072   2.117   1.156   5.668
 4058SOL    HW113073   2.151   1.181   5.759
 4058SOL    HW213074   2.075   1.236   5.625
 4059SOL     OW13075   1.589   2.000   5.351
 4059SOL    HW113076   1.600   1.903   5.371
 4059SOL    HW213077   1.644   2.024   5.270
 4060SOL     OW13078   4.059   5.114   4.243
 4060SOL    HW113079   3.993   5.170   4.294
 4060SOL    HW213080   4.038   5.017   4.257
 4061SOL     OW13081   3.117   3.979   2.144
 4061SOL    HW113082   3.204   4.001   2.100
 4061SOL    HW213083   3.119   4.012   2.239
 4062SOL     OW13084   3.057   0.643   2.950
 4062SOL    HW113085   3.033   0.572   2.884
 4062SOL    HW213086   3.155   0.661   2.946
 4063SOL     OW13087   3.247   5.030   6.020
 4063SOL    HW113088   3.153   5.020   5.987
 4063SOL    HW213089   3.305   4.960   5.978
 4064SOL     OW13090   6.887   0.727   3.817
 4064SOL    HW113091   6.961   0.790   3.796
 4064SOL    HW213092   6.924   0.636   3.833
 4065SOL     OW13093   6.592   7.001   0.515
 4065SOL    HW113094   6.576   0.018   0.605
 4065SOL    HW213095   6.672   0.022   0.473
 4066SOL     OW13096   5.961   4.370   1.604
 4066SOL    HW113097   6.054   4.404   1.622
 4066SOL    HW213098   5.909   4.440   1.554
 4067SOL     OW13099   6.561   1.733   2.559
 4067SOL    HW113100   6.470   1.753   2.595
 4067SOL    HW213101   6.628   1.796   2.599
 4068SOL     OW13102   5.774   0.309   3.618
 4068SOL    HW113103   5.830   0.336   3.696
 4068SOL    HW213104   5.815   0.230   3.573
 4069SOL     OW13105   5.603   5.568   1.059
 4069SOL    HW113106   5.536   5.642   1.064
 4069SOL    HW213107   5.637   5.559   0.966
 4070SOL     OW13108   2.162   3.838   3.305
 4070SOL    HW113109   2.239   3.789   3.264
 4070SOL    HW213110   2.120   3.898   3.236
 4071SOL     OW13111   1.590   0.319   3.936
 4071SOL    HW113112   1.683   0.341   3.908
 4071SOL    HW213113   1.592   0.244   4.003
 4072SOL     OW13114   1.540   0.044   4.979
 4072SOL    HW113115   1.449   0.070   4.948
 4072SOL    HW213116   1.565   0.098   5.059
 4073SOL     OW13117   2.652   6.238   0.050
 4073SOL    HW113118   2.663   6.237   6.973
 4073SOL    HW213119   2.696   6.320   0.087
 4074SOL     OW13120   1.856   2.569   0.884
 4074SOL    HW113121   1.915   2.605   0.811
 4074SOL    HW213122   1.831   2.475   0.863
 4075SOL     OW13123   5.072   1.604   2.941
 4075SOL    HW113124   5.132   1.557   3.007
 4075SOL    HW213125   5.079   1.559   2.852
 4076SOL     OW13126   1.961   3.602   4.140
 4076SOL    HW113127   1.872   3.646   4.158
 4076SOL    HW213128   1.978   3.603   4.041
 4077SOL     OW13129   3.732   1.378   1.157
 4077SOL    HW113130   3.685   1.299   1.197
 4077SOL    HW213131   3.665   1.449   1.135
 4078SOL     OW13132   6.383   3.951   1.222
 4078SOL    HW113133   6.423   4.024   1.168
 4078SOL    HW213134   6.325   3.989   1.294
 4079SOL     OW13135   0.457   0.391   3.958
 4079SOL    HW113136   0.409   0.377   4.044
 4079SOL    HW213137   0.407   0.457   3.901
 4080SOL     OW13138   3.432   3.919   1.798
 4080SOL    HW113139   3.350   3.913   1.740
 4080SOL    HW213140   3.482   4.003   1.778
 4081SOL     OW13141   1.914   1.871   5.486
 4081SOL    HW113142   1.894   1.969   5.491
 4081SOL    HW213143   1.998   1.851   5.537
 4082SOL     OW13144   1.264   2.729   4.583
 4082SOL    HW113145   1.184   2.763   4.633
 4082SOL    HW213146   1.260   2.761   4.489
 4083SOL     OW13147   5.411   5.172   2.987
 4083SOL    HW113148   5.338   5.227   3.027
 4083SOL    HW213149   5.425   5.198   2.892
 4084SOL     OW13150   4.051   0.815   3.278
 4084SOL    HW113151   4.086   0.868   3.201
 4084SOL    HW213152   4.007   0.876   3.343
 4085SOL     OW13153   3.233   4.896   2.256
 4085SOL    HW113154   3.301   4.853   2.196
 4085SOL    HW213155   3.141   4.877   2.220
 4086SOL     OW13156   6.540   5.379   6.117
 4086SOL    HW113157   6.477   5.344   6.048
 4086SOL    HW213158   6.632   5.344   6.098
 4087SOL     OW13159   2.887   0.318   2.430
 4087SOL    HW113160   2.931   0.295   2.517
 4087SOL    HW213161   2.919   0.256   2.359
 4088SOL     OW13162   0.571   1.415   5.708
 4088SOL    HW113163   0.622   1.369   5.635
 4088SOL    HW213164   0.529   1.498   5.673
 4089SOL     OW13165   0.540   0.070   4.087
 4089SOL    HW113166   0.482   0.014   4.028
 4089SOL    HW213167   0.568   0.153   4.039
 4090SOL     OW13168   2.970   0.443   5.544
 4090SOL    HW113169   2.928   0.523   5.500
 4090SOL    HW213170   3.028   0.395   5.479
 4091SOL     OW13171   2.075   5.353   1.342
 4091SOL    HW113172   2.022   5.434   1.318
 4091SOL    HW213173   2.029   5.303   1.416
 4092SOL     OW13174   4.895   3.216   4.030
 4092SOL    HW113175   4.985   3.198   3.990
 4092SOL    HW213176   4.877   3.315   4.028
 4093SOL     OW13177   4.532   5.649   3.057
 4093SOL    HW113178   4.542   5.573   2.993
 4093SOL    HW213179   4.474   5.620   3.133
 4094SOL     OW13180   0.052   5.700   6.784
 4094SOL    HW113181   0.094   5.614   6.756
 4094SOL    HW213182   6.995   5.718   6.727
 4095SOL     OW13183   0.246   5.215   6.810
 4095SOL    HW113184   0.330   5.265   6.791
 4095SOL    HW213185   0.222   5.160   6.730
 4096SOL     OW13186   1.473   1.865   6.761
 4096SOL    HW113187   1.392   1.811   6.788
 4096SOL    HW213188   1.537   1.869   6.837
 4097SOL     OW13189   7.020   4.515   4.755
 4097SOL    HW113190   6.934   4.546   4.796
 4097SOL    HW213191   0.063   4.590   4.756
 4098SOL     OW13192   2.218   5.067   3.102
 4098SOL    HW113193   2.207   5.135   3.029
 4098SOL    HW213194   2.175   4.982   3.074
 4099SOL     OW13195   4.528   4.922   6.061
 4099SOL    HW113196   4.568   4.966   6.141
 4099SOL    HW213197   4.454   4.979   6.025
 4100SOL     OW13198   1.386   0.636   3.666
 4100SOL    HW113199   1.480   0.615   3.643
 4100SOL    HW213200   1.337   0.553   3.691
 4101SOL     OW13201   6.570   0.676   0.277
 4101SOL    HW113202   6.618   0.749   0.228
 4101SOL    HW213203   6.530   0.613   0.211
 4102SOL     OW13204   1.605   0.862   6.744
 4102SOL    HW113205   1.672   0.823   6.680
 4102SOL    HW213206   1.640   0.948   6.780
 4103SOL     OW13207   1.526   6.424   2.628
 4103SOL    HW113208   1.510   6.340   2.575
 4103SOL    HW213209   1.521   6.402   2.725
 4104SOL     OW13210   0.532   5.777   3.982
 4104SOL    HW113211   0.571   5.687   4.001
 4104SOL    HW213212   0.604   5.846   3.985
 4105SOL     OW13213   4.549   1.295   1.219
 4105SOL    HW113214   4.626   1.307   1.281
 4105SOL    HW213215   4.581   1.258   1.132
 4106SOL     OW13216   6.742   2.266   3.764
 4106SOL    HW113217   6.737   2.174   3.805
 4106SOL    HW213218   6.785   2.260   3.674
 4107SOL     OW13219   6.897   6.412   6.604
 4107SOL    HW113220   6.908   6.441   6.700
 4107SOL    HW213221   6.966   6.458   6.548
 4108SOL     OW13222   6.380   5.474   3.878
 4108SOL    HW113223   6.477   5.497   3.868
 4108SOL    HW213224   6.363   5.438   3.970
 4109SOL     OW13225   6.005   6.683   3.199
 4109SOL    HW113226   5.913   6.651   3.218
 4109SOL    HW213227   6.071   6.612   3.225
 4110SOL     OW13228   4.669   4.207   6.984
 4110SOL    HW113229   4.681   4.266   6.905
 4110SOL    HW213230   4.736   4.132   6.980
 4111SOL     OW13231   6.650   3.838   3.899
 4111SOL    HW113232   6.721   3.891   3.946
 4111SOL    HW213233   6.667   3.741   3.913
 4112SOL     OW13234   4.990   0.066   5.245
 4112SOL    HW113235   5.084   0.069   5.280
 4112SOL    HW213236   4.988   0.018   5.157
 4113SOL     OW13237   3.990   4.882   4.671
 4113SOL    HW113238   4.037   4.799   4.643
 4113SOL    HW213239   3.904   4.858   4.716
 4114SOL     OW13240   0.302   1.761   2.136
 4114SOL    HW113241   0.207   1.774   2.105
 4114SOL    HW213242   0.328   1.665   2.125
 4115SOL     OW13243   3.895   4.847   4.039
 4115SOL    HW113244   3.875   4.817   4.132
 4115SOL    HW213245   3.872   4.944   4.029
 4116SOL     OW13246   5.340   2.499   3.400
 4116SOL    HW113247   5.259   2.493   3.341
 4116SOL    HW213248   5.312   2.497   3.496
 4117SOL     OW13249   1.041   2.268   3.095
 4117SOL    HW113250   1.022   2.186   3.041
 4117SOL    HW213251   0.990   2.263   3.181
 4118SOL     OW13252   6.883   6.798   5.935
 4118SOL    HW113253   6.803   6.744   5.960
 4118SOL    HW213254   6.898   6.870   6.003
 4119SOL     OW13255   2.268   1.305   3.508
 4119SOL    HW113256   2.342   1.239   3.495
 4119SOL    HW213257   2.250   1.316   3.605
 4120SOL     OW13258   2.090   1.144   6.539
 4120SOL    HW113259   2.036   1.063   6.564
 4120SOL    HW213260   2.151   1.167   6.614
 4121SOL     OW13261   6.734   6.767   1.833
 4121SOL    HW113262   6.747   6.715   1.749
 4121SOL    HW213263   6.718   6.863   1.810
 4122SOL     OW13264   6.824   5.001   4.100
 4122SOL    HW113265   6.920   5.025   4.115
 4122SOL    HW213266   6.793   4.939   4.172
 4123SOL     OW13267   3.589   4.938   2.418
 4123SOL    HW113268   3.667   4.935   2.481
 4123SOL    HW213269   3.510   4.895   2.461
 4124SOL     OW13270   6.877   5.946   0.234
 4124SOL    HW113271   6.905   6.036   0.267
 4124SOL    HW213272   6.918   5.930   0.144
 4125SOL     OW13273   5.562   1.889   2.128
 4125SOL    HW113274   5.592   1.814   2.069
 4125SOL    HW213275   5.464   1.881   2.145
 4126SOL     OW13276   1.302   3.380   2.180
 4126SOL    HW113277   1.203   3.393   2.192
 4126SOL    HW213278   1.343   3.464   2.145
 4127SOL     OW13279   3.690   1.874   4.037
 4127SOL    HW113280   3.787   1.866   4.014
 4127SOL    HW213281   3.659   1.967   4.017
 4128SOL     OW13282   6.969   3.151   0.770
 4128SOL    HW113283   0.018   3.181   0.833
 4128SOL    HW213284   6.884   3.199   0.792
 4129SOL     OW13285   2.642   2.868   0.704
 4129SOL    HW113286   2.682   2.782   0.735
 4129SOL    HW213287   2.678   2.891   0.613
 4130SOL     OW13288   5.625   2.952   1.520
 4130SOL    HW113289   5.604   2.898   1.438
 4130SOL    HW213290   5.683   2.897   1.582
 4131SOL     OW13291   4.507   0.693   2.730
 4131SOL    HW113292   4.476   0.774   2.779
 4131SOL    HW213293   4.466   0.691   2.639
 4132SOL     OW13294   6.967   4.185   4.229
 4132SOL    HW113295   6.981   4.283   4.211
 4132SOL    HW213296   0.031   4.137   4.219
 4133SOL     OW13297   5.672   0.147   2.131
 4133SOL    HW113298   5.577   0.116   2.123
 4133SOL    HW213299   5.674   0.237   2.176
 4134SOL     OW13300   2.258   3.204   1.197
 4134SOL    HW113301   2.162   3.202   1.169
 4134SOL    HW213302   2.312   3.148   1.135
 4135SOL     OW13303   0.055   1.449   2.428
 4135SOL    HW113304   0.098   1.454   2.338
 4135SOL    HW213305   0.126   1.455   2.499
 4136SOL     OW13306   1.410   4.607   1.963
 4136SOL    HW113307   1.387   4.558   2.047
 4136SOL    HW213308   1.486   4.560   1.917
 4137SOL     OW13309   1.681   2.536   0.168
 4137SOL    HW113310   1.733   2.620   0.182
 4137SOL    HW213311   1.736   2.458   0.197
 4138SOL     OW13312   4.884   6.397   0.808
 4138SOL    HW113313   4.892   6.320   0.872
 4138SOL    HW213314   4.939   6.474   0.843
 4139SOL     OW13315   2.061   2.606   2.988
 4139SOL    HW113316   1.961   2.614   2.989
 4139SOL    HW213317   2.098   2.638   3.075
 4140SOL     OW13318   2.466   2.338   5.148
 4140SOL    HW113319   2.378   2.363   5.188
 4140SOL    HW213320   2.534   2.409   5.167
 4141SOL     OW13321   4.684   0.035   6.714
 4141SOL    HW113322   4.701   0.131   6.693
 4141SOL    HW213323   4.690   7.004   6.630
 4142SOL     OW13324   6.934   4.106   3.239
 4142SOL    HW113325   6.868   4.181   3.235
 4142SOL    HW213326   6.918   4.044   3.162
 4143SOL     OW13327   5.904   3.007   0.664
 4143SOL    HW113328   5.805   2.993   0.661
 4143SOL    HW213329   5.941   3.005   0.572
 4144SOL     OW13330   5.786   2.101   0.798
 4144SOL    HW113331   5.715   2.117   0.729
 4144SOL    HW213332   5.746   2.107   0.889
 4145SOL     OW13333   0.374   6.831   1.780
 4145SOL    HW113334   0.306   6.902   1.759
 4145SOL    HW213335   0.327   6.744   1.794
 4146SOL     OW13336   5.352   6.428   3.712
 4146SOL    HW113337   5.366   6.430   3.811
 4146SOL    HW213338   5.276   6.366   3.690
 4147SOL     OW13339   5.108   4.102   5.768
 4147SOL    HW113340   5.091   4.128   5.673
 4147SOL    HW213341   5.108   4.002   5.775
 4148SOL     OW13342   3.087   1.167   5.837
 4148SOL    HW113343   3.086   1.165   5.937
 4148SOL    HW213344   2.999   1.137   5.801
 4149SOL     OW13345   2.044   2.800   0.342
 4149SOL    HW113346   2.096   2.880   0.371
 4149SOL    HW213347   2.090   2.717   0.376
 4150SOL     OW13348   5.862   2.444   6.235
 4150SOL    HW113349   5.961   2.457   6.241
 4150SOL    HW213350   5.827   2.491   6.154
 4151SOL     OW13351   2.253   6.470   4.561
 4151SOL    HW113352   2.190   6.397   4.588
 4151SOL    HW213353   2.332   6.472   4.622
 4152SOL     OW13354   2.936   5.253   1.471
 4152SOL    HW113355   2.941   5.306   1.387
 4152SOL    HW213356   2.868   5.180   1.460
 4153SOL     OW13357   6.788   4.991   1.480
 4153SOL    HW113358   6.863   4.967   1.542
 4153SOL    HW213359   6.774   4.917   1.415
 4154SOL     OW13360   1.240   6.047   4.477
 4154SOL    HW113361   1.317   6.100   4.512
 4154SOL    HW213362   1.202   5.991   4.551
 4155SOL     OW13363   0.905   2.154   1.562
 4155SOL    HW113364   0.970   2.102   1.618
 4155SOL    HW213365   0.953   2.190   1.482
 4156SOL     OW13366   6.810   5.015   5.174
 4156SOL    HW113367   6.904   4.985   5.188
 4156SOL    HW213368   6.801   5.059   5.085
 4157SOL     OW13369   6.787   6.190   2.219
 4157SOL    HW113370   6.780   6.140   2.306
 4157SOL    HW213371   6.811   6.126   2.146
 4158SOL     OW13372   1.403   2.647   2.449
 4158SOL    HW113373   1.423   2.637   2.547
 4158SOL    HW213374   1.380   2.558   2.410
 4159SOL     OW13375   2.982   1.562   3.814
 4159SOL    HW113376   3.006   1.657   3.838
 4159SOL    HW213377   2.944   1.516   3.894
 4160SOL     OW13378   6.514   0.351   6.290
 4160SOL    HW113379   6.587   0.340   6.223
 4160SOL    HW213380   6.462   0.266   6.297
 4161SOL     OW13381   2.972   2.426   1.479
 4161SOL    HW113382   2.980   2.399   1.575
 4161SOL    HW213383   2.965   2.344   1.422
 4162SOL     OW13384   6.235   6.247   1.489
 4162SOL    HW113385   6.312   6.232   1.427
 4162SOL    HW213386   6.267   6.246   1.584
 4163SOL     OW13387   3.641   6.518   1.169
 4163SOL    HW113388   3.619   6.520   1.072
 4163SOL    HW213389   3.732   6.478   1.182
 4164SOL     OW13390   6.588   6.952   4.718
 4164SOL    HW113391   6.565   7.008   4.798
 4164SOL    HW213392   6.651   6.880   4.745
 4165SOL     OW13393   4.818   1.123   5.709
 4165SOL    HW113394   4.818   1.069   5.625
 4165SOL    HW213395   4.912   1.151   5.730
 4166SOL     OW13396   6.000   0.685   2.478
 4166SOL    HW113397   5.995   0.760   2.413
 4166SOL    HW213398   5.957   0.712   2.564
 4167SOL     OW13399   3.997   5.327   5.626
 4167SOL    HW113400   3.986   5.257   5.555
 4167SOL    HW213401   3.927   5.315   5.696
 4168SOL     OW13402   5.850   4.537   0.412
 4168SOL    HW113403   5.888   4.497   0.329
 4168SOL    HW213404   5.923   4.555   0.477
 4169SOL     OW13405   4.896   3.876   4.984
 4169SOL    HW113406   4.864   3.782   4.985
 4169SOL    HW213407   4.900   3.909   4.890
 4170SOL     OW13408   5.763   3.645   4.640
 4170SOL    HW113409   5.691   3.688   4.586
 4170SOL    HW213410   5.754   3.673   4.736
 4171SOL     OW13411   1.094   3.902   1.004
 4171SOL    HW113412   1.057   3.870   0.916
 4171SOL    HW213413   1.158   3.834   1.040
 4172SOL     OW13414   2.845   4.021   0.692
 4172SOL    HW113415   2.872   4.078   0.769
 4172SOL    HW213416   2.773   3.958   0.720
 4173SOL     OW13417   4.822   2.745   4.988
 4173SOL    HW113418   4.757   2.669   4.988
 4173SOL    HW213419   4.849   2.766   4.894
 4174SOL     OW13420   4.295   0.652   4.512
 4174SOL    HW113421   4.327   0.558   4.527
 4174SOL    HW213422   4.357   0.716   4.557
 4175SOL     OW13423   1.775   4.523   6.524
 4175SOL    HW113424   1.802   4.560   6.613
 4175SOL    HW213425   1.687   4.477   6.532
 4176SOL     OW13426   4.791   6.510   6.385
 4176SOL    HW113427   4.800   6.609   6.400
 4176SOL    HW213428   4.879   6.466   6.405
 4177SOL     OW13429   4.370   4.641   3.962
 4177SOL    HW113430   4.363   4.638   3.862
 4177SOL    HW213431   4.280   4.657   4.001
 4178SOL     OW13432   3.350   5.523   2.195
 4178SOL    HW113433   3.394   5.449   2.145
 4178SOL    HW213434   3.285   5.485   2.260
 4179SOL     OW13435   4.879   2.963   4.147
 4179SOL    HW113436   4.899   3.053   4.108
 4179SOL    HW213437   4.886   2.894   4.075
 4180SOL     OW13438   5.482   3.261   0.320
 4180SOL    HW113439   5.484   3.215   0.408
 4180SOL    HW213440   5.457   3.196   0.248
 4181SOL     OW13441   5.212   0.110   5.417
 4181SOL    HW113442   5.238   0.081   5.509
 4181SOL    HW213443   5.200   0.209   5.416
 4182SOL     OW13444   6.795   6.026   3.884
 4182SOL    HW113445   6.714   6.052   3.937
 4182SOL    HW213446   6.837   5.945   3.925
 4183SOL     OW13447   2.780   1.256   1.827
 4183SOL    HW113448   2.689   1.219   1.808
 4183SOL    HW213449   2.805   1.236   1.922
 4184SOL     OW13450   3.206   5.926   3.346
 4184SOL    HW113451   3.224   5.966   3.436
 4184SOL    HW213452   3.113   5.948   3.317
 4185SOL     OW13453   6.766   3.780   3.279
 4185SOL    HW113454   6.858   3.821   3.272
 4185SOL    HW213455   6.702   3.850   3.311
 4186SOL     OW13456   1.431   5.664   0.094
 4186SOL    HW113457   1.504   5.678   0.028
 4186SOL    HW213458   1.368   5.742   0.090
 4187SOL     OW13459   1.696   3.796   0.002
 4187SOL    HW113460   1.618   3.837   6.979
 4187SOL    HW213461   1.767   3.866   0.014
 4188SOL     OW13462   4.753   0.289   6.640
 4188SOL    HW113463   4.815   0.246   6.574
 4188SOL    HW213464   4.734   0.383   6.611
 4189SOL     OW13465   4.636   5.914   2.965
 4189SOL    HW113466   4.565   5.938   2.899
 4189SOL    HW213467   4.617   5.824   3.004
 4190SOL     OW13468   0.319   0.087   0.944
 4190SOL    HW113469   0.240   0.028   0.928
 4190SOL    HW213470   0.390   0.067   0.876
 4191SOL     OW13471   4.681   4.364   5.989
 4191SOL    HW113472   4.680   4.271   5.952
 4191SOL    HW213473   4.607   4.374   6.055
 4192SOL     OW13474   1.453   1.960   2.259
 4192SOL    HW113475   1.494   1.979   2.348
 4192SOL    HW213476   1.358   1.989   2.260
 4193SOL     OW13477   6.269   0.671   1.143
 4193SOL    HW113478   6.238   0.578   1.164
 4193SOL    HW213479   6.254   0.689   1.046
 4194SOL     OW13480   4.540   0.899   5.501
 4194SOL    HW113481   4.581   0.984   5.467
 4194SOL    HW213482   4.555   0.891   5.599
 4195SOL     OW13483   4.657   5.849   1.863
 4195SOL    HW113484   4.573   5.894   1.831
 4195SOL    HW213485   4.733   5.875   1.804
 4196SOL     OW13486   6.769   2.015   3.439
 4196SOL    HW113487   6.800   1.974   3.353
 4196SOL    HW213488   6.828   2.093   3.462
 4197SOL     OW13489   3.609   6.575   6.318
 4197SOL    HW113490   3.659   6.492   6.292
 4197SOL    HW213491   3.555   6.556   6.401
 4198SOL     OW13492   6.798   0.590   2.369
 4198SOL    HW113493   6.717   0.541   2.335
 4198SOL    HW213494   6.774   0.641   2.452
 4199SOL     OW13495   1.233   4.137   6.331
 4199SOL    HW113496   1.212   4.075   6.256
 4199SOL    HW213497   1.155   4.198   6.346
 4200SOL     OW13498   4.404   0.668   5.124
 4200SOL    HW113499   4.320   0.681   5.072
 4200SOL    HW213500   4.404   0.728   5.204
 4201SOL     OW13501   5.930   0.381   3.830
 4201SOL    HW113502   6.023   0.410   3.852
 4201SOL    HW213503   5.865   0.448   3.865
 4202SOL     OW13504   3.742   5.727   0.357
 4202SOL    HW113505   3.657   5.737   0.408
 4202SOL    HW213506   3.751   5.633   0.325
 4203SOL     OW13507   5.694   5.436   0.168
 4203SOL    HW113508   5.668   5.451   0.263
 4203SOL    HW213509   5.770   5.497   0.144
 4204SOL     OW13510   3.339   3.596   5.665
 4204SOL    HW113511   3.288   3.513   5.688
 4204SOL    HW213512   3.379   3.635   5.747
 4205SOL     OW13513   3.712   5.612   5.185
 4205SOL    HW113514   3.811   5.607   5.196
 4205SOL    HW213515   3.690   5.618   5.088
 4206SOL     OW13516   1.957   2.282   4.774
 4206SOL    HW113517   1.953   2.274   4.675
 4206SOL    HW213518   2.035   2.229   4.809
 4207SOL     OW13519   2.128   2.330   1.783
 4207SOL    HW113520   2.157   2.283   1.700
 4207SOL    HW213521   2.028   2.338   1.784
 4208SOL     OW13522   1.822   3.956   4.757
 4208SOL    HW113523   1.916   3.967   4.788
 4208SOL    HW213524   1.816   3.878   4.695
 4209SOL     OW13525   0.160   5.611   2.578
 4209SOL    HW113526   0.124   5.695   2.619
 4209SOL    HW213527   0.155   5.617   2.478
 4210SOL     OW13528   4.145   3.527   4.937
 4210SOL    HW113529   4.065   3.559   4.885
 4210SOL    HW213530   4.228   3.563   4.895
 4211SOL     OW13531   3.559   2.152   5.270
 4211SOL    HW113532   3.532   2.055   5.265
 4211SOL    HW213533   3.476   2.208   5.277
 4212SOL     OW13534   7.013   1.528   3.808
 4212SOL    HW113535   6.976   1.452   3.860
 4212SOL    HW213536   6.987   1.614   3.852
 4213SOL     OW13537   3.107   0.901   2.849
 4213SOL    HW113538   3.099   0.975   2.916
 4213SOL    HW213539   3.071   0.817   2.890
 4214SOL     OW13540   0.916   5.214   4.239
 4214SOL    HW113541   1.013   5.239   4.227
 4214SOL    HW213542   0.909   5.115   4.252
 4215SOL     OW13543   5.161   6.224   4.944
 4215SOL    HW113544   5.162   6.128   4.915
 4215SOL    HW213545   5.080   6.241   4.999
 4216SOL     OW13546   1.962   0.469   2.750
 4216SOL    HW113547   1.881   0.437   2.797
 4216SOL    HW213548   2.003   0.545   2.802
 4217SOL     OW13549   1.473   0.275   2.126
 4217SOL    HW113550   1.495   0.215   2.204
 4217SOL    HW213551   1.550   0.275   2.062
 4218SOL     OW13552   3.496   1.499   1.124
 4218SOL    HW113553   3.457   1.429   1.184
 4218SOL    HW213554   3.430   1.572   1.110
 4219SOL     OW13555   4.343   6.359   4.225
 4219SOL    HW113556   4.407   6.305   4.170
 4219SOL    HW213557   4.251   6.349   4.187
 4220SOL     OW13558   4.957   2.131   1.701
 4220SOL    HW113559   4.915   2.195   1.636
 4220SOL    HW213560   4.965   2.041   1.658
 4221SOL     OW13561   6.583   5.528   6.556
 4221SOL    HW113562   6.568   5.524   6.654
 4221SOL    HW213563   6.508   5.482   6.509
 4222SOL     OW13564   5.260   2.115   3.673
 4222SOL    HW113565   5.306   2.068   3.748
 4222SOL    HW213566   5.322   2.184   3.635
 4223SOL     OW13567   4.283   4.284   1.398
 4223SOL    HW113568   4.333   4.208   1.440
 4223SOL    HW213569   4.185   4.266   1.404
 4224SOL     OW13570   5.182   4.150   4.709
 4224SOL    HW113571   5.260   4.126   4.767
 4224SOL    HW213572   5.120   4.210   4.760
 4225SOL     OW13573   0.675   2.314   5.217
 4225SOL    HW113574   0.757   2.340   5.268
 4225SOL    HW213575   0.701   2.258   5.139
 4226SOL     OW13576   0.644   5.510   4.654
 4226SOL    HW113577   0.557   5.507   4.606
 4226SOL    HW213578   0.681   5.418   4.662
 4227SOL     OW13579   4.959   5.798   1.784
 4227SOL    HW113580   4.982   5.858   1.861
 4227SOL    HW213581   4.985   5.704   1.806
 4228SOL     OW13582   1.113   5.863   4.693
 4228SOL    HW113583   1.162   5.816   4.766
 4228SOL    HW213584   1.028   5.901   4.729
 4229SOL     OW13585   5.566   5.488   6.184
 4229SOL    HW113586   5.594   5.408   6.131
 4229SOL    HW213587   5.570   5.570   6.127
 4230SOL     OW13588   1.481   0.024   2.651
 4230SOL    HW113589   1.561   7.015   2.601
 4230SOL    HW213590   1.501   0.113   2.692
 4231SOL     OW13591   5.404   0.768   5.381
 4231SOL    HW113592   5.462   0.833   5.332
 4231SOL    HW213593   5.460   0.693   5.416
 4232SOL     OW13594   2.275   5.400   3.465
 4232SOL    HW113595   2.333   5.319   3.463
 4232SOL    HW213596   2.330   5.481   3.486
 4233SOL     OW13597   6.138   6.452   4.050
 4233SOL    HW113598   6.116   6.527   4.113
 4233SOL    HW213599   6.228   6.414   4.074
 4234SOL     OW13600   2.172   5.373   5.566
 4234SOL    HW113601   2.181   5.327   5.478
 4234SOL    HW213602   2.253   5.429   5.583
 4235SOL     OW13603   6.623   4.540   5.473
 4235SOL    HW113604   6.710   4.584   5.447
 4235SOL    HW213605   6.548   4.604   5.457
 4236SOL     OW13606   0.350   5.240   2.497
 4236SOL    HW113607   0.436   5.271   2.538
 4236SOL    HW213608   0.364   5.151   2.454
 4237SOL     OW13609   6.705   3.601   4.051
 4237SOL    HW113610   6.797   3.571   4.080
 4237SOL    HW213611   6.642   3.523   4.055
 4238SOL     OW13612   1.464   1.032   3.177
 4238SOL    HW113613   1.490   1.125   3.152
 4238SOL    HW213614   1.372   1.012   3.142
 4239SOL     OW13615   4.520   0.865   3.144
 4239SOL    HW113616   4.551   0.789   3.201
 4239SOL    HW213617   4.464   0.927   3.198
 4240SOL     OW13618   1.703   5.117   0.302
 4240SOL    HW113619   1.667   5.209   0.320
 4240SOL    HW213620   1.797   5.110   0.336
 4241SOL     OW13621   0.493   1.820   0.467
 4241SOL    HW113622   0.490   1.807   0.567
 4241SOL    HW213623   0.403   1.848   0.435
 4242SOL     OW13624   2.589   2.407   4.205
 4242SOL    HW113625   2.540   2.435   4.287
 4242SOL    HW213626   2.686   2.392   4.226
 4243SOL     OW13627   5.230   0.871   2.909
 4243SOL    HW113628   5.264   0.822   2.829
 4243SOL    HW213629   5.141   0.835   2.935
 4244SOL     OW13630   3.748   3.592   2.219
 4244SOL    HW113631   3.729   3.663   2.151
 4244SOL    HW213632   3.699   3.614   2.304
 4245SOL     OW13633   6.837   2.015   5.876
 4245SOL    HW113634   6.746   1.980   5.854
 4245SOL    HW213635   6.894   2.016   5.794
 4246SOL     OW13636   6.560   3.966   2.817
 4246SOL    HW113637   6.467   3.954   2.851
 4246SOL    HW213638   6.625   3.937   2.887
 4247SOL     OW13639   0.046   5.969   4.883
 4247SOL    HW113640   0.075   6.009   4.796
 4247SOL    HW213641   0.121   5.972   4.949
 4248SOL     OW13642   1.517   2.396   5.357
 4248SOL    HW113643   1.585   2.427   5.291
 4248SOL    HW213644   1.453   2.333   5.312
 4249SOL     OW13645   6.920   2.844   5.579
 4249SOL    HW113646   6.886   2.931   5.544
 4249SOL    HW213647   6.932   2.850   5.678
 4250SOL     OW13648   6.816   4.956   3.463
 4250SOL    HW113649   6.770   4.868   3.461
 4250SOL    HW213650   6.899   4.949   3.519
 4251SOL     OW13651   5.832   4.054   0.535
 4251SOL    HW113652   5.857   4.009   0.620
 4251SOL    HW213653   5.733   4.063   0.529
 4252SOL     OW13654   6.500   5.737   4.934
 4252SOL    HW113655   6.556   5.803   4.984
 4252SOL    HW213656   6.469   5.778   4.848
 4253SOL     OW13657   4.212   0.623   1.402
 4253SOL    HW113658   4.294   0.584   1.361
 4253SOL    HW213659   4.169   0.685   1.337
 4254SOL     OW13660   1.629   3.094   1.681
 4254SOL    HW113661   1.546   3.043   1.657
 4254SOL    HW213662   1.606   3.174   1.735
 4255SOL     OW13663   5.851   2.616   3.777
 4255SOL    HW113664   5.802   2.550   3.833
 4255SOL    HW213665   5.794   2.698   3.764
 4256SOL     OW13666   1.546   6.913   1.219
 4256SOL    HW113667   1.465   6.972   1.209
 4256SOL    HW213668   1.528   6.844   1.290
 4257SOL     OW13669   3.358   1.656   5.431
 4257SOL    HW113670   3.361   1.633   5.528
 4257SOL    HW213671   3.410   1.588   5.379
 4258SOL     OW13672   5.853   6.658   2.136
 4258SOL    HW113673   5.854   6.710   2.221
 4258SOL    HW213674   5.926   6.591   2.135
 4259SOL     OW13675   2.434   1.373   6.827
 4259SOL    HW113676   2.365   1.300   6.835
 4259SOL    HW213677   2.391   1.455   6.788
 4260SOL     OW13678   4.336   6.016   3.754
 4260SOL    HW113679   4.270   6.037   3.682
 4260SOL    HW213680   4.388   6.098   3.776
 4261SOL     OW13681   2.701   6.617   1.577
 4261SOL    HW113682   2.726   6.565   1.658
 4261SOL    HW213683   2.726   6.713   1.589
 4262SOL     OW13684   1.901   5.239   5.739
 4262SOL    HW113685   1.981   5.258   5.683
 4262SOL    HW213686   1.847   5.167   5.696
 4263SOL     OW13687   2.647   6.302   4.491
 4263SOL    HW113688   2.630   6.395   4.460
 4263SOL    HW213689   2.741   6.276   4.468
 4264SOL     OW13690   0.153   1.664   0.321
 4264SOL    HW113691   0.127   1.760   0.324
 4264SOL    HW213692   0.106   1.618   0.246
 4265SOL     OW13693   6.581   1.980   0.362
 4265SOL    HW113694   6.503   1.918   0.374
 4265SOL    HW213695   6.606   1.982   0.265
 4266SOL     OW13696   3.167   5.524   0.111
 4266SOL    HW113697   3.238   5.591   0.091
 4266SOL    HW213698   3.078   5.560   0.082
 4267SOL     OW13699   2.082   3.944   4.896
 4267SOL    HW113700   2.171   3.973   4.933
 4267SOL    HW213701   2.083   3.846   4.880
 4268SOL     OW13702   1.397   6.428   0.342
 4268SOL    HW113703   1.477   6.487   0.338
 4268SOL    HW213704   1.420   6.338   0.305
 4269SOL     OW13705   2.624   2.416   0.206
 4269SOL    HW113706   2.587   2.378   0.290
 4269SOL    HW213707   2.655   2.510   0.222
 4270SOL     OW13708   3.839   3.526   4.500
 4270SOL    HW113709   3.842   3.430   4.531
 4270SOL    HW213710   3.754   3.541   4.449
 4271SOL     OW13711   0.065   0.083   5.118
 4271SOL    HW113712   7.007   0.033   5.147
 4271SOL    HW213713   0.146   0.048   5.164
 4272SOL     OW13714   7.015   4.828   4.994
 4272SOL    HW113715   0.084   4.848   5.027
 4272SOL    HW213716   6.990   4.734   5.016
 4273SOL     OW13717   4.750   6.280   4.757
 4273SOL    HW113718   4.780   6.284   4.661
 4273SOL    HW213719   4.688   6.202   4.769
 4274SOL     OW13720   0.593   6.583   3.432
 4274SOL    HW113721   0.606   6.531   3.348
 4274SOL    HW213722   0.498   6.575   3.462
 4275SOL     OW13723   0.030   0.751   5.898
 4275SOL    HW113724   7.001   0.824   5.854
 4275SOL    HW213725   6.990   0.684   5.937
 4276SOL     OW13726   1.535   5.396   2.614
 4276SOL    HW113727   1.584   5.380   2.528
 4276SOL    HW213728   1.513   5.309   2.657
 4277SOL     OW13729   6.802   4.945   3.820
 4277SOL    HW113730   6.884   4.891   3.797
 4277SOL    HW213731   6.807   4.974   3.915
 4278SOL     OW13732   6.727   6.667   4.956
 4278SOL    HW113733   6.745   6.588   5.014
 4278SOL    HW213734   6.663   6.729   5.002
 4279SOL     OW13735   3.677   6.450   5.507
 4279SOL    HW113736   3.632   6.363   5.486
 4279SOL    HW213737   3.618   6.525   5.479
 4280SOL     OW13738   6.322   1.428   5.308
 4280SOL    HW113739   6.246   1.484   5.342
 4280SOL    HW213740   6.323   1.340   5.355
 4281SOL     OW13741   1.781   4.819   4.481
 4281SOL    HW113742   1.763   4.761   4.402
 4281SOL    HW213743   1.876   4.849   4.479
 4282SOL     OW13744   2.987   2.360   0.025
 4282SOL    HW113745   3.007   2.401   0.114
 4282SOL    HW213746   3.055   2.290   0.005
 4283SOL     OW13747   1.414   0.302   3.683
 4283SOL    HW113748   1.324   0.324   3.719
 4283SOL    HW213749   1.481   0.303   3.757
 4284SOL     OW13750   5.745   0.070   2.733
 4284SOL    HW113751   5.831   0.053   2.780
 4284SOL    HW213752   5.669   0.058   2.797
 4285SOL     OW13753   6.994   0.089   5.875
 4285SOL    HW113754   7.008   0.070   5.972
 4285SOL    HW213755   6.928   0.024   5.838
 4286SOL     OW13756   4.767   5.375   6.384
 4286SOL    HW113757   4.712   5.428   6.320
 4286SOL    HW213758   4.720   5.372   6.472
 4287SOL     OW13759   5.704   0.531   4.818
 4287SOL    HW113760   5.757   0.461   4.867
 4287SOL    HW213761   5.655   0.588   4.884
 4288SOL     OW13762   1.046   6.894   3.537
 4288SOL    HW113763   1.089   6.975   3.577
 4288SOL    HW213764   0.947   6.908   3.533
 4289SOL     OW13765   5.444   2.499   1.844
 4289SOL    HW113766   5.348   2.525   1.839
 4289SOL    HW213767   5.458   2.436   1.921
 4290SOL     OW13768   2.282   6.661   1.288
 4290SOL    HW113769   2.189   6.696   1.290
 4290SOL    HW213770   2.338   6.719   1.229
 4291SOL     OW13771   5.164   3.230   1.195
 4291SOL    HW113772   5.230   3.305   1.206
 4291SOL    HW213773   5.103   3.229   1.274
 4292SOL     OW13774   6.022   4.732   5.421
 4292SOL    HW113775   5.981   4.776   5.501
 4292SOL    HW213776   6.090   4.793   5.380
 4293SOL     OW13777   6.535   3.732   6.451
 4293SOL    HW113778   6.626   3.697   6.469
 4293SOL    HW213779   6.489   3.755   6.537
 4294SOL     OW13780   4.289   2.867   6.724
 4294SOL    HW113781   4.218   2.922   6.768
 4294SOL    HW213782   4.378   2.889   6.764
 4295SOL     OW13783   4.035   6.980   4.642
 4295SOL    HW113784   4.054   7.018   4.732
 4295SOL    HW213785   4.005   6.885   4.651
 4296SOL     OW13786   3.034   2.088   0.281
 4296SOL    HW113787   2.995   2.149   0.351
 4296SOL    HW213788   2.961   2.057   0.220
 4297SOL     OW13789   4.800   6.606   5.178
 4297SOL    HW113790   4.878   6.600   5.115
 4297SOL    HW213791   4.719   6.567   5.134
 4298SOL     OW13792   1.445   5.473   0.654
 4298SOL    HW113793   1.428   5.381   0.618
 4298SOL    HW213794   1.478   5.467   0.748
 4299SOL     OW13795   1.322   3.581   6.163
 4299SOL    HW113796   1.302   3.516   6.090
 4299SOL    HW213797   1.405   3.552   6.211
 4300SOL     OW13798   2.511   1.117   6.086
 4300SOL    HW113799   2.567   1.190   6.125
 4300SOL    HW213800   2.510   1.039   6.150
 4301SOL     OW13801   2.978   1.724   0.382
 4301SOL    HW113802   2.940   1.652   0.323
 4301SOL    HW213803   3.078   1.723   0.375
 4302SOL     OW13804   1.432   5.942   5.964
 4302SOL    HW113805   1.368   5.865   5.964
 4302SOL    HW213806   1.380   6.027   5.953
 4303SOL     OW13807   6.174   4.317   2.966
 4303SOL    HW113808   6.181   4.305   2.867
 4303SOL    HW213809   6.090   4.367   2.988
 4304SOL     OW13810   3.340   3.695   4.492
 4304SOL    HW113811   3.322   3.660   4.584
 4304SOL    HW213812   3.263   3.751   4.461
 4305SOL     OW13813   6.000   1.462   3.737
 4305SOL    HW113814   6.054   1.483   3.819
 4305SOL    HW213815   6.035   1.379   3.695
 4306SOL     OW13816   6.940   3.835   6.409
 4306SOL    HW113817   6.906   3.746   6.439
 4306SOL    HW213818   0.011   3.848   6.442
 4307SOL     OW13819   4.701   4.255   5.517
 4307SOL    HW113820   4.740   4.307   5.593
 4307SOL    HW213821   4.666   4.168   5.550
 4308SOL     OW13822   4.821   6.097   5.883
 4308SOL    HW113823   4.778   6.182   5.853
 4308SOL    HW213824   4.755   6.044   5.938
 4309SOL     OW13825   1.156   0.348   0.270
 4309SOL    HW113826   1.100   0.411   0.322
 4309SOL    HW213827   1.183   0.271   0.328
 4310SOL     OW13828   1.763   2.663   3.885
 4310SOL    HW113829   1.851   2.707   3.903
 4310SOL    HW213830   1.737   2.605   3.963
 4311SOL     OW13831   1.215   6.208   2.865
 4311SOL    HW113832   1.182   6.142   2.932
 4311SOL    HW213833   1.308   6.236   2.890
 4312SOL     OW13834   1.367   5.559   1.947
 4312SOL    HW113835   1.394   5.516   2.033
 4312SOL    HW213836   1.421   5.642   1.932
 4313SOL     OW13837   5.854   0.973   1.733
 4313SOL    HW113838   5.772   1.009   1.690
 4313SOL    HW213839   5.933   0.987   1.672
 4314SOL     OW13840   4.629   2.772   2.929
 4314SOL    HW113841   4.612   2.696   2.991
 4314SOL    HW213842   4.542   2.810   2.898
 4315SOL     OW13843   2.676   0.624   2.181
 4315SOL    HW113844   2.662   0.671   2.268
 4315SOL    HW213845   2.592   0.630   2.126
 4316SOL     OW13846   4.961   6.980   1.075
 4316SOL    HW113847   5.014   6.899   1.101
 4316SOL    HW213848   5.009   0.006   1.003
 4317SOL     OW13849   3.122   1.113   5.519
 4317SOL    HW113850   3.144   1.053   5.442
 4317SOL    HW213851   3.050   1.177   5.493
 4318SOL     OW13852   0.958   3.672   3.993
 4318SOL    HW113853   0.910   3.759   3.983
 4318SOL    HW213854   0.956   3.644   4.089
 4319SOL     OW13855   2.287   3.597   6.756
 4319SOL    HW113856   2.306   3.677   6.700
 4319SOL    HW213857   2.305   3.514   6.703
 4320SOL     OW13858   1.419   6.170   2.169
 4320SOL    HW113859   1.350   6.236   2.197
 4320SOL    HW213860   1.499   6.178   2.229
 4321SOL     OW13861   5.866   0.754   4.683
 4321SOL    HW113862   5.810   0.828   4.648
 4321SOL    HW213863   5.875   0.683   4.613
 4322SOL     OW13864   6.428   1.451   6.520
 4322SOL    HW113865   6.422   1.550   6.506
 4322SOL    HW213866   6.501   1.413   6.464
 4323SOL     OW13867   5.610   2.963   2.287
 4323SOL    HW113868   5.580   3.044   2.237
 4323SOL    HW213869   5.581   2.881   2.238
 4324SOL     OW13870   5.898   4.108   6.321
 4324SOL    HW113871   5.935   4.192   6.280
 4324SOL    HW213872   5.953   4.082   6.400
 4325SOL     OW13873   1.879   0.897   0.285
 4325SOL    HW113874   1.862   0.815   0.231
 4325SOL    HW213875   1.795   0.927   0.329
 4326SOL     OW13876   6.314   3.001   5.215
 4326SOL    HW113877   6.387   3.046   5.164
 4326SOL    HW213878   6.328   2.903   5.216
 4327SOL     OW13879   5.666   4.936   2.336
 4327SOL    HW113880   5.640   4.964   2.429
 4327SOL    HW213881   5.591   4.885   2.294
 4328SOL     OW13882   4.258   4.912   5.525
 4328SOL    HW113883   4.236   4.968   5.445
 4328SOL    HW213884   4.352   4.930   5.555
 4329SOL     OW13885   3.291   1.703   6.000
 4329SOL    HW113886   3.300   1.732   6.095
 4329SOL    HW213887   3.210   1.744   5.959
 4330SOL     OW13888   2.811   0.149   5.535
 4330SOL    HW113889   2.836   0.239   5.497
 4330SOL    HW213890   2.723   0.120   5.497
 4331SOL     OW13891   5.227   3.278   0.715
 4331SOL    HW113892   5.170   3.220   0.773
 4331SOL    HW213893   5.301   3.223   0.676
 4332SOL     OW13894   5.248   3.487   1.825
 4332SOL    HW113895   5.241   3.430   1.743
 4332SOL    HW213896   5.322   3.553   1.814
 4333SOL     OW13897   5.384   1.451   5.281
 4333SOL    HW113898   5.300   1.418   5.239
 4333SOL    HW213899   5.463   1.414   5.231
 4334SOL     OW13900   2.839   2.093   1.867
 4334SOL    HW113901   2.740   2.101   1.864
 4334SOL    HW213902   2.879   2.179   1.899
 4335SOL     OW13903   2.925   3.720   3.856
 4335SOL    HW113904   2.969   3.786   3.795
 4335SOL    HW213905   2.903   3.636   3.806
 4336SOL     OW13906   1.163   6.282   5.276
 4336SOL    HW113907   1.245   6.330   5.308
 4336SOL    HW213908   1.142   6.310   5.182
 4337SOL     OW13909   0.757   5.301   0.168
 4337SOL    HW113910   0.756   5.401   0.172
 4337SOL    HW213911   0.704   5.264   0.244
 4338SOL     OW13912   5.341   5.105   4.802
 4338SOL    HW113913   5.346   5.136   4.896
 4338SOL    HW213914   5.414   5.038   4.785
 4339SOL     OW13915   5.559   2.609   4.687
 4339SOL    HW113916   5.505   2.631   4.769
 4339SOL    HW213917   5.574   2.511   4.683
 4340SOL     OW13918   6.553   3.225   2.116
 4340SOL    HW113919   6.514   3.281   2.043
 4340SOL    HW213920   6.646   3.257   2.136
 4341SOL     OW13921   1.103   3.780   2.167
 4341SOL    HW113922   1.110   3.861   2.108
 4341SOL    HW213923   1.098   3.698   2.110
 4342SOL     OW13924   6.645   2.574   3.580
 4342SOL    HW113925   6.600   2.661   3.561
 4342SOL    HW213926   6.579   2.510   3.619
 4343SOL     OW13927   3.548   0.771   0.040
 4343SOL    HW113928   3.545   0.804   6.969
 4343SOL    HW213929   3.613   0.827   0.093
 4344SOL     OW13930   1.623   5.102   3.093
 4344SOL    HW113931   1.567   5.111   3.176
 4344SOL    HW213932   1.571   5.134   3.014
 4345SOL     OW13933   1.723   2.975   5.416
 4345SOL    HW113934   1.787   3.043   5.380
 4345SOL    HW213935   1.698   2.999   5.510
 4346SOL     OW13936   2.441   3.164   1.741
 4346SOL    HW113937   2.529   3.179   1.785
 4346SOL    HW213938   2.405   3.251   1.708
 4347SOL     OW13939   0.022   0.819   1.917
 4347SOL    HW113940   0.096   0.757   1.893
 4347SOL    HW213941   0.025   0.837   2.016
 4348SOL     OW13942   0.083   3.084   2.245
 4348SOL    HW113943   0.097   3.114   2.340
 4348SOL    HW213944   0.110   3.157   2.183
 4349SOL     OW13945   0.365   1.657   3.078
 4349SOL    HW113946   0.409   1.710   3.006
 4349SOL    HW213947   0.434   1.620   3.140
 4350SOL     OW13948   4.762   2.374   4.346
 4350SOL    HW113949   4.686   2.344   4.288
 4350SOL    HW213950   4.740   2.356   4.442
 4351SOL     OW13951   2.192   6.514   1.592
 4351SOL    HW113952   2.204   6.415   1.595
 4351SOL    HW213953   2.281   6.559   1.602
 4352SOL     OW13954   0.351   2.133   1.735
 4352SOL    HW113955   0.336   2.230   1.715
 4352SOL    HW213956   0.445   2.120   1.769
 4353SOL     OW13957   2.390   5.625   1.104
 4353SOL    HW113958   2.434   5.689   1.041
 4353SOL    HW213959   2.312   5.582   1.059
 4354SOL     OW13960   2.333   6.643   6.842
 4354SOL    HW113961   2.249   6.607   6.880
 4354SOL    HW213962   2.407   6.632   6.908
 4355SOL     OW13963   4.095   0.460   1.865
 4355SOL    HW113964   4.026   0.456   1.936
 4355SOL    HW213965   4.123   0.368   1.839
 4356SOL     OW13966   4.790   4.068   1.853
 4356SOL    HW113967   4.875   4.116   1.832
 4356SOL    HW213968   4.715   4.134   1.861
 4357SOL     OW13969   5.847   0.746   0.395
 4357SOL    HW113970   5.872   0.727   0.300
 4357SOL    HW213971   5.906   0.819   0.430
 4358SOL     OW13972   6.861   6.558   0.912
 4358SOL    HW113973   6.951   6.570   0.872
 4358SOL    HW213974   6.842   6.461   0.924
 4359SOL     OW13975   1.671   2.377   4.587
 4359SOL    HW113976   1.609   2.373   4.665
 4359SOL    HW213977   1.660   2.464   4.539
 4360SOL     OW13978   0.758   3.998   2.438
 4360SOL    HW113979   0.849   4.040   2.439
 4360SOL    HW213980   0.723   3.998   2.344
 4361SOL     OW13981   3.750   3.016   1.626
 4361SOL    HW113982   3.817   2.974   1.686
 4361SOL    HW213983   3.667   2.960   1.623
 4362SOL     OW13984   5.976   3.396   5.720
 4362SOL    HW113985   5.889   3.409   5.767
 4362SOL    HW213986   5.959   3.372   5.624
 4363SOL     OW13987   4.576   2.188   5.893
 4363SOL    HW113988   4.596   2.091   5.878
 4363SOL    HW213989   4.483   2.208   5.862
 4364SOL     OW13990   2.916   3.729   5.509
 4364SOL    HW113991   2.961   3.792   5.571
 4364SOL    HW213992   2.983   3.663   5.474
 4365SOL     OW13993   3.113   1.693   2.416
 4365SOL    HW113994   3.179   1.686   2.341
 4365SOL    HW213995   3.021   1.680   2.379
 4366SOL     OW13996   6.138   6.462   1.263
 4366SOL    HW113997   6.133   6.364   1.242
 4366SOL    HW213998   6.051   6.506   1.239
 4367SOL     OW13999   0.907   4.716   4.982
 4367SOL    HW114000   0.881   4.736   5.077
 4367SOL    HW214001   0.991   4.767   4.960
 4368SOL     OW14002   4.631   5.127   1.114
 4368SOL    HW114003   4.710   5.185   1.133
 4368SOL    HW214004   4.616   5.123   1.015
 4369SOL     OW14005   5.173   5.174   2.173
 4369SOL    HW114006   5.114   5.248   2.206
 4369SOL    HW214007   5.246   5.213   2.116
 4370SOL     OW14008   6.001   4.816   3.023
 4370SOL    HW114009   5.997   4.769   3.111
 4370SOL    HW214010   6.090   4.860   3.014
 4371SOL     OW14011   6.506   0.824   2.021
 4371SOL    HW114012   6.516   0.762   1.943
 4371SOL    HW214013   6.437   0.892   2.001
 4372SOL     OW14014   4.801   0.919   3.038
 4372SOL    HW114015   4.703   0.900   3.037
 4372SOL    HW214016   4.817   1.016   3.017
 4373SOL     OW14017   6.750   3.127   6.394
 4373SOL    HW114018   6.677   3.143   6.327
 4373SOL    HW214019   6.714   3.072   6.470
 4374SOL     OW14020   1.430   2.128   1.763
 4374SOL    HW114021   1.411   2.226   1.768
 4374SOL    HW214022   1.529   2.113   1.771
 4375SOL     OW14023   2.231   6.876   3.914
 4375SOL    HW114024   2.148   6.880   3.860
 4375SOL    HW214025   2.236   6.788   3.962
 4376SOL     OW14026   6.665   0.055   2.416
 4376SOL    HW114027   6.732   0.059   2.342
 4376SOL    HW214028   6.589   0.116   2.396
 4377SOL     OW14029   5.589   3.526   0.297
 4377SOL    HW114030   5.657   3.516   0.224
 4377SOL    HW214031   5.552   3.437   0.320
 4378SOL     OW14032   2.220   0.391   3.484
 4378SOL    HW114033   2.163   0.424   3.409
 4378SOL    HW214034   2.171   0.404   3.570
 4379SOL     OW14035   2.424   0.985   4.495
 4379SOL    HW114036   2.338   0.971   4.543
 4379SOL    HW214037   2.448   0.902   4.445
 4380SOL     OW14038   1.385   1.158   1.140
 4380SOL    HW114039   1.432   1.141   1.226
 4380SOL    HW214040   1.397   1.080   1.079
 4381SOL     OW14041   1.206   5.468   4.870
 4381SOL    HW114042   1.287   5.410   4.878
 4381SOL    HW214043   1.126   5.418   4.902
 4382SOL     OW14044   6.463   3.203   5.955
 4382SOL    HW114045   6.471   3.303   5.963
 4382SOL    HW214046   6.417   3.180   5.869
 4383SOL     OW14047   5.850   3.416   6.333
 4383SOL    HW114048   5.755   3.418   6.362
 4383SOL    HW214049   5.878   3.322   6.312
 4384SOL     OW14050   6.692   1.108   3.316
 4384SOL    HW114051   6.788   1.091   3.296
 4384SOL    HW214052   6.668   1.201   3.286
 4385SOL     OW14053   4.659   2.277   4.585
 4385SOL    HW114054   4.584   2.340   4.604
 4385SOL    HW214055   4.622   2.190   4.553
 4386SOL     OW14056   1.034   4.124   5.998
 4386SOL    HW114057   1.018   4.213   6.041
 4386SOL    HW214058   1.071   4.060   6.065
 4387SOL     OW14059   5.921   3.334   1.181
 4387SOL    HW114060   5.997   3.316   1.120
 4387SOL    HW214061   5.929   3.278   1.263
 4388SOL     OW14062   5.455   1.948   6.131
 4388SOL    HW114063   5.519   1.980   6.062
 4388SOL    HW214064   5.423   2.025   6.186
 4389SOL     OW14065   6.837   3.510   1.690
 4389SOL    HW114066   6.885   3.528   1.604
 4389SOL    HW214067   6.802   3.596   1.728
 4390SOL     OW14068   5.570   0.029   0.534
 4390SOL    HW114069   5.524   0.104   0.487
 4390SOL    HW214070   5.575   0.050   0.632
 4391SOL     OW14071   1.985   5.248   6.445
 4391SOL    HW114072   1.926   5.299   6.382
 4391SOL    HW214073   2.081   5.268   6.424
 4392SOL     OW14074   0.681   1.576   4.371
 4392SOL    HW114075   0.771   1.617   4.386
 4392SOL    HW214076   0.615   1.613   4.436
 4393SOL     OW14077   6.477   0.629   1.834
 4393SOL    HW114078   6.396   0.688   1.833
 4393SOL    HW214079   6.468   0.559   1.763
 4394SOL     OW14080   1.183   0.455   1.425
 4394SOL    HW114081   1.206   0.404   1.342
 4394SOL    HW214082   1.146   0.545   1.400
 4395SOL     OW14083   1.894   0.322   1.804
 4395SOL    HW114084   1.908   0.322   1.705
 4395SOL    HW214085   1.981   0.307   1.850
 4396SOL     OW14086   1.556   1.481   3.596
 4396SOL    HW114087   1.472   1.426   3.604
 4396SOL    HW214088   1.583   1.485   3.500
 4397SOL     OW14089   2.312   2.844   3.865
 4397SOL    HW114090   2.396   2.829   3.813
 4397SOL    HW214091   2.315   2.793   3.951
 4398SOL     OW14092   1.886   3.499   6.026
 4398SOL    HW114093   1.819   3.551   5.972
 4398SOL    HW214094   1.978   3.530   6.003
 4399SOL     OW14095   1.984   6.233   1.461
 4399SOL    HW114096   2.009   6.287   1.381
 4399SOL    HW214097   2.066   6.213   1.514
 4400SOL     OW14098   1.264   6.716   3.589
 4400SOL    HW114099   1.180   6.718   3.644
 4400SOL    HW214100   1.265   6.634   3.533
 4401SOL     OW14101   3.932   6.261   5.380
 4401SOL    HW114102   3.982   6.238   5.297
 4401SOL    HW214103   3.886   6.180   5.415
 4402SOL     OW14104   1.326   0.822   1.999
 4402SOL    HW114105   1.263   0.877   2.054
 4402SOL    HW214106   1.326   0.728   2.031
 4403SOL     OW14107   0.817   5.677   1.299
 4403SOL    HW114108   0.741   5.642   1.244
 4403SOL    HW214109   0.804   5.651   1.395
 4404SOL     OW14110   1.149   5.320   5.322
 4404SOL    HW114111   1.215   5.288   5.255
 4404SOL    HW214112   1.125   5.245   5.384
 4405SOL     OW14113   2.782   5.089   3.069
 4405SOL    HW114114   2.821   5.079   2.977
 4405SOL    HW214115   2.688   5.054   3.069
 4406SOL     OW14116   6.125   3.188   1.776
 4406SOL    HW114117   6.152   3.244   1.699
 4406SOL    HW214118   6.166   3.097   1.768
 4407SOL     OW14119   0.019   6.104   1.946
 4407SOL    HW114120   0.102   6.160   1.940
 4407SOL    HW214121   0.034   6.029   2.009
 4408SOL     OW14122   3.776   6.474   6.870
 4408SOL    HW114123   3.683   6.492   6.837
 4408SOL    HW214124   3.842   6.498   6.799
 4409SOL     OW14125   4.113   0.829   2.579
 4409SOL    HW114126   4.086   0.733   2.580
 4409SOL    HW214127   4.140   0.857   2.671
 4410SOL     OW14128   0.021   6.366   1.221
 4410SOL    HW114129   7.002   6.288   1.268
 4410SOL    HW214130   0.018   6.350   1.122
 4411SOL     OW14131   3.574   4.706   5.525
 4411SOL    HW114132   3.616   4.621   5.557
 4411SOL    HW214133   3.479   4.688   5.501
 4412SOL     OW14134   5.184   6.861   4.171
 4412SOL    HW114135   5.246   6.893   4.243
 4412SOL    HW214136   5.120   6.935   4.147
 4413SOL     OW14137   3.359   6.873   4.293
 4413SOL    HW114138   3.268   6.882   4.252
 4413SOL    HW214139   3.410   6.958   4.281
 4414SOL     OW14140   5.028   5.281   1.509
 4414SOL    HW114141   5.036   5.261   1.606
 4414SOL    HW214142   4.938   5.320   1.489
 4415SOL     OW14143   3.270   3.890   1.458
 4415SOL    HW114144   3.196   3.877   1.392
 4415SOL    HW214145   3.307   3.983   1.448
 4416SOL     OW14146   3.912   1.568   4.149
 4416SOL    HW114147   3.915   1.494   4.082
 4416SOL    HW214148   3.825   1.564   4.198
 4417SOL     OW14149   6.643   2.594   4.114
 4417SOL    HW114150   6.639   2.515   4.053
 4417SOL    HW214151   6.679   2.565   4.203
 4418SOL     OW14152   6.585   1.477   1.584
 4418SOL    HW114153   6.614   1.538   1.658
 4418SOL    HW214154   6.562   1.387   1.622
 4419SOL     OW14155   6.202   6.109   5.947
 4419SOL    HW114156   6.238   6.196   5.980
 4419SOL    HW214157   6.270   6.036   5.962
 4420SOL     OW14158   4.046   2.458   1.514
 4420SOL    HW114159   4.041   2.401   1.596
 4420SOL    HW214160   3.966   2.441   1.457
 4421SOL     OW14161   1.321   2.994   5.054
 4421SOL    HW114162   1.381   3.052   5.109
 4421SOL    HW214163   1.354   2.899   5.057
 4422SOL     OW14164   1.053   5.346   6.884
 4422SOL    HW114165   0.987   5.312   6.817
 4422SOL    HW214166   1.005   5.389   6.960
 4423SOL     OW14167   6.345   4.493   5.600
 4423SOL    HW114168   6.317   4.549   5.522
 4423SOL    HW214169   6.429   4.444   5.577
 4424SOL     OW14170   4.719   5.936   4.138
 4424SOL    HW114171   4.692   5.869   4.068
 4424SOL    HW214172   4.818   5.953   4.131
 4425SOL     OW14173   2.104   5.215   1.121
 4425SOL    HW114174   2.075   5.275   1.195
 4425SOL    HW214175   2.059   5.126   1.130
 4426SOL     OW14176   0.943   0.336   3.822
 4426SOL    HW114177   0.847   0.324   3.798
 4426SOL    HW214178   0.952   0.345   3.921
 4427SOL     OW14179   3.347   6.391   2.521
 4427SOL    HW114180   3.389   6.422   2.436
 4427SOL    HW214181   3.415   6.386   2.593
 4428SOL     OW14182   5.050   0.594   4.348
 4428SOL    HW114183   5.132   0.561   4.302
 4428SOL    HW214184   5.046   0.693   4.343
 4429SOL     OW14185   2.983   6.615   3.166
 4429SOL    HW114186   2.990   6.680   3.242
 4429SOL    HW214187   3.000   6.664   3.080
 4430SOL     OW14188   5.779   4.512   3.834
 4430SOL    HW114189   5.879   4.510   3.837
 4430SOL    HW214190   5.747   4.607   3.832
 4431SOL     OW14191   3.306   0.269   3.813
 4431SOL    HW114192   3.207   0.255   3.810
 4431SOL    HW214193   3.348   0.197   3.868
 4432SOL     OW14194   1.741   4.202   6.831
 4432SOL    HW114195   1.643   4.189   6.841
 4432SOL    HW214196   1.767   4.190   6.735
 4433SOL     OW14197   0.867   2.023   4.807
 4433SOL    HW114198   0.817   1.938   4.820
 4433SOL    HW214199   0.951   2.004   4.756
 4434SOL     OW14200   0.116   1.795   1.520
 4434SOL    HW114201   0.112   1.862   1.595
 4434SOL    HW214202   0.191   1.732   1.535
 4435SOL     OW14203   2.977   3.652   0.565
 4435SOL    HW114204   2.918   3.665   0.485
 4435SOL    HW214205   3.011   3.741   0.596
 4436SOL     OW14206   4.500   2.157   1.572
 4436SOL    HW114207   4.452   2.136   1.657
 4436SOL    HW214208   4.498   2.077   1.512
 4437SOL     OW14209   0.264   3.486   2.525
 4437SOL    HW114210   0.324   3.560   2.494
 4437SOL    HW214211   0.208   3.518   2.602
 4438SOL     OW14212   4.420   6.657   5.395
 4438SOL    HW114213   4.387   6.747   5.424
 4438SOL    HW214214   4.446   6.660   5.298
 4439SOL     OW14215   1.429   6.714   3.060
 4439SOL    HW114216   1.376   6.767   3.126
 4439SOL    HW214217   1.518   6.692   3.099
 4440SOL     OW14218   1.908   4.846   1.091
 4440SOL    HW114219   1.810   4.854   1.108
 4440SOL    HW214220   1.931   4.893   1.005
 4441SOL     OW14221   1.453   1.904   0.941
 4441SOL    HW114222   1.451   1.977   1.010
 4441SOL    HW214223   1.382   1.836   0.962
 4442SOL     OW14224   1.737   5.072   5.603
 4442SOL    HW114225   1.647   5.111   5.623
 4442SOL    HW214226   1.750   5.067   5.504
 4443SOL     OW14227   0.829   4.833   6.427
 4443SOL    HW114228   0.923   4.813   6.455
 4443SOL    HW214229   0.765   4.795   6.493
 4444SOL     OW14230   4.808   4.393   0.712
 4444SOL    HW114231   4.884   4.405   0.776
 4444SOL    HW214232   4.792   4.295   0.697
 4445SOL     OW14233   0.361   5.243   6.383
 4445SOL    HW114234   0.294   5.294   6.329
 4445SOL    HW214235   0.440   5.302   6.401
 4446SOL     OW14236   4.877   1.687   0.848
 4446SOL    HW114237   4.914   1.719   0.760
 4446SOL    HW214238   4.953   1.665   0.909
 4447SOL     OW14239   5.329   4.474   4.939
 4447SOL    HW114240   5.359   4.514   5.026
 4447SOL    HW214241   5.409   4.443   4.887
 4448SOL     OW14242   2.939   6.544   1.155
 4448SOL    HW114243   3.003   6.533   1.230
 4448SOL    HW214244   2.961   6.626   1.102
 4449SOL     OW14245   4.467   1.236   6.539
 4449SOL    HW114246   4.439   1.187   6.622
 4449SOL    HW214247   4.560   1.272   6.552
 4450SOL     OW14248   4.085   1.207   0.219
 4450SOL    HW114249   4.054   1.149   0.144
 4450SOL    HW214250   4.068   1.303   0.196
 4451SOL     OW14251   4.872   4.825   3.664
 4451SOL    HW114252   4.799   4.774   3.709
 4451SOL    HW214253   4.834   4.879   3.589
 4452SOL     OW14254   5.325   6.016   4.580
 4452SOL    HW114255   5.401   6.080   4.588
 4452SOL    HW214256   5.343   5.952   4.506
 4453SOL     OW14257   0.186   3.374   1.227
 4453SOL    HW114258   0.110   3.314   1.252
 4453SOL    HW214259   0.167   3.467   1.260
 4454SOL     OW14260   0.652   1.595   0.024
 4454SOL    HW114261   0.648   1.681   6.995
 4454SOL    HW214262   0.663   1.616   0.121
 4455SOL     OW14263   6.114   5.639   5.076
 4455SOL    HW114264   6.017   5.620   5.092
 4455SOL    HW214265   6.141   5.602   4.987
 4456SOL     OW14266   2.079   6.389   3.720
 4456SOL    HW114267   2.153   6.455   3.736
 4456SOL    HW214268   2.024   6.381   3.803
 4457SOL     OW14269   1.065   2.030   4.594
 4457SOL    HW114270   1.127   2.108   4.594
 4457SOL    HW214271   1.071   1.982   4.506
 4458SOL     OW14272   2.032   3.567   1.807
 4458SOL    HW114273   2.031   3.665   1.788
 4458SOL    HW214274   2.120   3.542   1.848
 4459SOL     OW14275   1.269   2.240   4.602
 4459SOL    HW114276   1.333   2.206   4.671
 4459SOL    HW214277   1.311   2.316   4.553
 4460SOL     OW14278   0.124   2.873   4.101
 4460SOL    HW114279   0.138   2.969   4.128
 4460SOL    HW214280   0.077   2.870   4.014
 4461SOL     OW14281   2.396   0.785   1.762
 4461SOL    HW114282   2.334   0.852   1.722
 4461SOL    HW214283   2.472   0.833   1.807
 4462SOL     OW14284   5.983   3.523   2.031
 4462SOL    HW114285   5.917   3.564   1.969
 4462SOL    HW214286   5.993   3.580   2.112
 4463SOL     OW14287   5.791   1.337   0.970
 4463SOL    HW114288   5.873   1.351   1.025
 4463SOL    HW214289   5.812   1.275   0.895
 4464SOL     OW14290   0.641   5.275   0.978
 4464SOL    HW114291   0.678   5.218   1.052
 4464SOL    HW214292   0.548   5.304   1.003
 4465SOL     OW14293   2.355   6.011   0.418
 4465SOL    HW114294   2.345   6.066   0.501
 4465SOL    HW214295   2.410   6.061   0.352
 4466SOL     OW14296   2.167   2.259   4.058
 4466SOL    HW114297   2.125   2.189   4.000
 4466SOL    HW214298   2.097   2.302   4.115
 4467SOL     OW14299   2.958   5.954   3.955
 4467SOL    HW114300   2.956   5.902   3.870
 4467SOL    HW214301   3.038   6.015   3.955
 4468SOL     OW14302   0.896   2.961   1.384
 4468SOL    HW114303   0.975   3.010   1.420
 4468SOL    HW214304   0.835   2.935   1.459
 4469SOL     OW14305   3.124   6.874   1.548
 4469SOL    HW114306   3.202   6.860   1.608
 4469SOL    HW214307   3.129   6.810   1.471
 4470SOL     OW14308   1.171   0.700   2.367
 4470SOL    HW114309   1.177   0.604   2.340
 4470SOL    HW214310   1.256   0.727   2.413
 4471SOL     OW14311   2.201   2.441   6.533
 4471SOL    HW114312   2.230   2.519   6.589
 4471SOL    HW214313   2.282   2.390   6.503
 4472SOL     OW14314   1.883   2.879   1.322
 4472SOL    HW114315   1.806   2.906   1.264
 4472SOL    HW214316   1.887   2.779   1.327
 4473SOL     OW14317   6.930   2.646   3.838
 4473SOL    HW114318   6.931   2.746   3.840
 4473SOL    HW214319   7.020   2.611   3.867
 4474SOL     OW14320   3.266   0.805   2.077
 4474SOL    HW114321   3.344   0.818   2.016
 4474SOL    HW214322   3.181   0.826   2.028
 4475SOL     OW14323   1.171   3.569   2.552
 4475SOL    HW114324   1.096   3.610   2.500
 4475SOL    HW214325   1.153   3.472   2.567
 4476SOL     OW14326   5.567   1.340   4.127
 4476SOL    HW114327   5.550   1.438   4.115
 4476SOL    HW214328   5.533   1.311   4.216
 4477SOL     OW14329   2.913   6.878   5.370
 4477SOL    HW114330   2.940   6.791   5.327
 4477SOL    HW214331   2.857   6.930   5.305
 4478SOL     OW14332   1.061   0.083   0.642
 4478SOL    HW114333   0.970   0.074   0.682
 4478SOL    HW214334   1.102   7.015   0.633
 4479SOL     OW14335   0.932   2.400   7.001
 4479SOL    HW114336   0.891   2.375   0.065
 4479SOL    HW214337   0.930   2.500   6.990
 4480SOL     OW14338   6.998   4.697   4.401
 4480SOL    HW114339   7.002   4.604   4.437
 4480SOL    HW214340   0.040   4.755   4.450
 4481SOL     OW14341   2.258   4.684   5.705
 4481SOL    HW114342   2.319   4.646   5.636
 4481SOL    HW214343   2.309   4.701   5.789
 4482SOL     OW14344   2.902   4.567   6.308
 4482SOL    HW114345   2.824   4.515   6.343
 4482SOL    HW214346   2.887   4.664   6.322
 4483SOL     OW14347   0.509   2.911   1.931
 4483SOL    HW114348   0.563   2.990   1.900
 4483SOL    HW214349   0.412   2.935   1.932
 4484SOL     OW14350   2.498   3.179   0.103
 4484SOL    HW114351   2.525   3.208   0.194
 4484SOL    HW214352   2.398   3.176   0.097
 4485SOL     OW14353   4.652   2.655   4.635
 4485SOL    HW114354   4.739   2.616   4.603
 4485SOL    HW214355   4.670   2.737   4.689
 4486SOL     OW14356   5.572   4.520   5.398
 4486SOL    HW114357   5.632   4.579   5.344
 4486SOL    HW214358   5.622   4.438   5.426
 4487SOL     OW14359   1.854   2.824   0.140
 4487SOL    HW114360   1.906   2.858   0.218
 4487SOL    HW214361   1.789   2.893   0.109
 4488SOL     OW14362   0.793   4.312   3.837
 4488SOL    HW114363   0.852   4.347   3.765
 4488SOL    HW214364   0.796   4.212   3.838
 4489SOL     OW14365   4.651   5.333   5.153
 4489SOL    HW114366   4.697   5.315   5.066
 4489SOL    HW214367   4.698   5.407   5.201
 4490SOL     OW14368   5.482   1.993   0.936
 4490SOL    HW114369   5.409   2.060   0.949
 4490SOL    HW214370   5.461   1.910   0.988
 4491SOL     OW14371   0.994   2.997   2.968
 4491SOL    HW114372   1.012   3.025   3.062
 4491SOL    HW214373   1.081   2.986   2.920
 4492SOL     OW14374   5.544   0.601   1.996
 4492SOL    HW114375   5.602   0.671   2.037
 4492SOL    HW214376   5.452   0.639   1.981
 4493SOL     OW14377   5.280   6.636   5.018
 4493SOL    HW114378   5.257   6.730   4.992
 4493SOL    HW214379   5.319   6.636   5.110
 4494SOL     OW14380   0.905   0.644   6.316
 4494SOL    HW114381   0.853   0.575   6.365
 4494SOL    HW214382   0.986   0.670   6.369
 4495SOL     OW14383   3.961   5.828   1.986
 4495SOL    HW114384   3.878   5.822   1.930
 4495SOL    HW214385   3.969   5.745   2.042
 4496SOL     OW14386   4.354   6.303   6.215
 4496SOL    HW114387   4.409   6.226   6.183
 4496SOL    HW214388   4.401   6.349   6.290
 4497SOL     OW14389   3.994   2.063   6.853
 4497SOL    HW114390   4.071   2.077   6.792
 4497SOL    HW214391   3.957   2.151   6.882
 4498SOL     OW14392   0.033   5.057   5.860
 4498SOL    HW114393   7.009   4.969   5.851
 4498SOL    HW214394   0.131   5.041   5.872
 4499SOL     OW14395   6.678   2.090   2.811
 4499SOL    HW114396   6.623   2.147   2.750
 4499SOL    HW214397   6.697   2.003   2.766
 4500SOL     OW14398   3.962   5.136   0.354
 4500SOL    HW114399   3.863   5.133   0.347
 4500SOL    HW214400   3.994   5.229   0.335
 4501SOL     OW14401   6.428   1.783   1.983
 4501SOL    HW114402   6.480   1.864   2.011
 4501SOL    HW214403   6.341   1.811   1.943
 4502SOL     OW14404   0.999   3.210   6.942
 4502SOL    HW114405   1.095   3.238   6.940
 4502SOL    HW214406   0.973   3.177   6.851
 4503SOL     OW14407   3.025   0.162   2.275
 4503SOL    HW114408   3.006   0.085   2.213
 4503SOL    HW214409   3.106   0.211   2.243
 4504SOL     OW14410   0.135   1.763   3.598
 4504SOL    HW114411   0.046   1.723   3.578
 4504SOL    HW214412   0.186   1.703   3.661
 4505SOL     OW14413   6.603   4.235   2.761
 4505SOL    HW114414   6.577   4.142   2.786
 4505SOL    HW214415   6.660   4.275   2.833
 4506SOL     OW14416   4.878   2.514   4.608
 4506SOL    HW114417   4.962   2.510   4.554
 4506SOL    HW214418   4.873   2.435   4.668
 4507SOL     OW14419   6.162   3.389   3.583
 4507SOL    HW114420   6.065   3.377   3.606
 4507SOL    HW214421   6.214   3.403   3.667
 4508SOL     OW14422   0.418   4.815   0.428
 4508SOL    HW114423   0.422   4.906   0.386
 4508SOL    HW214424   0.505   4.768   0.412
 4509SOL     OW14425   4.369   1.699   2.494
 4509SOL    HW114426   4.282   1.694   2.445
 4509SOL    HW214427   4.357   1.753   2.577
 4510SOL     OW14428   4.347   1.682   3.908
 4510SOL    HW114429   4.384   1.732   3.830
 4510SOL    HW214430   4.350   1.740   3.989
 4511SOL     OW14431   7.017   4.448   0.973
 4511SOL    HW114432   6.948   4.399   0.920
 4511SOL    HW214433   0.033   4.522   0.918
 4512SOL     OW14434   3.677   1.904   5.593
 4512SOL    HW114435   3.700   1.996   5.623
 4512SOL    HW214436   3.608   1.866   5.654
 4513SOL     OW14437   1.226   5.870   6.591
 4513SOL    HW114438   1.170   5.888   6.510
 4513SOL    HW214439   1.214   5.774   6.618
 4514SOL     OW14440   3.145   3.033   6.339
 4514SOL    HW114441   3.119   2.937   6.324
 4514SOL    HW214442   3.154   3.049   6.437
 4515SOL     OW14443   5.551   6.931   4.921
 4515SOL    HW114444   5.625   6.989   4.888
 4515SOL    HW214445   5.580   6.836   4.921
 4516SOL     OW14446   3.078   2.129   5.820
 4516SOL    HW114447   3.032   2.174   5.896
 4516SOL    HW214448   3.147   2.066   5.855
 4517SOL     OW14449   4.535   0.684   6.058
 4517SOL    HW114450   4.628   0.651   6.042
 4517SOL    HW214451   4.484   0.683   5.972
 4518SOL     OW14452   2.183   6.583   0.899
 4518SOL    HW114453   2.126   6.601   0.979
 4518SOL    HW214454   2.270   6.543   0.928
 4519SOL     OW14455   5.512   6.702   0.294
 4519SOL    HW114456   5.532   6.799   0.286
 4519SOL    HW214457   5.578   6.658   0.355
 4520SOL     OW14458   4.083   6.523   5.243
 4520SOL    HW114459   4.135   6.459   5.299
 4520SOL    HW214460   4.092   6.498   5.146
 4521SOL     OW14461   5.086   2.494   5.211
 4521SOL    HW114462   5.038   2.494   5.299
 4521SOL    HW214463   5.182   2.471   5.226
 4522SOL     OW14464   5.329   3.150   3.302
 4522SOL    HW114465   5.241   3.165   3.256
 4522SOL    HW214466   5.342   3.219   3.373
 4523SOL     OW14467   0.310   3.754   6.426
 4523SOL    HW114468   0.248   3.833   6.432
 4523SOL    HW214469   0.304   3.714   6.335
 4524SOL     OW14470   0.527   3.091   2.750
 4524SOL    HW114471   0.622   3.100   2.718
 4524SOL    HW214472   0.527   3.070   2.848
 4525SOL     OW14473   2.135   2.465   6.001
 4525SOL    HW114474   2.190   2.477   5.918
 4525SOL    HW214475   2.051   2.518   5.993
 4526SOL     OW14476   0.671   0.260   6.146
 4526SOL    HW114477   0.618   0.240   6.228
 4526SOL    HW214478   0.707   0.353   6.151
 4527SOL     OW14479   6.717   0.246   3.161
 4527SOL    HW114480   6.671   0.190   3.092
 4527SOL    HW214481   6.790   0.194   3.205
 4528SOL     OW14482   4.271   0.925   5.588
 4528SOL    HW114483   4.357   0.892   5.549
 4528SOL    HW214484   4.211   0.953   5.513
 4529SOL     OW14485   2.708   0.953   5.403
 4529SOL    HW114486   2.657   0.939   5.318
 4529SOL    HW214487   2.761   1.038   5.397
 4530SOL     OW14488   2.046   6.317   5.155
 4530SOL    HW114489   2.019   6.389   5.219
 4530SOL    HW214490   2.112   6.256   5.199
 4531SOL     OW14491   1.406   5.246   6.511
 4531SOL    HW114492   1.313   5.247   6.475
 4531SOL    HW214493   1.460   5.178   6.461
 4532SOL     OW14494   5.515   0.618   2.832
 4532SOL    HW114495   5.519   0.519   2.817
 4532SOL    HW214496   5.511   0.637   2.930
 4533SOL     OW14497   2.137   0.421   2.254
 4533SOL    HW114498   2.057   0.371   2.288
 4533SOL    HW214499   2.185   0.463   2.331
 4534SOL     OW14500   4.428   1.811   4.620
 4534SOL    HW114501   4.358   1.788   4.552
 4534SOL    HW214502   4.491   1.734   4.631
 4535SOL     OW14503   3.550   2.257   0.872
 4535SOL    HW114504   3.536   2.164   0.904
 4535SOL    HW214505   3.508   2.268   0.782
 4536SOL     OW14506   2.663   1.765   5.895
 4536SOL    HW114507   2.637   1.774   5.799
 4536SOL    HW214508   2.670   1.668   5.919
 4537SOL     OW14509   3.462   3.789   4.196
 4537SOL    HW114510   3.466   3.867   4.258
 4537SOL    HW214511   3.535   3.798   4.127
 4538SOL     OW14512   6.621   2.643   1.237
 4538SOL    HW114513   6.620   2.593   1.324
 4538SOL    HW214514   6.612   2.578   1.161
 4539SOL     OW14515   1.852   5.433   5.079
 4539SOL    HW114516   1.911   5.373   5.026
 4539SOL    HW214517   1.908   5.499   5.129
 4540SOL     OW14518   0.344   1.027   0.743
 4540SOL    HW114519   0.277   0.953   0.735
 4540SOL    HW214520   0.318   1.102   0.683
 4541SOL     OW14521   4.217   1.812   6.291
 4541SOL    HW114522   4.228   1.859   6.203
 4541SOL    HW214523   4.197   1.715   6.274
 4542SOL     OW14524   0.311   2.215   0.613
 4542SOL    HW114525   0.225   2.170   0.591
 4542SOL    HW214526   0.351   2.173   0.694
 4543SOL     OW14527   3.865   2.364   0.340
 4543SOL    HW114528   3.898   2.272   0.317
 4543SOL    HW214529   3.844   2.369   0.437
 4544SOL     OW14530   5.464   4.992   0.612
 4544SOL    HW114531   5.454   4.895   0.591
 4544SOL    HW214532   5.419   5.012   0.699
 4545SOL     OW14533   0.897   3.976   4.826
 4545SOL    HW114534   0.836   3.940   4.897
 4545SOL    HW214535   0.986   3.931   4.833
 4546SOL     OW14536   2.410   1.156   5.546
 4546SOL    HW114537   2.342   1.083   5.556
 4546SOL    HW214538   2.480   1.146   5.617
 4547SOL     OW14539   6.237   0.756   0.591
 4547SOL    HW114540   6.148   0.801   0.597
 4547SOL    HW214541   6.309   0.825   0.593
 4548SOL     OW14542   2.255   3.039   2.713
 4548SOL    HW114543   2.302   3.116   2.755
 4548SOL    HW214544   2.236   3.059   2.617
 4549SOL     OW14545   5.625   4.400   2.461
 4549SOL    HW114546   5.672   4.426   2.545
 4549SOL    HW214547   5.613   4.480   2.403
 4550SOL     OW14548   0.687   4.505   2.621
 4550SOL    HW114549   0.630   4.459   2.553
 4550SOL    HW214550   0.637   4.510   2.708
 4551SOL     OW14551   1.798   3.639   4.850
 4551SOL    HW114552   1.793   3.658   4.947
 4551SOL    HW214553   1.706   3.638   4.811
 4552SOL     OW14554   6.022   1.427   1.598
 4552SOL    HW114555   5.954   1.362   1.564
 4552SOL    HW214556   6.071   1.387   1.676
 4553SOL     OW14557   5.419   4.773   6.298
 4553SOL    HW114558   5.448   4.855   6.248
 4553SOL    HW214559   5.374   4.710   6.234
 4554SOL     OW14560   0.417   6.180   1.462
 4554SOL    HW114561   0.496   6.120   1.450
 4554SOL    HW214562   0.354   6.167   1.385
 4555SOL     OW14563   1.169   1.490   6.999
 4555SOL    HW114564   1.183   1.395   6.973
 4555SOL    HW214565   1.074   1.503   0.004
 4556SOL     OW14566   6.067   3.178   5.834
 4556SOL    HW114567   6.041   3.268   5.799
 4556SOL    HW214568   6.039   3.170   5.929
 4557SOL     OW14569   6.058   5.246   3.583
 4557SOL    HW114570   6.049   5.146   3.575
 4557SOL    HW214571   6.143   5.267   3.631
 4558SOL     OW14572   5.952   2.908   5.383
 4558SOL    HW114573   5.982   2.972   5.312
 4558SOL    HW214574   5.976   2.945   5.473
 4559SOL     OW14575   0.708   2.923   3.026
 4559SOL    HW114576   0.801   2.919   2.990
 4559SOL    HW214577   0.667   2.832   3.021
 4560SOL     OW14578   6.633   4.712   1.591
 4560SOL    HW114579   6.692   4.745   1.665
 4560SOL    HW214580   6.556   4.775   1.579
 4561SOL     OW14581   3.244   2.154   4.319
 4561SOL    HW114582   3.176   2.168   4.247
 4561SOL    HW214583   3.336   2.160   4.279
 4562SOL     OW14584   2.085   0.075   0.639
 4562SOL    HW114585   2.016   0.127   0.589
 4562SOL    HW214586   2.144   0.138   0.689
 4563SOL     OW14587   0.084   3.019   1.408
 4563SOL    HW114588   0.077   2.920   1.421
 4563SOL    HW214589   0.161   3.055   1.461
 4564SOL     OW14590   0.181   4.256   2.039
 4564SOL    HW114591   0.135   4.311   1.970
 4564SOL    HW214592   0.243   4.191   1.994
 4565SOL     OW14593   1.759   0.593   5.047
 4565SOL    HW114594   1.751   0.579   4.949
 4565SOL    HW214595   1.818   0.523   5.086
 4566SOL     OW14596   6.873   4.289   1.446
 4566SOL    HW114597   6.850   4.244   1.360
 4566SOL    HW214598   6.845   4.385   1.442
 4567SOL     OW14599   6.722   0.140   6.134
 4567SOL    HW114600   6.682   0.058   6.177
 4567SOL    HW214601   6.671   0.160   6.050
 4568SOL     OW14602   0.916   4.459   4.023
 4568SOL    HW114603   0.848   4.438   3.952
 4568SOL    HW214604   1.004   4.420   3.998
 4569SOL     OW14605   3.061   1.093   3.027
 4569SOL    HW114606   2.991   1.159   3.000
 4569SOL    HW214607   3.076   1.099   3.126
 4570SOL     OW14608   6.649   5.602   1.121
 4570SOL    HW114609   6.571   5.546   1.149
 4570SOL    HW214610   6.675   5.662   1.196
 4571SOL     OW14611   3.993   3.010   6.416
 4571SOL    HW114612   4.059   3.044   6.483
 4571SOL    HW214613   3.932   2.944   6.459
 4572SOL     OW14614   2.706   2.659   0.206
 4572SOL    HW114615   2.792   2.700   0.238
 4572SOL    HW214616   2.629   2.699   0.257
 4573SOL     OW14617   1.013   6.439   1.265
 4573SOL    HW114618   1.088   6.477   1.318
 4573SOL    HW214619   0.930   6.438   1.322
 4574SOL     OW14620   6.333   3.499   0.122
 4574SOL    HW114621   6.385   3.414   0.128
 4574SOL    HW214622   6.258   3.497   0.187
 4575SOL     OW14623   6.331   0.888   4.466
 4575SOL    HW114624   6.289   0.967   4.508
 4575SOL    HW214625   6.268   0.846   4.401
 4576SOL     OW14626   2.808   5.045   5.017
 4576SOL    HW114627   2.844   5.058   5.109
 4576SOL    HW214628   2.823   4.951   4.988
 4577SOL     OW14629   1.746   1.960   3.270
 4577SOL    HW114630   1.746   1.888   3.339
 4577SOL    HW214631   1.813   1.939   3.200
 4578SOL     OW14632   1.672   0.633   2.703
 4578SOL    HW114633   1.664   0.553   2.643
 4578SOL    HW214634   1.609   0.623   2.779
 4579SOL     OW14635   4.417   0.059   2.015
 4579SOL    HW114636   4.416   0.064   2.115
 4579SOL    HW214637   4.511   0.064   1.982
 4580SOL     OW14638   5.992   3.504   0.246
 4580SOL    HW114639   5.898   3.479   0.224
 4580SOL    HW214640   5.992   3.592   0.294
 4581SOL     OW14641   3.370   6.535   1.891
 4581SOL    HW114642   3.304   6.571   1.958
 4581SOL    HW214643   3.450   6.501   1.939
 4582SOL     OW14644   5.376   0.954   3.106
 4582SOL    HW114645   5.461   0.985   3.065
 4582SOL    HW214646   5.311   0.928   3.034
 4583SOL     OW14647   1.989   0.066   6.591
 4583SOL    HW114648   1.971   6.999   6.551
 4583SOL    HW214649   2.000   0.057   6.690
 4584SOL     OW14650   1.629   6.885   6.137
 4584SOL    HW114651   1.678   6.970   6.118
 4584SOL    HW214652   1.533   6.895   6.110
 4585SOL     OW14653   1.451   4.288   3.420
 4585SOL    HW114654   1.386   4.304   3.494
 4585SOL    HW214655   1.519   4.361   3.419
 4586SOL     OW14656   5.221   4.458   0.151
 4586SOL    HW114657   5.223   4.422   0.244
 4586SOL    HW214658   5.144   4.417   0.101
 4587SOL     OW14659   3.194   3.502   4.700
 4587SOL    HW114660   3.230   3.566   4.768
 4587SOL    HW214661   3.094   3.501   4.704
 4588SOL     OW14662   2.795   3.751   6.167
 4588SOL    HW114663   2.703   3.739   6.204
 4588SOL    HW214664   2.837   3.662   6.149
 4589SOL     OW14665   5.464   6.118   1.997
 4589SOL    HW114666   5.476   6.161   1.907
 4589SOL    HW214667   5.513   6.031   1.999
 4590SOL     OW14668   3.396   5.497   1.855
 4590SOL    HW114669   3.366   5.445   1.775
 4590SOL    HW214670   3.392   5.595   1.834
 4591SOL     OW14671   2.322   0.016   5.320
 4591SOL    HW114672   2.413   7.013   5.288
 4591SOL    HW214673   2.283   0.084   5.259
 4592SOL     OW14674   2.625   1.187   4.456
 4592SOL    HW114675   2.598   1.272   4.500
 4592SOL    HW214676   2.563   1.114   4.485
 4593SOL     OW14677   0.208   5.759   3.210
 4593SOL    HW114678   0.283   5.825   3.209
 4593SOL    HW214679   0.192   5.729   3.304
 4594SOL     OW14680   2.684   0.083   3.209
 4594SOL    HW114681   2.744   0.080   3.129
 4594SOL    HW214682   2.703   0.004   3.267
 4595SOL     OW14683   4.867   1.585   6.201
 4595SOL    HW114684   4.925   1.621   6.274
 4595SOL    HW214685   4.804   1.657   6.170
 4596SOL     OW14686   1.111   0.869   2.168
 4596SOL    HW114687   1.123   0.821   2.255
 4596SOL    HW214688   1.041   0.822   2.113
 4597SOL     OW14689   2.534   5.396   6.930
 4597SOL    HW114690   2.534   5.328   7.004
 4597SOL    HW214691   2.613   5.457   6.942
 4598SOL     OW14692   2.126   5.124   0.063
 4598SOL    HW114693   2.192   5.198   0.056
 4598SOL    HW214694   2.054   5.136   7.018
 4599SOL     OW14695   1.592   4.067   2.785
 4599SOL    HW114696   1.633   4.014   2.860
 4599SOL    HW214697   1.541   4.144   2.823
 4600SOL     OW14698   6.880   6.497   5.821
 4600SOL    HW114699   6.843   6.542   5.740
 4600SOL    HW214700   6.961   6.547   5.852
 4601SOL     OW14701   0.412   0.694   4.770
 4601SOL    HW114702   0.390   0.599   4.751
 4601SOL    HW214703   0.358   0.754   4.711
 4602SOL     OW14704   2.756   0.494   6.640
 4602SOL    HW114705   2.779   0.412   6.587
 4602SOL    HW214706   2.818   0.501   6.718
 4603SOL     OW14707   4.403   5.781   1.143
 4603SOL    HW114708   4.362   5.749   1.229
 4603SOL    HW214709   4.343   5.848   1.100
 4604SOL     OW14710   4.784   0.026   5.805
 4604SOL    HW114711   4.819   0.048   5.714
 4604SOL    HW214712   4.778   6.950   5.815
 4605SOL     OW14713   2.417   0.122   1.668
 4605SOL    HW114714   2.458   0.131   1.758
 4605SOL    HW214715   2.356   0.043   1.666
 4606SOL     OW14716   0.044   6.683   2.546
 4606SOL    HW114717   0.050   6.723   2.454
 4606SOL    HW214718   0.105   6.605   2.552
 4607SOL     OW14719   2.201   4.058   2.936
 4607SOL    HW114720   2.144   3.979   2.962
 4607SOL    HW214721   2.200   4.126   3.009
 4608SOL     OW14722   6.850   3.131   5.024
 4608SOL    HW114723   6.821   3.079   4.943
 4608SOL    HW214724   6.949   3.142   5.023
 4609SOL     OW14725   4.233   6.461   6.557
 4609SOL    HW114726   4.322   6.505   6.566
 4609SOL    HW214727   4.216   6.439   6.461
 4610SOL     OW14728   5.439   2.048   0.202
 4610SOL    HW114729   5.398   1.982   0.265
 4610SOL    HW214730   5.427   2.015   0.108
 4611SOL     OW14731   0.581   0.683   5.965
 4611SOL    HW114732   0.587   0.669   5.866
 4611SOL    HW214733   0.568   0.780   5.983
 4612SOL     OW14734   2.204   6.428   2.449
 4612SOL    HW114735   2.296   6.456   2.476
 4612SOL    HW214736   2.202   6.329   2.434
 4613SOL     OW14737   1.793   4.770   2.258
 4613SOL    HW114738   1.832   4.767   2.350
 4613SOL    HW214739   1.865   4.786   2.191
 4614SOL     OW14740   5.921   3.383   4.102
 4614SOL    HW114741   6.016   3.353   4.095
 4614SOL    HW214742   5.885   3.358   4.193
 4615SOL     OW14743   1.000   1.195   1.371
 4615SOL    HW114744   0.921   1.256   1.382
 4615SOL    HW214745   1.027   1.193   1.275
 4616SOL     OW14746   6.074   2.738   5.025
 4616SOL    HW114747   6.014   2.817   5.016
 4616SOL    HW214748   6.082   2.691   4.937
 4617SOL     OW14749   0.060   2.559   1.738
 4617SOL    HW114750   0.021   2.597   1.654
 4617SOL    HW214751   7.010   2.522   1.796
 4618SOL     OW14752   2.258   3.895   5.542
 4618SOL    HW114753   2.304   3.812   5.572
 4618SOL    HW214754   2.325   3.968   5.530
 4619SOL     OW14755   2.872   6.105   4.309
 4619SOL    HW114756   2.921   6.187   4.340
 4619SOL    HW214757   2.902   6.026   4.362
 4620SOL     OW14758   0.686   5.201   1.558
 4620SOL    HW114759   0.725   5.292   1.545
 4620SOL    HW214760   0.745   5.148   1.619
 4621SOL     OW14761   5.073   0.547   2.753
 4621SOL    HW114762   5.101   0.512   2.843
 4621SOL    HW214763   4.981   0.586   2.760
 4622SOL     OW14764   4.345   5.526   1.345
 4622SOL    HW114765   4.378   5.433   1.330
 4622SOL    HW214766   4.282   5.527   1.423
 4623SOL     OW14767   3.381   5.048   0.995
 4623SOL    HW114768   3.410   5.049   0.900
 4623SOL    HW214769   3.365   4.954   1.024
 4624SOL     OW14770   3.831   1.264   3.490
 4624SOL    HW114771   3.795   1.182   3.446
 4624SOL    HW214772   3.879   1.319   3.422
 4625SOL     OW14773   1.761   5.563   1.776
 4625SOL    HW114774   1.758   5.597   1.870
 4625SOL    HW214775   1.668   5.555   1.740
 4626SOL     OW14776   4.006   4.133   1.705
 4626SOL    HW114777   4.011   4.232   1.712
 4626SOL    HW214778   4.097   4.095   1.691
 4627SOL     OW14779   6.788   5.941   4.991
 4627SOL    HW114780   6.866   5.988   4.949
 4627SOL    HW214781   6.806   5.926   5.088
 4628SOL     OW14782   4.711   4.988   3.477
 4628SOL    HW114783   4.654   4.949   3.405
 4628SOL    HW214784   4.653   5.034   3.544
 4629SOL     OW14785   1.994   5.576   6.790
 4629SOL    HW114786   1.989   5.653   6.726
 4629SOL    HW214787   2.076   5.585   6.846
 4630SOL     OW14788   1.511   4.623   2.490
 4630SOL    HW114789   1.586   4.589   2.547
 4630SOL    HW214790   1.425   4.585   2.523
 4631SOL     OW14791   0.155   0.289   3.871
 4631SOL    HW114792   0.082   0.223   3.884
 4631SOL    HW214793   0.219   0.283   3.948
 4632SOL     OW14794   3.012   5.186   2.816
 4632SOL    HW114795   3.055   5.162   2.729
 4632SOL    HW214796   2.922   5.143   2.822
 4633SOL     OW14797   5.077   1.586   4.300
 4633SOL    HW114798   5.068   1.497   4.254
 4633SOL    HW214799   5.152   1.637   4.258
 4634SOL     OW14800   2.939   3.708   4.891
 4634SOL    HW114801   2.995   3.657   4.957
 4634SOL    HW214802   2.896   3.786   4.938
 4635SOL     OW14803   4.924   5.261   0.904
 4635SOL    HW114804   4.903   5.228   0.995
 4635SOL    HW214805   5.023   5.275   0.895
 4636SOL     OW14806   2.491   5.164   0.552
 4636SOL    HW114807   2.516   5.087   0.611
 4636SOL    HW214808   2.575   5.209   0.521
 4637SOL     OW14809   1.678   0.269   1.935
 4637SOL    HW114810   1.750   0.310   1.880
 4637SOL    HW214811   1.699   0.173   1.952
 4638SOL     OW14812   3.926   4.796   0.771
 4638SOL    HW114813   3.944   4.883   0.817
 4638SOL    HW214814   3.955   4.721   0.829
 4639SOL     OW14815   2.306   2.775   0.676
 4639SOL    HW114816   2.394   2.819   0.658
 4639SOL    HW214817   2.322   2.682   0.710
 4640SOL     OW14818   5.785   3.084   5.930
 4640SOL    HW114819   5.797   2.986   5.910
 4640SOL    HW214820   5.819   3.138   5.853
 4641SOL     OW14821   0.677   5.992   4.032
 4641SOL    HW114822   0.753   6.017   3.973
 4641SOL    HW214823   0.713   5.961   4.121
 4642SOL     OW14824   1.570   1.690   3.914
 4642SOL    HW114825   1.472   1.674   3.925
 4642SOL    HW214826   1.598   1.664   3.822
 4643SOL     OW14827   7.012   2.463   6.796
 4643SOL    HW114828   0.023   2.484   6.704
 4643SOL    HW214829   0.004   2.542   6.856
 4644SOL     OW14830   1.757   1.552   6.996
 4644SOL    HW114831   1.760   1.522   6.901
 4644SOL    HW214832   1.722   1.478   0.030
 4645SOL     OW14833   1.225   0.800   3.811
 4645SOL    HW114834   1.286   0.742   3.758
 4645SOL    HW214835   1.131   0.766   3.804
 4646SOL     OW14836   2.150   5.251   4.125
 4646SOL    HW114837   2.096   5.177   4.166
 4646SOL    HW214838   2.219   5.282   4.190
 4647SOL     OW14839   2.178   6.420   2.786
 4647SOL    HW114840   2.229   6.419   2.873
 4647SOL    HW214841   2.146   6.328   2.765
 4648SOL     OW14842   3.003   1.049   3.910
 4648SOL    HW114843   3.000   1.025   3.813
 4648SOL    HW214844   3.012   0.965   3.965
 4649SOL     OW14845   5.832   0.617   0.881
 4649SOL    HW114846   5.853   0.701   0.931
 4649SOL    HW214847   5.885   0.541   0.919
 4650SOL     OW14848   5.265   6.230   1.270
 4650SOL    HW114849   5.212   6.146   1.278
 4650SOL    HW214850   5.357   6.215   1.307
 4651SOL     OW14851   6.667   3.770   5.816
 4651SOL    HW114852   6.573   3.737   5.814
 4651SOL    HW214853   6.668   3.870   5.815
 4652SOL     OW14854   0.047   6.280   4.457
 4652SOL    HW114855   0.045   6.307   4.360
 4652SOL    HW214856   0.141   6.285   4.490
 4653SOL     OW14857   4.591   5.982   0.722
 4653SOL    HW114858   4.612   6.012   0.816
 4653SOL    HW214859   4.620   5.887   0.710
 4654SOL     OW14860   7.023   6.479   4.665
 4654SOL    HW114861   0.012   6.448   4.571
 4654SOL    HW214862   6.948   6.428   4.708
 4655SOL     OW14863   5.129   2.524   1.223
 4655SOL    HW114864   5.165   2.453   1.284
 4655SOL    HW214865   5.128   2.490   1.129
 4656SOL     OW14866   0.829   0.761   1.859
 4656SOL    HW114867   0.803   0.717   1.945
 4656SOL    HW214868   0.851   0.857   1.875
 4657SOL     OW14869   5.122   6.688   2.135
 4657SOL    HW114870   5.213   6.730   2.135
 4657SOL    HW214871   5.068   6.727   2.210
 4658SOL     OW14872   2.370   2.670   5.545
 4658SOL    HW114873   2.348   2.719   5.460
 4658SOL    HW214874   2.457   2.704   5.581
 4659SOL     OW14875   3.507   4.359   1.096
 4659SOL    HW114876   3.563   4.420   1.152
 4659SOL    HW214877   3.464   4.411   1.023
 4660SOL     OW14878   1.061   6.474   3.899
 4660SOL    HW114879   1.019   6.534   3.831
 4660SOL    HW214880   1.027   6.380   3.885
 4661SOL     OW14881   1.973   3.863   5.592
 4661SOL    HW114882   2.070   3.883   5.576
 4661SOL    HW214883   1.917   3.927   5.539
 4662SOL     OW14884   2.466   6.538   4.747
 4662SOL    HW114885   2.516   6.469   4.799
 4662SOL    HW214886   2.523   6.619   4.736
 4663SOL     OW14887   1.074   0.225   0.041
 4663SOL    HW114888   1.007   0.282   7.016
 4663SOL    HW214889   1.097   0.268   0.128
 4664SOL     OW14890   6.521   0.133   0.738
 4664SOL    HW114891   6.545   0.225   0.770
 4664SOL    HW214892   6.545   0.066   0.809
 4665SOL     OW14893   2.037   0.516   5.617
 4665SOL    HW114894   2.082   0.604   5.629
 4665SOL    HW214895   1.943   0.522   5.651
 4666SOL     OW14896   2.077   2.797   6.857
 4666SOL    HW114897   2.032   2.715   6.891
 4666SOL    HW214898   2.018   2.876   6.871
 4667SOL     OW14899   6.754   3.478   2.022
 4667SOL    HW114900   6.814   3.533   2.080
 4667SOL    HW214901   6.692   3.539   1.971
 4668SOL     OW14902   4.092   2.171   4.823
 4668SOL    HW114903   4.174   2.203   4.774
 4668SOL    HW214904   4.041   2.107   4.766
 4669SOL     OW14905   5.174   6.957   0.424
 4669SOL    HW114906   5.210   0.002   0.360
 4669SOL    HW214907   5.250   6.899   0.456
 4670SOL     OW14908   1.387   3.664   0.252
 4670SOL    HW114909   1.366   3.759   0.274
 4670SOL    HW214910   1.483   3.656   0.226
 4671SOL     OW14911   0.774   3.099   0.051
 4671SOL    HW114912   0.749   3.115   0.146
 4671SOL    HW214913   0.862   3.142   0.031
 4672SOL     OW14914   3.590   4.444   5.660
 4672SOL    HW114915   3.495   4.421   5.642
 4672SOL    HW214916   3.608   4.436   5.759
 4673SOL     OW14917   5.124   0.491   6.682
 4673SOL    HW114918   5.153   0.425   6.613
 4673SOL    HW214919   5.176   0.576   6.670
 4674SOL     OW14920   0.478   1.339   0.366
 4674SOL    HW114921   0.437   1.392   0.292
 4674SOL    HW214922   0.546   1.394   0.413
 4675SOL     OW14923   3.750   6.215   7.013
 4675SOL    HW114924   3.765   6.307   6.978
 4675SOL    HW214925   3.741   6.219   0.090
 4676SOL     OW14926   0.674   6.346   4.800
 4676SOL    HW114927   0.768   6.380   4.790
 4676SOL    HW214928   0.671   6.282   4.877
 4677SOL     OW14929   3.486   0.396   6.680
 4677SOL    HW114930   3.552   0.446   6.624
 4677SOL    HW214931   3.531   0.366   6.765
 4678SOL     OW14932   1.927   4.955   1.549
 4678SOL    HW114933   1.981   4.924   1.471
 4678SOL    HW214934   1.856   4.888   1.570
 4679SOL     OW14935   2.499   0.936   6.281
 4679SOL    HW114936   2.420   0.978   6.324
 4679SOL    HW214937   2.536   0.864   6.340
 4680SOL     OW14938   1.896   5.236   1.512
 4680SOL    HW114939   1.903   5.137   1.513
 4680SOL    HW214940   1.803   5.263   1.487
 4681SOL     OW14941   0.484   5.589   5.265
 4681SOL    HW114942   0.564   5.532   5.284
 4681SOL    HW214943   0.458   5.638   5.348
 4682SOL     OW14944   4.039   6.352   0.123
 4682SOL    HW114945   3.978   6.431   0.135
 4682SOL    HW214946   4.069   6.348   0.028
 4683SOL     OW14947   6.528   3.549   2.250
 4683SOL    HW114948   6.472   3.485   2.199
 4683SOL    HW214949   6.580   3.606   2.186
 4684SOL     OW14950   1.638   2.737   4.980
 4684SOL    HW114951   1.598   2.728   5.071
 4684SOL    HW214952   1.567   2.759   4.913
 4685SOL     OW14953   5.786   5.266   3.944
 4685SOL    HW114954   5.808   5.219   4.030
 4685SOL    HW214955   5.871   5.299   3.903
 4686SOL     OW14956   4.950   5.764   6.989
 4686SOL    HW114957   4.869   5.757   6.930
 4686SOL    HW214958   4.999   5.848   6.969
 4687SOL     OW14959   6.797   4.188   4.444
 4687SOL    HW114960   6.705   4.213   4.415
 4687SOL    HW214961   6.859   4.191   4.365
 4688SOL     OW14962   0.448   3.572   6.876
 4688SOL    HW114963   0.500   3.555   6.792
 4688SOL    HW214964   0.471   3.503   6.944
 4689SOL     OW14965   6.897   6.718   5.524
 4689SOL    HW114966   6.918   6.743   5.430
 4689SOL    HW214967   6.978   6.679   5.567
 4690SOL     OW14968   1.540   1.247   6.998
 4690SOL    HW114969   1.580   1.221   6.910
 4690SOL    HW214970   1.566   1.180   0.044
 4691SOL     OW14971   2.727   4.239   0.861
 4691SOL    HW114972   2.637   4.222   0.822
 4691SOL    HW214973   2.721   4.315   0.926
 4692SOL     OW14974   0.288   4.750   2.981
 4692SOL    HW114975   0.280   4.719   3.076
 4692SOL    HW214976   0.379   4.789   2.967
 4693SOL     OW14977   0.785   1.195   4.693
 4693SOL    HW114978   0.853   1.141   4.644
 4693SOL    HW214979   0.694   1.155   4.681
 4694SOL     OW14980   2.525   1.589   0.119
 4694SOL    HW114981   2.446   1.591   0.180
 4694SOL    HW214982   2.519   1.510   0.058
 4695SOL     OW14983   3.925   2.927   1.803
 4695SOL    HW114984   3.958   2.851   1.748
 4695SOL    HW214985   3.998   2.994   1.814
 4696SOL     OW14986   0.229   3.642   6.172
 4696SOL    HW114987   0.133   3.616   6.157
 4696SOL    HW214988   0.288   3.586   6.114
 4697SOL     OW14989   1.426   3.969   0.241
 4697SOL    HW114990   1.374   4.001   0.320
 4697SOL    HW214991   1.460   4.048   0.190
 4698SOL     OW14992   5.335   4.562   1.608
 4698SOL    HW114993   5.376   4.647   1.576
 4698SOL    HW214994   5.367   4.544   1.702
 4699SOL     OW14995   0.505   0.294   2.329
 4699SOL    HW114996   0.531   0.324   2.237
 4699SOL    HW214997   0.529   0.365   2.395
 4700SOL     OW14998   5.433   1.524   1.121
 4700SOL    HW114999   5.446   1.430   1.151
 4700SOL    HW215000   5.362   1.568   1.177
 4701SOL     OW15001   1.019   1.438   0.487
 4701SOL    HW115002   1.046   1.474   0.398
 4701SOL    HW215003   1.037   1.507   0.557
 4702SOL     OW15004   3.563   4.036   6.660
 4702SOL    HW115005   3.554   3.949   6.708
 4702SOL    HW215006   3.486   4.048   6.597
 4703SOL     OW15007   1.811   1.254   3.029
 4703SOL    HW115008   1.797   1.162   2.991
 4703SOL    HW215009   1.821   1.248   3.128
 4704SOL     OW15010   0.552   6.982   1.090
 4704SOL    HW115011   0.646   7.015   1.095
 4704SOL    HW215012   0.490   0.036   1.086
 4705SOL     OW15013   3.756   2.960   4.090
 4705SOL    HW115014   3.800   3.013   4.163
 4705SOL    HW215015   3.657   2.957   4.108
 4706SOL     OW15016   3.875   6.229   6.655
 4706SOL    HW115017   3.895   6.187   6.744
 4706SOL    HW215018   3.779   6.257   6.652
 4707SOL     OW15019   1.633   5.670   1.308
 4707SOL    HW115020   1.637   5.727   1.225
 4707SOL    HW215021   1.682   5.715   1.382
 4708SOL     OW15022   3.271   2.389   0.921
 4708SOL    HW115023   3.363   2.353   0.935
 4708SOL    HW215024   3.228   2.340   0.844
 4709SOL     OW15025   3.967   5.102   5.397
 4709SOL    HW115026   4.064   5.084   5.386
 4709SOL    HW215027   3.923   5.105   5.307
 4710SOL     OW15028   5.001   1.005   6.992
 4710SOL    HW115029   4.970   0.915   6.960
 4710SOL    HW215030   4.980   1.074   6.923
 4711SOL     OW15031   3.271   0.265   2.117
 4711SOL    HW115032   3.335   0.336   2.145
 4711SOL    HW215033   3.315   0.175   2.125
 4712SOL     OW15034   1.621   4.845   1.094
 4712SOL    HW115035   1.560   4.789   1.038
 4712SOL    HW215036   1.599   4.831   1.191
 4713SOL     OW15037   2.622   5.613   1.446
 4713SOL    HW115038   2.618   5.684   1.516
 4713SOL    HW215039   2.530   5.577   1.429
 4714SOL     OW15040   2.601   1.313   1.525
 4714SOL    HW115041   2.649   1.315   1.438
 4714SOL    HW215042   2.527   1.380   1.524
 4715SOL     OW15043   6.704   3.066   2.443
 4715SOL    HW115044   6.687   3.038   2.538
 4715SOL    HW215045   6.625   3.116   2.409
 4716SOL     OW15046   3.634   5.430   6.797
 4716SOL    HW115047   3.676   5.403   6.709
 4716SOL    HW215048   3.598   5.349   6.843
 4717SOL     OW15049   1.181   5.688   2.671
 4717SOL    HW115050   1.276   5.718   2.681
 4717SOL    HW215051   1.179   5.592   2.643
 4718SOL     OW15052   5.234   1.648   6.579
 4718SOL    HW115053   5.219   1.665   6.676
 4718SOL    HW215054   5.286   1.563   6.567
 4719SOL     OW15055   5.787   3.632   2.544
 4719SOL    HW115056   5.870   3.669   2.587
 4719SOL    HW215057   5.806   3.539   2.512
 4720SOL     OW15058   2.828   6.374   5.796
 4720SOL    HW115059   2.788   6.395   5.885
 4720SOL    HW215060   2.920   6.414   5.791
 4721SOL     OW15061   1.792   2.319   0.899
 4721SOL    HW115062   1.809   2.267   0.983
 4721SOL    HW215063   1.713   2.282   0.852
 4722SOL     OW15064   1.664   6.525   0.371
 4722SOL    HW115065   1.682   6.597   0.303
 4722SOL    HW215066   1.683   6.561   0.463
 4723SOL     OW15067   2.704   6.293   6.804
 4723SOL    HW115068   2.795   6.298   6.761
 4723SOL    HW215069   2.636   6.269   6.734
 4724SOL     OW15070   3.809   6.399   2.265
 4724SOL    HW115071   3.902   6.364   2.271
 4724SOL    HW215072   3.744   6.325   2.284
 4725SOL     OW15073   5.184   6.380   3.138
 4725SOL    HW115074   5.167   6.393   3.041
 4725SOL    HW215075   5.117   6.317   3.176
 4726SOL     OW15076   1.299   4.157   6.613
 4726SOL    HW115077   1.272   4.251   6.637
 4726SOL    HW215078   1.323   4.154   6.516
 4727SOL     OW15079   6.888   5.760   0.519
 4727SOL    HW115080   6.822   5.836   0.521
 4727SOL    HW215081   6.959   5.780   0.453
 4728SOL     OW15082   6.787   1.224   6.990
 4728SOL    HW115083   6.720   1.169   6.939
 4728SOL    HW215084   6.822   1.297   6.931
 4729SOL     OW15085   2.859   0.136   1.962
 4729SOL    HW115086   2.919   0.215   1.952
 4729SOL    HW215087   2.896   0.075   2.031
 4730SOL     OW15088   2.325   6.291   5.742
 4730SOL    HW115089   2.364   6.380   5.719
 4730SOL    HW215090   2.374   6.253   5.820
 4731SOL     OW15091   5.564   1.060   4.935
 4731SOL    HW115092   5.493   1.115   4.891
 4731SOL    HW215093   5.545   0.963   4.920
 4732SOL     OW15094   6.975   3.231   6.845
 4732SOL    HW115095   6.943   3.304   6.905
 4732SOL    HW215096   6.908   3.157   6.845
 4733SOL     OW15097   0.262   3.391   3.004
 4733SOL    HW115098   0.295   3.485   3.009
 4733SOL    HW215099   0.171   3.390   2.962
 4734SOL     OW15100   4.664   3.507   0.005
 4734SOL    HW115101   4.648   3.410   0.025
 4734SOL    HW215102   4.576   3.553   7.015
 4735SOL     OW15103   0.608   4.074   4.088
 4735SOL    HW115104   0.622   4.149   4.153
 4735SOL    HW215105   0.532   4.096   4.027
 4736SOL     OW15106   0.997   1.025   0.265
 4736SOL    HW115107   0.970   1.088   0.338
 4736SOL    HW215108   1.096   1.010   0.270
 4737SOL     OW15109   2.640   4.842   2.014
 4737SOL    HW115110   2.586   4.778   2.069
 4737SOL    HW215111   2.715   4.793   1.969
 4738SOL     OW15112   6.693   6.469   1.879
 4738SOL    HW115113   6.682   6.553   1.932
 4738SOL    HW215114   6.718   6.492   1.785
 4739SOL     OW15115   4.288   0.354   2.757
 4739SOL    HW115116   4.307   0.369   2.660
 4739SOL    HW215117   4.202   0.400   2.782
 4740SOL     OW15118   0.649   2.212   2.786
 4740SOL    HW115119   0.556   2.202   2.751
 4740SOL    HW215120   0.661   2.153   2.866
 4741SOL     OW15121   4.138   3.113   1.845
 4741SOL    HW115122   4.075   3.186   1.871
 4741SOL    HW215123   4.214   3.151   1.792
 4742SOL     OW15124   3.009   6.747   0.297
 4742SOL    HW115125   3.078   6.789   0.356
 4742SOL    HW215126   2.919   6.786   0.316
 4743SOL     OW15127   1.859   4.748   1.905
 4743SOL    HW115128   1.882   4.668   1.961
 4743SOL    HW215129   1.816   4.718   1.820
 4744SOL     OW15130   2.289   6.763   0.704
 4744SOL    HW115131   2.326   6.719   0.621
 4744SOL    HW215132   2.262   6.692   0.769
 4745SOL     OW15133   1.912   4.371   0.771
 4745SOL    HW115134   1.917   4.333   0.863
 4745SOL    HW215135   1.831   4.337   0.724
 4746SOL     OW15136   4.652   5.511   4.194
 4746SOL    HW115137   4.631   5.414   4.198
 4746SOL    HW215138   4.581   5.563   4.242
 4747SOL     OW15139   1.945   3.065   0.579
 4747SOL    HW115140   2.039   3.038   0.560
 4747SOL    HW215141   1.882   2.995   0.544
 4748SOL     OW15142   2.035   6.628   2.892
 4748SOL    HW115143   2.005   6.671   2.807
 4748SOL    HW215144   2.061   6.533   2.875
 4749SOL     OW15145   1.803   0.354   0.288
 4749SOL    HW115146   1.709   0.386   0.283
 4749SOL    HW215147   1.817   0.279   0.224
 4750SOL     OW15148   5.537   3.729   5.013
 4750SOL    HW115149   5.450   3.749   4.969
 4750SOL    HW215150   5.612   3.770   4.961
 4751SOL     OW15151   4.920   0.894   2.509
 4751SOL    HW115152   4.939   0.865   2.603
 4751SOL    HW215153   4.827   0.867   2.484
 4752SOL     OW15154   4.473   2.327   0.118
 4752SOL    HW115155   4.467   2.424   0.091
 4752SOL    HW215156   4.389   2.301   0.165
 4753SOL     OW15157   2.361   6.403   5.282
 4753SOL    HW115158   2.321   6.339   5.348
 4753SOL    HW215159   2.306   6.487   5.279
 4754SOL     OW15160   4.593   4.773   6.733
 4754SOL    HW115161   4.660   4.781   6.807
 4754SOL    HW215162   4.531   4.851   6.735
 4755SOL     OW15163   1.547   0.843   1.565
 4755SOL    HW115164   1.522   0.799   1.651
 4755SOL    HW215165   1.503   0.794   1.489
 4756SOL     OW15166   6.370   4.524   6.408
 4756SOL    HW115167   6.435   4.530   6.484
 4756SOL    HW215168   6.279   4.552   6.440
 4757SOL     OW15169   1.898   3.092   1.523
 4757SOL    HW115170   1.884   3.018   1.458
 4757SOL    HW215171   1.994   3.121   1.523
 4758SOL     OW15172   1.960   0.053   2.836
 4758SOL    HW115173   2.059   0.068   2.842
 4758SOL    HW215174   1.912   0.134   2.870
 4759SOL     OW15175   0.808   4.990   1.680
 4759SOL    HW115176   0.877   4.965   1.612
 4759SOL    HW215177   0.759   4.909   1.709
 4760SOL     OW15178   1.841   6.473   0.828
 4760SOL    HW115179   1.936   6.462   0.857
 4760SOL    HW215180   1.802   6.383   0.806
 4761SOL     OW15181   0.095   6.897   0.824
 4761SOL    HW115182   0.012   6.945   0.796
 4761SOL    HW215183   0.093   6.881   0.923
 4762SOL     OW15184   2.034   5.356   2.461
 4762SOL    HW115185   1.998   5.299   2.535
 4762SOL    HW215186   2.079   5.298   2.393
 4763SOL     OW15187   4.644   5.580   1.955
 4763SOL    HW115188   4.657   5.678   1.942
 4763SOL    HW215189   4.631   5.560   2.053
 4764SOL     OW15190   4.649   3.930   6.036
 4764SOL    HW115191   4.644   4.015   5.984
 4764SOL    HW215192   4.557   3.902   6.064
 4765SOL     OW15193   3.851   1.587   5.253
 4765SOL    HW115194   3.836   1.679   5.288
 4765SOL    HW215195   3.920   1.541   5.310
 4766SOL     OW15196   6.777   6.900   4.207
 4766SOL    HW115197   6.717   6.894   4.287
 4766SOL    HW215198   6.810   6.809   4.183
 4767SOL     OW15199   2.435   5.343   4.635
 4767SOL    HW115200   2.422   5.326   4.733
 4767SOL    HW215201   2.458   5.439   4.621
 4768SOL     OW15202   4.568   2.551   6.825
 4768SOL    HW115203   4.648   2.605   6.799
 4768SOL    HW215204   4.523   2.515   6.743
 4769SOL     OW15205   3.537   5.711   1.215
 4769SOL    HW115206   3.552   5.781   1.146
 4769SOL    HW215207   3.448   5.667   1.199
 4770SOL     OW15208   0.094   1.652   5.461
 4770SOL    HW115209   0.098   1.631   5.364
 4770SOL    HW215210   0.151   1.731   5.482
 4771SOL     OW15211   2.366   6.932   4.969
 4771SOL    HW115212   2.285   6.873   4.971
 4771SOL    HW215213   2.409   6.931   5.059
 4772SOL     OW15214   2.550   5.842   0.912
 4772SOL    HW115215   2.477   5.865   0.847
 4772SOL    HW215216   2.639   5.846   0.865
 4773SOL     OW15217   2.162   5.445   4.954
 4773SOL    HW115218   2.080   5.459   4.897
 4773SOL    HW215219   2.171   5.520   5.018
 4774SOL     OW15220   1.235   3.972   6.910
 4774SOL    HW115221   1.208   3.886   6.955
 4774SOL    HW215222   1.159   4.036   6.910
 4775SOL     OW15223   5.786   6.656   5.072
 4775SOL    HW115224   5.854   6.729   5.074
 4775SOL    HW215225   5.786   6.608   5.160
 4776SOL     OW15226   1.209   0.363   6.366
 4776SOL    HW115227   1.155   0.396   6.289
 4776SOL    HW215228   1.150   0.309   6.427
 4777SOL     OW15229   0.335   6.251   1.056
 4777SOL    HW115230   0.371   6.175   1.003
 4777SOL    HW215231   0.411   6.302   1.097
 4778SOL     OW15232   0.863   2.507   5.336
 4778SOL    HW115233   0.853   2.521   5.435
 4778SOL    HW215234   0.956   2.477   5.316
 4779SOL     OW15235   5.218   1.316   3.718
 4779SOL    HW115236   5.178   1.405   3.736
 4779SOL    HW215237   5.297   1.301   3.778
 4780SOL     OW15238   6.231   2.497   5.173
 4780SOL    HW115239   6.173   2.485   5.092
 4780SOL    HW215240   6.179   2.544   5.244
 4781SOL     OW15241   1.964   5.820   2.444
 4781SOL    HW115242   2.030   5.855   2.510
 4781SOL    HW215243   1.961   5.720   2.449
 4782SOL     OW15244   5.704   4.975   4.736
 4782SOL    HW115245   5.704   4.876   4.750
 4782SOL    HW215246   5.670   5.021   4.818
 4783SOL     OW15247   6.391   3.206   1.114
 4783SOL    HW115248   6.462   3.136   1.111
 4783SOL    HW215249   6.337   3.195   1.198
 4784SOL     OW15250   5.593   2.168   6.496
 4784SOL    HW115251   5.606   2.198   6.591
 4784SOL    HW215252   5.526   2.228   6.451
 4785SOL     OW15253   1.080   6.242   3.515
 4785SOL    HW115254   1.016   6.301   3.563
 4785SOL    HW215255   1.030   6.178   3.457
 4786SOL     OW15256   2.858   6.717   0.517
 4786SOL    HW115257   2.929   6.712   0.587
 4786SOL    HW215258   2.866   6.804   0.468
 4787SOL     OW15259   3.628   1.506   4.571
 4787SOL    HW115260   3.547   1.520   4.628
 4787SOL    HW215261   3.670   1.418   4.593
 4788SOL     OW15262   6.251   6.307   6.729
 4788SOL    HW115263   6.215   6.328   6.638
 4788SOL    HW215264   6.180   6.263   6.784
 4789SOL     OW15265   4.875   0.511   2.235
 4789SOL    HW115266   4.935   0.437   2.263
 4789SOL    HW215267   4.845   0.562   2.316
 4790SOL     OW15268   5.842   1.900   5.060
 4790SOL    HW115269   5.787   1.868   4.983
 4790SOL    HW215270   5.907   1.969   5.028
 4791SOL     OW15271   6.602   2.928   0.781
 4791SOL    HW115272   6.571   2.869   0.707
 4791SOL    HW215273   6.567   3.021   0.766
 4792SOL     OW15274   2.071   3.362   4.021
 4792SOL    HW115275   2.146   3.390   3.961
 4792SOL    HW215276   2.001   3.433   4.023
 4793SOL     OW15277   0.788   3.518   6.372
 4793SOL    HW115278   0.798   3.448   6.302
 4793SOL    HW215279   0.760   3.476   6.458
 4794SOL     OW15280   4.286   0.823   3.964
 4794SOL    HW115281   4.232   0.899   3.927
 4794SOL    HW215282   4.225   0.752   3.999
 4795SOL     OW15283   0.399   0.610   5.681
 4795SOL    HW115284   0.382   0.707   5.699
 4795SOL    HW215285   0.312   0.564   5.664
 4796SOL     OW15286   3.645   1.573   5.711
 4796SOL    HW115287   3.688   1.563   5.801
 4796SOL    HW215288   3.623   1.669   5.695
 4797SOL     OW15289   1.055   5.247   4.522
 4797SOL    HW115290   1.066   5.148   4.509
 4797SOL    HW215291   1.143   5.293   4.506
 4798SOL     OW15292   5.267   4.705   6.520
 4798SOL    HW115293   5.175   4.742   6.505
 4798SOL    HW215294   5.326   4.729   6.443
 4799SOL     OW15295   3.539   3.196   6.785
 4799SOL    HW115296   3.574   3.149   6.866
 4799SOL    HW215297   3.461   3.253   6.811
 4800SOL     OW15298   1.547   4.725   0.292
 4800SOL    HW115299   1.613   4.790   0.254
 4800SOL    HW215300   1.594   4.664   0.356
 4801SOL     OW15301   4.799   2.505   1.855
 4801SOL    HW115302   4.732   2.575   1.881
 4801SOL    HW215303   4.842   2.532   1.769
 4802SOL     OW15304   0.012   6.683   2.119
 4802SOL    HW115305   0.028   6.747   2.194
 4802SOL    HW215306   6.985   6.604   2.153
 4803SOL     OW15307   5.611   4.151   6.363
 4803SOL    HW115308   5.545   4.098   6.416
 4803SOL    HW215309   5.703   4.126   6.390
 4804SOL     OW15310   5.571   1.525   0.723
 4804SOL    HW115311   5.623   1.589   0.780
 4804SOL    HW215312   5.492   1.492   0.775
 4805SOL     OW15313   6.221   2.244   1.455
 4805SOL    HW115314   6.123   2.259   1.459
 4805SOL    HW215315   6.256   2.269   1.365
 4806SOL     OW15316   0.967   2.652   3.110
 4806SOL    HW115317   0.875   2.620   3.131
 4806SOL    HW215318   1.016   2.580   3.060
 4807SOL     OW15319   1.431   2.908   6.687
 4807SOL    HW115320   1.476   2.856   6.614
 4807SOL    HW215321   1.432   2.855   6.772
 4808SOL     OW15322   3.768   5.999   0.776
 4808SOL    HW115323   3.812   5.914   0.805
 4808SOL    HW215324   3.822   6.041   0.703
 4809SOL     OW15325   3.533   5.004   1.684
 4809SOL    HW115326   3.483   5.071   1.739
 4809SOL    HW215327   3.519   5.023   1.587
 4810SOL     OW15328   1.426   3.980   3.736
 4810SOL    HW115329   1.467   3.934   3.656
 4810SOL    HW215330   1.381   4.064   3.707
 4811SOL     OW15331   3.151   3.830   4.727
 4811SOL    HW115332   3.072   3.808   4.784
 4811SOL    HW215333   3.122   3.841   4.632
 4812SOL     OW15334   0.327   6.816   2.151
 4812SOL    HW115335   0.308   6.780   2.060
 4812SOL    HW215336   0.391   6.755   2.198
 4813SOL     OW15337   6.076   1.729   0.152
 4813SOL    HW115338   6.031   1.649   0.113
 4813SOL    HW215339   6.132   1.773   0.082
 4814SOL     OW15340   6.968   3.529   1.456
 4814SOL    HW115341   6.994   3.623   1.432
 4814SOL    HW215342   6.878   3.509   1.417
 4815SOL     OW15343   6.022   5.127   2.613
 4815SOL    HW115344   5.949   5.150   2.678
 4815SOL    HW215345   6.049   5.032   2.625
 4816SOL     OW15346   1.307   6.921   2.317
 4816SOL    HW115347   1.392   6.969   2.294
 4816SOL    HW215348   1.310   6.890   2.411
 4817SOL     OW15349   3.982   1.124   1.707
 4817SOL    HW115350   3.930   1.200   1.746
 4817SOL    HW215351   3.919   1.053   1.676
 4818SOL     OW15352   2.989   0.453   4.796
 4818SOL    HW115353   3.004   0.547   4.765
 4818SOL    HW215354   2.917   0.451   4.866
 4819SOL     OW15355   3.635   1.002   1.170
 4819SOL    HW115356   3.649   0.921   1.226
 4819SOL    HW215357   3.627   1.082   1.229
 4820SOL     OW15358   6.759   4.212   2.221
 4820SOL    HW115359   6.673   4.170   2.196
 4820SOL    HW215360   6.834   4.170   2.170
 4821SOL     OW15361   6.103   5.401   1.491
 4821SOL    HW115362   6.061   5.411   1.581
 4821SOL    HW215363   6.202   5.402   1.500
 4822SOL     OW15364   2.015   4.280   3.550
 4822SOL    HW115365   2.114   4.288   3.540
 4822SOL    HW215366   1.971   4.302   3.463
 4823SOL     OW15367   0.984   0.145   4.432
 4823SOL    HW115368   1.067   0.100   4.398
 4823SOL    HW215369   1.004   0.241   4.451
 4824SOL     OW15370   5.150   2.323   2.570
 4824SOL    HW115371   5.124   2.407   2.523
 4824SOL    HW215372   5.214   2.272   2.512
 4825SOL     OW15373   2.003   3.579   3.333
 4825SOL    HW115374   2.003   3.679   3.329
 4825SOL    HW215375   2.070   3.548   3.400
 4826SOL     OW15376   0.275   6.600   0.481
 4826SOL    HW115377   0.368   6.581   0.452
 4826SOL    HW215378   0.269   6.693   0.518
 4827SOL     OW15379   4.694   1.211   0.995
 4827SOL    HW115380   4.742   1.123   1.000
 4827SOL    HW215381   4.609   1.200   0.943
 4828SOL     OW15382   4.876   3.313   1.649
 4828SOL    HW115383   4.924   3.398   1.629
 4828SOL    HW215384   4.893   3.287   1.744
 4829SOL     OW15385   3.034   0.648   5.934
 4829SOL    HW115386   3.119   0.666   5.886
 4829SOL    HW215387   3.021   0.717   6.006
 4830SOL     OW15388   5.152   6.228   3.692
 4830SOL    HW115389   5.170   6.142   3.740
 4830SOL    HW215390   5.053   6.243   3.687
 4831SOL     OW15391   6.573   4.211   5.256
 4831SOL    HW115392   6.650   4.258   5.300
 4831SOL    HW215393   6.546   4.132   5.312
 4832SOL     OW15394   3.164   2.957   6.003
 4832SOL    HW115395   3.136   2.889   6.071
 4832SOL    HW215396   3.121   3.045   6.024
 4833SOL     OW15397   4.150   1.367   3.585
 4833SOL    HW115398   4.096   1.300   3.636
 4833SOL    HW215399   4.099   1.452   3.576
 4834SOL     OW15400   4.674   1.333   1.685
 4834SOL    HW115401   4.712   1.247   1.718
 4834SOL    HW215402   4.584   1.317   1.644
 4835SOL     OW15403   2.146   6.740   6.569
 4835SOL    HW115404   2.128   6.641   6.574
 4835SOL    HW215405   2.142   6.779   6.660
 4836SOL     OW15406   4.903   2.021   3.923
 4836SOL    HW115407   4.828   1.981   3.872
 4836SOL    HW215408   4.923   1.964   4.003
 4837SOL     OW15409   2.549   2.317   1.127
 4837SOL    HW115410   2.567   2.407   1.166
 4837SOL    HW215411   2.503   2.260   1.195
 4838SOL     OW15412   3.893   4.858   2.114
 4838SOL    HW115413   3.902   4.876   2.016
 4838SOL    HW215414   3.819   4.792   2.130
 4839SOL     OW15415   0.129   5.631   5.639
 4839SOL    HW115416   0.179   5.545   5.636
 4839SOL    HW215417   0.068   5.637   5.560
 4840SOL     OW15418   6.147   6.540   0.169
 4840SOL    HW115419   6.066   6.598   0.164
 4840SOL    HW215420   6.165   6.500   0.079
 4841SOL     OW15421   3.154   5.641   2.039
 4841SOL    HW115422   3.140   5.589   1.955
 4841SOL    HW215423   3.211   5.588   2.102
 4842SOL     OW15424   4.151   5.832   1.774
 4842SOL    HW115425   4.113   5.809   1.684
 4842SOL    HW215426   4.077   5.830   1.842
 4843SOL     OW15427   6.922   4.120   0.214
 4843SOL    HW115428   7.009   4.071   0.205
 4843SOL    HW215429   6.920   4.196   0.149
 4844SOL     OW15430   6.562   2.944   6.618
 4844SOL    HW115431   6.578   2.854   6.579
 4844SOL    HW215432   6.468   2.972   6.601
 4845SOL     OW15433   6.404   5.777   3.727
 4845SOL    HW115434   6.491   5.825   3.714
 4845SOL    HW215435   6.379   5.729   3.643
 4846SOL     OW15436   1.520   3.019   0.936
 4846SOL    HW115437   1.467   2.970   0.867
 4846SOL    HW215438   1.618   3.006   0.920
 4847SOL     OW15439   3.466   1.874   5.270
 4847SOL    HW115440   3.448   1.806   5.341
 4847SOL    HW215441   3.458   1.831   5.180
 4848SOL     OW15442   1.863   1.429   3.333
 4848SOL    HW115443   1.938   1.390   3.279
 4848SOL    HW215444   1.868   1.395   3.427
 4849SOL     OW15445   1.460   0.164   0.302
 4849SOL    HW115446   1.439   0.172   0.205
 4849SOL    HW215447   1.375   0.171   0.355
 4850SOL     OW15448   4.188   0.400   1.597
 4850SOL    HW115449   4.177   0.485   1.545
 4850SOL    HW215450   4.239   0.418   1.681
 4851SOL     OW15451   4.113   6.066   5.670
 4851SOL    HW115452   4.082   5.981   5.713
 4851SOL    HW215453   4.207   6.085   5.699
 4852SOL     OW15454   1.923   0.921   7.013
 4852SOL    HW115455   1.885   0.972   6.936
 4852SOL    HW215456   1.890   0.827   7.011
 4853SOL     OW15457   3.544   1.480   2.985
 4853SOL    HW115458   3.453   1.441   2.971
 4853SOL    HW215459   3.537   1.562   3.041
 4854SOL     OW15460   4.627   5.566   2.233
 4854SOL    HW115461   4.712   5.575   2.286
 4854SOL    HW215462   4.579   5.653   2.233
 4855SOL     OW15463   6.079   1.548   2.028
 4855SOL    HW115464   6.130   1.502   2.101
 4855SOL    HW215465   6.119   1.525   1.940
 4856SOL     OW15466   3.124   4.848   3.866
 4856SOL    HW115467   3.043   4.796   3.896
 4856SOL    HW215468   3.125   4.854   3.767
 4857SOL     OW15469   0.938   1.826   6.043
 4857SOL    HW115470   0.971   1.734   6.061
 4857SOL    HW215471   0.869   1.823   5.971
 4858SOL     OW15472   1.913   2.275   4.507
 4858SOL    HW115473   1.931   2.196   4.448
 4858SOL    HW215474   1.816   2.299   4.500
 4859SOL     OW15475   1.634   5.845   4.743
 4859SOL    HW115476   1.732   5.823   4.746
 4859SOL    HW215477   1.583   5.775   4.793
 4860SOL     OW15478   4.761   5.446   1.437
 4860SOL    HW115479   4.731   5.437   1.532
 4860SOL    HW215480   4.706   5.514   1.390
 4861SOL     OW15481   4.883   4.915   6.898
 4861SOL    HW115482   4.919   4.924   6.991
 4861SOL    HW215483   4.872   4.818   6.876
 4862SOL     OW15484   1.396   5.176   2.963
 4862SOL    HW115485   1.311   5.142   2.923
 4862SOL    HW215486   1.393   5.166   3.062
 4863SOL     OW15487   5.839   4.168   0.288
 4863SOL    HW115488   5.861   4.127   0.376
 4863SOL    HW215489   5.747   4.205   0.290
 4864SOL     OW15490   2.747   1.127   3.309
 4864SOL    HW115491   2.818   1.196   3.321
 4864SOL    HW215492   2.787   1.036   3.314
 4865SOL     OW15493   2.519   5.886   4.703
 4865SOL    HW115494   2.549   5.981   4.700
 4865SOL    HW215495   2.549   5.839   4.620
 4866SOL     OW15496   0.223   3.665   1.313
 4866SOL    HW115497   0.136   3.713   1.327
 4866SOL    HW215498   0.275   3.665   1.398
 4867SOL     OW15499   4.722   5.776   2.551
 4867SOL    HW115500   4.627   5.803   2.537
 4867SOL    HW215501   4.782   5.835   2.497
 4868SOL     OW15502   6.255   4.180   1.726
 4868SOL    HW115503   6.339   4.178   1.780
 4868SOL    HW215504   6.253   4.263   1.671
 4869SOL     OW15505   1.409   1.814   0.087
 4869SOL    HW115506   1.490   1.836   0.033
 4869SOL    HW215507   1.433   1.748   0.158
 4870SOL     OW15508   0.556   6.142   2.093
 4870SOL    HW115509   0.523   6.170   2.184
 4870SOL    HW215510   0.639   6.087   2.103
 4871SOL     OW15511   1.637   0.878   4.345
 4871SOL    HW115512   1.559   0.937   4.366
 4871SOL    HW215513   1.631   0.846   4.250
 4872SOL     OW15514   6.798   6.496   3.143
 4872SOL    HW115515   6.828   6.487   3.048
 4872SOL    HW215516   6.701   6.519   3.146
 4873SOL     OW15517   6.768   5.618   4.581
 4873SOL    HW115518   6.863   5.610   4.551
 4873SOL    HW215519   6.749   5.549   4.650
 4874SOL     OW15520   4.856   2.458   3.384
 4874SOL    HW115521   4.854   2.510   3.469
 4874SOL    HW215522   4.800   2.375   3.394
 4875SOL     OW15523   5.040   6.791   6.877
 4875SOL    HW115524   5.126   6.748   6.906
 4875SOL    HW215525   5.054   6.837   6.789
 4876SOL     OW15526   1.361   1.605   3.066
 4876SOL    HW115527   1.457   1.615   3.039
 4876SOL    HW215528   1.340   1.670   3.139
 4877SOL     OW15529   0.545   2.037   4.905
 4877SOL    HW115530   0.603   1.957   4.899
 4877SOL    HW215531   0.503   2.042   4.996
 4878SOL     OW15532   6.914   1.718   1.863
 4878SOL    HW115533   6.907   1.810   1.826
 4878SOL    HW215534   6.881   1.652   1.796
 4879SOL     OW15535   4.603   1.564   2.528
 4879SOL    HW115536   4.676   1.609   2.476
 4879SOL    HW215537   4.519   1.618   2.522
 4880SOL     OW15538   6.296   3.094   6.847
 4880SOL    HW115539   6.207   3.140   6.836
 4880SOL    HW215540   6.368   3.152   6.810
 4881SOL     OW15541   1.700   2.624   1.574
 4881SOL    HW115542   1.608   2.599   1.602
 4881SOL    HW215543   1.707   2.619   1.474
 4882SOL     OW15544   4.150   2.037   5.148
 4882SOL    HW115545   4.183   1.971   5.081
 4882SOL    HW215546   4.136   1.991   5.236
 4883SOL     OW15547   5.348   3.756   1.726
 4883SOL    HW115548   5.370   3.738   1.630
 4883SOL    HW215549   5.313   3.849   1.735
 4884SOL     OW15550   1.617   5.700   0.935
 4884SOL    HW115551   1.624   5.603   0.955
 4884SOL    HW215552   1.521   5.726   0.926
 4885SOL     OW15553   2.299   4.936   2.130
 4885SOL    HW115554   2.388   4.972   2.155
 4885SOL    HW215555   2.310   4.851   2.078
 4886SOL     OW15556   3.473   0.461   2.187
 4886SOL    HW115557   3.473   0.389   2.257
 4886SOL    HW215558   3.412   0.535   2.217
 4887SOL     OW15559   1.428   6.830   1.719
 4887SOL    HW115560   1.369   6.766   1.669
 4887SOL    HW215561   1.466   6.783   1.799
 4888SOL     OW15562   2.916   6.464   2.708
 4888SOL    HW115563   2.992   6.515   2.748
 4888SOL    HW215564   2.865   6.419   2.781
 4889SOL     OW15565   6.691   1.772   4.510
 4889SOL    HW115566   6.698   1.871   4.497
 4889SOL    HW215567   6.763   1.741   4.573
 4890SOL     OW15568   0.939   0.917   5.666
 4890SOL    HW115569   0.882   0.983   5.616
 4890SOL    HW215570   1.032   0.920   5.631
 4891SOL     OW15571   2.465   4.845   6.205
 4891SOL    HW115572   2.436   4.834   6.300
 4891SOL    HW215573   2.475   4.942   6.184
 4892SOL     OW15574   5.841   6.769   2.404
 4892SOL    HW115575   5.870   6.734   2.494
 4892SOL    HW215576   5.768   6.836   2.417
 4893SOL     OW15577   0.258   3.002   1.942
 4893SOL    HW115578   0.192   2.957   1.881
 4893SOL    HW215579   0.218   3.086   1.979
 4894SOL     OW15580   3.677   0.317   2.031
 4894SOL    HW115581   3.620   0.377   2.088
 4894SOL    HW215582   3.679   0.225   2.071
 4895SOL     OW15583   0.042   4.903   3.191
 4895SOL    HW115584   0.085   4.977   3.243
 4895SOL    HW215585   7.016   4.941   3.113
 4896SOL     OW15586   2.066   5.257   3.776
 4896SOL    HW115587   2.032   5.176   3.824
 4896SOL    HW215588   2.109   5.229   3.690
 4897SOL     OW15589   1.785   5.813   5.536
 4897SOL    HW115590   1.740   5.806   5.625
 4897SOL    HW215591   1.852   5.740   5.527
 4898SOL     OW15592   4.127   0.930   4.934
 4898SOL    HW115593   4.125   0.977   4.845
 4898SOL    HW215594   4.063   0.854   4.933
 4899SOL     OW15595   6.115   5.098   2.058
 4899SOL    HW115596   6.034   5.102   2.117
 4899SOL    HW215597   6.087   5.080   1.964
 4900SOL     OW15598   4.340   6.241   5.758
 4900SOL    HW115599   4.376   6.330   5.785
 4900SOL    HW215600   4.415   6.185   5.723
 4901SOL     OW15601   0.878   2.516   5.604
 4901SOL    HW115602   0.975   2.526   5.582
 4901SOL    HW215603   0.855   2.574   5.683
 4902SOL     OW15604   2.059   0.519   6.338
 4902SOL    HW115605   2.038   0.613   6.366
 4902SOL    HW215606   2.082   0.465   6.419
 4903SOL     OW15607   4.557   5.624   1.000
 4903SOL    HW115608   4.645   5.591   1.033
 4903SOL    HW215609   4.513   5.679   1.072
 4904SOL     OW15610   2.150   0.437   6.080
 4904SOL    HW115611   2.112   0.469   6.167
 4904SOL    HW215612   2.110   0.349   6.057
 4905SOL     OW15613   3.134   6.791   2.600
 4905SOL    HW115614   3.181   6.840   2.527
 4905SOL    HW215615   3.116   6.853   2.677
 4906SOL     OW15616   4.820   3.394   5.374
 4906SOL    HW115617   4.749   3.341   5.420
 4906SOL    HW215618   4.787   3.425   5.285
 4907SOL     OW15619   4.839   1.169   0.467
 4907SOL    HW115620   4.924   1.115   0.466
 4907SOL    HW215621   4.861   1.266   0.457
 4908SOL     OW15622   4.703   0.455   0.203
 4908SOL    HW115623   4.723   0.487   0.295
 4908SOL    HW215624   4.672   0.360   0.206
 4909SOL     OW15625   6.306   3.973   3.380
 4909SOL    HW115626   6.285   3.942   3.287
 4909SOL    HW215627   6.229   3.954   3.441
 4910SOL     OW15628   5.528   0.767   4.868
 4910SOL    HW115629   5.435   0.803   4.879
 4910SOL    HW215630   5.534   0.716   4.782
 4911SOL     OW15631   1.686   2.251   2.846
 4911SOL    HW115632   1.666   2.262   2.749
 4911SOL    HW215633   1.641   2.323   2.898
 4912SOL     OW15634   5.612   1.695   5.674
 4912SOL    HW115635   5.546   1.622   5.662
 4912SOL    HW215636   5.672   1.701   5.594
 4913SOL     OW15637   5.445   2.612   5.601
 4913SOL    HW115638   5.396   2.674   5.540
 4913SOL    HW215639   5.474   2.662   5.683
 4914SOL     OW15640   4.385   0.414   4.948
 4914SOL    HW115641   4.426   0.505   4.953
 4914SOL    HW215642   4.455   0.345   4.967
 4915SOL     OW15643   2.791   6.242   5.378
 4915SOL    HW115644   2.713   6.180   5.380
 4915SOL    HW215645   2.769   6.326   5.427
 4916SOL     OW15646   6.573   0.655   4.278
 4916SOL    HW115647   6.525   0.656   4.366
 4916SOL    HW215648   6.510   0.624   4.206
 4917SOL     OW15649   3.500   5.877   0.994
 4917SOL    HW115650   3.429   5.865   0.925
 4917SOL    HW215651   3.467   5.939   1.065
 4918SOL     OW15652   6.279   5.353   2.063
 4918SOL    HW115653   6.373   5.349   2.096
 4918SOL    HW215654   6.237   5.262   2.071
 4919SOL     OW15655   4.085   3.153   2.216
 4919SOL    HW115656   4.136   3.087   2.160
 4919SOL    HW215657   4.034   3.104   2.287
 4920SOL     OW15658   5.817   0.269   5.242
 4920SOL    HW115659   5.792   0.307   5.153
 4920SOL    HW215660   5.862   0.339   5.297
 4921SOL     OW15661   0.603   6.360   1.111
 4921SOL    HW115662   0.659   6.358   1.028
 4921SOL    HW215663   0.660   6.337   1.190
 4922SOL     OW15664   3.304   2.046   4.954
 4922SOL    HW115665   3.257   2.135   4.955
 4922SOL    HW215666   3.250   1.980   5.006
 4923SOL     OW15667   3.120   2.223   3.101
 4923SOL    HW115668   3.125   2.195   3.197
 4923SOL    HW215669   3.107   2.322   3.096
 4924SOL     OW15670   2.475   1.483   5.789
 4924SOL    HW115671   2.536   1.410   5.760
 4924SOL    HW215672   2.431   1.458   5.875
 4925SOL     OW15673   4.288   6.739   3.382
 4925SOL    HW115674   4.374   6.787   3.403
 4925SOL    HW215675   4.212   6.786   3.425
 4926SOL     OW15676   6.005   1.713   1.550
 4926SOL    HW115677   6.017   1.616   1.571
 4926SOL    HW215678   6.025   1.729   1.454
 4927SOL     OW15679   2.822   2.029   6.380
 4927SOL    HW115680   2.835   2.093   6.305
 4927SOL    HW215681   2.749   2.061   6.440
 4928SOL     OW15682   1.330   1.658   1.047
 4928SOL    HW115683   1.340   1.711   1.132
 4928SOL    HW215684   1.389   1.578   1.051
 4929SOL     OW15685   0.245   0.198   3.634
 4929SOL    HW115686   0.200   0.243   3.712
 4929SOL    HW215687   0.342   0.188   3.653
 4930SOL     OW15688   5.958   0.136   2.183
 4930SOL    HW115689   5.862   0.120   2.160
 4930SOL    HW215690   5.980   0.233   2.171
 4931SOL     OW15691   6.159   6.768   1.712
 4931SOL    HW115692   6.142   6.737   1.619
 4931SOL    HW215693   6.204   6.696   1.764
 4932SOL     OW15694   3.523   4.111   2.992
 4932SOL    HW115695   3.446   4.105   3.056
 4932SOL    HW215696   3.488   4.125   2.900
 4933SOL     OW15697   2.360   6.514   4.243
 4933SOL    HW115698   2.454   6.550   4.243
 4933SOL    HW215699   2.324   6.515   4.336
 4934SOL     OW15700   3.139   5.926   2.660
 4934SOL    HW115701   3.174   6.001   2.603
 4934SOL    HW215702   3.167   5.940   2.755
 4935SOL     OW15703   1.426   2.172   6.755
 4935SOL    HW115704   1.360   2.146   6.826
 4935SOL    HW215705   1.505   2.112   6.760
 4936SOL     OW15706   2.464   4.419   1.089
 4936SOL    HW115707   2.416   4.483   1.029
 4936SOL    HW215708   2.433   4.326   1.071
 4937SOL     OW15709   4.950   3.228   4.905
 4937SOL    HW115710   5.031   3.185   4.867
 4937SOL    HW215711   4.915   3.174   4.981
 4938SOL     OW15712   3.561   5.480   5.635
 4938SOL    HW115713   3.581   5.534   5.554
 4938SOL    HW215714   3.591   5.386   5.621
 4939SOL     OW15715   4.809   3.256   5.676
 4939SOL    HW115716   4.859   3.244   5.761
 4939SOL    HW215717   4.725   3.201   5.679
 4940SOL     OW15718   2.090   6.939   5.074
 4940SOL    HW115719   2.129   6.913   5.162
 4940SOL    HW215720   2.041   6.861   5.035
 4941SOL     OW15721   4.562   1.189   6.899
 4941SOL    HW115722   4.590   1.121   6.832
 4941SOL    HW215723   4.616   1.179   6.982
 4942SOL     OW15724   5.079   3.892   5.450
 4942SOL    HW115725   5.114   3.801   5.472
 4942SOL    HW215726   5.155   3.957   5.446
 4943SOL     OW15727   4.186   2.546   0.804
 4943SOL    HW115728   4.175   2.535   0.705
 4943SOL    HW215729   4.283   2.547   0.827
 4944SOL     OW15730   2.388   4.356   3.032
 4944SOL    HW115731   2.480   4.381   3.004
 4944SOL    HW215732   2.343   4.434   3.075
 4945SOL     OW15733   0.691   6.810   4.068
 4945SOL    HW115734   0.719   6.769   3.982
 4945SOL    HW215735   0.677   6.908   4.056
 4946SOL     OW15736   1.682   3.118   2.230
 4946SOL    HW115737   1.671   3.205   2.181
 4946SOL    HW215738   1.597   3.095   2.276
 4947SOL     OW15739   0.864   6.810   0.642
 4947SOL    HW115740   0.789   6.835   0.581
 4947SOL    HW215741   0.951   6.829   0.596
 4948SOL     OW15742   2.719   1.309   2.638
 4948SOL    HW115743   2.647   1.377   2.647
 4948SOL    HW215744   2.805   1.355   2.613
 4949SOL     OW15745   5.311   0.110   5.163
 4949SOL    HW115746   5.371   0.187   5.142
 4949SOL    HW215747   5.288   0.112   5.261
 4950SOL     OW15748   2.409   6.052   5.084
 4950SOL    HW115749   2.503   6.081   5.099
 4950SOL    HW215750   2.407   5.954   5.063
 4951SOL     OW15751   4.259   1.691   4.436
 4951SOL    HW115752   4.193   1.628   4.476
 4951SOL    HW215753   4.214   1.746   4.365
 4952SOL     OW15754   6.903   6.766   5.251
 4952SOL    HW115755   6.883   6.864   5.249
 4952SOL    HW215756   6.948   6.740   5.166
 4953SOL     OW15757   2.009   5.686   1.002
 4953SOL    HW115758   2.071   5.609   0.985
 4953SOL    HW215759   2.061   5.762   1.041
 4954SOL     OW15760   5.345   5.012   0.215
 4954SOL    HW115761   5.363   4.923   0.257
 4954SOL    HW215762   5.432   5.058   0.197
 4955SOL     OW15763   1.788   6.730   0.941
 4955SOL    HW115764   1.851   6.807   0.957
 4955SOL    HW215765   1.839   6.644   0.942
 4956SOL     OW15766   4.235   0.027   5.209
 4956SOL    HW115767   4.160   0.093   5.201
 4956SOL    HW215768   4.322   0.074   5.191
 4957SOL     OW15769   0.787   1.152   4.295
 4957SOL    HW115770   0.790   1.110   4.385
 4957SOL    HW215771   0.861   1.116   4.239
 4958SOL     OW15772   0.491   6.577   6.480
 4958SOL    HW115773   0.425   6.562   6.406
 4958SOL    HW215774   0.493   6.674   6.504
 4959SOL     OW15775   0.776   0.962   0.624
 4959SOL    HW115776   0.762   0.882   0.566
 4959SOL    HW215777   0.824   1.033   0.572
 4960SOL     OW15778   3.934   6.120   4.330
 4960SOL    HW115779   3.871   6.053   4.370
 4960SOL    HW215780   4.003   6.072   4.275
 4961SOL     OW15781   5.006   6.965   5.009
 4961SOL    HW115782   4.945   6.966   4.930
 4961SOL    HW215783   5.031   6.871   5.031
 4962SOL     OW15784   5.681   2.363   1.775
 4962SOL    HW115785   5.695   2.280   1.829
 4962SOL    HW215786   5.592   2.403   1.797
 4963SOL     OW15787   0.690   5.171   1.249
 4963SOL    HW115788   0.671   5.074   1.230
 4963SOL    HW215789   0.695   5.184   1.348
 4964SOL     OW15790   3.433   6.570   3.229
 4964SOL    HW115791   3.419   6.623   3.313
 4964SOL    HW215792   3.529   6.545   3.221
 4965SOL     OW15793   0.211   0.023   4.512
 4965SOL    HW115794   0.234   6.956   4.473
 4965SOL    HW215795   0.204   0.015   4.611
 4966SOL     OW15796   3.105   5.803   5.173
 4966SOL    HW115797   3.046   5.872   5.215
 4966SOL    HW215798   3.077   5.712   5.206
 4967SOL     OW15799   3.943   2.810   6.968
 4967SOL    HW115800   3.915   2.775   6.878
 4967SOL    HW215801   3.893   2.762   0.016
 4968SOL     OW15802   4.832   2.895   3.702
 4968SOL    HW115803   4.801   2.985   3.672
 4968SOL    HW215804   4.877   2.902   3.790
 4969SOL     OW15805   1.792   1.466   1.346
 4969SOL    HW115806   1.743   1.452   1.261
 4969SOL    HW215807   1.850   1.547   1.338
 4970SOL     OW15808   1.183   1.924   4.871
 4970SOL    HW115809   1.280   1.947   4.881
 4970SOL    HW215810   1.169   1.876   4.784
 4971SOL     OW15811   6.220   6.264   2.855
 4971SOL    HW115812   6.275   6.237   2.934
 4971SOL    HW215813   6.166   6.187   2.823
 4972SOL     OW15814   1.591   3.608   0.810
 4972SOL    HW115815   1.666   3.618   0.875
 4972SOL    HW215816   1.627   3.578   0.721
 4973SOL     OW15817   5.980   5.886   2.275
 4973SOL    HW115818   5.990   5.905   2.177
 4973SOL    HW215819   5.886   5.904   2.303
 4974SOL     OW15820   5.212   5.875   2.852
 4974SOL    HW115821   5.274   5.850   2.927
 4974SOL    HW215822   5.118   5.882   2.888
 4975SOL     OW15823   6.298   6.436   0.623
 4975SOL    HW115824   6.227   6.452   0.692
 4975SOL    HW215825   6.363   6.369   0.657
 4976SOL     OW15826   3.209   0.907   4.922
 4976SOL    HW115827   3.253   0.983   4.971
 4976SOL    HW215828   3.119   0.935   4.891
 4977SOL     OW15829   4.236   3.803   0.384
 4977SOL    HW115830   4.323   3.801   0.336
 4977SOL    HW215831   4.187   3.718   0.369
 4978SOL     OW15832   5.635   3.669   5.567
 4978SOL    HW115833   5.584   3.651   5.483
 4978SOL    HW215834   5.620   3.594   5.631
 4979SOL     OW15835   0.670   0.590   5.716
 4979SOL    HW115836   0.743   0.535   5.674
 4979SOL    HW215837   0.581   0.552   5.690
 4980SOL     OW15838   3.678   5.246   2.546
 4980SOL    HW115839   3.614   5.282   2.478
 4980SOL    HW215840   3.658   5.287   2.635
 4981SOL     OW15841   4.512   0.058   5.200
 4981SOL    HW115842   4.537   6.997   5.248
 4981SOL    HW215843   4.499   0.132   5.267
 4982SOL     OW15844   2.093   2.216   0.052
 4982SOL    HW115845   2.105   2.248   6.981
 4982SOL    HW215846   2.150   2.135   0.067
 4983SOL     OW15847   5.402   2.535   3.864
 4983SOL    HW115848   5.445   2.509   3.778
 4983SOL    HW215849   5.422   2.466   3.933
 4984SOL     OW15850   5.100   4.024   4.291
 4984SOL    HW115851   5.129   4.065   4.205
 4984SOL    HW215852   5.003   4.002   4.287
 4985SOL     OW15853   5.080   5.148   2.658
 4985SOL    HW115854   5.156   5.087   2.681
 4985SOL    HW215855   5.010   5.096   2.608
 4986SOL     OW15856   5.672   4.613   3.457
 4986SOL    HW115857   5.660   4.645   3.363
 4986SOL    HW215858   5.684   4.691   3.518
 4987SOL     OW15859   0.112   3.180   0.998
 4987SOL    HW115860   0.169   3.099   1.005
 4987SOL    HW215861   0.045   3.180   1.072
 4988SOL     OW15862   0.405   1.377   4.577
 4988SOL    HW115863   0.445   1.356   4.488
 4988SOL    HW215864   0.417   1.298   4.638
 4989SOL     OW15865   0.249   1.466   0.857
 4989SOL    HW115866   0.229   1.507   0.768
 4989SOL    HW215867   0.252   1.538   0.927
 4990SOL     OW15868   0.611   2.875   5.228
 4990SOL    HW115869   0.615   2.967   5.267
 4990SOL    HW215870   0.703   2.836   5.224
 4991SOL     OW15871   0.347   2.892   4.405
 4991SOL    HW115872   0.293   2.945   4.339
 4991SOL    HW215873   0.288   2.865   4.481
 4992SOL     OW15874   3.469   1.035   5.342
 4992SOL    HW115875   3.527   1.055   5.263
 4992SOL    HW215876   3.381   0.999   5.310
 4993SOL     OW15877   3.102   5.828   4.171
 4993SOL    HW115878   3.073   5.898   4.106
 4993SOL    HW215879   3.022   5.782   4.208
 4994SOL     OW15880   0.689   0.017   3.010
 4994SOL    HW115881   0.732   0.014   2.919
 4994SOL    HW215882   0.745   6.991   3.075
 4995SOL     OW15883   6.952   2.577   6.040
 4995SOL    HW115884   6.979   2.616   6.128
 4995SOL    HW215885   6.893   2.642   5.992
 4996SOL     OW15886   0.483   1.999   2.026
 4996SOL    HW115887   0.480   1.899   2.022
 4996SOL    HW215888   0.405   2.032   2.080
 4997SOL     OW15889   6.945   2.759   2.728
 4997SOL    HW115890   6.879   2.687   2.710
 4997SOL    HW215891   6.968   2.806   2.642
 4998SOL     OW15892   1.272   5.347   4.401
 4998SOL    HW115893   1.341   5.341   4.472
 4998SOL    HW215894   1.285   5.273   4.335
 4999SOL     OW15895   5.709   5.578   0.807
 4999SOL    HW115896   5.732   5.554   0.713
 4999SOL    HW215897   5.727   5.675   0.822
 5000SOL     OW15898   0.866   0.335   4.662
 5000SOL    HW115899   0.767   0.342   4.648
 5000SOL    HW215900   0.908   0.424   4.646
 5001SOL     OW15901   2.946   4.182   5.615
 5001SOL    HW115902   2.929   4.265   5.563
 5001SOL    HW215903   2.991   4.205   5.701
 5002SOL     OW15904   2.268   1.174   2.223
 5002SOL    HW115905   2.202   1.138   2.156
 5002SOL    HW215906   2.242   1.143   2.315
 5003SOL     OW15907   6.733   6.415   2.462
 5003SOL    HW115908   6.716   6.401   2.365
 5003SOL    HW215909   6.778   6.504   2.475
 5004SOL     OW15910   2.173   5.747   6.344
 5004SOL    HW115911   2.194   5.683   6.418
 5004SOL    HW215912   2.184   5.841   6.377
 5005SOL     OW15913   4.468   3.200   0.443
 5005SOL    HW115914   4.478   3.134   0.368
 5005SOL    HW215915   4.405   3.163   0.511
 5006SOL     OW15916   5.654   6.369   5.087
 5006SOL    HW115917   5.679   6.295   5.149
 5006SOL    HW215918   5.609   6.442   5.138
 5007SOL     OW15919   4.474   1.152   5.845
 5007SOL    HW115920   4.468   1.201   5.758
 5007SOL    HW215921   4.542   1.196   5.903
 5008SOL     OW15922   5.501   1.122   3.500
 5008SOL    HW115923   5.483   1.144   3.596
 5008SOL    HW215924   5.598   1.099   3.489
 5009SOL     OW15925   0.825   6.689   2.441
 5009SOL    HW115926   0.873   6.618   2.493
 5009SOL    HW215927   0.851   6.684   2.345
 5010SOL     OW15928   3.956   3.976   3.637
 5010SOL    HW115929   3.980   3.916   3.713
 5010SOL    HW215930   4.006   3.948   3.555
 5011SOL     OW15931   0.863   2.836   2.553
 5011SOL    HW115932   0.856   2.885   2.467
 5011SOL    HW215933   0.771   2.826   2.593
 5012SOL     OW15934   6.859   2.473   5.787
 5012SOL    HW115935   6.888   2.489   5.881
 5012SOL    HW215936   6.850   2.374   5.772
 5013SOL     OW15937   4.323   1.146   6.120
 5013SOL    HW115938   4.391   1.075   6.105
 5013SOL    HW215939   4.360   1.218   6.179
 5014SOL     OW15940   6.051   6.394   0.799
 5014SOL    HW115941   5.999   6.468   0.843
 5014SOL    HW215942   5.993   6.349   0.731
 5015SOL     OW15943   4.398   2.380   3.734
 5015SOL    HW115944   4.472   2.446   3.741
 5015SOL    HW215945   4.420   2.313   3.663
 5016SOL     OW15946   2.291   0.702   2.679
 5016SOL    HW115947   2.386   0.693   2.710
 5016SOL    HW215948   2.271   0.626   2.616
 5017SOL     OW15949   2.551   1.870   0.986
 5017SOL    HW115950   2.505   1.857   0.899
 5017SOL    HW215951   2.644   1.904   0.971
 5018SOL     OW15952   6.494   4.925   3.183
 5018SOL    HW115953   6.445   4.974   3.255
 5018SOL    HW215954   6.583   4.969   3.167
 5019SOL     OW15955   2.192   4.360   0.671
 5019SOL    HW115956   2.098   4.358   0.704
 5019SOL    HW215957   2.216   4.271   0.632
 5020SOL     OW15958   4.345   5.202   6.500
 5020SOL    HW115959   4.327   5.198   6.401
 5020SOL    HW215960   4.412   5.275   6.518
 5021SOL     OW15961   2.015   4.450   5.545
 5021SOL    HW115962   2.107   4.420   5.517
 5021SOL    HW215963   2.022   4.534   5.597
 5022SOL     OW15964   1.751   6.225   0.706
 5022SOL    HW115965   1.695   6.154   0.748
 5022SOL    HW215966   1.697   6.271   0.634
 5023SOL     OW15967   6.066   2.841   0.809
 5023SOL    HW115968   6.002   2.901   0.760
 5023SOL    HW215969   6.076   2.873   0.903
 5024SOL     OW15970   6.422   3.728   3.596
 5024SOL    HW115971   6.468   3.811   3.627
 5024SOL    HW215972   6.333   3.752   3.558
 5025SOL     OW15973   4.880   2.304   3.055
 5025SOL    HW115974   4.974   2.321   3.026
 5025SOL    HW215975   4.868   2.335   3.150
 5026SOL     OW15976   6.483   5.573   4.225
 5026SOL    HW115977   6.405   5.550   4.283
 5026SOL    HW215978   6.454   5.634   4.152
 5027SOL     OW15979   0.763   6.806   3.449
 5027SOL    HW115980   0.677   6.856   3.451
 5027SOL    HW215981   0.744   6.708   3.459
 5028SOL     OW15982   0.364   6.404   2.909
 5028SOL    HW115983   0.446   6.356   2.939
 5028SOL    HW215984   0.382   6.451   2.823
 5029SOL     OW15985   0.219   2.297   1.404
 5029SOL    HW115986   0.161   2.264   1.478
 5029SOL    HW215987   0.315   2.286   1.429
 5030SOL     OW15988   6.741   0.640   6.894
 5030SOL    HW115989   6.805   0.576   6.851
 5030SOL    HW215990   6.653   0.594   6.909
 5031SOL     OW15991   5.641   0.658   4.352
 5031SOL    HW115992   5.606   0.566   4.370
 5031SOL    HW215993   5.674   0.663   4.258
 5032SOL     OW15994   1.603   5.112   0.989
 5032SOL    HW115995   1.667   5.164   1.044
 5032SOL    HW215996   1.626   5.015   0.992
 5033SOL     OW15997   2.483   4.500   5.487
 5033SOL    HW115998   2.492   4.403   5.467
 5033SOL    HW215999   2.515   4.518   5.579
 5034SOL     OW16000   6.538   2.445   2.029
 5034SOL    HW116001   6.579   2.446   2.120
 5034SOL    HW216002   6.441   2.421   2.036
 5035SOL     OW16003   4.948   5.599   0.571
 5035SOL    HW116004   4.999   5.551   0.499
 5035SOL    HW216005   4.919   5.689   0.537
 5036SOL     OW16006   0.836   6.669   1.095
 5036SOL    HW116007   0.899   6.594   1.072
 5036SOL    HW216008   0.888   6.754   1.105
 5037SOL     OW16009   4.071   1.630   3.560
 5037SOL    HW116010   4.083   1.645   3.658
 5037SOL    HW216011   3.973   1.620   3.540
 5038SOL     OW16012   0.741   5.985   5.576
 5038SOL    HW116013   0.682   5.926   5.631
 5038SOL    HW216014   0.819   6.014   5.630
 5039SOL     OW16015   2.421   2.736   5.224
 5039SOL    HW116016   2.322   2.734   5.237
 5039SOL    HW216017   2.452   2.831   5.214
 5040SOL     OW16018   3.112   3.766   6.214
 5040SOL    HW116019   3.171   3.842   6.244
 5040SOL    HW216020   3.049   3.743   6.288
 5041SOL     OW16021   0.952   3.370   1.900
 5041SOL    HW116022   0.980   3.377   1.995
 5041SOL    HW216023   0.926   3.275   1.880
 5042SOL     OW16024   5.854   3.116   6.394
 5042SOL    HW116025   5.790   3.114   6.470
 5042SOL    HW216026   5.808   3.083   6.311
 5043SOL     OW16027   3.891   0.489   3.557
 5043SOL    HW116028   3.954   0.516   3.485
 5043SOL    HW216029   3.797   0.488   3.521
 5044SOL     OW16030   6.145   5.364   3.318
 5044SOL    HW116031   6.121   5.337   3.411
 5044SOL    HW216032   6.084   5.319   3.253
 5045SOL     OW16033   6.268   2.761   0.157
 5045SOL    HW116034   6.237   2.821   0.231
 5045SOL    HW216035   6.321   2.813   0.091
 5046SOL     OW16036   3.164   2.999   5.087
 5046SOL    HW116037   3.195   3.094   5.084
 5046SOL    HW216038   3.098   2.988   5.161
 5047SOL     OW16039   6.530   0.621   2.570
 5047SOL    HW116040   6.433   0.613   2.592
 5047SOL    HW216041   6.553   0.717   2.552
 5048SOL     OW16042   0.055   2.505   1.327
 5048SOL    HW116043   0.109   2.569   1.272
 5048SOL    HW216044   0.117   2.445   1.378
 5049SOL     OW16045   1.183   2.049   2.259
 5049SOL    HW116046   1.184   2.050   2.359
 5049SOL    HW216047   1.217   2.136   2.224
 5050SOL     OW16048   0.838   2.649   1.797
 5050SOL    HW116049   0.814   2.684   1.887
 5050SOL    HW216050   0.764   2.591   1.763
 5051SOL     OW16051   2.788   4.588   0.789
 5051SOL    HW116052   2.777   4.525   0.866
 5051SOL    HW216053   2.851   4.548   0.723
 5052SOL     OW16054   4.615   5.168   0.854
 5052SOL    HW116055   4.678   5.230   0.807
 5052SOL    HW216056   4.528   5.166   0.805
 5053SOL     OW16057   2.658   3.978   1.231
 5053SOL    HW116058   2.633   3.881   1.222
 5053SOL    HW216059   2.607   4.018   1.308
 5054SOL     OW16060   3.543   5.652   4.952
 5054SOL    HW116061   3.477   5.609   5.015
 5054SOL    HW216062   3.494   5.706   4.884
 5055SOL     OW16063   1.131   1.736   5.295
 5055SOL    HW116064   1.082   1.809   5.248
 5055SOL    HW216065   1.132   1.654   5.237
 5056SOL     OW16066   0.522   3.441   5.781
 5056SOL    HW116067   0.496   3.448   5.878
 5056SOL    HW216068   0.439   3.433   5.725
 5057SOL     OW16069   0.504   5.854   3.543
 5057SOL    HW116070   0.463   5.770   3.577
 5057SOL    HW216071   0.604   5.847   3.547
 5058SOL     OW16072   4.609   4.339   6.491
 5058SOL    HW116073   4.591   4.388   6.406
 5058SOL    HW216074   4.698   4.366   6.527
 5059SOL     OW16075   3.565   1.990   4.897
 5059SOL    HW116076   3.581   2.032   4.808
 5059SOL    HW216077   3.474   2.018   4.931
 5060SOL     OW16078   0.547   3.152   5.207
 5060SOL    HW116079   0.549   3.211   5.126
 5060SOL    HW216080   0.617   3.183   5.271
 5061SOL     OW16081   3.827   3.124   4.593
 5061SOL    HW116082   3.867   3.089   4.678
 5061SOL    HW216083   3.735   3.159   4.612
 5062SOL     OW16084   5.222   1.008   3.333
 5062SOL    HW116085   5.273   0.972   3.255
 5062SOL    HW216086   5.249   1.103   3.349
 5063SOL     OW16087   1.279   6.848   2.571
 5063SOL    HW116088   1.237   6.786   2.637
 5063SOL    HW216089   1.273   6.942   2.606
 5064SOL     OW16090   4.575   5.751   0.379
 5064SOL    HW116091   4.533   5.840   0.359
 5064SOL    HW216092   4.533   5.712   0.461
 5065SOL     OW16093   2.467   6.919   3.409
 5065SOL    HW116094   2.483   6.876   3.320
 5065SOL    HW216095   2.545   6.901   3.469
 5066SOL     OW16096   1.796   4.664   1.628
 5066SOL    HW116097   1.720   4.715   1.588
 5066SOL    HW216098   1.868   4.653   1.559
 5067SOL     OW16099   4.028   2.728   1.643
 5067SOL    HW116100   4.023   2.647   1.584
 5067SOL    HW216101   4.122   2.762   1.646
 5068SOL     OW16102   3.811   6.462   0.789
 5068SOL    HW116103   3.811   6.503   0.698
 5068SOL    HW216104   3.901   6.472   0.830
 5069SOL     OW16105   3.140   4.632   5.963
 5069SOL    HW116106   3.128   4.573   5.883
 5069SOL    HW216107   3.050   4.661   5.997
 5070SOL     OW16108   5.721   3.178   4.115
 5070SOL    HW116109   5.801   3.214   4.066
 5070SOL    HW216110   5.674   3.253   4.162
 5071SOL     OW16111   3.667   0.886   3.682
 5071SOL    HW116112   3.616   0.805   3.655
 5071SOL    HW216113   3.627   0.926   3.764
 5072SOL     OW16114   1.992   1.199   0.928
 5072SOL    HW116115   1.897   1.197   0.961
 5072SOL    HW216116   2.018   1.107   0.898
 5073SOL     OW16117   2.642   6.724   2.293
 5073SOL    HW116118   2.632   6.805   2.234
 5073SOL    HW216119   2.638   6.641   2.238
 5074SOL     OW16120   3.959   2.306   1.732
 5074SOL    HW116121   3.963   2.209   1.708
 5074SOL    HW216122   3.871   2.325   1.776
 5075SOL     OW16123   1.640   3.396   6.995
 5075SOL    HW116124   1.594   3.434   6.915
 5075SOL    HW216125   1.572   3.372   0.041
 5076SOL     OW16126   5.556   0.734   0.877
 5076SOL    HW116127   5.575   0.831   0.866
 5076SOL    HW216128   5.638   0.681   0.858
 5077SOL     OW16129   1.011   4.995   3.805
 5077SOL    HW116130   0.981   5.058   3.877
 5077SOL    HW216131   1.103   5.021   3.775
 5078SOL     OW16132   0.463   0.863   3.976
 5078SOL    HW116133   0.509   0.925   4.041
 5078SOL    HW216134   0.513   0.863   3.890
 5079SOL     OW16135   1.997   2.143   5.899
 5079SOL    HW116136   1.940   2.219   5.867
 5079SOL    HW216137   2.041   2.168   5.985
 5080SOL     OW16138   6.502   5.035   5.846
 5080SOL    HW116139   6.596   5.034   5.813
 5080SOL    HW216140   6.495   4.981   5.930
 5081SOL     OW16141   3.632   5.914   5.923
 5081SOL    HW116142   3.707   5.973   5.956
 5081SOL    HW216143   3.545   5.952   5.954
 5082SOL     OW16144   4.940   6.499   1.436
 5082SOL    HW116145   4.979   6.591   1.442
 5082SOL    HW216146   4.840   6.505   1.445
 5083SOL     OW16147   2.591   0.576   3.121
 5083SOL    HW116148   2.496   0.598   3.098
 5083SOL    HW216149   2.652   0.616   3.052
 5084SOL     OW16150   0.703   4.899   5.004
 5084SOL    HW116151   0.691   4.947   4.917
 5084SOL    HW216152   0.749   4.812   4.987
 5085SOL     OW16153   1.089   3.709   6.720
 5085SOL    HW116154   1.096   3.629   6.661
 5085SOL    HW216155   1.154   3.779   6.689
 5086SOL     OW16156   1.323   4.271   2.436
 5086SOL    HW116157   1.366   4.334   2.370
 5086SOL    HW216158   1.230   4.251   2.406
 5087SOL     OW16159   6.776   5.040   2.725
 5087SOL    HW116160   6.825   4.993   2.798
 5087SOL    HW216161   6.814   5.014   2.637
 5088SOL     OW16162   4.440   5.829   2.528
 5088SOL    HW116163   4.374   5.766   2.568
 5088SOL    HW216164   4.394   5.888   2.461
 5089SOL     OW16165   5.254   4.558   4.609
 5089SOL    HW116166   5.282   4.587   4.518
 5089SOL    HW216167   5.262   4.634   4.673
 5090SOL     OW16168   2.326   0.445   4.104
 5090SOL    HW116169   2.293   0.353   4.125
 5090SOL    HW216170   2.292   0.473   4.014
 5091SOL     OW16171   6.339   0.204   0.557
 5091SOL    HW116172   6.395   0.170   0.632
 5091SOL    HW216173   6.320   0.301   0.570
 5092SOL     OW16174   3.630   3.830   4.652
 5092SOL    HW116175   3.553   3.892   4.666
 5092SOL    HW216176   3.613   3.773   4.571
 5093SOL     OW16177   1.875   1.519   3.029
 5093SOL    HW116178   1.787   1.566   3.018
 5093SOL    HW216179   1.861   1.421   3.017
 5094SOL     OW16180   2.241   5.347   6.400
 5094SOL    HW116181   2.328   5.327   6.355
 5094SOL    HW216182   2.254   5.420   6.468
 5095SOL     OW16183   0.243   1.253   3.219
 5095SOL    HW116184   0.258   1.301   3.133
 5095SOL    HW216185   0.252   1.154   3.204
 5096SOL     OW16186   5.272   3.312   6.369
 5096SOL    HW116187   5.210   3.274   6.301
 5096SOL    HW216188   5.250   3.408   6.385
 5097SOL     OW16189   6.560   6.956   6.255
 5097SOL    HW116190   6.499   6.954   6.176
 5097SOL    HW216191   6.511   6.921   6.335
 5098SOL     OW16192   3.496   2.001   2.012
 5098SOL    HW116193   3.515   1.930   1.944
 5098SOL    HW216194   3.558   2.078   1.999
 5099SOL     OW16195   0.462   5.619   1.707
 5099SOL    HW116196   0.363   5.626   1.722
 5099SOL    HW216197   0.497   5.538   1.752
 5100SOL     OW16198   5.214   4.369   2.929
 5100SOL    HW116199   5.303   4.344   2.889
 5100SOL    HW216200   5.141   4.327   2.875
 5101SOL     OW16201   4.190   0.305   5.447
 5101SOL    HW116202   4.128   0.292   5.524
 5101SOL    HW216203   4.153   0.376   5.386
 5102SOL     OW16204   5.533   5.379   3.922
 5102SOL    HW116205   5.456   5.315   3.933
 5102SOL    HW216206   5.617   5.335   3.953
 5103SOL     OW16207   1.055   0.293   5.756
 5103SOL    HW116208   1.100   0.327   5.839
 5103SOL    HW216209   1.016   0.370   5.706
 5104SOL     OW16210   3.742   5.138   1.520
 5104SOL    HW116211   3.697   5.204   1.580
 5104SOL    HW216212   3.735   5.169   1.425
 5105SOL     OW16213   3.386   3.510   6.852
 5105SOL    HW116214   3.390   3.450   6.932
 5105SOL    HW216215   3.297   3.554   6.846
 5106SOL     OW16216   4.125   2.801   0.915
 5106SOL    HW116217   4.162   2.716   0.878
 5106SOL    HW216218   4.047   2.830   0.859
 5107SOL     OW16219   5.368   2.285   1.492
 5107SOL    HW116220   5.269   2.275   1.490
 5107SOL    HW216221   5.405   2.238   1.573
 5108SOL     OW16222   4.314   3.685   6.529
 5108SOL    HW116223   4.385   3.744   6.567
 5108SOL    HW216224   4.263   3.642   6.604
 5109SOL     OW16225   1.952   3.215   1.155
 5109SOL    HW116226   1.969   3.142   1.090
 5109SOL    HW216227   1.856   3.211   1.184
 5110SOL     OW16228   5.789   6.750   6.254
 5110SOL    HW116229   5.861   6.681   6.247
 5110SOL    HW216230   5.830   6.840   6.263
 5111SOL     OW16231   1.271   5.957   5.262
 5111SOL    HW116232   1.210   5.881   5.281
 5111SOL    HW216233   1.232   6.015   5.192
 5112SOL     OW16234   0.205   0.678   3.552
 5112SOL    HW116235   0.220   0.772   3.521
 5112SOL    HW216236   0.107   0.661   3.561
 5113SOL     OW16237   2.454   5.157   1.119
 5113SOL    HW116238   2.445   5.066   1.160
 5113SOL    HW216239   2.366   5.205   1.125
 5114SOL     OW16240   3.955   6.929   0.360
 5114SOL    HW116241   3.995   7.017   0.333
 5114SOL    HW216242   3.871   6.914   0.308
 5115SOL     OW16243   2.227   3.893   1.872
 5115SOL    HW116244   2.232   3.981   1.918
 5115SOL    HW216245   2.191   3.824   1.936
 5116SOL     OW16246   2.539   6.969   6.596
 5116SOL    HW116247   2.618   6.994   6.540
 5116SOL    HW216248   2.517   6.873   6.581
 5117SOL     OW16249   1.356   2.477   4.475
 5117SOL    HW116250   1.325   2.556   4.528
 5117SOL    HW216251   1.343   2.494   4.378
 5118SOL     OW16252   6.302   6.787   0.165
 5118SOL    HW116253   6.269   6.693   0.162
 5118SOL    HW216254   6.227   6.848   0.189
 5119SOL     OW16255   5.345   1.887   0.399
 5119SOL    HW116256   5.359   1.876   0.498
 5119SOL    HW216257   5.344   1.797   0.355
 5120SOL     OW16258   5.358   0.614   4.655
 5120SOL    HW116259   5.291   0.569   4.712
 5120SOL    HW216260   5.414   0.546   4.608
 5121SOL     OW16261   2.795   3.504   0.063
 5121SOL    HW116262   2.713   3.465   0.020
 5121SOL    HW216263   2.861   3.529   7.016
 5122SOL     OW16264   4.291   5.518   3.437
 5122SOL    HW116265   4.314   5.548   3.344
 5122SOL    HW216266   4.258   5.424   3.435
 5123SOL     OW16267   4.708   1.899   2.239
 5123SOL    HW116268   4.761   1.917   2.156
 5123SOL    HW216269   4.617   1.940   2.230
 5124SOL     OW16270   1.978   6.232   3.528
 5124SOL    HW116271   2.011   6.278   3.610
 5124SOL    HW216272   1.981   6.133   3.541
 5125SOL     OW16273   0.539   2.195   3.862
 5125SOL    HW116274   0.538   2.291   3.835
 5125SOL    HW216275   0.634   2.166   3.878
 5126SOL     OW16276   1.884   6.985   0.808
 5126SOL    HW116277   1.808   6.960   0.748
 5126SOL    HW216278   1.971   6.975   0.758
 5127SOL     OW16279   2.214   5.418   0.298
 5127SOL    HW116280   2.202   5.325   0.332
 5127SOL    HW216281   2.128   5.450   0.258
 5128SOL     OW16282   6.777   6.194   1.848
 5128SOL    HW116283   6.868   6.165   1.876
 5128SOL    HW216284   6.770   6.293   1.854
 5129SOL     OW16285   4.673   6.468   1.360
 5129SOL    HW116286   4.589   6.438   1.404
 5129SOL    HW216287   4.653   6.494   1.265
 5130SOL     OW16288   6.445   4.657   3.411
 5130SOL    HW116289   6.373   4.714   3.371
 5130SOL    HW216290   6.450   4.570   3.362
 5131SOL     OW16291   1.004   2.616   3.460
 5131SOL    HW116292   1.078   2.605   3.393
 5131SOL    HW216293   0.916   2.611   3.413
 5132SOL     OW16294   3.602   4.674   6.776
 5132SOL    HW116295   3.652   4.761   6.775
 5132SOL    HW216296   3.513   4.686   6.819
 5133SOL     OW16297   3.726   5.948   6.415
 5133SOL    HW116298   3.816   5.935   6.373
 5133SOL    HW216299   3.659   5.889   6.368
 5134SOL     OW16300   0.512   3.461   1.477
 5134SOL    HW116301   0.444   3.534   1.476
 5134SOL    HW216302   0.567   3.466   1.393
 5135SOL     OW16303   6.963   2.051   4.794
 5135SOL    HW116304   0.002   2.067   4.871
 5135SOL    HW216305   7.007   2.081   4.709
 5136SOL     OW16306   4.963   0.321   4.338
 5136SOL    HW116307   4.973   0.420   4.343
 5136SOL    HW216308   4.952   0.284   4.430
 5137SOL     OW16309   5.273   3.938   6.651
 5137SOL    HW116310   5.220   3.928   6.566
 5137SOL    HW216311   5.314   3.851   6.675
 5138SOL     OW16312   2.952   3.390   6.356
 5138SOL    HW116313   2.854   3.393   6.377
 5138SOL    HW216314   2.978   3.298   6.327
 5139SOL     OW16315   1.572   6.630   3.971
 5139SOL    HW116316   1.480   6.636   4.011
 5139SOL    HW216317   1.566   6.652   3.873
 5140SOL     OW16318   3.466   2.592   0.899
 5140SOL    HW116319   3.378   2.546   0.890
 5140SOL    HW216320   3.512   2.562   0.983
 5141SOL     OW16321   5.560   3.498   0.766
 5141SOL    HW116322   5.616   3.503   0.683
 5141SOL    HW216323   5.618   3.514   0.846
 5142SOL     OW16324   5.759   3.060   4.462
 5142SOL    HW116325   5.689   3.131   4.447
 5142SOL    HW216326   5.772   3.008   4.378
 5143SOL     OW16327   0.185   4.702   4.200
 5143SOL    HW116328   0.255   4.774   4.194
 5143SOL    HW216329   0.106   4.736   4.251
 5144SOL     OW16330   1.603   6.766   6.388
 5144SOL    HW116331   1.620   6.764   6.289
 5144SOL    HW216332   1.510   6.800   6.405
 5145SOL     OW16333   2.654   5.207   5.399
 5145SOL    HW116334   2.582   5.210   5.329
 5145SOL    HW216335   2.614   5.232   5.487
 5146SOL     OW16336   3.579   3.788   6.796
 5146SOL    HW116337   3.572   3.753   6.889
 5146SOL    HW216338   3.561   3.715   6.731
 5147SOL     OW16339   6.744   4.569   0.545
 5147SOL    HW116340   6.647   4.594   0.541
 5147SOL    HW216341   6.795   4.642   0.591
 5148SOL     OW16342   6.943   5.941   1.519
 5148SOL    HW116343   6.910   5.909   1.608
 5148SOL    HW216344   7.023   6.000   1.532
 5149SOL     OW16345   6.306   1.284   2.927
 5149SOL    HW116346   6.353   1.198   2.948
 5149SOL    HW216347   6.240   1.304   2.999
 5150SOL     OW16348   1.604   6.164   3.601
 5150SOL    HW116349   1.577   6.236   3.538
 5150SOL    HW216350   1.582   6.075   3.561
 5151SOL     OW16351   5.178   1.303   6.442
 5151SOL    HW116352   5.258   1.333   6.493
 5151SOL    HW216353   5.115   1.256   6.504
 5152SOL     OW16354   1.275   4.855   0.236
 5152SOL    HW116355   1.368   4.821   0.241
 5152SOL    HW216356   1.269   4.944   0.282
 5153SOL     OW16357   2.310   2.478   0.662
 5153SOL    HW116358   2.238   2.411   0.682
 5153SOL    HW216359   2.368   2.490   0.743
 5154SOL     OW16360   1.664   3.440   6.177
 5154SOL    HW116361   1.755   3.438   6.136
 5154SOL    HW216362   1.633   3.535   6.185
 5155SOL     OW16363   4.318   6.141   2.049
 5155SOL    HW116364   4.346   6.236   2.066
 5155SOL    HW216365   4.325   6.089   2.134
 5156SOL     OW16366   6.647   2.276   5.701
 5156SOL    HW116367   6.553   2.292   5.732
 5156SOL    HW216368   6.665   2.331   5.620
 5157SOL     OW16369   5.175   2.542   3.673
 5157SOL    HW116370   5.235   2.539   3.753
 5157SOL    HW216371   5.174   2.635   3.635
 5158SOL     OW16372   3.683   1.338   1.618
 5158SOL    HW116373   3.602   1.346   1.677
 5158SOL    HW216374   3.765   1.345   1.675
 5159SOL     OW16375   0.589   2.655   4.383
 5159SOL    HW116376   0.590   2.742   4.334
 5159SOL    HW216377   0.525   2.660   4.459
 5160SOL     OW16378   1.482   3.538   4.423
 5160SOL    HW116379   1.423   3.470   4.467
 5160SOL    HW216380   1.427   3.617   4.396
 5161SOL     OW16381   1.123   3.597   5.434
 5161SOL    HW116382   1.199   3.661   5.421
 5161SOL    HW216383   1.084   3.611   5.525
 5162SOL     OW16384   0.019   5.777   3.769
 5162SOL    HW116385   0.007   5.776   3.670
 5162SOL    HW216386   6.965   5.731   3.813
 5163SOL     OW16387   5.407   5.266   0.529
 5163SOL    HW116388   5.441   5.180   0.566
 5163SOL    HW216389   5.342   5.247   0.456
 5164SOL     OW16390   5.457   2.872   5.211
 5164SOL    HW116391   5.385   2.840   5.274
 5164SOL    HW216392   5.546   2.843   5.246
 5165SOL     OW16393   6.242   4.885   4.467
 5165SOL    HW116394   6.230   4.910   4.563
 5165SOL    HW216395   6.190   4.802   4.447
 5166SOL     OW16396   1.326   4.458   1.724
 5166SOL    HW116397   1.410   4.503   1.752
 5166SOL    HW216398   1.294   4.398   1.797
 5167SOL     OW16399   6.076   6.682   6.020
 5167SOL    HW116400   6.052   6.772   6.058
 5167SOL    HW216401   6.175   6.674   6.014
 5168SOL     OW16402   4.122   2.262   3.193
 5168SOL    HW116403   4.180   2.305   3.124
 5168SOL    HW216404   4.166   2.269   3.282
 5169SOL     OW16405   3.293   3.999   6.213
 5169SOL    HW116406   3.228   4.060   6.167
 5169SOL    HW216407   3.385   4.019   6.181
 5170SOL     OW16408   6.378   4.413   5.189
 5170SOL    HW116409   6.439   4.354   5.242
 5170SOL    HW216410   6.289   4.368   5.178
 5171SOL     OW16411   2.549   4.907   4.439
 5171SOL    HW116412   2.596   4.929   4.353
 5171SOL    HW216413   2.585   4.965   4.512
 5172SOL     OW16414   0.404   3.714   1.808
 5172SOL    HW116415   0.420   3.812   1.812
 5172SOL    HW216416   0.444   3.670   1.888
 5173SOL     OW16417   5.829   3.932   5.801
 5173SOL    HW116418   5.880   4.012   5.768
 5173SOL    HW216419   5.849   3.918   5.898
 5174SOL     OW16420   1.644   4.694   5.217
 5174SOL    HW116421   1.676   4.736   5.132
 5174SOL    HW216422   1.573   4.627   5.196
 5175SOL     OW16423   1.699   4.561   0.473
 5175SOL    HW116424   1.691   4.482   0.533
 5175SOL    HW216425   1.778   4.549   0.412
 5176SOL     OW16426   4.300   3.963   0.758
 5176SOL    HW116427   4.230   4.016   0.807
 5176SOL    HW216428   4.289   3.977   0.660
 5177SOL     OW16429   4.410   6.516   5.724
 5177SOL    HW116430   4.505   6.520   5.693
 5177SOL    HW216431   4.407   6.519   5.824
 5178SOL     OW16432   3.064   2.918   1.790
 5178SOL    HW116433   3.070   2.822   1.761
 5178SOL    HW216434   2.976   2.955   1.763
 5179SOL     OW16435   4.090   6.812   5.644
 5179SOL    HW116436   4.042   6.895   5.616
 5179SOL    HW216437   4.038   6.732   5.615
 5180SOL     OW16438   3.586   1.955   0.211
 5180SOL    HW116439   3.507   1.894   0.210
 5180SOL    HW216440   3.669   1.901   0.221
 5181SOL     OW16441   4.006   0.211   2.701
 5181SOL    HW116442   4.066   0.265   2.641
 5181SOL    HW216443   3.937   0.272   2.741
 5182SOL     OW16444   5.678   4.421   1.611
 5182SOL    HW116445   5.686   4.499   1.549
 5182SOL    HW216446   5.709   4.448   1.702
 5183SOL     OW16447   4.485   0.000   2.442
 5183SOL    HW116448   4.428   6.976   2.508
 5183SOL    HW216449   4.581   6.999   2.456
 5184SOL     OW16450   1.021   1.483   3.614
 5184SOL    HW116451   0.964   1.541   3.555
 5184SOL    HW216452   1.057   1.407   3.560
 5185SOL     OW16453   3.707   7.021   2.167
 5185SOL    HW116454   3.750   6.991   2.253
 5185SOL    HW216455   3.736   6.960   2.093
 5186SOL     OW16456   6.851   4.131   1.176
 5186SOL    HW116457   6.859   4.034   1.153
 5186SOL    HW216458   6.933   4.179   1.144
 5187SOL     OW16459   6.295   1.781   3.724
 5187SOL    HW116460   6.210   1.743   3.761
 5187SOL    HW216461   6.333   1.719   3.656
 5188SOL     OW16462   0.772   5.183   6.514
 5188SOL    HW116463   0.718   5.267   6.527
 5188SOL    HW216464   0.777   5.162   6.416
 5189SOL     OW16465   5.254   4.453   6.369
 5189SOL    HW116466   5.262   4.541   6.414
 5189SOL    HW216467   5.341   4.428   6.328
 5190SOL     OW16468   0.823   2.101   4.113
 5190SOL    HW116469   0.778   2.064   4.032
 5190SOL    HW216470   0.755   2.149   4.169
 5191SOL     OW16471   3.263   1.122   2.174
 5191SOL    HW116472   3.363   1.118   2.176
 5191SOL    HW216473   3.234   1.209   2.133
 5192SOL     OW16474   5.600   5.644   2.548
 5192SOL    HW116475   5.601   5.544   2.549
 5192SOL    HW216476   5.584   5.678   2.641
 5193SOL     OW16477   4.721   4.638   3.816
 5193SOL    HW116478   4.646   4.572   3.812
 5193SOL    HW216479   4.799   4.596   3.863
 5194SOL     OW16480   5.515   0.767   5.772
 5194SOL    HW116481   5.426   0.745   5.811
 5194SOL    HW216482   5.574   0.804   5.844
 5195SOL     OW16483   6.335   6.889   5.123
 5195SOL    HW116484   6.255   6.937   5.088
 5195SOL    HW216485   6.314   6.792   5.133
 5196SOL     OW16486   0.406   4.241   1.778
 5196SOL    HW116487   0.348   4.241   1.697
 5196SOL    HW216488   0.421   4.335   1.808
 5197SOL     OW16489   2.105   6.191   4.371
 5197SOL    HW116490   2.026   6.170   4.429
 5197SOL    HW216491   2.103   6.132   4.290
 5198SOL     OW16492   3.800   6.019   5.444
 5198SOL    HW116493   3.770   5.952   5.512
 5198SOL    HW216494   3.815   5.972   5.357
 5199SOL     OW16495   2.265   5.790   1.583
 5199SOL    HW116496   2.304   5.710   1.627
 5199SOL    HW216497   2.309   5.804   1.494
 5200SOL     OW16498   0.747   1.546   4.749
 5200SOL    HW116499   0.823   1.551   4.684
 5200SOL    HW216500   0.767   1.476   4.818
 5201SOL     OW16501   5.447   4.857   3.883
 5201SOL    HW116502   5.540   4.828   3.862
 5201SOL    HW216503   5.382   4.797   3.836
 5202SOL     OW16504   4.579   3.310   6.117
 5202SOL    HW116505   4.628   3.297   6.204
 5202SOL    HW216506   4.598   3.233   6.057
 5203SOL     OW16507   1.969   0.600   0.199
 5203SOL    HW116508   1.983   0.624   0.103
 5203SOL    HW216509   1.906   0.523   0.205
 5204SOL     OW16510   3.278   0.692   6.679
 5204SOL    HW116511   3.213   0.746   6.732
 5204SOL    HW216512   3.362   0.678   6.732
 5205SOL     OW16513   0.228   6.100   1.275
 5205SOL    HW116514   0.245   6.125   1.180
 5205SOL    HW216515   0.130   6.101   1.294
 5206SOL     OW16516   0.384   4.402   5.096
 5206SOL    HW116517   0.313   4.354   5.148
 5206SOL    HW216518   0.452   4.438   5.158
 5207SOL     OW16519   6.904   0.542   5.148
 5207SOL    HW116520   6.949   0.622   5.108
 5207SOL    HW216521   6.832   0.572   5.210
 5208SOL     OW16522   4.944   2.376   0.146
 5208SOL    HW116523   4.942   2.352   0.243
 5208SOL    HW216524   4.851   2.382   0.111
 5209SOL     OW16525   4.867   6.743   3.210
 5209SOL    HW116526   4.866   6.804   3.131
 5209SOL    HW216527   4.783   6.688   3.211
 5210SOL     OW16528   4.981   3.996   0.641
 5210SOL    HW116529   5.062   4.016   0.587
 5210SOL    HW216530   4.900   3.998   0.582
 5211SOL     OW16531   4.730   2.671   3.998
 5211SOL    HW116532   4.826   2.694   3.988
 5211SOL    HW216533   4.704   2.677   4.095
 5212SOL     OW16534   1.341   3.161   0.672
 5212SOL    HW116535   1.320   3.191   0.765
 5212SOL    HW216536   1.287   3.215   0.607
 5213SOL     OW16537   3.924   2.976   2.333
 5213SOL    HW116538   3.940   2.935   2.423
 5213SOL    HW216539   3.829   3.007   2.327
 5214SOL     OW16540   5.563   3.869   6.467
 5214SOL    HW116541   5.639   3.807   6.448
 5214SOL    HW216542   5.587   3.927   6.545
 5215SOL     OW16543   6.490   3.518   4.856
 5215SOL    HW116544   6.531   3.506   4.766
 5215SOL    HW216545   6.391   3.525   4.848
 5216SOL     OW16546   5.520   4.501   0.709
 5216SOL    HW116547   5.480   4.524   0.798
 5216SOL    HW216548   5.541   4.403   0.707
 5217SOL     OW16549   4.060   5.741   4.302
 5217SOL    HW116550   4.139   5.734   4.364
 5217SOL    HW216551   4.047   5.836   4.274
 5218SOL     OW16552   0.799   0.568   0.897
 5218SOL    HW116553   0.720   0.563   0.836
 5218SOL    HW216554   0.829   0.663   0.905
 5219SOL     OW16555   2.415   2.056   4.797
 5219SOL    HW116556   2.385   2.151   4.794
 5219SOL    HW216557   2.478   2.043   4.873
 5220SOL     OW16558   1.926   4.553   3.402
 5220SOL    HW116559   2.024   4.541   3.391
 5220SOL    HW216560   1.906   4.582   3.496
 5221SOL     OW16561   7.014   0.292   1.687
 5221SOL    HW116562   7.015   0.370   1.624
 5221SOL    HW216563   7.017   0.326   1.782
 5222SOL     OW16564   4.590   4.677   1.358
 5222SOL    HW116565   4.524   4.603   1.374
 5222SOL    HW216566   4.682   4.640   1.355
 5223SOL     OW16567   0.390   2.977   0.655
 5223SOL    HW116568   0.427   3.000   0.565
 5223SOL    HW216569   0.447   3.019   0.726
 5224SOL     OW16570   0.732   1.977   3.897
 5224SOL    HW116571   0.700   1.958   3.804
 5224SOL    HW216572   0.821   1.934   3.911
 5225SOL     OW16573   0.161   1.675   5.182
 5225SOL    HW116574   0.199   1.582   5.178
 5225SOL    HW216575   0.161   1.715   5.091
 5226SOL     OW16576   0.299   5.897   4.047
 5226SOL    HW116577   0.299   5.996   4.058
 5226SOL    HW216578   0.392   5.866   4.027
 5227SOL     OW16579   6.701   2.851   5.308
 5227SOL    HW116580   6.799   2.866   5.322
 5227SOL    HW216581   6.659   2.936   5.277
 5228SOL     OW16582   2.054   3.221   5.579
 5228SOL    HW116583   2.094   3.132   5.554
 5228SOL    HW216584   2.053   3.230   5.678
 5229SOL     OW16585   3.975   0.663   6.572
 5229SOL    HW116586   4.044   0.653   6.643
 5229SOL    HW216587   3.993   0.597   6.498
 5230SOL     OW16588   6.888   0.033   1.662
 5230SOL    HW116589   6.947   0.111   1.681
 5230SOL    HW216590   6.806   0.038   1.719
 5231SOL     OW16591   6.087   1.782   2.374
 5231SOL    HW116592   6.158   1.842   2.337
 5231SOL    HW216593   6.075   1.703   2.313
 5232SOL     OW16594   1.737   3.340   5.669
 5232SOL    HW116595   1.828   3.372   5.643
 5232SOL    HW216596   1.703   3.395   5.745
 5233SOL     OW16597   3.129   0.169   2.567
 5233SOL    HW116598   3.107   0.131   2.477
 5233SOL    HW216599   3.176   0.257   2.555
 5234SOL     OW16600   2.182   2.379   0.991
 5234SOL    HW116601   2.094   2.338   1.016
 5234SOL    HW216602   2.211   2.444   1.061
 5235SOL     OW16603   2.912   2.119   1.458
 5235SOL    HW116604   2.814   2.136   1.458
 5235SOL    HW216605   2.948   2.128   1.551
 5236SOL     OW16606   3.105   5.284   2.074
 5236SOL    HW116607   3.164   5.241   2.142
 5236SOL    HW216608   3.096   5.223   1.995
 5237SOL     OW16609   2.165   2.479   4.372
 5237SOL    HW116610   2.219   2.414   4.426
 5237SOL    HW216611   2.225   2.536   4.317
 5238SOL     OW16612   0.994   5.716   2.860
 5238SOL    HW116613   0.952   5.806   2.851
 5238SOL    HW216614   1.067   5.707   2.791
 5239SOL     OW16615   3.258   3.607   1.216
 5239SOL    HW116616   3.211   3.519   1.219
 5239SOL    HW216617   3.322   3.613   1.292
 5240SOL     OW16618   2.662   2.777   6.250
 5240SOL    HW116619   2.589   2.722   6.211
 5240SOL    HW216620   2.698   2.839   6.180
 5241SOL     OW16621   1.169   6.077   2.473
 5241SOL    HW116622   1.120   5.991   2.486
 5241SOL    HW216623   1.159   6.107   2.379
 5242SOL     OW16624   5.202   0.758   0.053
 5242SOL    HW116625   5.199   0.838   7.016
 5242SOL    HW216626   5.112   0.715   0.056
 5243SOL     OW16627   1.677   5.988   1.872
 5243SOL    HW116628   1.716   6.071   1.911
 5243SOL    HW216629   1.750   5.934   1.830
 5244SOL     OW16630   4.873   3.189   0.079
 5244SOL    HW116631   4.916   3.265   0.128
 5244SOL    HW216632   4.883   3.105   0.132
 5245SOL     OW16633   4.105   4.026   0.457
 5245SOL    HW116634   4.153   4.109   0.429
 5245SOL    HW216635   4.161   3.946   0.436
 5246SOL     OW16636   5.964   3.107   1.351
 5246SOL    HW116637   5.967   3.112   1.451
 5246SOL    HW216638   5.897   3.038   1.323
 5247SOL     OW16639   4.109   2.145   5.953
 5247SOL    HW116640   4.042   2.201   5.904
 5247SOL    HW216641   4.199   2.157   5.912
 5248SOL     OW16642   6.232   1.879   2.844
 5248SOL    HW116643   6.133   1.894   2.845
 5248SOL    HW216644   6.274   1.929   2.919
 5249SOL     OW16645   0.624   4.767   6.604
 5249SOL    HW116646   0.577   4.843   6.559
 5249SOL    HW216647   0.556   4.701   6.637
 5250SOL     OW16648   2.204   5.793   0.565
 5250SOL    HW116649   2.249   5.828   0.483
 5250SOL    HW216650   2.193   5.694   0.556
 5251SOL     OW16651   0.711   4.242   0.892
 5251SOL    HW116652   0.773   4.315   0.865
 5251SOL    HW216653   0.718   4.227   0.991
 5252SOL     OW16654   3.513   0.285   2.396
 5252SOL    HW116655   3.536   0.355   2.463
 5252SOL    HW216656   3.493   0.199   2.444
 5253SOL     OW16657   5.602   5.063   4.320
 5253SOL    HW116658   5.606   4.963   4.317
 5253SOL    HW216659   5.604   5.094   4.415
 5254SOL     OW16660   5.985   7.014   2.870
 5254SOL    HW116661   6.038   6.932   2.892
 5254SOL    HW216662   5.951   0.033   2.954
 5255SOL     OW16663   6.040   1.461   4.951
 5255SOL    HW116664   6.129   1.471   4.906
 5255SOL    HW216665   5.967   1.476   4.885
 5256SOL     OW16666   5.595   0.674   3.071
 5256SOL    HW116667   5.691   0.694   3.050
 5256SOL    HW216668   5.564   0.733   3.145
 5257SOL     OW16669   4.401   0.488   6.234
 5257SOL    HW116670   4.452   0.545   6.169
 5257SOL    HW216671   4.458   0.410   6.262
 5258SOL     OW16672   4.800   1.596   2.229
 5258SOL    HW116673   4.710   1.635   2.207
 5258SOL    HW216674   4.854   1.588   2.146
 5259SOL     OW16675   4.942   5.007   3.279
 5259SOL    HW116676   4.878   5.073   3.241
 5259SOL    HW216677   4.892   4.933   3.324
 5260SOL     OW16678   2.264   0.169   0.018
 5260SOL    HW116679   2.335   0.237   0.001
 5260SOL    HW216680   2.232   0.177   0.112
 5261SOL     OW16681   6.356   4.801   0.276
 5261SOL    HW116682   6.283   4.842   0.222
 5261SOL    HW216683   6.443   4.813   0.228
 5262SOL     OW16684   2.329   0.526   2.450
 5262SOL    HW116685   2.396   0.590   2.413
 5262SOL    HW216686   2.372   0.466   2.516
 5263SOL     OW16687   1.963   1.334   3.588
 5263SOL    HW116688   1.900   1.366   3.659
 5263SOL    HW216689   1.960   1.234   3.583
 5264SOL     OW16690   7.017   2.720   1.511
 5264SOL    HW116691   0.059   2.674   1.451
 5264SOL    HW216692   6.943   2.759   1.456
 5265SOL     OW16693   5.750   3.495   4.996
 5265SOL    HW116694   5.701   3.462   4.915
 5265SOL    HW216695   5.696   3.566   5.041
 5266SOL     OW16696   2.336   0.129   0.489
 5266SOL    HW116697   2.420   0.184   0.493
 5266SOL    HW216698   2.295   0.123   0.580
 5267SOL     OW16699   4.327   2.246   4.713
 5267SOL    HW116700   4.369   2.276   4.627
 5267SOL    HW216701   4.335   2.318   4.782
 5268SOL     OW16702   5.582   0.825   6.291
 5268SOL    HW116703   5.627   0.856   6.207
 5268SOL    HW216704   5.593   0.895   6.362
 5269SOL     OW16705   0.216   6.449   2.552
 5269SOL    HW116706   0.286   6.509   2.591
 5269SOL    HW216707   0.200   6.372   2.614
 5270SOL     OW16708   7.008   1.647   6.749
 5270SOL    HW116709   0.083   1.636   6.735
 5270SOL    HW216710   6.971   1.562   6.788
 5271SOL     OW16711   6.104   5.814   4.035
 5271SOL    HW116712   6.035   5.838   3.967
 5271SOL    HW216713   6.190   5.860   4.012
 5272SOL     OW16714   4.182   0.089   0.217
 5272SOL    HW116715   4.238   0.133   0.146
 5272SOL    HW216716   4.209   7.016   0.225
 5273SOL     OW16717   1.164   3.055   2.521
 5273SOL    HW116718   1.155   3.137   2.578
 5273SOL    HW216719   1.138   2.975   2.575
 5274SOL     OW16720   4.846   5.985   2.443
 5274SOL    HW116721   4.932   6.033   2.425
 5274SOL    HW216722   4.805   6.020   2.527
 5275SOL     OW16723   3.371   0.900   0.260
 5275SOL    HW116724   3.442   0.969   0.250
 5275SOL    HW216725   3.350   0.860   0.171
 5276SOL     OW16726   3.074   6.322   2.056
 5276SOL    HW116727   3.025   6.311   1.969
 5276SOL    HW216728   3.121   6.410   2.057
 5277SOL     OW16729   1.993   1.189   2.090
 5277SOL    HW116730   1.918   1.239   2.132
 5277SOL    HW216731   2.002   1.216   1.994
 5278SOL     OW16732   4.809   5.357   1.997
 5278SOL    HW116733   4.886   5.402   2.042
 5278SOL    HW216734   4.742   5.426   1.969
 5279SOL     OW16735   2.673   5.076   1.497
 5279SOL    HW116736   2.598   5.013   1.479
 5279SOL    HW216737   2.687   5.085   1.595
 5280SOL     OW16738   3.428   5.927   5.033
 5280SOL    HW116739   3.415   5.903   4.937
 5280SOL    HW216740   3.408   5.847   5.090
 5281SOL     OW16741   1.004   1.972   1.849
 5281SOL    HW116742   1.090   1.920   1.855
 5281SOL    HW216743   1.020   2.066   1.880
 5282SOL     OW16744   3.080   1.817   3.967
 5282SOL    HW116745   3.060   1.828   4.065
 5282SOL    HW216746   3.143   1.888   3.938
 5283SOL     OW16747   5.364   5.883   6.797
 5283SOL    HW116748   5.268   5.911   6.807
 5283SOL    HW216749   5.391   5.889   6.701
 5284SOL     OW16750   5.530   3.263   2.812
 5284SOL    HW116751   5.513   3.234   2.717
 5284SOL    HW216752   5.443   3.282   2.857
 5285SOL     OW16753   3.090   5.183   3.584
 5285SOL    HW116754   3.185   5.186   3.555
 5285SOL    HW216755   3.031   5.204   3.506
 5286SOL     OW16756   1.550   4.198   1.769
 5286SOL    HW116757   1.490   4.162   1.841
 5286SOL    HW216758   1.500   4.203   1.683
 5287SOL     OW16759   2.498   2.364   0.436
 5287SOL    HW116760   2.450   2.392   0.519
 5287SOL    HW216761   2.484   2.266   0.421
 5288SOL     OW16762   3.497   0.229   1.067
 5288SOL    HW116763   3.456   0.320   1.072
 5288SOL    HW216764   3.444   0.172   1.004
 5289SOL     OW16765   1.068   5.146   1.501
 5289SOL    HW116766   1.112   5.190   1.579
 5289SOL    HW216767   1.071   5.207   1.422
 5290SOL     OW16768   3.866   5.734   0.866
 5290SOL    HW116769   3.919   5.650   0.878
 5290SOL    HW216770   3.769   5.710   0.855
 5291SOL     OW16771   1.989   5.257   5.298
 5291SOL    HW116772   2.020   5.165   5.321
 5291SOL    HW216773   1.892   5.266   5.319
 5292SOL     OW16774   4.884   2.876   5.932
 5292SOL    HW116775   4.918   2.814   6.002
 5292SOL    HW216776   4.843   2.957   5.975
 5293SOL     OW16777   0.591   0.365   4.614
 5293SOL    HW116778   0.575   0.428   4.539
 5293SOL    HW216779   0.512   0.364   4.674
 5294SOL     OW16780   6.380   2.759   6.325
 5294SOL    HW116781   6.403   2.663   6.336
 5294SOL    HW216782   6.434   2.798   6.250
 5295SOL     OW16783   6.646   1.185   2.705
 5295SOL    HW116784   6.670   1.229   2.618
 5295SOL    HW216785   6.655   1.086   2.696
 5296SOL     OW16786   0.567   4.505   1.163
 5296SOL    HW116787   0.538   4.440   1.093
 5296SOL    HW216788   0.644   4.559   1.128
 5297SOL     OW16789   2.246   1.975   1.410
 5297SOL    HW116790   2.219   1.908   1.341
 5297SOL    HW216791   2.325   1.941   1.460
 5298SOL     OW16792   0.436   5.472   1.469
 5298SOL    HW116793   0.422   5.427   1.558
 5298SOL    HW216794   0.476   5.562   1.484
 5299SOL     OW16795   2.906   0.454   1.637
 5299SOL    HW116796   2.819   0.447   1.588
 5299SOL    HW216797   2.955   0.367   1.629
 5300SOL     OW16798   6.638   6.024   3.428
 5300SOL    HW116799   6.719   5.994   3.377
 5300SOL    HW216800   6.658   6.022   3.526
 5301SOL     OW16801   4.187   1.325   6.973
 5301SOL    HW116802   4.240   1.316   6.888
 5301SOL    HW216803   4.118   1.252   6.977
 5302SOL     OW16804   5.933   4.244   2.596
 5302SOL    HW116805   5.925   4.281   2.688
 5302SOL    HW216806   5.936   4.144   2.600
 5303SOL     OW16807   6.578   4.372   3.573
 5303SOL    HW116808   6.533   4.317   3.643
 5303SOL    HW216809   6.676   4.351   3.572
 5304SOL     OW16810   5.470   1.675   6.226
 5304SOL    HW116811   5.477   1.766   6.184
 5304SOL    HW216812   5.550   1.658   6.283
 5305SOL     OW16813   2.381   1.164   3.176
 5305SOL    HW116814   2.408   1.160   3.272
 5305SOL    HW216815   2.328   1.083   3.152
 5306SOL     OW16816   3.103   0.285   5.332
 5306SOL    HW116817   3.056   0.260   5.248
 5306SOL    HW216818   3.094   0.211   5.399
 5307SOL     OW16819   4.671   6.905   6.980
 5307SOL    HW116820   4.669   6.941   6.887
 5307SOL    HW216821   4.753   6.938   0.004
 5308SOL     OW16822   0.164   1.686   2.755
 5308SOL    HW116823   0.244   1.698   2.814
 5308SOL    HW216824   0.185   1.618   2.685
 5309SOL     OW16825   3.704   4.112   3.441
 5309SOL    HW116826   3.791   4.161   3.438
 5309SOL    HW216827   3.722   4.014   3.442
 5310SOL     OW16828   5.028   2.213   0.734
 5310SOL    HW116829   4.942   2.243   0.695
 5310SOL    HW216830   5.041   2.255   0.824
 5311SOL     OW16831   1.753   5.481   6.821
 5311SOL    HW116832   1.699   5.453   6.742
 5311SOL    HW216833   1.847   5.500   6.792
 5312SOL     OW16834   0.491   3.906   3.088
 5312SOL    HW116835   0.394   3.899   3.112
 5312SOL    HW216836   0.521   4.001   3.097
 5313SOL     OW16837   1.325   5.902   0.396
 5313SOL    HW116838   1.382   5.822   0.412
 5313SOL    HW216839   1.383   5.984   0.390
 5314SOL     OW16840   3.740   5.260   0.825
 5314SOL    HW116841   3.816   5.234   0.766
 5314SOL    HW216842   3.679   5.182   0.838
 5315SOL     OW16843   5.623   2.766   2.054
 5315SOL    HW116844   5.589   2.768   1.960
 5315SOL    HW216845   5.567   2.705   2.109
 5316SOL     OW16846   6.810   4.489   3.891
 5316SOL    HW116847   6.730   4.528   3.846
 5316SOL    HW216848   6.785   4.455   3.981
 5317SOL     OW16849   5.567   6.358   2.764
 5317SOL    HW116850   5.621   6.360   2.848
 5317SOL    HW216851   5.498   6.286   2.771
 5318SOL     OW16852   0.706   2.564   4.724
 5318SOL    HW116853   0.634   2.602   4.781
 5318SOL    HW216854   0.667   2.502   4.657
 5319SOL     OW16855   5.154   0.676   0.655
 5319SOL    HW116856   5.224   0.746   0.637
 5319SOL    HW216857   5.195   0.601   0.707
 5320SOL     OW16858   5.906   2.760   6.167
 5320SOL    HW116859   5.863   2.776   6.078
 5320SOL    HW216860   5.837   2.772   6.239
 5321SOL     OW16861   2.557   5.264   5.677
 5321SOL    HW116862   2.611   5.306   5.750
 5321SOL    HW216863   2.495   5.196   5.716
 5322SOL     OW16864   3.321   6.000   6.722
 5322SOL    HW116865   3.332   6.099   6.709
 5322SOL    HW216866   3.369   5.952   6.648
 5323SOL     OW16867   5.117   2.805   1.342
 5323SOL    HW116868   5.142   2.724   1.289
 5323SOL    HW216869   5.040   2.851   1.298
 5324SOL     OW16870   3.974   3.388   1.313
 5324SOL    HW116871   3.965   3.463   1.247
 5324SOL    HW216872   4.071   3.374   1.333
 5325SOL     OW16873   5.257   5.906   2.583
 5325SOL    HW116874   5.350   5.904   2.545
 5325SOL    HW216875   5.262   5.906   2.683
 5326SOL     OW16876   7.014   6.421   1.847
 5326SOL    HW116877   0.001   6.369   1.762
 5326SOL    HW216878   7.005   6.518   1.826
 5327SOL     OW16879   6.326   0.622   4.065
 5327SOL    HW116880   6.331   0.689   3.991
 5327SOL    HW216881   6.251   0.558   4.047
 5328SOL     OW16882   4.340   4.475   0.220
 5328SOL    HW116883   4.281   4.474   0.139
 5328SOL    HW216884   4.313   4.550   0.281
 5329SOL     OW16885   0.276   4.974   6.936
 5329SOL    HW116886   0.365   4.965   6.980
 5329SOL    HW216887   0.267   5.066   6.896
 5330SOL     OW16888   4.645   4.248   1.225
 5330SOL    HW116889   4.627   4.240   1.323
 5330SOL    HW216890   4.586   4.318   1.186
 5331SOL     OW16891   4.687   3.827   6.807
 5331SOL    HW116892   4.780   3.815   6.773
 5331SOL    HW216893   4.671   3.923   6.829
 5332SOL     OW16894   6.093   3.341   0.427
 5332SOL    HW116895   6.080   3.242   0.425
 5332SOL    HW216896   6.039   3.384   0.355
 5333SOL     OW16897   1.944   1.463   3.936
 5333SOL    HW116898   2.005   1.385   3.935
 5333SOL    HW216899   1.873   1.451   3.866
 5334SOL     OW16900   4.593   4.936   1.903
 5334SOL    HW116901   4.579   5.033   1.880
 5334SOL    HW216902   4.596   4.882   1.819
 5335SOL     OW16903   0.025   4.635   1.486
 5335SOL    HW116904   7.010   4.614   1.396
 5335SOL    HW216905   0.070   4.554   1.523
 5336SOL     OW16906   1.029   3.187   3.852
 5336SOL    HW116907   1.117   3.197   3.899
 5336SOL    HW216908   0.970   3.266   3.874
 5337SOL     OW16909   0.069   4.479   0.670
 5337SOL    HW116910   0.008   4.556   0.652
 5337SOL    HW216911   0.061   4.412   0.596
 5338SOL     OW16912   6.864   3.515   1.112
 5338SOL    HW116913   6.855   3.416   1.107
 5338SOL    HW216914   6.786   3.554   1.161
 5339SOL     OW16915   5.878   2.713   2.907
 5339SOL    HW116916   5.895   2.736   3.003
 5339SOL    HW216917   5.792   2.663   2.900
 5340SOL     OW16918   5.473   2.605   2.211
 5340SOL    HW116919   5.472   2.508   2.187
 5340SOL    HW216920   5.466   2.615   2.310
 5341SOL     OW16921   4.362   5.756   3.812
 5341SOL    HW116922   4.305   5.735   3.891
 5341SOL    HW216923   4.356   5.854   3.791
 5342SOL     OW16924   5.923   6.858   4.299
 5342SOL    HW116925   5.886   6.820   4.385
 5342SOL    HW216926   5.851   6.856   4.229
 5343SOL     OW16927   4.025   3.516   6.047
 5343SOL    HW116928   4.026   3.466   6.134
 5343SOL    HW216929   3.946   3.486   5.993
 5344SOL     OW16930   1.263   1.627   5.867
 5344SOL    HW116931   1.268   1.562   5.791
 5344SOL    HW216932   1.318   1.707   5.846
 5345SOL     OW16933   5.196   2.150   0.240
 5345SOL    HW116934   5.294   2.129   0.246
 5345SOL    HW216935   5.181   2.214   0.164
 5346SOL     OW16936   3.001   5.809   3.702
 5346SOL    HW116937   2.976   5.715   3.677
 5346SOL    HW216938   3.054   5.850   3.628
 5347SOL     OW16939   5.590   1.475   3.647
 5347SOL    HW116940   5.590   1.435   3.739
 5347SOL    HW216941   5.673   1.529   3.635
 5348SOL     OW16942   5.206   2.029   3.107
 5348SOL    HW116943   5.162   2.083   3.035
 5348SOL    HW216944   5.249   1.949   3.066
 5349SOL     OW16945   6.936   3.812   2.586
 5349SOL    HW116946   7.011   3.864   2.628
 5349SOL    HW216947   6.855   3.869   2.579
 5350SOL     OW16948   1.591   6.026   6.915
 5350SOL    HW116949   1.539   5.981   6.843
 5350SOL    HW216950   1.563   5.990   7.004
 5351SOL     OW16951   6.732   5.529   1.939
 5351SOL    HW116952   6.744   5.440   1.895
 5351SOL    HW216953   6.808   5.547   2.000
 5352SOL     OW16954   1.787   3.375   4.380
 5352SOL    HW116955   1.803   3.348   4.285
 5352SOL    HW216956   1.690   3.391   4.394
 5353SOL     OW16957   3.974   5.572   3.896
 5353SOL    HW116958   4.005   5.539   3.807
 5353SOL    HW216959   3.888   5.527   3.920
 5354SOL     OW16960   4.264   5.963   1.009
 5354SOL    HW116961   4.200   6.019   0.956
 5354SOL    HW216962   4.305   6.018   1.082
 5355SOL     OW16963   4.974   4.627   5.198
 5355SOL    HW116964   4.934   4.707   5.244
 5355SOL    HW216965   5.004   4.653   5.106
 5356SOL     OW16966   0.380   5.165   1.357
 5356SOL    HW116967   0.439   5.245   1.365
 5356SOL    HW216968   0.387   5.128   1.264
 5357SOL     OW16969   5.480   4.175   2.465
 5357SOL    HW116970   5.489   4.128   2.377
 5357SOL    HW216971   5.523   4.265   2.459
 5358SOL     OW16972   4.422   2.055   0.479
 5358SOL    HW116973   4.479   2.128   0.516
 5358SOL    HW216974   4.326   2.080   0.486
 5359SOL     OW16975   2.634   1.813   6.271
 5359SOL    HW116976   2.699   1.844   6.202
 5359SOL    HW216977   2.631   1.879   6.346
 5360SOL     OW16978   5.448   4.491   3.545
 5360SOL    HW116979   5.532   4.539   3.524
 5360SOL    HW216980   5.397   4.541   3.615
 5361SOL     OW16981   2.888   5.631   2.073
 5361SOL    HW116982   2.867   5.570   1.997
 5361SOL    HW216983   2.979   5.670   2.061
 5362SOL     OW16984   6.129   0.478   2.125
 5362SOL    HW116985   6.079   0.477   2.039
 5362SOL    HW216986   6.150   0.573   2.150
 5363SOL     OW16987   5.678   5.172   3.699
 5363SOL    HW116988   5.722   5.187   3.788
 5363SOL    HW216989   5.589   5.130   3.714
 5364SOL     OW16990   4.847   1.177   2.960
 5364SOL    HW116991   4.860   1.236   2.881
 5364SOL    HW216992   4.797   1.226   3.031
 5365SOL     OW16993   3.929   3.063   3.849
 5365SOL    HW116994   3.847   3.101   3.891
 5365SOL    HW216995   3.978   3.007   3.916
 5366SOL     OW16996   6.348   6.407   2.193
 5366SOL    HW116997   6.296   6.466   2.132
 5366SOL    HW216998   6.425   6.367   2.143
 5367SOL     OW16999   5.954   6.016   1.533
 5367SOL    HW117000   5.998   5.968   1.610
 5367SOL    HW217001   5.982   6.112   1.534
 5368SOL     OW17002   6.705   5.806   3.662
 5368SOL    HW117003   6.762   5.812   3.745
 5368SOL    HW217004   6.697   5.710   3.634
 5369SOL     OW17005   2.611   6.011   2.236
 5369SOL    HW117006   2.677   6.061   2.291
 5369SOL    HW217007   2.522   6.058   2.240
 5370SOL     OW17008   2.262   3.543   1.445
 5370SOL    HW117009   2.267   3.640   1.467
 5370SOL    HW217010   2.189   3.528   1.378
 5371SOL     OW17011   5.602   5.846   4.657
 5371SOL    HW117012   5.529   5.913   4.675
 5371SOL    HW217013   5.580   5.760   4.704
 5372SOL     OW17014   0.945   0.496   3.111
 5372SOL    HW117015   0.961   0.400   3.088
 5372SOL    HW217016   0.924   0.547   3.027
 5373SOL     OW17017   3.364   0.988   6.691
 5373SOL    HW117018   3.284   1.024   6.739
 5373SOL    HW217019   3.338   0.965   6.597
 5374SOL     OW17020   2.358   4.824   2.431
 5374SOL    HW117021   2.319   4.808   2.340
 5374SOL    HW217022   2.431   4.893   2.423
 5375SOL     OW17023   1.373   5.020   3.957
 5375SOL    HW117024   1.439   5.091   3.980
 5375SOL    HW217025   1.351   5.025   3.859
 5376SOL     OW17026   0.210   0.735   6.127
 5376SOL    HW117027   0.280   0.672   6.094
 5376SOL    HW217028   0.132   0.734   6.064
 5377SOL     OW17029   2.360   0.687   3.057
 5377SOL    HW117030   2.347   0.785   3.072
 5377SOL    HW217031   2.278   0.650   3.012
 5378SOL     OW17032   5.349   0.946   2.026
 5378SOL    HW117033   5.382   1.008   1.955
 5378SOL    HW217034   5.335   0.855   1.988
 5379SOL     OW17035   1.724   2.210   6.494
 5379SOL    HW117036   1.730   2.112   6.513
 5379SOL    HW217037   1.816   2.245   6.474
 5380SOL     OW17038   4.542   6.788   1.242
 5380SOL    HW117039   4.620   6.762   1.185
 5380SOL    HW217040   4.518   6.712   1.302
 5381SOL     OW17041   5.006   6.552   3.893
 5381SOL    HW117042   5.061   6.603   3.827
 5381SOL    HW217043   5.066   6.493   3.948
 5382SOL     OW17044   4.427   1.544   1.949
 5382SOL    HW117045   4.513   1.515   1.991
 5382SOL    HW217046   4.430   1.642   1.930
 5383SOL     OW17047   1.868   2.651   4.798
 5383SOL    HW117048   1.952   2.700   4.819
 5383SOL    HW217049   1.789   2.707   4.825
 5384SOL     OW17050   5.460   5.547   4.436
 5384SOL    HW117051   5.464   5.566   4.534
 5384SOL    HW217052   5.546   5.507   4.406
 5385SOL     OW17053   4.119   2.477   5.562
 5385SOL    HW117054   4.132   2.386   5.523
 5385SOL    HW217055   4.064   2.470   5.646
 5386SOL     OW17056   6.081   4.787   3.848
 5386SOL    HW117057   6.155   4.729   3.816
 5386SOL    HW217058   6.043   4.749   3.933
 5387SOL     OW17059   1.144   1.094   3.193
 5387SOL    HW117060   1.058   1.069   3.238
 5387SOL    HW217061   1.165   1.027   3.122
 5388SOL     OW17062   1.200   6.355   2.216
 5388SOL    HW117063   1.191   6.390   2.309
 5388SOL    HW217064   1.141   6.407   2.155
 5389SOL     OW17065   4.335   1.884   4.129
 5389SOL    HW117066   4.420   1.857   4.173
 5389SOL    HW217067   4.279   1.935   4.194
 5390SOL     OW17068   0.181   2.843   3.071
 5390SOL    HW117069   0.168   2.830   3.170
 5390SOL    HW217070   0.176   2.754   3.025
 5391SOL     OW17071   2.691   3.816   0.829
 5391SOL    HW117072   2.776   3.794   0.878
 5391SOL    HW217073   2.646   3.731   0.800
 5392SOL     OW17074   5.701   1.729   3.391
 5392SOL    HW117075   5.614   1.744   3.344
 5392SOL    HW217076   5.710   1.795   3.466
 5393SOL     OW17077   3.741   1.825   5.333
 5393SOL    HW117078   3.716   1.848   5.427
 5393SOL    HW217079   3.668   1.857   5.271
 5394SOL     OW17080   1.493   1.466   1.162
 5394SOL    HW117081   1.458   1.401   1.229
 5394SOL    HW217082   1.571   1.427   1.114
 5395SOL     OW17083   6.663   1.765   1.115
 5395SOL    HW117084   6.617   1.843   1.156
 5395SOL    HW217085   6.606   1.726   1.043
 5396SOL     OW17086   5.424   4.851   2.264
 5396SOL    HW117087   5.375   4.835   2.178
 5396SOL    HW217088   5.361   4.888   2.332
 5397SOL     OW17089   0.518   1.414   2.520
 5397SOL    HW117090   0.522   1.317   2.495
 5397SOL    HW217091   0.560   1.470   2.449
 5398SOL     OW17092   5.079   2.104   2.890
 5398SOL    HW117093   5.129   2.056   2.818
 5398SOL    HW217094   5.004   2.157   2.850
 5399SOL     OW17095   2.438   0.649   6.363
 5399SOL    HW117096   2.450   0.613   6.456
 5399SOL    HW217097   2.347   0.690   6.355
 5400SOL     OW17098   4.298   3.273   1.673
 5400SOL    HW117099   4.235   3.343   1.708
 5400SOL    HW217100   4.391   3.294   1.702
 5401SOL     OW17101   5.814   3.522   1.382
 5401SOL    HW117102   5.778   3.439   1.339
 5401SOL    HW217103   5.751   3.552   1.454
 5402SOL     OW17104   1.225   6.320   1.472
 5402SOL    HW117105   1.243   6.222   1.481
 5402SOL    HW217106   1.310   6.371   1.482
 5403SOL     OW17107   5.075   2.711   6.886
 5403SOL    HW117108   5.080   2.657   6.970
 5403SOL    HW217109   5.055   2.806   6.910
 5404SOL     OW17110   6.922   1.539   0.469
 5404SOL    HW117111   6.926   1.559   0.567
 5404SOL    HW217112   6.907   1.441   0.456
 5405SOL     OW17113   6.165   5.176   6.862
 5405SOL    HW117114   6.187   5.185   6.959
 5405SOL    HW217115   6.150   5.266   6.822
 5406SOL     OW17116   2.529   0.437   4.807
 5406SOL    HW117117   2.555   0.340   4.808
 5406SOL    HW217118   2.479   0.457   4.724
 5407SOL     OW17119   1.614   6.858   2.870
 5407SOL    HW117120   1.569   6.938   2.830
 5407SOL    HW217121   1.555   6.819   2.941
 5408SOL     OW17122   3.491   2.076   4.220
 5408SOL    HW117123   3.570   2.106   4.166
 5408SOL    HW217124   3.469   1.981   4.196
 5409SOL     OW17125   1.440   2.670   0.905
 5409SOL    HW117126   1.350   2.665   0.949
 5409SOL    HW217127   1.444   2.750   0.845
 5410SOL     OW17128   1.425   2.701   0.535
 5410SOL    HW117129   1.518   2.676   0.563
 5410SOL    HW217130   1.385   2.627   0.483
 5411SOL     OW17131   3.095   5.181   6.819
 5411SOL    HW117132   3.138   5.091   6.823
 5411SOL    HW217133   3.146   5.239   6.755
 5412SOL     OW17134   0.035   2.015   6.217
 5412SOL    HW117135   0.078   2.100   6.248
 5412SOL    HW217136   6.959   2.027   6.215
 5413SOL     OW17137   6.809   6.425   5.084
 5413SOL    HW117138   6.793   6.357   5.155
 5413SOL    HW217139   6.821   6.380   4.996
 5414SOL     OW17140   5.585   4.034   4.998
 5414SOL    HW117141   5.541   3.978   5.068
 5414SOL    HW217142   5.606   3.977   4.918
 5415SOL     OW17143   4.054   0.418   0.011
 5415SOL    HW117144   4.090   0.372   6.953
 5415SOL    HW217145   4.025   0.349   0.078
 5416SOL     OW17146   2.923   5.699   6.437
 5416SOL    HW117147   3.009   5.743   6.412
 5416SOL    HW217148   2.941   5.627   6.504
 5417SOL     OW17149   4.746   6.409   4.204
 5417SOL    HW117150   4.761   6.416   4.105
 5417SOL    HW217151   4.739   6.500   4.244
 5418SOL     OW17152   6.399   3.643   4.350
 5418SOL    HW117153   6.449   3.606   4.272
 5418SOL    HW217154   6.361   3.569   4.404
 5419SOL     OW17155   4.736   6.915   6.505
 5419SOL    HW117156   4.778   6.839   6.556
 5419SOL    HW217157   4.757   6.905   6.408
 5420SOL     OW17158   1.285   0.993   1.585
 5420SOL    HW117159   1.204   0.948   1.548
 5420SOL    HW217160   1.367   0.950   1.547
 5421SOL     OW17161   4.119   4.619   1.846
 5421SOL    HW117162   4.102   4.537   1.791
 5421SOL    HW217163   4.175   4.595   1.925
 5422SOL     OW17164   2.776   5.613   3.823
 5422SOL    HW117165   2.729   5.699   3.802
 5422SOL    HW217166   2.776   5.555   3.742
 5423SOL     OW17167   5.452   5.875   1.719
 5423SOL    HW117168   5.357   5.901   1.703
 5423SOL    HW217169   5.470   5.877   1.817
 5424SOL     OW17170   4.254   4.179   5.526
 5424SOL    HW117171   4.224   4.168   5.621
 5424SOL    HW217172   4.174   4.194   5.468
 5425SOL     OW17173   1.150   3.936   6.153
 5425SOL    HW117174   1.235   3.910   6.105
 5425SOL    HW217175   1.108   3.854   6.191
 5426SOL     OW17176   5.364   5.465   1.312
 5426SOL    HW117177   5.327   5.501   1.226
 5426SOL    HW217178   5.328   5.373   1.327
 5427SOL     OW17179   4.828   1.949   6.330
 5427SOL    HW117180   4.751   1.995   6.374
 5427SOL    HW217181   4.872   1.888   6.395
 5428SOL     OW17182   6.112   5.892   3.223
 5428SOL    HW117183   6.209   5.879   3.203
 5428SOL    HW217184   6.101   5.932   3.314
 5429SOL     OW17185   3.218   0.002   4.649
 5429SOL    HW117186   3.169   0.088   4.662
 5429SOL    HW217187   3.314   0.014   4.672
 5430SOL     OW17188   2.502   3.596   5.831
 5430SOL    HW117189   2.587   3.598   5.779
 5430SOL    HW217190   2.425   3.580   5.769
 5431SOL     OW17191   3.305   4.320   6.961
 5431SOL    HW117192   3.392   4.288   6.924
 5431SOL    HW217193   3.261   4.246   7.013
 5432SOL     OW17194   6.503   5.364   0.122
 5432SOL    HW117195   6.478   5.456   0.090
 5432SOL    HW217196   6.436   5.334   0.190
 5433SOL     OW17197   1.660   0.462   1.498
 5433SOL    HW117198   1.711   0.497   1.577
 5433SOL    HW217199   1.619   0.539   1.448
 5434SOL     OW17200   6.058   0.151   4.797
 5434SOL    HW117201   5.983   0.088   4.777
 5434SOL    HW217202   6.085   0.198   4.713
 5435SOL     OW17203   6.832   4.318   0.842
 5435SOL    HW117204   6.855   4.222   0.856
 5435SOL    HW217205   6.767   4.326   0.766
 5436SOL     OW17206   1.230   5.014   2.598
 5436SOL    HW117207   1.217   5.082   2.526
 5436SOL    HW217208   1.186   5.046   2.682
 5437SOL     OW17209   3.626   5.457   1.324
 5437SOL    HW117210   3.567   5.535   1.306
 5437SOL    HW217211   3.629   5.440   1.423
 5438SOL     OW17212   4.551   5.079   2.490
 5438SOL    HW117213   4.541   5.096   2.587
 5438SOL    HW217214   4.574   5.164   2.442
 5439SOL     OW17215   1.191   4.794   1.756
 5439SOL    HW117216   1.111   4.753   1.714
 5439SOL    HW217217   1.260   4.724   1.774
 5440SOL     OW17218   6.381   6.736   3.662
 5440SOL    HW117219   6.399   6.756   3.758
 5440SOL    HW217220   6.284   6.718   3.649
 5441SOL     OW17221   5.718   2.862   3.761
 5441SOL    HW117222   5.659   2.938   3.788
 5441SOL    HW217223   5.744   2.873   3.665
 5442SOL     OW17224   4.069   0.395   6.013
 5442SOL    HW117225   4.130   0.389   5.934
 5442SOL    HW217226   4.037   0.489   6.025
 5443SOL     OW17227   4.127   0.605   3.981
 5443SOL    HW117228   4.102   0.526   4.036
 5443SOL    HW217229   4.045   0.642   3.938
 5444SOL     OW17230   6.326   1.043   4.816
 5444SOL    HW117231   6.243   0.989   4.797
 5444SOL    HW217232   6.320   1.082   4.908
 5445SOL     OW17233   5.978   5.695   4.638
 5445SOL    HW117234   5.920   5.704   4.557
 5445SOL    HW217235   6.028   5.781   4.653
 5446SOL     OW17236   0.358   4.390   5.907
 5446SOL    HW117237   0.266   4.351   5.904
 5446SOL    HW217238   0.410   4.357   5.828
 5447SOL     OW17239   1.390   2.358   0.935
 5447SOL    HW117240   1.398   2.451   0.899
 5447SOL    HW217241   1.377   2.363   1.034
 5448SOL     OW17242   4.313   5.183   3.066
 5448SOL    HW117243   4.343   5.118   2.997
 5448SOL    HW217244   4.256   5.253   3.022
 5449SOL     OW17245   3.010   1.311   1.681
 5449SOL    HW117246   2.923   1.301   1.729
 5449SOL    HW217247   3.084   1.285   1.743
 5450SOL     OW17248   4.402   5.517   1.727
 5450SOL    HW117249   4.454   5.569   1.659
 5450SOL    HW217250   4.304   5.531   1.711
 5451SOL     OW17251   0.040   0.090   2.786
 5451SOL    HW117252   0.017   0.093   2.883
 5451SOL    HW217253   0.041   7.018   2.756
 5452SOL     OW17254   2.330   4.191   1.940
 5452SOL    HW117255   2.390   4.260   1.979
 5452SOL    HW217256   2.243   4.190   1.991
 5453SOL     OW17257   5.632   4.101   3.373
 5453SOL    HW117258   5.657   4.042   3.296
 5453SOL    HW217259   5.549   4.065   3.417
 5454SOL     OW17260   5.313   4.991   2.650
 5454SOL    HW117261   5.356   4.923   2.708
 5454SOL    HW217262   5.298   4.953   2.559
 5455SOL     OW17263   1.768   1.410   3.744
 5455SOL    HW117264   1.715   1.331   3.774
 5455SOL    HW217265   1.707   1.476   3.700
 5456SOL     OW17266   6.339   1.287   0.315
 5456SOL    HW117267   6.297   1.205   0.356
 5456SOL    HW217268   6.439   1.276   0.314
 5457SOL     OW17269   5.620   1.903   6.845
 5457SOL    HW117270   5.532   1.898   6.892
 5457SOL    HW217271   5.605   1.894   6.746
 5458SOL     OW17272   5.902   3.899   6.854
 5458SOL    HW117273   5.861   3.951   6.930
 5458SOL    HW217274   6.001   3.901   6.863
 5459SOL     OW17275   1.603   3.901   5.409
 5459SOL    HW117276   1.586   3.900   5.311
 5459SOL    HW217277   1.632   3.992   5.437
 5460SOL     OW17278   1.743   0.213   0.893
 5460SOL    HW117279   1.749   0.301   0.846
 5460SOL    HW217280   1.795   0.144   0.842
 5461SOL     OW17281   6.737   1.167   5.580
 5461SOL    HW117282   6.709   1.091   5.521
 5461SOL    HW217283   6.835   1.181   5.571
 5462SOL     OW17284   4.764   5.153   6.871
 5462SOL    HW117285   4.806   5.212   6.801
 5462SOL    HW217286   4.810   5.064   6.871
 5463SOL     OW17287   1.237   2.985   6.881
 5463SOL    HW117288   1.266   3.072   6.922
 5463SOL    HW217289   1.302   2.913   6.906
 5464SOL     OW17290   0.373   6.254   6.050
 5464SOL    HW117291   0.362   6.271   5.952
 5464SOL    HW217292   0.303   6.191   6.081
 5465SOL     OW17293   6.634   6.224   3.703
 5465SOL    HW117294   6.716   6.167   3.701
 5465SOL    HW217295   6.631   6.274   3.790
 5466SOL     OW17296   5.963   2.320   5.833
 5466SOL    HW117297   5.989   2.412   5.803
 5466SOL    HW217298   5.951   2.320   5.932
 5467SOL     OW17299   5.139   3.075   3.943
 5467SOL    HW117300   5.196   3.013   3.889
 5467SOL    HW217301   5.151   3.055   4.040
 5468SOL     OW17302   0.400   1.700   1.534
 5468SOL    HW117303   0.432   1.775   1.477
 5468SOL    HW217304   0.433   1.613   1.498
 5469SOL     OW17305   2.778   0.499   4.955
 5469SOL    HW117306   2.732   0.579   4.916
 5469SOL    HW217307   2.713   0.423   4.960
 5470SOL     OW17308   3.620   5.690   4.159
 5470SOL    HW117309   3.532   5.737   4.158
 5470SOL    HW217310   3.644   5.663   4.066
 5471SOL     OW17311   5.150   0.636   3.148
 5471SOL    HW117312   5.070   0.694   3.163
 5471SOL    HW217313   5.233   0.687   3.172
 5472SOL     OW17314   2.615   2.244   6.759
 5472SOL    HW117315   2.535   2.303   6.769
 5472SOL    HW217316   2.688   2.294   6.713
 5473SOL     OW17317   2.939   4.089   1.464
 5473SOL    HW117318   2.963   4.132   1.551
 5473SOL    HW217319   2.911   3.995   1.481
 5474SOL     OW17320   0.630   5.464   3.790
 5474SOL    HW117321   0.697   5.398   3.755
 5474SOL    HW217322   0.595   5.433   3.878
 5475SOL     OW17323   6.887   1.784   5.625
 5475SOL    HW117324   6.941   1.722   5.569
 5475SOL    HW217325   6.809   1.735   5.663
 5476SOL     OW17326   2.517   6.725   6.222
 5476SOL    HW117327   2.465   6.667   6.159
 5476SOL    HW217328   2.491   6.705   6.316
 5477SOL     OW17329   1.813   5.041   3.426
 5477SOL    HW117330   1.796   5.135   3.457
 5477SOL    HW217331   1.860   5.043   3.338
 5478SOL     OW17332   5.606   4.879   5.470
 5478SOL    HW117333   5.524   4.899   5.523
 5478SOL    HW217334   5.670   4.956   5.475
 5479SOL     OW17335   3.438   1.595   4.756
 5479SOL    HW117336   3.515   1.613   4.818
 5479SOL    HW217337   3.377   1.674   4.756
 5480SOL     OW17338   6.741   3.697   4.513
 5480SOL    HW117339   6.728   3.730   4.419
 5480SOL    HW217340   6.789   3.767   4.566
 5481SOL     OW17341   4.923   1.160   6.769
 5481SOL    HW117342   4.924   1.258   6.749
 5481SOL    HW217343   4.834   1.122   6.745
 5482SOL     OW17344   4.888   3.015   1.193
 5482SOL    HW117345   4.792   3.040   1.181
 5482SOL    HW217346   4.930   3.077   1.258
 5483SOL     OW17347   0.207   3.487   5.824
 5483SOL    HW117348   0.266   3.472   5.903
 5483SOL    HW217349   0.241   3.435   5.746
 5484SOL     OW17350   6.257   6.261   3.663
 5484SOL    HW117351   6.345   6.283   3.621
 5484SOL    HW217352   6.196   6.340   3.655
 5485SOL     OW17353   3.630   6.749   5.383
 5485SOL    HW117354   3.600   6.842   5.406
 5485SOL    HW217355   3.551   6.689   5.373
 5486SOL     OW17356   0.610   0.649   3.505
 5486SOL    HW117357   0.668   0.590   3.449
 5486SOL    HW217358   0.617   0.743   3.473
 5487SOL     OW17359   6.165   4.606   0.416
 5487SOL    HW117360   6.193   4.697   0.386
 5487SOL    HW217361   6.233   4.539   0.386
 5488SOL     OW17362   5.122   2.046   6.804
 5488SOL    HW117363   5.034   2.082   6.774
 5488SOL    HW217364   5.195   2.085   6.748
 5489SOL     OW17365   1.438   4.285   2.931
 5489SOL    HW117366   1.406   4.354   2.866
 5489SOL    HW217367   1.368   4.216   2.944
 5490SOL     OW17368   2.514   2.107   0.647
 5490SOL    HW117369   2.478   2.124   0.739
 5490SOL    HW217370   2.484   2.017   0.616
 5491SOL     OW17371   1.441   4.680   0.902
 5491SOL    HW117372   1.450   4.754   0.835
 5491SOL    HW217373   1.344   4.657   0.913
 5492SOL     OW17374   0.852   1.337   6.318
 5492SOL    HW117375   0.815   1.250   6.285
 5492SOL    HW217376   0.912   1.321   6.397
 5493SOL     OW17377   3.599   3.177   6.523
 5493SOL    HW117378   3.575   3.158   6.619
 5493SOL    HW217379   3.515   3.184   6.469
 5494SOL     OW17380   5.721   3.251   1.782
 5494SOL    HW117381   5.679   3.229   1.694
 5494SOL    HW217382   5.785   3.179   1.808
 5495SOL     OW17383   4.099   3.355   2.670
 5495SOL    HW117384   4.053   3.275   2.632
 5495SOL    HW217385   4.128   3.336   2.764
 5496SOL     OW17386   3.552   5.703   1.508
 5496SOL    HW117387   3.467   5.706   1.560
 5496SOL    HW217388   3.532   5.707   1.411
 5497SOL     OW17389   6.931   1.180   2.031
 5497SOL    HW117390   6.936   1.274   1.998
 5497SOL    HW217391   7.018   1.156   2.075
 5498SOL     OW17392   4.942   1.485   5.736
 5498SOL    HW117393   5.006   1.562   5.740
 5498SOL    HW217394   4.903   1.470   5.827
 5499SOL     OW17395   6.918   1.636   3.558
 5499SOL    HW117396   6.928   1.583   3.642
 5499SOL    HW217397   6.829   1.681   3.557
 5500SOL     OW17398   1.970   5.986   0.367
 5500SOL    HW117399   2.010   6.021   0.452
 5500SOL    HW217400   1.930   6.062   0.316
 5501SOL     OW17401   2.775   0.743   1.861
 5501SOL    HW117402   2.827   0.719   1.779
 5501SOL    HW217403   2.715   0.667   1.885
 5502SOL     OW17404   6.172   4.112   5.547
 5502SOL    HW117405   6.147   4.169   5.626
 5502SOL    HW217406   6.152   4.016   5.568
 5503SOL     OW17407   1.105   4.738   3.442
 5503SOL    HW117408   1.034   4.807   3.454
 5503SOL    HW217409   1.122   4.692   3.529
 5504SOL     OW17410   3.393   1.896   4.512
 5504SOL    HW117411   3.355   1.804   4.505
 5504SOL    HW217412   3.489   1.895   4.485
 5505SOL     OW17413   3.276   5.398   5.912
 5505SOL    HW117414   3.260   5.372   5.816
 5505SOL    HW217415   3.297   5.496   5.917
 5506SOL     OW17416   5.852   0.757   5.753
 5506SOL    HW117417   5.822   0.729   5.662
 5506SOL    HW217418   5.826   0.687   5.820
 5507SOL     OW17419   2.614   6.780   4.264
 5507SOL    HW117420   2.576   6.806   4.175
 5507SOL    HW217421   2.682   6.847   4.292
 5508SOL     OW17422   2.713   0.378   6.372
 5508SOL    HW117423   2.613   0.372   6.365
 5508SOL    HW217424   2.745   0.455   6.318
 5509SOL     OW17425   5.904   6.588   6.986
 5509SOL    HW117426   5.912   6.671   0.018
 5509SOL    HW217427   5.984   6.578   6.927
 5510SOL     OW17428   5.111   0.469   5.659
 5510SOL    HW117429   5.208   0.490   5.676
 5510SOL    HW217430   5.094   0.372   5.675
 5511SOL     OW17431   1.026   1.097   2.400
 5511SOL    HW117432   0.952   1.150   2.360
 5511SOL    HW217433   1.064   1.035   2.332
 5512SOL     OW17434   1.151   0.997   6.811
 5512SOL    HW117435   1.243   0.960   6.795
 5512SOL    HW217436   1.091   0.923   6.842
 5513SOL     OW17437   4.814   3.972   4.706
 5513SOL    HW117438   4.853   3.922   4.629
 5513SOL    HW217439   4.839   4.068   4.699
 5514SOL     OW17440   5.169   4.921   1.779
 5514SOL    HW117441   5.110   4.860   1.727
 5514SOL    HW217442   5.119   4.957   1.857
 5515SOL     OW17443   6.492   2.051   1.777
 5515SOL    HW117444   6.417   2.104   1.738
 5515SOL    HW217445   6.478   2.041   1.876
 5516SOL     OW17446   1.115   3.745   6.984
 5516SOL    HW117447   1.095   3.744   6.886
 5516SOL    HW217448   1.029   3.742   0.012
 5517SOL     OW17449   2.851   1.834   0.983
 5517SOL    HW117450   2.874   1.828   0.886
 5517SOL    HW217451   2.935   1.851   1.036
 5518SOL     OW17452   6.121   5.213   5.304
 5518SOL    HW117453   6.091   5.203   5.399
 5518SOL    HW217454   6.044   5.199   5.243
 5519SOL     OW17455   5.971   3.659   3.631
 5519SOL    HW117456   5.971   3.597   3.710
 5519SOL    HW217457   5.998   3.609   3.549
 5520SOL     OW17458   0.689   3.951   2.171
 5520SOL    HW117459   0.609   3.896   2.195
 5520SOL    HW217460   0.715   3.932   2.076
 5521SOL     OW17461   5.770   6.143   1.190
 5521SOL    HW117462   5.840   6.071   1.195
 5521SOL    HW217463   5.788   6.211   1.262
 5522SOL     OW17464   2.674   3.478   1.716
 5522SOL    HW117465   2.658   3.543   1.642
 5522SOL    HW217466   2.608   3.493   1.789
 5523SOL     OW17467   3.483   0.044   2.538
 5523SOL    HW117468   3.423   7.004   2.488
 5523SOL    HW217469   3.456   0.046   2.634
 5524SOL     OW17470   0.717   4.883   5.907
 5524SOL    HW117471   0.638   4.927   5.864
 5524SOL    HW217472   0.703   4.878   6.006
 5525SOL     OW17473   6.606   5.062   6.281
 5525SOL    HW117474   6.606   5.050   6.381
 5525SOL    HW217475   6.538   5.002   6.240
 5526SOL     OW17476   6.286   3.282   4.143
 5526SOL    HW117477   6.273   3.274   4.242
 5526SOL    HW217478   6.305   3.192   4.104
 5527SOL     OW17479   1.825   2.804   1.753
 5527SOL    HW117480   1.776   2.756   1.680
 5527SOL    HW217481   1.863   2.737   1.816
 5528SOL     OW17482   0.604   2.344   4.577
 5528SOL    HW117483   0.575   2.392   4.494
 5528SOL    HW217484   0.553   2.258   4.585
 5529SOL     OW17485   2.661   0.717   4.581
 5529SOL    HW117486   2.728   0.782   4.546
 5529SOL    HW217487   2.695   0.624   4.567
 5530SOL     OW17488   0.793   2.084   0.330
 5530SOL    HW117489   0.834   2.067   0.420
 5530SOL    HW217490   0.696   2.106   0.341
 5531SOL     OW17491   4.216   2.980   5.479
 5531SOL    HW117492   4.158   3.017   5.406
 5531SOL    HW217493   4.174   2.898   5.517
 5532SOL     OW17494   2.471   1.887   0.465
 5532SOL    HW117495   2.554   1.928   0.428
 5532SOL    HW217496   2.494   1.803   0.514
 5533SOL     OW17497   4.019   0.670   2.266
 5533SOL    HW117498   4.048   0.574   2.270
 5533SOL    HW217499   4.083   0.721   2.209
 5534SOL     OW17500   0.847   3.882   6.682
 5534SOL    HW117501   0.921   3.816   6.699
 5534SOL    HW217502   0.877   3.973   6.711
 5535SOL     OW17503   6.231   3.193   3.211
 5535SOL    HW117504   6.154   3.195   3.148
 5535SOL    HW217505   6.310   3.238   3.169
 5536SOL     OW17506   2.086   0.892   4.311
 5536SOL    HW117507   2.099   0.835   4.230
 5536SOL    HW217508   2.174   0.929   4.340
 5537SOL     OW17509   4.194   0.442   5.194
 5537SOL    HW117510   4.107   0.484   5.169
 5537SOL    HW217511   4.257   0.447   5.118
 5538SOL     OW17512   3.901   1.391   6.368
 5538SOL    HW117513   3.950   1.474   6.394
 5538SOL    HW217514   3.813   1.387   6.416
 5539SOL     OW17515   2.153   0.809   2.067
 5539SOL    HW117516   2.124   0.713   2.072
 5539SOL    HW217517   2.246   0.813   2.031
 5540SOL     OW17518   5.095   2.603   0.102
 5540SOL    HW117519   5.053   2.515   0.123
 5540SOL    HW217520   5.086   2.665   0.180
 5541SOL     OW17521   4.968   3.527   5.986
 5541SOL    HW117522   4.993   3.448   5.929
 5541SOL    HW217523   4.952   3.497   6.080
 5542SOL     OW17524   5.492   4.399   6.296
 5542SOL    HW117525   5.548   4.457   6.356
 5542SOL    HW217526   5.525   4.305   6.301
 5543SOL     OW17527   2.088   6.838   0.515
 5543SOL    HW117528   2.165   6.827   0.577
 5543SOL    HW217529   2.056   6.932   0.518
 5544SOL     OW17530   4.706   5.213   5.960
 5544SOL    HW117531   4.768   5.202   6.037
 5544SOL    HW217532   4.735   5.153   5.885
 5545SOL     OW17533   4.207   1.086   2.755
 5545SOL    HW117534   4.244   1.170   2.794
 5545SOL    HW217535   4.203   1.015   2.825
 5546SOL     OW17536   0.316   6.203   4.959
 5546SOL    HW117537   0.287   6.297   4.975
 5546SOL    HW217538   0.337   6.191   4.862
 5547SOL     OW17539   4.884   1.850   5.729
 5547SOL    HW117540   4.850   1.840   5.635
 5547SOL    HW217541   4.822   1.804   5.792
 5548SOL     OW17542   6.760   3.575   5.648
 5548SOL    HW117543   6.733   3.645   5.715
 5548SOL    HW217544   6.703   3.494   5.659
 5549SOL     OW17545   4.088   3.689   1.700
 5549SOL    HW117546   4.013   3.635   1.663
 5549SOL    HW217547   4.163   3.693   1.634
 5550SOL     OW17548   1.995   4.434   2.955
 5550SOL    HW117549   2.047   4.394   2.880
 5550SOL    HW217550   1.928   4.368   2.989
 5551SOL     OW17551   2.267   5.596   2.849
 5551SOL    HW117552   2.331   5.653   2.798
 5551SOL    HW217553   2.314   5.557   2.929
 5552SOL     OW17554   6.856   6.706   6.293
 5552SOL    HW117555   6.889   6.783   6.348
 5552SOL    HW217556   6.933   6.647   6.269
 5553SOL     OW17557   4.346   0.538   6.539
 5553SOL    HW117558   4.330   0.441   6.561
 5553SOL    HW217559   4.312   0.558   6.447
 5554SOL     OW17560   4.861   2.841   0.964
 5554SOL    HW117561   4.897   2.926   1.001
 5554SOL    HW217562   4.776   2.817   1.010
 5555SOL     OW17563   0.958   3.883   3.308
 5555SOL    HW117564   0.921   3.842   3.391
 5555SOL    HW217565   0.959   3.815   3.235
 5556SOL     OW17566   5.596   0.885   4.119
 5556SOL    HW117567   5.522   0.872   4.184
 5556SOL    HW217568   5.635   0.797   4.093
 5557SOL     OW17569   3.320   5.843   1.648
 5557SOL    HW117570   3.304   5.873   1.742
 5557SOL    HW217571   3.256   5.770   1.624
 5558SOL     OW17572   3.446   4.430   0.352
 5558SOL    HW117573   3.545   4.415   0.355
 5558SOL    HW217574   3.426   4.510   0.296
 5559SOL     OW17575   0.972   0.559   2.814
 5559SOL    HW117576   0.919   0.642   2.800
 5559SOL    HW217577   0.932   0.484   2.762
 5560SOL     OW17578   6.725   5.825   2.963
 5560SOL    HW117579   6.682   5.785   3.044
 5560SOL    HW217580   6.781   5.756   2.917
 5561SOL     OW17581   2.924   0.930   4.860
 5561SOL    HW117582   2.875   1.002   4.810
 5561SOL    HW217583   2.867   0.848   4.866
 5562SOL     OW17584   4.642   4.390   6.774
 5562SOL    HW117585   4.686   4.479   6.789
 5562SOL    HW217586   4.543   4.401   6.784
 5563SOL     OW17587   3.022   4.844   2.962
 5563SOL    HW117588   2.940   4.788   2.955
 5563SOL    HW217589   3.025   4.888   3.052
 5564SOL     OW17590   4.900   6.691   6.046
 5564SOL    HW117591   4.806   6.704   6.013
 5564SOL    HW217592   4.924   6.765   6.108
 5565SOL     OW17593   4.102   3.669   7.022
 5565SOL    HW117594   4.094   3.674   0.098
 5565SOL    HW217595   4.139   3.579   6.996
 5566SOL     OW17596   1.541   4.081   0.537
 5566SOL    HW117597   1.632   4.048   0.558
 5566SOL    HW217598   1.507   4.034   0.455
 5567SOL     OW17599   6.889   3.274   1.896
 5567SOL    HW117600   6.864   3.364   1.931
 5567SOL    HW217601   6.833   3.253   1.816
 5568SOL     OW17602   4.652   6.595   3.095
 5568SOL    HW117603   4.619   6.608   3.001
 5568SOL    HW217604   4.588   6.536   3.145
 5569SOL     OW17605   2.696   1.712   3.359
 5569SOL    HW117606   2.721   1.695   3.454
 5569SOL    HW217607   2.714   1.808   3.336
 5570SOL     OW17608   6.004   3.515   3.390
 5570SOL    HW117609   6.080   3.488   3.450
 5570SOL    HW217610   6.041   3.556   3.307
 5571SOL     OW17611   6.320   5.050   1.716
 5571SOL    HW117612   6.293   5.077   1.623
 5571SOL    HW217613   6.420   5.040   1.720
 5572SOL     OW17614   1.597   4.338   4.771
 5572SOL    HW117615   1.535   4.405   4.729
 5572SOL    HW217616   1.592   4.346   4.871
 5573SOL     OW17617   1.562   5.025   5.121
 5573SOL    HW117618   1.600   5.042   5.030
 5573SOL    HW217619   1.582   4.931   5.148
 5574SOL     OW17620   0.624   3.190   6.624
 5574SOL    HW117621   0.705   3.231   6.665
 5574SOL    HW217622   0.560   3.163   6.697
 5575SOL     OW17623   0.210   0.068   1.470
 5575SOL    HW117624   0.210   6.992   1.479
 5575SOL    HW217625   0.260   0.094   1.387
 5576SOL     OW17626   1.607   4.404   3.108
 5576SOL    HW117627   1.539   4.360   3.050
 5576SOL    HW217628   1.698   4.387   3.070
 5577SOL     OW17629   1.967   3.299   0.343
 5577SOL    HW117630   2.056   3.255   0.347
 5577SOL    HW217631   1.921   3.290   0.432
 5578SOL     OW17632   3.764   4.085   2.324
 5578SOL    HW117633   3.847   4.138   2.305
 5578SOL    HW217634   3.774   4.038   2.412
 5579SOL     OW17635   0.405   3.297   1.050
 5579SOL    HW117636   0.402   3.198   1.054
 5579SOL    HW217637   0.316   3.335   1.074
 5580SOL     OW17638   4.712   1.793   6.131
 5580SOL    HW117639   4.742   1.863   6.196
 5580SOL    HW217640   4.616   1.811   6.106
 5581SOL     OW17641   1.222   1.656   1.385
 5581SOL    HW117642   1.126   1.676   1.365
 5581SOL    HW217643   1.228   1.609   1.473
 5582SOL     OW17644   2.523   4.234   6.541
 5582SOL    HW117645   2.434   4.190   6.541
 5582SOL    HW217646   2.555   4.245   6.635
 5583SOL     OW17647   4.355   0.420   2.500
 5583SOL    HW117648   4.436   0.362   2.489
 5583SOL    HW217649   4.365   0.503   2.446
 5584SOL     OW17650   6.536   4.244   4.378
 5584SOL    HW117651   6.520   4.228   4.280
 5584SOL    HW217652   6.470   4.191   4.431
 5585SOL     OW17653   4.677   5.203   3.020
 5585SOL    HW117654   4.773   5.208   2.992
 5585SOL    HW217655   4.671   5.199   3.119
 5586SOL     OW17656   6.559   3.377   5.699
 5586SOL    HW117657   6.562   3.279   5.720
 5586SOL    HW217658   6.512   3.425   5.773
 5587SOL     OW17659   4.613   0.160   0.184
 5587SOL    HW117660   4.710   0.151   0.209
 5587SOL    HW217661   4.558   0.164   0.267
 5588SOL     OW17662   2.408   6.450   2.607
 5588SOL    HW117663   2.460   6.365   2.599
 5588SOL    HW217664   2.338   6.440   2.678
 5589SOL     OW17665   6.510   4.486   6.624
 5589SOL    HW117666   6.605   4.469   6.598
 5589SOL    HW217667   6.507   4.516   6.720
 5590SOL     OW17668   5.892   6.252   3.627
 5590SOL    HW117669   5.951   6.314   3.679
 5590SOL    HW217670   5.797   6.280   3.637
 5591SOL     OW17671   0.617   1.753   1.024
 5591SOL    HW117672   0.612   1.788   0.930
 5591SOL    HW217673   0.562   1.669   1.031
 5592SOL     OW17674   1.180   5.365   3.639
 5592SOL    HW117675   1.181   5.424   3.720
 5592SOL    HW217676   1.272   5.357   3.602
 5593SOL     OW17677   0.004   2.782   6.518
 5593SOL    HW117678   7.014   2.879   6.496
 5593SOL    HW217679   6.946   2.748   6.565
 5594SOL     OW17680   4.939   0.446   4.894
 5594SOL    HW117681   4.917   0.436   4.797
 5594SOL    HW217682   4.943   0.355   4.937
 5595SOL     OW17683   1.407   1.683   5.195
 5595SOL    HW117684   1.387   1.586   5.184
 5595SOL    HW217685   1.334   1.727   5.247
 5596SOL     OW17686   4.576   6.370   2.720
 5596SOL    HW117687   4.646   6.299   2.721
 5596SOL    HW217688   4.539   6.380   2.628
 5597SOL     OW17689   5.004   2.106   4.418
 5597SOL    HW117690   5.006   2.129   4.515
 5597SOL    HW217691   5.075   2.157   4.370
 5598SOL     OW17692   4.971   3.501   3.950
 5598SOL    HW117693   4.938   3.596   3.951
 5598SOL    HW217694   5.070   3.500   3.954
 5599SOL     OW17695   1.205   0.619   4.030
 5599SOL    HW117696   1.206   0.679   3.950
 5599SOL    HW217697   1.295   0.579   4.043
 5600SOL     OW17698   0.707   2.165   2.426
 5600SOL    HW117699   0.730   2.156   2.523
 5600SOL    HW217700   0.761   2.099   2.373
 5601SOL     OW17701   2.823   0.201   5.833
 5601SOL    HW117702   2.732   0.200   5.875
 5601SOL    HW217703   2.813   0.219   5.735
 5602SOL     OW17704   0.761   1.572   0.774
 5602SOL    HW117705   0.763   1.478   0.811
 5602SOL    HW217706   0.666   1.603   0.767
 5603SOL     OW17707   4.892   2.223   6.829
 5603SOL    HW117708   4.837   2.264   6.902
 5603SOL    HW217709   4.920   2.294   6.764
 5604SOL     OW17710   6.587   1.982   5.730
 5604SOL    HW117711   6.512   1.991   5.665
 5604SOL    HW217712   6.664   2.040   5.702
 5605SOL     OW17713   0.893   0.748   4.444
 5605SOL    HW117714   0.923   0.677   4.508
 5605SOL    HW217715   0.962   0.758   4.372
 5606SOL     OW17716   5.756   6.719   1.264
 5606SOL    HW117717   5.825   6.670   1.211
 5606SOL    HW217718   5.796   6.755   1.348
 5607SOL     OW17719   5.686   0.363   2.285
 5607SOL    HW117720   5.731   0.449   2.310
 5607SOL    HW217721   5.633   0.330   2.363
 5608SOL     OW17722   4.070   0.058   4.935
 5608SOL    HW117723   4.073   0.100   5.026
 5608SOL    HW217724   4.102   6.987   4.941
 5609SOL     OW17725   2.745   4.999   0.715
 5609SOL    HW117726   2.652   4.970   0.738
 5609SOL    HW217727   2.760   5.092   0.748
 5610SOL     OW17728   4.808   6.695   0.739
 5610SOL    HW117729   4.805   6.598   0.765
 5610SOL    HW217730   4.730   6.743   0.780
 5611SOL     OW17731   1.744   5.080   2.347
 5611SOL    HW117732   1.776   5.063   2.441
 5611SOL    HW217733   1.702   4.997   2.311
 5612SOL     OW17734   3.825   1.829   6.807
 5612SOL    HW117735   3.879   1.746   6.798
 5612SOL    HW217736   3.885   1.909   6.797
 5613SOL     OW17737   5.254   3.950   3.013
 5613SOL    HW117738   5.198   3.929   2.933
 5613SOL    HW217739   5.299   4.039   3.000
 5614SOL     OW17740   4.467   2.457   4.583
 5614SOL    HW117741   4.510   2.539   4.621
 5614SOL    HW217742   4.460   2.467   4.483
 5615SOL     OW17743   0.753   0.523   6.129
 5615SOL    HW117744   0.706   0.581   6.062
 5615SOL    HW217745   0.797   0.582   6.197
 5616SOL     OW17746   1.820   1.175   5.720
 5616SOL    HW117747   1.772   1.088   5.715
 5616SOL    HW217748   1.919   1.160   5.713
 5617SOL     OW17749   2.602   6.524   6.556
 5617SOL    HW117750   2.536   6.588   6.594
 5617SOL    HW217751   2.681   6.574   6.520
 5618SOL     OW17752   6.557   3.371   4.038
 5618SOL    HW117753   6.459   3.348   4.039
 5618SOL    HW217754   6.611   3.287   4.042
 5619SOL     OW17755   2.791   4.032   6.182
 5619SOL    HW117756   2.724   4.062   6.250
 5619SOL    HW217757   2.795   3.932   6.181
 5620SOL     OW17758   3.651   3.537   0.834
 5620SOL    HW117759   3.697   3.523   0.921
 5620SOL    HW217760   3.601   3.624   0.836
 5621SOL     OW17761   1.364   2.037   6.109
 5621SOL    HW117762   1.425   2.066   6.183
 5621SOL    HW217763   1.409   1.967   6.054
 5622SOL     OW17764   4.281   0.150   5.799
 5622SOL    HW117765   4.330   0.237   5.810
 5622SOL    HW217766   4.316   0.102   5.718
 5623SOL     OW17767   1.923   5.609   6.266
 5623SOL    HW117768   2.007   5.664   6.265
 5623SOL    HW217769   1.844   5.669   6.259
 5624SOL     OW17770   0.789   4.481   3.387
 5624SOL    HW117771   0.872   4.425   3.391
 5624SOL    HW217772   0.805   4.562   3.330
 5625SOL     OW17773   6.002   2.160   4.160
 5625SOL    HW117774   5.942   2.238   4.175
 5625SOL    HW217775   5.967   2.104   4.085
 5626SOL     OW17776   3.027   6.483   4.687
 5626SOL    HW117777   2.983   6.445   4.769
 5626SOL    HW217778   3.125   6.463   4.690
 5627SOL     OW17779   1.095   5.871   0.539
 5627SOL    HW117780   1.170   5.872   0.473
 5627SOL    HW217781   1.099   5.787   0.593
 5628SOL     OW17782   1.426   2.824   5.908
 5628SOL    HW117783   1.423   2.879   5.824
 5628SOL    HW217784   1.513   2.839   5.954
 5629SOL     OW17785   3.378   3.934   2.051
 5629SOL    HW117786   3.376   3.908   1.955
 5629SOL    HW217787   3.452   4.000   2.067
 5630SOL     OW17788   1.234   5.012   0.688
 5630SOL    HW117789   1.179   5.010   0.604
 5630SOL    HW217790   1.308   5.078   0.677
 5631SOL     OW17791   4.363   1.546   0.097
 5631SOL    HW117792   4.417   1.576   0.019
 5631SOL    HW217793   4.302   1.472   0.070
 5632SOL     OW17794   3.971   2.879   6.165
 5632SOL    HW117795   4.052   2.825   6.142
 5632SOL    HW217796   3.985   2.925   6.253
 5633SOL     OW17797   6.355   2.034   3.727
 5633SOL    HW117798   6.390   2.074   3.642
 5633SOL    HW217799   6.346   1.935   3.716
 5634SOL     OW17800   2.773   6.117   5.732
 5634SOL    HW117801   2.718   6.079   5.658
 5634SOL    HW217802   2.781   6.216   5.719
 5635SOL     OW17803   1.985   3.734   5.235
 5635SOL    HW117804   2.057   3.665   5.239
 5635SOL    HW217805   2.027   3.824   5.218
 5636SOL     OW17806   3.516   6.142   2.587
 5636SOL    HW117807   3.458   6.199   2.646
 5636SOL    HW217808   3.547   6.196   2.509
 5637SOL     OW17809   4.986   0.218   4.089
 5637SOL    HW117810   4.933   0.291   4.047
 5637SOL    HW217811   4.985   0.229   4.188
 5638SOL     OW17812   5.342   3.441   1.196
 5638SOL    HW117813   5.256   3.491   1.195
 5638SOL    HW217814   5.403   3.477   1.125
 5639SOL     OW17815   0.735   0.844   0.399
 5639SOL    HW117816   0.646   0.873   0.364
 5639SOL    HW217817   0.801   0.838   0.324
 5640SOL     OW17818   2.645   0.478   3.789
 5640SOL    HW117819   2.635   0.561   3.844
 5640SOL    HW217820   2.645   0.398   3.849
 5641SOL     OW17821   0.375   4.820   6.105
 5641SOL    HW117822   0.463   4.836   6.150
 5641SOL    HW217823   0.383   4.743   6.041
 5642SOL     OW17824   2.140   6.351   0.179
 5642SOL    HW117825   2.042   6.328   0.176
 5642SOL    HW217826   2.189   6.280   0.230
 5643SOL     OW17827   4.946   1.647   5.081
 5643SOL    HW117828   4.944   1.615   4.986
 5643SOL    HW217829   4.939   1.568   5.142
 5644SOL     OW17830   3.027   6.512   5.505
 5644SOL    HW117831   3.033   6.605   5.542
 5644SOL    HW217832   2.932   6.482   5.504
 5645SOL     OW17833   6.505   3.479   3.731
 5645SOL    HW117834   6.461   3.472   3.821
 5645SOL    HW217835   6.471   3.560   3.684
 5646SOL     OW17836   1.886   5.084   2.894
 5646SOL    HW117837   1.948   5.162   2.886
 5646SOL    HW217838   1.911   5.029   2.973
 5647SOL     OW17839   5.397   6.213   1.748
 5647SOL    HW117840   5.394   6.313   1.747
 5647SOL    HW217841   5.305   6.177   1.765
 5648SOL     OW17842   2.461   5.746   2.701
 5648SOL    HW117843   2.532   5.790   2.756
 5648SOL    HW217844   2.478   5.763   2.604
 5649SOL     OW17845   0.851   6.837   4.284
 5649SOL    HW117846   0.792   6.801   4.212
 5649SOL    HW217847   0.887   6.761   4.338
 5650SOL     OW17848   0.695   4.721   0.406
 5650SOL    HW117849   0.733   4.629   0.396
 5650SOL    HW217850   0.690   4.744   0.504
 5651SOL     OW17851   1.867   0.201   0.530
 5651SOL    HW117852   1.812   0.118   0.531
 5651SOL    HW217853   1.841   0.258   0.451
 5652SOL     OW17854   0.195   5.579   1.779
 5652SOL    HW117855   0.188   5.647   1.706
 5652SOL    HW217856   0.121   5.513   1.770
 5653SOL     OW17857   0.439   6.462   6.994
 5653SOL    HW117858   0.506   6.536   7.007
 5653SOL    HW217859   0.350   6.491   0.006
 5654SOL     OW17860   0.992   5.771   4.432
 5654SOL    HW117861   1.034   5.694   4.383
 5654SOL    HW217862   1.054   5.801   4.505
 5655SOL     OW17863   6.429   3.043   4.007
 5655SOL    HW117864   6.478   3.077   3.928
 5655SOL    HW217865   6.488   2.980   4.058
 5656SOL     OW17866   6.442   3.430   6.218
 5656SOL    HW117867   6.350   3.410   6.184
 5656SOL    HW217868   6.436   3.478   6.306
 5657SOL     OW17869   4.592   4.433   4.798
 5657SOL    HW117870   4.634   4.346   4.824
 5657SOL    HW217871   4.518   4.455   4.862
 5658SOL     OW17872   2.048   3.112   6.359
 5658SOL    HW117873   1.963   3.136   6.312
 5658SOL    HW217874   2.030   3.039   6.424
 5659SOL     OW17875   3.265   3.571   6.078
 5659SOL    HW117876   3.242   3.536   5.987
 5659SOL    HW217877   3.198   3.640   6.106
 5660SOL     OW17878   4.413   0.109   6.427
 5660SOL    HW117879   4.373   0.082   6.340
 5660SOL    HW217880   4.508   0.079   6.431
 5661SOL     OW17881   0.844   5.432   5.868
 5661SOL    HW117882   0.804   5.471   5.785
 5661SOL    HW217883   0.906   5.358   5.845
 5662SOL     OW17884   2.168   6.837   2.567
 5662SOL    HW117885   2.090   6.900   2.556
 5662SOL    HW217886   2.217   6.829   2.481
 5663SOL     OW17887   1.367   2.868   0.724
 5663SOL    HW117888   1.350   2.965   0.705
 5663SOL    HW217889   1.392   2.821   0.640
 5664SOL     OW17890   5.242   4.264   4.461
 5664SOL    HW117891   5.247   4.234   4.556
 5664SOL    HW217892   5.153   4.239   4.423
 5665SOL     OW17893   1.115   6.491   0.598
 5665SOL    HW117894   1.198   6.547   0.603
 5665SOL    HW217895   1.123   6.426   0.522
 5666SOL     OW17896   5.963   0.882   3.983
 5666SOL    HW117897   5.938   0.954   4.048
 5666SOL    HW217898   5.936   0.793   4.020
 5667SOL     OW17899   1.962   4.681   4.086
 5667SOL    HW117900   2.046   4.710   4.041
 5667SOL    HW217901   1.885   4.732   4.048
 5668SOL     OW17902   6.065   2.846   2.375
 5668SOL    HW117903   5.993   2.914   2.361
 5668SOL    HW217904   6.046   2.793   2.458
 5669SOL     OW17905   6.546   4.236   6.946
 5669SOL    HW117906   6.543   4.141   6.976
 5669SOL    HW217907   6.524   4.296   7.023
 5670SOL     OW17908   1.292   3.864   2.916
 5670SOL    HW117909   1.318   3.917   2.835
 5670SOL    HW217910   1.363   3.872   2.985
 5671SOL     OW17911   6.279   5.514   4.383
 5671SOL    HW117912   6.214   5.583   4.350
 5671SOL    HW217913   6.229   5.439   4.426
 5672SOL     OW17914   4.665   4.014   5.607
 5672SOL    HW117915   4.749   3.978   5.646
 5672SOL    HW217916   4.624   3.946   5.546
 5673SOL     OW17917   1.113   6.895   1.732
 5673SOL    HW117918   1.212   6.903   1.715
 5673SOL    HW217919   1.097   6.884   1.830
 5674SOL     OW17920   2.071   4.885   4.539
 5674SOL    HW117921   2.168   4.911   4.537
 5674SOL    HW217922   2.062   4.794   4.578
 5675SOL     OW17923   3.732   1.576   0.334
 5675SOL    HW117924   3.798   1.639   0.293
 5675SOL    HW217925   3.735   1.488   0.286
 5676SOL     OW17926   2.689   2.438   1.750
 5676SOL    HW117927   2.681   2.514   1.686
 5676SOL    HW217928   2.780   2.441   1.792
 5677SOL     OW17929   6.671   1.164   0.798
 5677SOL    HW117930   6.762   1.153   0.758
 5677SOL    HW217931   6.657   1.092   0.867
 5678SOL     OW17932   3.626   1.506   2.090
 5678SOL    HW117933   3.652   1.413   2.116
 5678SOL    HW217934   3.591   1.555   2.171
 5679SOL     OW17935   5.848   2.035   4.724
 5679SOL    HW117936   5.867   2.124   4.767
 5679SOL    HW217937   5.781   2.048   4.650
 5680SOL     OW17938   1.553   4.748   5.488
 5680SOL    HW117939   1.593   4.731   5.398
 5680SOL    HW217940   1.626   4.756   5.556
 5681SOL     OW17941   0.599   3.641   3.080
 5681SOL    HW117942   0.592   3.740   3.089
 5681SOL    HW217943   0.682   3.617   3.029
 5682SOL     OW17944   2.846   5.509   2.688
 5682SOL    HW117945   2.790   5.450   2.629
 5682SOL    HW217946   2.792   5.536   2.768
 5683SOL     OW17947   3.949   2.682   6.413
 5683SOL    HW117948   4.036   2.649   6.377
 5683SOL    HW217949   3.904   2.741   6.346
 5684SOL     OW17950   2.193   3.559   6.049
 5684SOL    HW117951   2.198   3.625   5.974
 5684SOL    HW217952   2.255   3.483   6.030
 5685SOL     OW17953   2.031   2.486   3.821
 5685SOL    HW117954   2.017   2.571   3.871
 5685SOL    HW217955   2.117   2.492   3.769
 5686SOL     OW17956   3.320   0.885   5.735
 5686SOL    HW117957   3.246   0.946   5.706
 5686SOL    HW217958   3.402   0.903   5.681
 5687SOL     OW17959   0.430   6.188   5.227
 5687SOL    HW117960   0.384   6.166   5.141
 5687SOL    HW217961   0.509   6.128   5.240
 5688SOL     OW17962   2.177   3.451   3.514
 5688SOL    HW117963   2.274   3.470   3.501
 5688SOL    HW217964   2.158   3.437   3.611
 5689SOL     OW17965   1.910   0.820   1.718
 5689SOL    HW117966   1.922   0.879   1.799
 5689SOL    HW217967   1.878   0.875   1.641
 5690SOL     OW17968   1.182   5.586   6.598
 5690SOL    HW117969   1.253   5.544   6.542
 5690SOL    HW217970   1.092   5.566   6.558
 5691SOL     OW17971   2.994   1.073   2.260
 5691SOL    HW117972   3.057   1.073   2.183
 5691SOL    HW217973   3.047   1.078   2.345
 5692SOL     OW17974   4.785   5.381   0.711
 5692SOL    HW117975   4.828   5.461   0.669
 5692SOL    HW217976   4.845   5.346   0.783
 5693SOL     OW17977   3.959   1.164   0.875
 5693SOL    HW117978   3.963   1.215   0.961
 5693SOL    HW217979   4.047   1.171   0.828
 5694SOL     OW17980   0.587   0.538   2.509
 5694SOL    HW117981   0.532   0.560   2.590
 5694SOL    HW217982   0.620   0.622   2.467
 5695SOL     OW17983   1.380   1.085   1.839
 5695SOL    HW117984   1.432   1.010   1.879
 5695SOL    HW217985   1.339   1.055   1.753
 5696SOL     OW17986   1.660   0.602   3.641
 5696SOL    HW117987   1.647   0.672   3.711
 5696SOL    HW217988   1.730   0.537   3.672
 5697SOL     OW17989   6.187   2.592   1.887
 5697SOL    HW117990   6.272   2.644   1.892
 5697SOL    HW217991   6.133   2.610   1.969
 5698SOL     OW17992   1.647   3.421   3.545
 5698SOL    HW117993   1.688   3.346   3.494
 5698SOL    HW217994   1.547   3.416   3.539
 5699SOL     OW17995   2.486   2.603   3.476
 5699SOL    HW117996   2.472   2.699   3.449
 5699SOL    HW217997   2.404   2.551   3.454
 5700SOL     OW17998   0.083   0.402   1.975
 5700SOL    HW117999   0.116   0.308   1.965
 5700SOL    HW218000   7.011   0.400   2.006
 5701SOL     OW18001   6.870   1.449   0.983
 5701SOL    HW118002   6.792   1.389   1.006
 5701SOL    HW218003   6.913   1.480   1.068
 5702SOL     OW18004   1.758   6.695   4.147
 5702SOL    HW118005   1.768   6.619   4.212
 5702SOL    HW218006   1.691   6.670   4.077
 5703SOL     OW18007   7.003   3.682   5.904
 5703SOL    HW118008   0.025   3.622   5.837
 5703SOL    HW218009   6.931   3.631   5.951
 5704SOL     OW18010   5.357   3.921   3.740
 5704SOL    HW118011   5.386   3.852   3.806
 5704SOL    HW218012   5.330   4.005   3.789
 5705SOL     OW18013   5.776   6.070   6.363
 5705SOL    HW118014   5.874   6.091   6.363
 5705SOL    HW218015   5.741   6.073   6.270
 5706SOL     OW18016   5.558   2.654   0.697
 5706SOL    HW118017   5.623   2.588   0.736
 5706SOL    HW218018   5.465   2.629   0.725
 5707SOL     OW18019   5.120   6.781   1.222
 5707SOL    HW118020   5.152   6.686   1.221
 5707SOL    HW218021   5.081   6.802   1.312
 5708SOL     OW18022   5.269   5.565   3.202
 5708SOL    HW118023   5.343   5.537   3.264
 5708SOL    HW218024   5.231   5.485   3.157
 5709SOL     OW18025   1.561   1.257   1.698
 5709SOL    HW118026   1.593   1.328   1.761
 5709SOL    HW218027   1.506   1.190   1.748
 5710SOL     OW18028   2.961   2.667   0.894
 5710SOL    HW118029   2.987   2.763   0.907
 5710SOL    HW218030   3.016   2.627   0.820
 5711SOL     OW18031   5.100   0.423   1.867
 5711SOL    HW118032   5.163   0.350   1.890
 5711SOL    HW218033   5.087   0.483   1.946
 5712SOL     OW18034   6.601   5.913   1.303
 5712SOL    HW118035   6.678   5.896   1.364
 5712SOL    HW218036   6.575   6.010   1.308
 5713SOL     OW18037   2.449   5.578   0.690
 5713SOL    HW118038   2.453   5.670   0.651
 5713SOL    HW218039   2.513   5.572   0.767
 5714SOL     OW18040   6.274   6.294   1.755
 5714SOL    HW118041   6.192   6.349   1.766
 5714SOL    HW218042   6.295   6.246   1.840
 5715SOL     OW18043   0.547   6.459   1.577
 5715SOL    HW118044   0.453   6.427   1.591
 5715SOL    HW218045   0.554   6.502   1.487
 5716SOL     OW18046   1.041   4.627   6.469
 5716SOL    HW118047   0.995   4.570   6.401
 5716SOL    HW218048   1.006   4.604   6.560
 5717SOL     OW18049   1.851   5.056   2.593
 5717SOL    HW118050   1.850   5.041   2.692
 5717SOL    HW218051   1.945   5.049   2.559
 5718SOL     OW18052   0.983   3.046   0.526
 5718SOL    HW118053   1.047   2.972   0.543
 5718SOL    HW218054   0.909   3.014   0.466
 5719SOL     OW18055   3.055   3.038   1.237
 5719SOL    HW118056   3.146   3.014   1.204
 5719SOL    HW218057   3.064   3.097   1.318
 5720SOL     OW18058   2.368   5.806   5.650
 5720SOL    HW118059   2.395   5.817   5.745
 5720SOL    HW218060   2.296   5.872   5.628
 5721SOL     OW18061   5.265   4.282   0.360
 5721SOL    HW118062   5.228   4.346   0.428
 5721SOL    HW218063   5.202   4.206   0.349
 5722SOL     OW18064   0.969   1.005   5.197
 5722SOL    HW118065   1.002   1.091   5.239
 5722SOL    HW218066   0.910   1.026   5.119
 5723SOL     OW18067   4.251   3.341   6.652
 5723SOL    HW118068   4.229   3.431   6.689
 5723SOL    HW218069   4.331   3.348   6.593
 5724SOL     OW18070   6.207   2.786   3.397
 5724SOL    HW118071   6.253   2.874   3.386
 5724SOL    HW218072   6.272   2.712   3.379
 5725SOL     OW18073   5.071   4.904   2.976
 5725SOL    HW118074   5.039   4.962   3.051
 5725SOL    HW218075   4.993   4.878   2.919
 5726SOL     OW18076   4.968   3.882   3.100
 5726SOL    HW118077   5.063   3.882   3.070
 5726SOL    HW218078   4.934   3.788   3.103
 5727SOL     OW18079   0.458   2.411   4.321
 5727SOL    HW118080   0.488   2.505   4.307
 5727SOL    HW218081   0.396   2.384   4.248
 5728SOL     OW18082   4.846   5.991   5.073
 5728SOL    HW118083   4.869   5.914   5.133
 5728SOL    HW218084   4.848   5.961   4.978
 5729SOL     OW18085   2.408   2.464   6.102
 5729SOL    HW118086   2.473   2.396   6.136
 5729SOL    HW218087   2.316   2.440   6.131
 5730SOL     OW18088   6.770   4.136   5.733
 5730SOL    HW118089   6.840   4.065   5.743
 5730SOL    HW218090   6.682   4.100   5.763
 5731SOL     OW18091   6.962   6.637   1.526
 5731SOL    HW118092   6.985   6.694   1.447
 5731SOL    HW218093   0.008   6.566   1.537
 5732SOL     OW18094   1.211   6.715   4.409
 5732SOL    HW118095   1.252   6.763   4.486
 5732SOL    HW218096   1.112   6.714   4.420
 5733SOL     OW18097   4.069   6.826   5.259
 5733SOL    HW118098   4.089   6.736   5.220
 5733SOL    HW218099   4.146   6.887   5.244
 5734SOL     OW18100   1.753   6.418   4.221
 5734SOL    HW118101   1.690   6.401   4.297
 5734SOL    HW218102   1.720   6.370   4.139
 5735SOL     OW18103   3.341   1.256   1.412
 5735SOL    HW118104   3.308   1.320   1.481
 5735SOL    HW218105   3.294   1.274   1.326
 5736SOL     OW18106   0.807   5.559   0.064
 5736SOL    HW118107   0.901   5.580   0.090
 5736SOL    HW218108   0.745   5.624   0.109
 5737SOL     OW18109   5.423   5.329   6.354
 5737SOL    HW118110   5.478   5.337   6.437
 5737SOL    HW218111   5.449   5.402   6.290
 5738SOL     OW18112   1.868   3.577   6.956
 5738SOL    HW118113   1.830   3.668   6.967
 5738SOL    HW218114   1.799   3.509   6.979
 5739SOL     OW18115   1.907   1.357   0.629
 5739SOL    HW118116   1.827   1.359   0.689
 5739SOL    HW218117   1.932   1.262   0.610
 5740SOL     OW18118   4.196   5.947   6.480
 5740SOL    HW118119   4.181   5.899   6.567
 5740SOL    HW218120   4.215   6.043   6.499
 5741SOL     OW18121   6.386   5.273   5.058
 5741SOL    HW118122   6.457   5.278   4.987
 5741SOL    HW218123   6.296   5.267   5.014
 5742SOL     OW18124   6.371   6.585   2.420
 5742SOL    HW118125   6.344   6.502   2.371
 5742SOL    HW218126   6.369   6.568   2.518
 5743SOL     OW18127   2.254   6.675   4.870
 5743SOL    HW118128   2.317   6.631   4.806
 5743SOL    HW218129   2.212   6.754   4.826
 5744SOL     OW18130   5.943   0.717   0.136
 5744SOL    HW118131   5.866   0.683   0.082
 5744SOL    HW218132   6.009   0.762   0.076
 5745SOL     OW18133   1.715   2.005   4.595
 5745SOL    HW118134   1.644   2.072   4.573
 5745SOL    HW218135   1.721   1.937   4.522
 5746SOL     OW18136   4.763   1.842   0.166
 5746SOL    HW118137   4.700   1.839   0.244
 5746SOL    HW218138   4.758   1.932   0.123
 5747SOL     OW18139   0.565   5.328   3.282
 5747SOL    HW118140   0.598   5.269   3.208
 5747SOL    HW218141   0.468   5.349   3.268
 5748SOL     OW18142   2.206   5.462   1.868
 5748SOL    HW118143   2.120   5.467   1.817
 5748SOL    HW218144   2.277   5.512   1.820
 5749SOL     OW18145   2.240   2.128   3.248
 5749SOL    HW118146   2.206   2.042   3.210
 5749SOL    HW218147   2.167   2.196   3.247
 5750SOL     OW18148   6.306   5.646   3.515
 5750SOL    HW118149   6.278   5.650   3.419
 5750SOL    HW218150   6.237   5.598   3.569
 5751SOL     OW18151   2.370   3.128   5.612
 5751SOL    HW118152   2.302   3.183   5.660
 5751SOL    HW218153   2.406   3.180   5.534
 5752SOL     OW18154   6.657   6.637   6.463
 5752SOL    HW118155   6.726   6.668   6.398
 5752SOL    HW218156   6.622   6.548   6.434
 5753SOL     OW18157   3.421   2.886   0.053
 5753SOL    HW118158   3.445   2.888   0.150
 5753SOL    HW218159   3.344   2.948   0.036
 5754SOL     OW18160   5.559   5.208   1.714
 5754SOL    HW118161   5.501   5.289   1.708
 5754SOL    HW218162   5.510   5.130   1.675
 5755SOL     OW18163   3.389   4.375   6.494
 5755SOL    HW118164   3.458   4.443   6.517
 5755SOL    HW218165   3.307   4.392   6.549
 5756SOL     OW18166   6.573   4.841   3.748
 5756SOL    HW118167   6.494   4.903   3.755
 5756SOL    HW218168   6.657   4.894   3.759
 5757SOL     OW18169   6.772   5.194   0.960
 5757SOL    HW118170   6.841   5.252   1.003
 5757SOL    HW218171   6.685   5.244   0.954
 5758SOL     OW18172   1.995   2.402   5.091
 5758SOL    HW118173   1.997   2.467   5.014
 5758SOL    HW218174   1.930   2.434   5.160
 5759SOL     OW18175   4.972   1.403   6.619
 5759SOL    HW118176   5.013   1.448   6.698
 5759SOL    HW218177   5.015   1.435   6.535
 5760SOL     OW18178   1.668   5.669   2.087
 5760SOL    HW118179   1.717   5.589   2.123
 5760SOL    HW218180   1.668   5.741   2.156
 5761SOL     OW18181   4.963   6.459   4.768
 5761SOL    HW118182   4.889   6.392   4.765
 5761SOL    HW218183   5.045   6.420   4.727
 5762SOL     OW18184   5.842   6.530   1.715
 5762SOL    HW118185   5.796   6.618   1.718
 5762SOL    HW218186   5.774   6.457   1.716
 5763SOL     OW18187   1.386   0.734   0.793
 5763SOL    HW118188   1.441   0.664   0.840
 5763SOL    HW218189   1.429   0.757   0.706
 5764SOL     OW18190   5.279   4.094   5.440
 5764SOL    HW118191   5.291   4.189   5.467
 5764SOL    HW218192   5.347   4.037   5.487
 5765SOL     OW18193   5.784   4.442   6.681
 5765SOL    HW118194   5.840   4.522   6.701
 5765SOL    HW218195   5.830   4.360   6.713
 5766SOL     OW18196   3.002   1.999   2.384
 5766SOL    HW118197   3.078   1.938   2.361
 5766SOL    HW218198   3.016   2.088   2.340
 5767SOL     OW18199   0.492   6.867   1.352
 5767SOL    HW118200   0.483   6.889   1.254
 5767SOL    HW218201   0.524   6.948   1.401
 5768SOL     OW18202   7.004   1.416   2.852
 5768SOL    HW118203   6.927   1.479   2.856
 5768SOL    HW218204   0.047   1.448   2.784
 5769SOL     OW18205   2.693   5.888   4.247
 5769SOL    HW118206   2.714   5.985   4.241
 5769SOL    HW218207   2.636   5.861   4.169
 5770SOL     OW18208   6.735   0.278   1.577
 5770SOL    HW118209   6.703   0.189   1.544
 5770SOL    HW218210   6.804   0.264   1.648
 5771SOL     OW18211   1.496   0.910   1.021
 5771SOL    HW118212   1.492   0.839   0.950
 5771SOL    HW218213   1.530   0.870   1.106
 5772SOL     OW18214   5.504   3.195   0.590
 5772SOL    HW118215   5.533   3.105   0.621
 5772SOL    HW218216   5.541   3.265   0.651
 5773SOL     OW18217   5.403   6.092   4.268
 5773SOL    HW118218   5.304   6.092   4.281
 5773SOL    HW218219   5.427   6.030   4.194
 5774SOL     OW18220   1.895   5.650   3.846
 5774SOL    HW118221   1.826   5.669   3.777
 5774SOL    HW218222   1.985   5.646   3.804
 5775SOL     OW18223   6.938   6.985   6.140
 5775SOL    HW118224   6.848   0.006   6.145
 5775SOL    HW218225   6.946   6.919   6.214
 5776SOL     OW18226   4.473   6.945   5.670
 5776SOL    HW118227   4.400   6.924   5.604
 5776SOL    HW218228   4.514   0.010   5.648
 5777SOL     OW18229   0.482   1.096   4.606
 5777SOL    HW118230   0.461   1.065   4.514
 5777SOL    HW218231   0.421   1.051   4.671
 5778SOL     OW18232   1.216   6.924   3.157
 5778SOL    HW118233   1.248   7.019   3.151
 5778SOL    HW218234   1.158   6.903   3.078
 5779SOL     OW18235   3.828   0.942   2.113
 5779SOL    HW118236   3.731   0.921   2.119
 5779SOL    HW218237   3.857   0.993   2.194
 5780SOL     OW18238   6.540   3.980   1.593
 5780SOL    HW118239   6.501   4.054   1.539
 5780SOL    HW218240   6.504   3.983   1.686
 5781SOL     OW18241   1.951   5.231   4.921
 5781SOL    HW118242   1.994   5.220   4.831
 5781SOL    HW218243   1.961   5.146   4.973
 5782SOL     OW18244   2.845   1.489   2.325
 5782SOL    HW118245   2.746   1.474   2.315
 5782SOL    HW218246   2.876   1.452   2.412
 5783SOL     OW18247   1.239   0.407   1.138
 5783SOL    HW118248   1.274   0.499   1.120
 5783SOL    HW218249   1.174   0.381   1.066
 5784SOL     OW18250   0.494   6.221   0.492
 5784SOL    HW118251   0.463   6.281   0.418
 5784SOL    HW218252   0.478   6.265   0.580
 5785SOL     OW18253   1.705   2.083   0.237
 5785SOL    HW118254   1.792   2.045   0.267
 5785SOL    HW218255   1.721   2.172   0.193
 5786SOL     OW18256   1.649   3.273   1.457
 5786SOL    HW118257   1.655   3.193   1.518
 5786SOL    HW218258   1.557   3.311   1.461
 5787SOL     OW18259   5.795   2.703   4.870
 5787SOL    HW118260   5.791   2.690   4.771
 5787SOL    HW218261   5.721   2.652   4.914
 5788SOL     OW18262   2.822   1.231   2.112
 5788SOL    HW118263   2.782   1.321   2.132
 5788SOL    HW218264   2.867   1.196   2.193
 5789SOL     OW18265   4.439   4.157   6.597
 5789SOL    HW118266   4.398   4.194   6.681
 5789SOL    HW218267   4.498   4.226   6.556
 5790SOL     OW18268   5.352   5.816   4.382
 5790SOL    HW118269   5.414   5.738   4.376
 5790SOL    HW218270   5.290   5.816   4.304
 5791SOL     OW18271   3.947   1.228   2.831
 5791SOL    HW118272   4.003   1.311   2.824
 5791SOL    HW218273   3.927   1.194   2.739
 5792SOL     OW18274   4.960   3.240   2.827
 5792SOL    HW118275   4.993   3.164   2.884
 5792SOL    HW218276   5.017   3.246   2.745
 5793SOL     OW18277   5.041   2.079   5.724
 5793SOL    HW118278   4.973   2.005   5.724
 5793SOL    HW218279   5.003   2.158   5.772
 5794SOL     OW18280   3.694   0.551   6.912
 5794SOL    HW118281   3.690   0.587   6.819
 5794SOL    HW218282   3.602   0.534   6.946
 5795SOL     OW18283   1.189   5.554   1.522
 5795SOL    HW118284   1.140   5.467   1.519
 5795SOL    HW218285   1.277   5.545   1.476
 5796SOL     OW18286   4.305   2.738   6.470
 5796SOL    HW118287   4.290   2.784   6.558
 5796SOL    HW218288   4.400   2.751   6.442
 5797SOL     OW18289   5.004   2.338   0.401
 5797SOL    HW118290   4.952   2.296   0.476
 5797SOL    HW218291   5.100   2.311   0.408
 5798SOL     OW18292   1.545   3.575   5.759
 5798SOL    HW118293   1.479   3.501   5.770
 5798SOL    HW218294   1.535   3.616   5.668
 5799SOL     OW18295   2.112   6.546   3.281
 5799SOL    HW118296   2.180   6.514   3.347
 5799SOL    HW218297   2.158   6.585   3.201
 5800SOL     OW18298   0.565   6.727   1.017
 5800SOL    HW118299   0.664   6.711   1.019
 5800SOL    HW218300   0.546   6.824   1.030
 5801SOL     OW18301   1.371   1.636   2.556
 5801SOL    HW118302   1.413   1.562   2.608
 5801SOL    HW218303   1.394   1.626   2.459
 5802SOL     OW18304   0.171   1.539   1.900
 5802SOL    HW118305   0.072   1.552   1.895
 5802SOL    HW218306   0.216   1.622   1.866
 5803SOL     OW18307   0.646   5.052   3.882
 5803SOL    HW118308   0.682   5.128   3.935
 5803SOL    HW218309   0.704   4.971   3.896
 5804SOL     OW18310   6.522   1.119   3.782
 5804SOL    HW118311   6.575   1.112   3.866
 5804SOL    HW218312   6.477   1.209   3.778
 5805SOL     OW18313   2.278   2.591   1.214
 5805SOL    HW118314   2.375   2.580   1.237
 5805SOL    HW218315   2.237   2.658   1.277
 5806SOL     OW18316   0.412   3.712   2.452
 5806SOL    HW118317   0.383   3.790   2.507
 5806SOL    HW218318   0.503   3.683   2.481
 5807SOL     OW18319   0.826   0.134   0.980
 5807SOL    HW118320   0.805   0.106   0.886
 5807SOL    HW218321   0.869   0.224   0.978
 5808SOL     OW18322   6.288   0.277   5.066
 5808SOL    HW118323   6.235   0.193   5.054
 5808SOL    HW218324   6.331   0.302   4.980
 5809SOL     OW18325   0.279   2.120   5.487
 5809SOL    HW118326   0.356   2.176   5.457
 5809SOL    HW218327   0.200   2.137   5.429
 5810SOL     OW18328   4.028   0.195   5.182
 5810SOL    HW118329   4.077   0.274   5.218
 5810SOL    HW218330   3.941   0.224   5.143
 5811SOL     OW18331   2.897   3.514   6.111
 5811SOL    HW118332   2.946   3.474   6.188
 5811SOL    HW218333   2.923   3.467   6.026
 5812SOL     OW18334   5.672   2.731   0.455
 5812SOL    HW118335   5.625   2.704   0.539
 5812SOL    HW218336   5.640   2.673   0.379
 5813SOL     OW18337   4.957   6.792   1.433
 5813SOL    HW118338   4.863   6.803   1.467
 5813SOL    HW218339   5.018   6.772   1.509
 5814SOL     OW18340   5.091   1.697   1.826
 5814SOL    HW118341   5.107   1.794   1.841
 5814SOL    HW218342   5.042   1.684   1.740
 5815SOL     OW18343   6.102   1.697   4.173
 5815SOL    HW118344   6.031   1.733   4.112
 5815SOL    HW218345   6.162   1.772   4.201
 5816SOL     OW18346   6.962   3.939   2.996
 5816SOL    HW118347   6.990   3.929   2.901
 5816SOL    HW218348   0.020   3.940   3.055
 5817SOL     OW18349   5.720   3.792   3.702
 5817SOL    HW118350   5.721   3.891   3.688
 5817SOL    HW218351   5.806   3.754   3.668
 5818SOL     OW18352   1.885   0.147   5.450
 5818SOL    HW118353   1.825   0.074   5.481
 5818SOL    HW218354   1.863   0.231   5.499
 5819SOL     OW18355   4.247   5.136   0.421
 5819SOL    HW118356   4.149   5.124   0.433
 5819SOL    HW218357   4.265   5.227   0.383
 5820SOL     OW18358   6.299   5.363   2.431
 5820SOL    HW118359   6.219   5.414   2.401
 5820SOL    HW218360   6.303   5.276   2.382
 5821SOL     OW18361   6.840   0.593   1.235
 5821SOL    HW118362   6.837   0.512   1.176
 5821SOL    HW218363   6.793   0.574   1.321
 5822SOL     OW18364   1.753   2.877   2.471
 5822SOL    HW118365   1.779   2.973   2.476
 5822SOL    HW218366   1.687   2.864   2.396
 5823SOL     OW18367   1.884   6.205   3.905
 5823SOL    HW118368   1.827   6.274   3.862
 5823SOL    HW218369   1.922   6.145   3.835
 5824SOL     OW18370   0.705   0.078   1.999
 5824SOL    HW118371   0.663   0.150   1.943
 5824SOL    HW218372   0.803   0.074   1.979
 5825SOL     OW18373   5.901   0.340   4.339
 5825SOL    HW118374   5.922   0.297   4.251
 5825SOL    HW218375   5.890   0.270   4.409
 5826SOL     OW18376   0.496   7.023   4.854
 5826SOL    HW118377   0.528   0.072   4.914
 5826SOL    HW218378   0.526   0.019   4.760
 5827SOL     OW18379   2.024   4.676   4.954
 5827SOL    HW118380   2.115   4.636   4.943
 5827SOL    HW218381   1.987   4.700   4.865
 5828SOL     OW18382   4.349   6.640   4.278
 5828SOL    HW118383   4.423   6.678   4.222
 5828SOL    HW218384   4.348   6.541   4.269
 5829SOL     OW18385   2.348   1.005   3.875
 5829SOL    HW118386   2.379   1.092   3.914
 5829SOL    HW218387   2.294   0.955   3.942
 5830SOL     OW18388   3.551   5.503   4.593
 5830SOL    HW118389   3.476   5.460   4.543
 5830SOL    HW218390   3.518   5.530   4.684
 5831SOL     OW18391   1.501   2.264   4.823
 5831SOL    HW118392   1.555   2.315   4.890
 5831SOL    HW218393   1.453   2.189   4.868
 5832SOL     OW18394   2.941   5.021   1.120
 5832SOL    HW118395   2.927   4.936   1.070
 5832SOL    HW218396   2.856   5.046   1.167
 5833SOL     OW18397   3.818   4.025   6.232
 5833SOL    HW118398   3.783   4.035   6.325
 5833SOL    HW218399   3.906   4.073   6.224
 5834SOL     OW18400   5.477   2.967   6.481
 5834SOL    HW118401   5.384   2.972   6.516
 5834SOL    HW218402   5.525   2.891   6.524
 5835SOL     OW18403   5.309   0.694   1.912
 5835SOL    HW118404   5.240   0.655   1.974
 5835SOL    HW218405   5.274   0.691   1.819
 5836SOL     OW18406   4.297   6.930   2.666
 5836SOL    HW118407   4.210   6.888   2.643
 5836SOL    HW218408   4.284   7.000   2.737
 5837SOL     OW18409   3.118   4.528   6.935
 5837SOL    HW118410   3.183   4.469   6.982
 5837SOL    HW218411   3.039   4.544   6.994
 5838SOL     OW18412   3.283   1.957   0.750
 5838SOL    HW118413   3.321   1.886   0.690
 5838SOL    HW218414   3.347   1.976   0.824
 5839SOL     OW18415   1.828   1.967   0.669
 5839SOL    HW118416   1.745   1.937   0.717
 5839SOL    HW218417   1.907   1.956   0.728
 5840SOL     OW18418   1.346   3.018   3.102
 5840SOL    HW118419   1.277   2.950   3.125
 5840SOL    HW218420   1.340   3.040   3.005
 5841SOL     OW18421   4.913   2.584   0.547
 5841SOL    HW118422   4.932   2.503   0.492
 5841SOL    HW218423   4.871   2.558   0.634
 5842SOL     OW18424   2.787   1.389   0.697
 5842SOL    HW118425   2.802   1.476   0.652
 5842SOL    HW218426   2.734   1.328   0.637
 5843SOL     OW18427   2.017   3.456   1.282
 5843SOL    HW118428   2.016   3.364   1.242
 5843SOL    HW218429   1.988   3.452   1.377
 5844SOL     OW18430   1.082   0.356   5.013
 5844SOL    HW118431   1.102   0.429   5.078
 5844SOL    HW218432   0.994   0.314   5.035
 5845SOL     OW18433   1.276   6.671   1.560
 5845SOL    HW118434   1.189   6.624   1.571
 5845SOL    HW218435   1.310   6.658   1.467
 5846SOL     OW18436   6.530   4.026   5.773
 5846SOL    HW118437   6.486   4.024   5.683
 5846SOL    HW218438   6.461   4.009   5.844
 5847SOL     OW18439   2.506   3.616   0.796
 5847SOL    HW118440   2.479   3.520   0.804
 5847SOL    HW218441   2.441   3.673   0.847
 5848SOL     OW18442   2.101   4.983   2.527
 5848SOL    HW118443   2.149   4.925   2.592
 5848SOL    HW218444   2.167   5.038   2.475
 5849SOL     OW18445   3.268   5.619   5.635
 5849SOL    HW118446   3.349   5.564   5.616
 5849SOL    HW218447   3.293   5.715   5.644
 5850SOL     OW18448   1.359   1.545   2.010
 5850SOL    HW118449   1.265   1.528   1.981
 5850SOL    HW218450   1.359   1.587   2.101
 5851SOL     OW18451   6.230   4.021   4.947
 5851SOL    HW118452   6.223   3.955   4.873
 5851SOL    HW218453   6.188   4.107   4.919
 5852SOL     OW18454   5.016   4.574   2.739
 5852SOL    HW118455   4.926   4.605   2.709
 5852SOL    HW218456   5.007   4.495   2.799
 5853SOL     OW18457   3.419   4.497   5.310
 5853SOL    HW118458   3.470   4.547   5.379
 5853SOL    HW218459   3.472   4.417   5.280
 5854SOL     OW18460   2.908   4.823   5.781
 5854SOL    HW118461   2.889   4.878   5.862
 5854SOL    HW218462   2.841   4.845   5.709
 5855SOL     OW18463   2.124   3.279   3.749
 5855SOL    HW118464   2.149   3.186   3.773
 5855SOL    HW218465   2.024   3.289   3.753
 5856SOL     OW18466   1.450   6.837   3.358
 5856SOL    HW118467   1.368   6.810   3.407
 5856SOL    HW218468   1.531   6.812   3.412
 5857SOL     OW18469   6.576   4.339   6.030
 5857SOL    HW118470   6.643   4.265   6.025
 5857SOL    HW218471   6.534   4.339   6.121
 5858SOL     OW18472   1.979   0.537   3.406
 5858SOL    HW118473   1.973   0.598   3.327
 5858SOL    HW218474   1.895   0.482   3.412
 5859SOL     OW18475   5.994   0.387   2.574
 5859SOL    HW118476   5.899   0.409   2.549
 5859SOL    HW218477   6.052   0.466   2.555
 5860SOL     OW18478   7.012   2.838   3.499
 5860SOL    HW118479   6.988   2.774   3.572
 5860SOL    HW218480   0.071   2.806   3.452
 5861SOL     OW18481   4.889   0.551   5.295
 5861SOL    HW118482   4.815   0.611   5.265
 5861SOL    HW218483   4.977   0.590   5.266
 5862SOL     OW18484   6.739   5.335   3.120
 5862SOL    HW118485   6.734   5.242   3.156
 5862SOL    HW218486   6.646   5.370   3.106
 5863SOL     OW18487   3.947   0.608   5.711
 5863SOL    HW118488   3.868   0.581   5.766
 5863SOL    HW218489   3.915   0.654   5.628
 5864SOL     OW18490   3.098   3.905   2.697
 5864SOL    HW118491   3.017   3.847   2.707
 5864SOL    HW218492   3.113   3.926   2.601
 5865SOL     OW18493   6.153   0.737   5.830
 5865SOL    HW118494   6.235   0.729   5.886
 5865SOL    HW218495   6.073   0.747   5.888
 5866SOL     OW18496   3.466   2.823   2.879
 5866SOL    HW118497   3.469   2.728   2.847
 5866SOL    HW218498   3.377   2.862   2.857
 5867SOL     OW18499   3.262   1.594   1.890
 5867SOL    HW118500   3.190   1.661   1.906
 5867SOL    HW218501   3.242   1.510   1.938
 5868SOL     OW18502   1.393   1.000   6.633
 5868SOL    HW118503   1.371   1.097   6.623
 5868SOL    HW218504   1.476   0.990   6.688
 5869SOL     OW18505   1.139   5.556   4.270
 5869SOL    HW118506   1.202   5.630   4.247
 5869SOL    HW218507   1.186   5.489   4.328
 5870SOL     OW18508   4.445   4.573   4.577
 5870SOL    HW118509   4.386   4.624   4.638
 5870SOL    HW218510   4.501   4.509   4.630
 5871SOL     OW18511   3.185   3.464   3.864
 5871SOL    HW118512   3.253   3.423   3.804
 5871SOL    HW218513   3.108   3.401   3.875
 5872SOL     OW18514   4.013   5.579   2.110
 5872SOL    HW118515   4.041   5.575   2.206
 5872SOL    HW218516   4.072   5.520   2.055
 5873SOL     OW18517   3.786   5.101   2.202
 5873SOL    HW118518   3.736   5.081   2.286
 5873SOL    HW218519   3.793   5.019   2.146
 5874SOL     OW18520   2.802   4.409   5.593
 5874SOL    HW118521   2.784   4.370   5.502
 5874SOL    HW218522   2.844   4.499   5.583
 5875SOL     OW18523   2.780   1.133   0.802
 5875SOL    HW118524   2.843   1.063   0.836
 5875SOL    HW218525   2.828   1.193   0.739
 5876SOL     OW18526   3.712   3.402   1.733
 5876SOL    HW118527   3.779   3.427   1.664
 5876SOL    HW218528   3.645   3.476   1.745
 5877SOL     OW18529   5.588   4.543   0.450
 5877SOL    HW118530   5.688   4.544   0.444
 5877SOL    HW218531   5.561   4.520   0.543
 5878SOL     OW18532   2.670   4.852   2.356
 5878SOL    HW118533   2.671   4.775   2.292
 5878SOL    HW218534   2.681   4.818   2.449
 5879SOL     OW18535   6.812   4.129   6.101
 5879SOL    HW118536   6.858   4.047   6.136
 5879SOL    HW218537   6.880   4.188   6.056
 5880SOL     OW18538   2.277   6.100   1.178
 5880SOL    HW118539   2.256   6.185   1.227
 5880SOL    HW218540   2.191   6.054   1.154
 5881SOL     OW18541   0.231   5.403   4.241
 5881SOL    HW118542   0.296   5.349   4.294
 5881SOL    HW218543   0.214   5.490   4.289
 5882SOL     OW18544   4.756   0.467   1.542
 5882SOL    HW118545   4.698   0.386   1.555
 5882SOL    HW218546   4.708   0.533   1.485
 5883SOL     OW18547   6.910   3.244   5.957
 5883SOL    HW118548   6.908   3.273   5.861
 5883SOL    HW218549   7.003   3.256   5.992
 5884SOL     OW18550   0.874   1.337   3.178
 5884SOL    HW118551   0.964   1.380   3.172
 5884SOL    HW218552   0.815   1.372   3.105
 5885SOL     OW18553   6.810   5.994   1.079
 5885SOL    HW118554   6.834   5.927   1.009
 5885SOL    HW218555   6.717   5.977   1.112
 5886SOL     OW18556   1.127   1.963   5.647
 5886SOL    HW118557   1.200   1.915   5.597
 5886SOL    HW218558   1.160   1.986   5.739
 5887SOL     OW18559   3.307   0.724   4.412
 5887SOL    HW118560   3.250   0.731   4.330
 5887SOL    HW218561   3.403   0.717   4.385
 5888SOL     OW18562   2.223   6.999   3.056
 5888SOL    HW118563   2.202   6.967   2.964
 5888SOL    HW218564   2.169   6.948   3.122
 5889SOL     OW18565   2.710   0.310   0.839
 5889SOL    HW118566   2.758   0.229   0.872
 5889SOL    HW218567   2.624   0.321   0.889
 5890SOL     OW18568   2.838   5.114   5.617
 5890SOL    HW118569   2.825   5.017   5.594
 5890SOL    HW218570   2.776   5.170   5.563
 5891SOL     OW18571   3.528   3.332   0.504
 5891SOL    HW118572   3.476   3.417   0.518
 5891SOL    HW218573   3.553   3.294   0.593
 5892SOL     OW18574   0.330   6.309   1.660
 5892SOL    HW118575   0.376   6.277   1.577
 5892SOL    HW218576   0.352   6.248   1.736
 5893SOL     OW18577   1.056   1.414   4.276
 5893SOL    HW118578   1.063   1.324   4.234
 5893SOL    HW218579   0.996   1.410   4.355
 5894SOL     OW18580   1.418   3.353   2.957
 5894SOL    HW118581   1.379   3.316   3.041
 5894SOL    HW218582   1.518   3.344   2.959
 5895SOL     OW18583   5.540   3.689   3.871
 5895SOL    HW118584   5.615   3.713   3.809
 5895SOL    HW218585   5.461   3.659   3.817
 5896SOL     OW18586   3.629   2.127   0.016
 5896SOL    HW118587   3.621   2.073   6.956
 5896SOL    HW218588   3.629   2.066   0.096
 5897SOL     OW18589   3.846   6.812   1.142
 5897SOL    HW118590   3.807   6.873   1.073
 5897SOL    HW218591   3.788   6.811   1.223
 5898SOL     OW18592   1.788   0.356   2.189
 5898SOL    HW118593   1.827   0.319   2.273
 5898SOL    HW218594   1.764   0.281   2.127
 5899SOL     OW18595   6.037   6.554   4.788
 5899SOL    HW118596   5.949   6.509   4.804
 5899SOL    HW218597   6.104   6.485   4.759
 5900SOL     OW18598   4.659   4.684   2.995
 5900SOL    HW118599   4.713   4.738   2.931
 5900SOL    HW218600   4.710   4.671   3.080
 5901SOL     OW18601   2.798   6.734   6.136
 5901SOL    HW118602   2.817   6.737   6.038
 5901SOL    HW218603   2.699   6.741   6.150
 5902SOL     OW18604   6.654   2.359   6.959
 5902SOL    HW118605   6.635   2.345   6.862
 5902SOL    HW218606   6.575   2.403   7.002
 5903SOL     OW18607   5.961   3.623   6.805
 5903SOL    HW118608   6.039   3.591   6.858
 5903SOL    HW218609   5.958   3.723   6.808
 5904SOL     OW18610   0.109   3.519   2.258
 5904SOL    HW118611   0.124   3.489   2.353
 5904SOL    HW218612   0.012   3.543   2.246
 5905SOL     OW18613   0.081   6.307   2.345
 5905SOL    HW118614   0.119   6.381   2.400
 5905SOL    HW218615   0.032   6.346   2.266
 5906SOL     OW18616   5.449   1.296   3.873
 5906SOL    HW118617   5.485   1.329   3.960
 5906SOL    HW218618   5.429   1.198   3.881
 5907SOL     OW18619   0.708   6.103   1.848
 5907SOL    HW118620   0.635   6.099   1.916
 5907SOL    HW218621   0.738   6.010   1.825
 5908SOL     OW18622   0.312   3.049   5.355
 5908SOL    HW118623   0.235   3.111   5.369
 5908SOL    HW218624   0.391   3.101   5.324
 5909SOL     OW18625   0.493   6.081   0.909
 5909SOL    HW118626   0.471   6.046   0.818
 5909SOL    HW218627   0.532   6.008   0.965
 5910SOL     OW18628   2.241   2.779   3.537
 5910SOL    HW118629   2.282   2.780   3.446
 5910SOL    HW218630   2.176   2.703   3.543
 5911SOL     OW18631   6.695   5.702   6.367
 5911SOL    HW118632   6.677   5.689   6.270
 5911SOL    HW218633   6.645   5.634   6.420
 5912SOL     OW18634   6.172   1.499   4.347
 5912SOL    HW118635   6.174   1.575   4.413
 5912SOL    HW218636   6.131   1.530   4.261
 5913SOL     OW18637   5.647   2.266   0.385
 5913SOL    HW118638   5.564   2.237   0.338
 5913SOL    HW218639   5.719   2.285   0.319
 5914SOL     OW18640   0.518   6.069   6.573
 5914SOL    HW118641   0.430   6.076   6.526
 5914SOL    HW218642   0.554   6.161   6.590
 5915SOL     OW18643   4.099   0.478   6.369
 5915SOL    HW118644   4.058   0.393   6.338
 5915SOL    HW218645   4.177   0.501   6.310
 5916SOL     OW18646   1.571   6.677   2.518
 5916SOL    HW118647   1.569   6.591   2.569
 5916SOL    HW218648   1.479   6.715   2.514
 5917SOL     OW18649   2.871   4.121   6.648
 5917SOL    HW118650   2.952   4.138   6.704
 5917SOL    HW218651   2.833   4.032   6.671
 5918SOL     OW18652   3.251   6.920   6.250
 5918SOL    HW118653   3.309   6.866   6.188
 5918SOL    HW218654   3.242   7.013   6.215
 5919SOL     OW18655   3.475   2.904   3.139
 5919SOL    HW118656   3.456   2.904   3.040
 5919SOL    HW218657   3.572   2.925   3.153
 5920SOL     OW18658   6.662   0.200   5.634
 5920SOL    HW118659   6.711   0.114   5.622
 5920SOL    HW218660   6.726   0.272   5.659
 5921SOL     OW18661   3.367   4.701   6.890
 5921SOL    HW118662   3.275   4.669   6.909
 5921SOL    HW218663   3.427   4.677   6.966
 5922SOL     OW18664   5.866   3.576   2.937
 5922SOL    HW118665   5.814   3.511   2.993
 5922SOL    HW218666   5.870   3.543   2.843
 5923SOL     OW18667   6.782   1.163   1.230
 5923SOL    HW118668   6.754   1.128   1.320
 5923SOL    HW218669   6.720   1.238   1.204
 5924SOL     OW18670   6.415   0.292   3.219
 5924SOL    HW118671   6.388   0.264   3.127
 5924SOL    HW218672   6.506   0.256   3.239
 5925SOL     OW18673   4.854   5.564   0.992
 5925SOL    HW118674   4.931   5.564   0.928
 5925SOL    HW218675   4.850   5.476   1.039
 5926SOL     OW18676   4.198   4.987   2.666
 5926SOL    HW118677   4.219   4.892   2.641
 5926SOL    HW218678   4.132   4.988   2.741
 5927SOL     OW18679   0.782   4.034   1.862
 5927SOL    HW118680   0.821   3.947   1.829
 5927SOL    HW218681   0.685   4.022   1.881
 5928SOL     OW18682   3.582   0.557   0.727
 5928SOL    HW118683   3.634   0.622   0.782
 5928SOL    HW218684   3.638   0.476   0.709
 5929SOL     OW18685   0.094   1.399   5.556
 5929SOL    HW118686   0.089   1.496   5.534
 5929SOL    HW218687   0.173   1.381   5.615
 5930SOL     OW18688   1.392   3.628   2.080
 5930SOL    HW118689   1.312   3.677   2.113
 5930SOL    HW218690   1.402   3.643   1.982
 5931SOL     OW18691   5.655   6.099   2.961
 5931SOL    HW118692   5.637   6.015   3.012
 5931SOL    HW218693   5.739   6.141   2.995
 5932SOL     OW18694   3.038   0.788   6.174
 5932SOL    HW118695   3.113   0.843   6.212
 5932SOL    HW218696   3.005   0.725   6.244
 5933SOL     OW18697   6.818   5.740   3.930
 5933SOL    HW118698   6.739   5.685   3.901
 5933SOL    HW218699   6.807   5.763   4.027
 5934SOL     OW18700   3.256   3.831   5.520
 5934SOL    HW118701   3.301   3.747   5.551
 5934SOL    HW218702   3.178   3.851   5.581
 5935SOL     OW18703   6.997   6.783   4.962
 5935SOL    HW118704   6.998   6.872   4.916
 5935SOL    HW218705   6.906   6.742   4.953
 5936SOL     OW18706   2.942   3.273   2.745
 5936SOL    HW118707   2.919   3.218   2.665
 5936SOL    HW218708   2.975   3.214   2.818
 5937SOL     OW18709   6.868   2.779   1.289
 5937SOL    HW118710   6.936   2.759   1.219
 5937SOL    HW218711   6.782   2.734   1.266
 5938SOL     OW18712   6.606   4.796   5.164
 5938SOL    HW118713   6.673   4.748   5.220
 5938SOL    HW218714   6.638   4.889   5.145
 5939SOL     OW18715   3.845   6.999   4.345
 5939SOL    HW118716   3.865   0.042   4.273
 5939SOL    HW218717   3.868   0.015   4.434
 5940SOL     OW18718   4.903   5.552   2.341
 5940SOL    HW118719   4.909   5.455   2.363
 5940SOL    HW218720   4.932   5.606   2.420
 5941SOL     OW18721   6.887   1.997   1.848
 5941SOL    HW118722   6.867   2.069   1.782
 5941SOL    HW218723   6.843   2.018   1.935
 5942SOL     OW18724   6.182   3.680   6.095
 5942SOL    HW118725   6.084   3.689   6.112
 5942SOL    HW218726   6.233   3.725   6.168
 5943SOL     OW18727   3.888   4.064   0.627
 5943SOL    HW118728   3.883   3.998   0.702
 5943SOL    HW218729   3.966   4.042   0.568
 5944SOL     OW18730   0.559   3.838   6.816
 5944SOL    HW118731   0.656   3.838   6.794
 5944SOL    HW218732   0.546   3.797   6.907
 5945SOL     OW18733   0.135   5.834   5.409
 5945SOL    HW118734   0.230   5.806   5.416
 5945SOL    HW218735   0.087   5.775   5.344
 5946SOL     OW18736   3.862   4.643   0.019
 5946SOL    HW118737   3.928   4.695   6.987
 5946SOL    HW218738   3.896   4.637   0.113
 5947SOL     OW18739   3.323   2.900   4.373
 5947SOL    HW118740   3.352   2.933   4.463
 5947SOL    HW218741   3.231   2.934   4.354
 5948SOL     OW18742   4.980   3.946   2.322
 5948SOL    HW118743   5.079   3.953   2.310
 5948SOL    HW218744   4.936   3.931   2.233
 5949SOL     OW18745   6.400   5.561   1.700
 5949SOL    HW118746   6.373   5.572   1.605
 5949SOL    HW218747   6.320   5.572   1.759
 5950SOL     OW18748   5.128   1.635   6.046
 5950SOL    HW118749   5.153   1.729   6.022
 5950SOL    HW218750   5.033   1.632   6.077
 5951SOL     OW18751   1.077   4.663   6.017
 5951SOL    HW118752   1.072   4.644   5.919
 5951SOL    HW218753   1.068   4.761   6.033
 5952SOL     OW18754   4.219   5.234   1.670
 5952SOL    HW118755   4.122   5.258   1.673
 5952SOL    HW218756   4.241   5.197   1.580
 5953SOL     OW18757   6.057   2.453   5.438
 5953SOL    HW118758   6.067   2.374   5.377
 5953SOL    HW218759   6.009   2.526   5.390
 5954SOL     OW18760   0.585   6.193   4.503
 5954SOL    HW118761   0.641   6.248   4.566
 5954SOL    HW218762   0.598   6.096   4.523
 5955SOL     OW18763   5.710   4.103   0.946
 5955SOL    HW118764   5.734   4.183   1.000
 5955SOL    HW218765   5.792   4.066   0.902
 5956SOL     OW18766   5.118   2.683   4.720
 5956SOL    HW118767   5.035   2.732   4.693
 5956SOL    HW218768   5.095   2.613   4.787
 5957SOL     OW18769   1.396   0.878   2.419
 5957SOL    HW118770   1.495   0.877   2.402
 5957SOL    HW218771   1.373   0.963   2.467
 5958SOL     OW18772   3.686   6.693   2.656
 5958SOL    HW118773   3.588   6.697   2.677
 5958SOL    HW218774   3.733   6.767   2.703
 5959SOL     OW18775   4.655   2.269   5.033
 5959SOL    HW118776   4.647   2.338   5.104
 5959SOL    HW218777   4.597   2.190   5.056
 5960SOL     OW18778   3.593   0.007   6.652
 5960SOL    HW118779   3.637   6.950   6.613
 5960SOL    HW218780   3.494   7.023   6.640
 5961SOL     OW18781   3.156   1.948   2.901
 5961SOL    HW118782   3.145   2.046   2.881
 5961SOL    HW218783   3.215   1.907   2.832
 5962SOL     OW18784   5.358   6.175   0.014
 5962SOL    HW118785   5.437   6.204   6.982
 5962SOL    HW218786   5.375   6.199   0.110
 5963SOL     OW18787   3.581   4.924   0.353
 5963SOL    HW118788   3.508   4.859   0.370
 5963SOL    HW218789   3.570   4.964   0.262
 5964SOL     OW18790   1.931   6.463   2.398
 5964SOL    HW118791   1.895   6.515   2.476
 5964SOL    HW218792   2.028   6.447   2.411
 5965SOL     OW18793   2.118   6.497   6.974
 5965SOL    HW118794   2.021   6.480   6.957
 5965SOL    HW218795   2.145   6.455   0.037
 5966SOL     OW18796   2.411   0.797   5.369
 5966SOL    HW118797   2.338   0.804   5.301
 5966SOL    HW218798   2.392   0.861   5.444
 5967SOL     OW18799   2.443   1.749   4.733
 5967SOL    HW118800   2.522   1.720   4.678
 5967SOL    HW218801   2.448   1.847   4.748
 5968SOL     OW18802   5.618   2.292   0.659
 5968SOL    HW118803   5.599   2.266   0.564
 5968SOL    HW218804   5.700   2.349   0.661
 5969SOL     OW18805   5.705   0.572   6.699
 5969SOL    HW118806   5.728   0.652   6.643
 5969SOL    HW218807   5.656   0.506   6.642
 5970SOL     OW18808   0.812   2.830   0.636
 5970SOL    HW118809   0.750   2.753   0.621
 5970SOL    HW218810   0.901   2.809   0.596
 5971SOL     OW18811   6.821   0.193   3.615
 5971SOL    HW118812   6.776   0.281   3.603
 5971SOL    HW218813   6.753   0.120   3.614
 5972SOL     OW18814   5.195   5.171   0.378
 5972SOL    HW118815   5.260   5.132   0.313
 5972SOL    HW218816   5.101   5.152   0.348
 5973SOL     OW18817   1.686   3.276   2.714
 5973SOL    HW118818   1.703   3.293   2.811
 5973SOL    HW218819   1.752   3.328   2.659
 5974SOL     OW18820   4.374   0.788   6.307
 5974SOL    HW118821   4.361   0.695   6.273
 5974SOL    HW218822   4.284   0.830   6.321
 5975SOL     OW18823   5.964   4.399   0.188
 5975SOL    HW118824   6.053   4.375   0.148
 5975SOL    HW218825   5.916   4.315   0.213
 5976SOL     OW18826   3.445   3.724   5.903
 5976SOL    HW118827   3.541   3.699   5.909
 5976SOL    HW218828   3.398   3.698   5.988
 5977SOL     OW18829   0.133   5.332   0.399
 5977SOL    HW118830   0.205   5.390   0.360
 5977SOL    HW218831   0.107   5.262   0.332
 5978SOL     OW18832   3.428   5.639   0.033
 5978SOL    HW118833   3.417   5.620   6.959
 5978SOL    HW218834   3.433   5.738   0.048
 5979SOL     OW18835   6.489   0.414   1.653
 5979SOL    HW118836   6.573   0.360   1.664
 5979SOL    HW218837   6.410   0.353   1.658
 5980SOL     OW18838   3.756   3.262   1.468
 5980SOL    HW118839   3.844   3.286   1.426
 5980SOL    HW218840   3.766   3.176   1.518
 5981SOL     OW18841   4.283   2.321   0.432
 5981SOL    HW118842   4.220   2.397   0.449
 5981SOL    HW218843   4.264   2.282   0.341
 5982SOL     OW18844   6.208   2.086   2.159
 5982SOL    HW118845   6.250   1.999   2.186
 5982SOL    HW218846   6.114   2.089   2.195
 5983SOL     OW18847   6.876   0.665   4.786
 5983SOL    HW118848   6.839   0.695   4.874
 5983SOL    HW218849   6.861   0.736   4.717
 5984SOL     OW18850   6.486   6.494   2.688
 5984SOL    HW118851   6.575   6.488   2.644
 5984SOL    HW218852   6.426   6.422   2.653
 5985SOL     OW18853   6.046   2.258   2.856
 5985SOL    HW118854   6.088   2.188   2.799
 5985SOL    HW218855   6.107   2.280   2.933
 5986SOL     OW18856   4.340   3.781   5.357
 5986SOL    HW118857   4.355   3.878   5.374
 5986SOL    HW218858   4.276   3.770   5.280
 5987SOL     OW18859   6.250   1.202   5.041
 5987SOL    HW118860   6.194   1.235   4.964
 5987SOL    HW218861   6.255   1.273   5.111
 5988SOL     OW18862   2.811   1.971   0.108
 5988SOL    HW118863   2.819   1.900   0.038
 5988SOL    HW218864   2.775   2.055   0.067
 5989SOL     OW18865   0.517   5.984   6.834
 5989SOL    HW118866   0.527   6.007   6.737
 5989SOL    HW218867   0.447   6.043   6.875
 5990SOL     OW18868   3.719   4.390   1.685
 5990SOL    HW118869   3.643   4.346   1.639
 5990SOL    HW218870   3.689   4.479   1.721
 5991SOL     OW18871   5.470   5.872   0.733
 5991SOL    HW118872   5.515   5.862   0.822
 5991SOL    HW218873   5.378   5.833   0.738
 5992SOL     OW18874   3.395   0.098   1.882
 5992SOL    HW118875   3.338   0.179   1.870
 5992SOL    HW218876   3.352   0.020   1.837
 5993SOL     OW18877   6.214   2.475   0.568
 5993SOL    HW118878   6.150   2.409   0.608
 5993SOL    HW218879   6.179   2.506   0.480
 5994SOL     OW18880   6.840   2.923   0.874
 5994SOL    HW118881   6.745   2.917   0.845
 5994SOL    HW218882   6.884   3.000   0.826
 5995SOL     OW18883   5.012   3.564   1.638
 5995SOL    HW118884   4.975   3.611   1.558
 5995SOL    HW218885   5.108   3.540   1.621
 5996SOL     OW18886   2.919   5.912   1.289
 5996SOL    HW118887   2.976   5.833   1.313
 5996SOL    HW218888   2.853   5.886   1.219
 5997SOL     OW18889   6.682   6.926   3.302
 5997SOL    HW118890   6.632   6.952   3.219
 5997SOL    HW218891   6.626   6.863   3.355
 5998SOL     OW18892   6.880   0.836   1.709
 5998SOL    HW118893   6.923   0.818   1.797
 5998SOL    HW218894   6.806   0.770   1.694
 5999SOL     OW18895   3.813   3.860   0.799
 5999SOL    HW118896   3.900   3.817   0.773
 5999SOL    HW218897   3.742   3.790   0.805
 6000SOL     OW18898   6.915   5.149   0.097
 6000SOL    HW118899   6.948   5.075   0.155
 6000SOL    HW218900   6.992   5.204   0.066
 6001SOL     OW18901   5.279   6.089   5.161
 6001SOL    HW118902   5.309   6.103   5.067
 6001SOL    HW218903   5.191   6.134   5.175
 6002SOL     OW18904   6.517   6.642   4.745
 6002SOL    HW118905   6.540   6.601   4.656
 6002SOL    HW218906   6.601   6.660   4.796
 6003SOL     OW18907   6.448   2.958   4.401
 6003SOL    HW118908   6.380   2.885   4.398
 6003SOL    HW218909   6.512   2.947   4.325
 6004SOL     OW18910   4.931   2.417   3.681
 6004SOL    HW118911   4.936   2.317   3.678
 6004SOL    HW218912   5.022   2.456   3.666
 6005SOL     OW18913   4.178   4.417   5.825
 6005SOL    HW118914   4.094   4.456   5.787
 6005SOL    HW218915   4.257   4.461   5.783
 6006SOL     OW18916   3.805   6.643   5.727
 6006SOL    HW118917   3.711   6.626   5.758
 6006SOL    HW218918   3.820   6.742   5.720
 6007SOL     OW18919   1.025   4.579   5.754
 6007SOL    HW118920   1.060   4.666   5.721
 6007SOL    HW218921   1.081   4.504   5.716
 6008SOL     OW18922   2.017   4.758   5.448
 6008SOL    HW118923   2.045   4.850   5.418
 6008SOL    HW218924   2.036   4.692   5.375
 6009SOL     OW18925   3.869   5.245   3.086
 6009SOL    HW118926   3.823   5.156   3.088
 6009SOL    HW218927   3.906   5.261   2.994
 6010SOL     OW18928   6.784   4.253   4.694
 6010SOL    HW118929   6.800   4.220   4.602
 6010SOL    HW218930   6.763   4.176   4.755
 6011SOL     OW18931   5.812   1.579   2.437
 6011SOL    HW118932   5.757   1.660   2.459
 6011SOL    HW218933   5.775   1.536   2.355
 6012SOL     OW18934   6.656   0.620   6.281
 6012SOL    HW118935   6.559   0.642   6.271
 6012SOL    HW218936   6.682   0.554   6.211
 6013SOL     OW18937   5.354   1.340   2.711
 6013SOL    HW118938   5.387   1.251   2.680
 6013SOL    HW218939   5.431   1.394   2.746
 6014SOL     OW18940   3.469   3.015   4.175
 6014SOL    HW118941   3.505   3.087   4.236
 6014SOL    HW218942   3.431   2.941   4.231
 6015SOL     OW18943   6.312   2.186   4.718
 6015SOL    HW118944   6.284   2.159   4.810
 6015SOL    HW218945   6.401   2.146   4.696
 6016SOL     OW18946   4.856   1.580   4.841
 6016SOL    HW118947   4.890   1.591   4.748
 6016SOL    HW218948   4.757   1.569   4.840
 6017SOL     OW18949   6.595   3.047   5.097
 6017SOL    HW118950   6.676   2.992   5.077
 6017SOL    HW218951   6.585   3.119   5.029
 6018SOL     OW18952   3.258   1.558   5.684
 6018SOL    HW118953   3.339   1.581   5.738
 6018SOL    HW218954   3.260   1.461   5.660
 6019SOL     OW18955   0.631   3.883   6.504
 6019SOL    HW118956   0.556   3.837   6.552
 6019SOL    HW218957   0.716   3.870   6.553
 6020SOL     OW18958   1.210   5.097   0.387
 6020SOL    HW118959   1.254   5.145   0.310
 6020SOL    HW218960   1.111   5.106   0.379
 6021SOL     OW18961   3.828   0.717   2.828
 6021SOL    HW118962   3.890   0.766   2.767
 6021SOL    HW218963   3.844   0.748   2.922
 6022SOL     OW18964   6.770   1.559   2.845
 6022SOL    HW118965   6.683   1.511   2.835
 6022SOL    HW218966   6.776   1.599   2.937
 6023SOL     OW18967   4.780   0.966   0.980
 6023SOL    HW118968   4.715   0.924   0.916
 6023SOL    HW218969   4.864   0.912   0.982
 6024SOL     OW18970   0.843   4.729   0.758
 6024SOL    HW118971   0.846   4.818   0.804
 6024SOL    HW218972   0.902   4.730   0.678
 6025SOL     OW18973   2.335   1.090   4.223
 6025SOL    HW118974   2.385   1.064   4.306
 6025SOL    HW218975   2.294   1.180   4.236
 6026SOL     OW18976   6.281   4.366   4.117
 6026SOL    HW118977   6.359   4.304   4.128
 6026SOL    HW218978   6.313   4.454   4.082
 6027SOL     OW18979   5.753   3.397   5.847
 6027SOL    HW118980   5.664   3.353   5.847
 6027SOL    HW218981   5.741   3.496   5.856
 6028SOL     OW18982   5.548   4.836   6.864
 6028SOL    HW118983   5.556   4.794   6.954
 6028SOL    HW218984   5.619   4.904   6.852
 6029SOL     OW18985   2.664   0.655   3.388
 6029SOL    HW118986   2.715   0.740   3.400
 6029SOL    HW218987   2.620   0.655   3.298
 6030SOL     OW18988   4.905   3.574   4.729
 6030SOL    HW118989   4.840   3.631   4.678
 6030SOL    HW218990   4.897   3.594   4.827
 6031SOL     OW18991   0.627   5.943   4.586
 6031SOL    HW118992   0.559   5.899   4.528
 6031SOL    HW218993   0.676   5.873   4.638
 6032SOL     OW18994   3.003   6.623   3.705
 6032SOL    HW118995   3.009   6.536   3.754
 6032SOL    HW218996   3.057   6.692   3.754
 6033SOL     OW18997   1.669   2.255   2.534
 6033SOL    HW118998   1.653   2.161   2.506
 6033SOL    HW218999   1.753   2.288   2.491
 6034SOL     OW19000   1.481   0.349   0.046
 6034SOL    HW119001   1.432   0.265   0.025
 6034SOL    HW219002   1.525   0.384   6.986
 6035SOL     OW19003   1.083   1.181   2.915
 6035SOL    HW119004   1.068   1.119   2.839
 6035SOL    HW219005   1.101   1.128   2.998
 6036SOL     OW19006   5.890   3.892   0.759
 6036SOL    HW119007   5.970   3.890   0.820
 6036SOL    HW219008   5.890   3.810   0.701
 6037SOL     OW19009   4.327   1.710   0.907
 6037SOL    HW119010   4.242   1.659   0.915
 6037SOL    HW219011   4.346   1.757   0.994
 6038SOL     OW19012   0.827   2.091   6.096
 6038SOL    HW119013   0.884   2.145   6.034
 6038SOL    HW219014   0.844   1.994   6.080
 6039SOL     OW19015   3.498   4.039   3.803
 6039SOL    HW119016   3.548   3.964   3.758
 6039SOL    HW219017   3.426   4.072   3.741
 6040SOL     OW19018   1.248   1.737   6.908
 6040SOL    HW119019   1.234   1.638   6.914
 6040SOL    HW219020   1.292   1.769   6.991
 6041SOL     OW19021   3.442   2.297   5.789
 6041SOL    HW119022   3.369   2.362   5.805
 6041SOL    HW219023   3.412   2.228   5.723
 6042SOL     OW19024   3.194   6.092   3.890
 6042SOL    HW119025   3.209   6.185   3.923
 6042SOL    HW219026   3.264   6.031   3.926
 6043SOL     OW19027   1.680   0.811   3.818
 6043SOL    HW119028   1.779   0.799   3.809
 6043SOL    HW219029   1.660   0.907   3.837
 6044SOL     OW19030   2.143   2.209   1.533
 6044SOL    HW119031   2.116   2.293   1.486
 6044SOL    HW219032   2.129   2.130   1.473
 6045SOL     OW19033   5.508   2.861   3.437
 6045SOL    HW119034   5.503   2.878   3.338
 6045SOL    HW219035   5.468   2.772   3.457
 6046SOL     OW19036   3.733   2.590   1.766
 6046SOL    HW119037   3.831   2.611   1.764
 6046SOL    HW219038   3.718   2.501   1.810
 6047SOL     OW19039   5.939   1.655   0.620
 6047SOL    HW119040   6.016   1.674   0.680
 6047SOL    HW219041   5.954   1.699   0.531
 6048SOL     OW19042   5.542   5.586   4.722
 6048SOL    HW119043   5.508   5.578   4.815
 6048SOL    HW219044   5.603   5.509   4.702
 6049SOL     OW19045   5.178   4.635   5.405
 6049SOL    HW119046   5.164   4.624   5.503
 6049SOL    HW219047   5.095   4.611   5.356
 6050SOL     OW19048   3.185   5.846   1.048
 6050SOL    HW119049   3.146   5.938   1.035
 6050SOL    HW219050   3.111   5.781   1.066
 6051SOL     OW19051   0.445   1.802   2.839
 6051SOL    HW119052   0.520   1.843   2.891
 6051SOL    HW219053   0.463   1.814   2.741
 6052SOL     OW19054   5.909   6.662   0.891
 6052SOL    HW119055   5.811   6.642   0.884
 6052SOL    HW219056   5.935   6.725   0.818
 6053SOL     OW19057   4.539   1.505   5.792
 6053SOL    HW119058   4.442   1.497   5.811
 6053SOL    HW219059   4.586   1.422   5.824
 6054SOL     OW19060   3.971   5.002   0.926
 6054SOL    HW119061   3.923   4.982   1.012
 6054SOL    HW219062   4.069   5.007   0.943
 6055SOL     OW19063   3.239   5.556   6.849
 6055SOL    HW119064   3.303   5.520   6.781
 6055SOL    HW219065   3.208   5.481   6.908
 6056SOL     OW19066   5.873   4.081   4.979
 6056SOL    HW119067   5.782   4.107   5.011
 6056SOL    HW219068   5.943   4.134   5.027
 6057SOL     OW19069   5.158   0.388   3.010
 6057SOL    HW119070   5.176   0.471   3.064
 6057SOL    HW219071   5.241   0.332   3.008
 6058SOL     OW19072   5.816   2.914   0.298
 6058SOL    HW119073   5.734   2.956   0.257
 6058SOL    HW219074   5.788   2.851   0.370
 6059SOL     OW19075   5.196   4.427   5.876
 6059SOL    HW119076   5.100   4.425   5.904
 6059SOL    HW219077   5.234   4.518   5.894
 6060SOL     OW19078   2.570   3.408   6.931
 6060SOL    HW119079   2.642   3.373   6.871
 6060SOL    HW219080   2.544   3.336   6.996
 6061SOL     OW19081   4.606   4.809   0.760
 6061SOL    HW119082   4.519   4.847   0.730
 6061SOL    HW219083   4.621   4.832   0.856
 6062SOL     OW19084   2.985   2.286   0.481
 6062SOL    HW119085   2.974   2.347   0.403
 6062SOL    HW219086   2.907   2.296   0.543
 6063SOL     OW19087   3.930   4.544   5.643
 6063SOL    HW119088   3.969   4.629   5.606
 6063SOL    HW219089   3.878   4.498   5.571
 6064SOL     OW19090   0.202   0.413   0.717
 6064SOL    HW119091   0.147   0.426   0.634
 6064SOL    HW219092   0.168   0.474   0.789
 6065SOL     OW19093   0.945   5.064   2.305
 6065SOL    HW119094   0.959   4.985   2.365
 6065SOL    HW219095   0.996   5.051   2.220
 6066SOL     OW19096   4.742   0.628   3.578
 6066SOL    HW119097   4.835   0.635   3.543
 6066SOL    HW219098   4.714   0.715   3.619
 6067SOL     OW19099   5.524   6.891   5.516
 6067SOL    HW119100   5.530   6.913   5.419
 6067SOL    HW219101   5.470   6.808   5.529
 6068SOL     OW19102   5.085   1.166   5.004
 6068SOL    HW119103   5.000   1.159   5.056
 6068SOL    HW219104   5.102   1.079   4.957
 6069SOL     OW19105   0.326   2.638   5.709
 6069SOL    HW119106   0.277   2.647   5.795
 6069SOL    HW219107   0.271   2.583   5.645
 6070SOL     OW19108   3.455   1.988   1.713
 6070SOL    HW119109   3.514   1.910   1.692
 6070SOL    HW219110   3.496   2.072   1.675
 6071SOL     OW19111   6.507   6.054   4.890
 6071SOL    HW119112   6.583   6.020   4.834
 6071SOL    HW219113   6.530   6.044   4.987
 6072SOL     OW19114   0.974   2.294   0.938
 6072SOL    HW119115   0.978   2.258   1.031
 6072SOL    HW219116   0.884   2.336   0.922
 6073SOL     OW19117   4.674   2.986   0.539
 6073SOL    HW119118   4.678   2.898   0.491
 6073SOL    HW219119   4.606   3.044   0.495
 6074SOL     OW19120   1.257   6.540   2.883
 6074SOL    HW119121   1.316   6.463   2.861
 6074SOL    HW219122   1.308   6.606   2.939
 6075SOL     OW19123   4.410   6.718   6.367
 6075SOL    HW119124   4.326   6.754   6.328
 6075SOL    HW219125   4.404   6.720   6.467
 6076SOL     OW19126   2.654   4.623   3.701
 6076SOL    HW119127   2.654   4.688   3.777
 6076SOL    HW219128   2.734   4.639   3.644
 6077SOL     OW19129   6.299   6.659   1.148
 6077SOL    HW119130   6.239   6.586   1.180
 6077SOL    HW219131   6.244   6.732   1.108
 6078SOL     OW19132   4.597   3.835   0.234
 6078SOL    HW119133   4.546   3.874   0.156
 6078SOL    HW219134   4.558   3.869   0.319
 6079SOL     OW19135   4.917   4.312   6.509
 6079SOL    HW119136   4.967   4.354   6.585
 6079SOL    HW219137   4.982   4.265   6.449
 6080SOL     OW19138   1.308   4.398   1.148
 6080SOL    HW119139   1.230   4.381   1.089
 6080SOL    HW219140   1.277   4.421   1.240
 6081SOL     OW19141   0.219   3.587   5.185
 6081SOL    HW119142   0.314   3.612   5.167
 6081SOL    HW219143   0.187   3.635   5.267
 6082SOL     OW19144   4.426   0.583   1.229
 6082SOL    HW119145   4.435   0.666   1.174
 6082SOL    HW219146   4.381   0.512   1.176
 6083SOL     OW19147   5.105   6.221   0.030
 6083SOL    HW119148   5.203   6.200   0.025
 6083SOL    HW219149   5.091   6.301   0.087
 6084SOL     OW19150   0.540   6.688   2.456
 6084SOL    HW119151   0.528   6.642   2.368
 6084SOL    HW219152   0.635   6.681   2.485
 6085SOL     OW19153   6.597   6.585   0.108
 6085SOL    HW119154   6.621   6.679   0.086
 6085SOL    HW219155   6.553   6.542   0.029
 6086SOL     OW19156   3.789   3.537   6.461
 6086SOL    HW119157   3.704   3.569   6.505
 6086SOL    HW219158   3.834   3.470   6.519
 6087SOL     OW19159   4.742   6.552   0.426
 6087SOL    HW119160   4.737   6.554   0.326
 6087SOL    HW219161   4.746   6.457   0.457
 6088SOL     OW19162   5.319   6.419   4.386
 6088SOL    HW119163   5.319   6.462   4.476
 6088SOL    HW219164   5.225   6.397   4.360
 6089SOL     OW19165   6.010   2.377   1.942
 6089SOL    HW119166   5.949   2.451   1.969
 6089SOL    HW219167   6.104   2.411   1.935
 6090SOL     OW19168   3.302   5.146   4.268
 6090SOL    HW119169   3.333   5.162   4.174
 6090SOL    HW219170   3.203   5.153   4.272
 6091SOL     OW19171   2.629   0.580   1.068
 6091SOL    HW119172   2.595   0.669   1.099
 6091SOL    HW219173   2.706   0.552   1.125
 6092SOL     OW19174   4.276   6.858   1.923
 6092SOL    HW119175   4.213   6.812   1.986
 6092SOL    HW219176   4.317   6.937   1.968
 6093SOL     OW19177   2.153   1.587   2.090
 6093SOL    HW119178   2.055   1.599   2.070
 6093SOL    HW219179   2.171   1.492   2.114
 6094SOL     OW19180   0.437   6.708   4.145
 6094SOL    HW119181   0.523   6.731   4.101
 6094SOL    HW219182   0.436   6.744   4.238
 6095SOL     OW19183   4.037   6.112   0.241
 6095SOL    HW119184   4.080   6.037   0.190
 6095SOL    HW219185   4.025   6.190   0.180
 6096SOL     OW19186   5.939   6.227   2.230
 6096SOL    HW119187   5.865   6.220   2.297
 6096SOL    HW219188   5.920   6.303   2.167
 6097SOL     OW19189   1.656   5.991   2.232
 6097SOL    HW119190   1.581   5.961   2.173
 6097SOL    HW219191   1.722   6.042   2.178
 6098SOL     OW19192   6.647   0.860   4.881
 6098SOL    HW119193   6.597   0.791   4.829
 6098SOL    HW219194   6.673   0.935   4.820
 6099SOL     OW19195   5.770   5.823   5.657
 6099SOL    HW119196   5.805   5.729   5.656
 6099SOL    HW219197   5.821   5.879   5.592
 6100SOL     OW19198   0.317   5.424   3.182
 6100SOL    HW119199   0.288   5.457   3.272
 6100SOL    HW219200   0.256   5.350   3.153
 6101SOL     OW19201   6.334   2.633   1.409
 6101SOL    HW119202   6.422   2.615   1.452
 6101SOL    HW219203   6.278   2.550   1.413
 6102SOL     OW19204   4.483   6.393   2.451
 6102SOL    HW119205   4.508   6.303   2.416
 6102SOL    HW219206   4.389   6.414   2.423
 6103SOL     OW19207   6.666   1.557   1.326
 6103SOL    HW119208   6.733   1.631   1.332
 6103SOL    HW219209   6.656   1.513   1.415
 6104SOL     OW19210   6.036   1.232   4.762
 6104SOL    HW119211   6.121   1.279   4.740
 6104SOL    HW219212   6.038   1.140   4.723
 6105SOL     OW19213   2.759   5.626   6.213
 6105SOL    HW119214   2.772   5.529   6.194
 6105SOL    HW219215   2.810   5.651   6.296
 6106SOL     OW19216   0.854   3.696   0.047
 6106SOL    HW119217   0.876   3.607   0.006
 6106SOL    HW219218   0.783   3.683   0.116
 6107SOL     OW19219   4.636   4.896   4.783
 6107SOL    HW119220   4.602   4.947   4.703
 6107SOL    HW219221   4.571   4.906   4.858
 6108SOL     OW19222   1.601   1.137   2.202
 6108SOL    HW119223   1.577   1.222   2.157
 6108SOL    HW219224   1.605   1.063   2.135
 6109SOL     OW19225   5.231   0.222   3.446
 6109SOL    HW119226   5.163   0.268   3.389
 6109SOL    HW219227   5.313   0.279   3.454
 6110SOL     OW19228   0.740   1.676   5.850
 6110SOL    HW119229   0.640   1.671   5.843
 6110SOL    HW219230   0.781   1.633   5.770
 6111SOL     OW19231   1.130   3.583   1.914
 6111SOL    HW119232   1.164   3.626   1.830
 6111SOL    HW219233   1.062   3.514   1.891
 6112SOL     OW19234   3.498   0.450   2.639
 6112SOL    HW119235   3.578   0.394   2.661
 6112SOL    HW219236   3.488   0.522   2.707
 6113SOL     OW19237   2.073   4.864   6.977
 6113SOL    HW119238   2.166   4.885   7.007
 6113SOL    HW219239   2.020   4.948   6.972
 6114SOL     OW19240   5.118   1.511   1.087
 6114SOL    HW119241   5.028   1.537   1.121
 6114SOL    HW219242   5.108   1.448   1.010
 6115SOL     OW19243   1.136   1.484   5.181
 6115SOL    HW119244   1.177   1.403   5.139
 6115SOL    HW219245   1.037   1.473   5.186
 6116SOL     OW19246   3.836   2.152   5.022
 6116SOL    HW119247   3.826   2.108   4.932
 6116SOL    HW219248   3.750   2.145   5.073
 6117SOL     OW19249   0.946   1.727   2.735
 6117SOL    HW119250   0.928   1.786   2.657
 6117SOL    HW219251   0.860   1.711   2.784
 6118SOL     OW19252   6.278   1.097   0.811
 6118SOL    HW119253   6.213   1.121   0.739
 6118SOL    HW219254   6.349   1.038   0.773
 6119SOL     OW19255   0.063   2.440   0.165
 6119SOL    HW119256   0.011   2.378   0.105
 6119SOL    HW219257   0.161   2.432   0.144
 6120SOL     OW19258   2.609   6.701   5.491
 6120SOL    HW119259   2.522   6.709   5.540
 6120SOL    HW219260   2.668   6.778   5.515
 6121SOL     OW19261   0.665   3.645   5.362
 6121SOL    HW119262   0.683   3.608   5.452
 6121SOL    HW219263   0.748   3.644   5.307
 6122SOL     OW19264   4.806   5.857   5.496
 6122SOL    HW119265   4.814   5.843   5.595
 6122SOL    HW219266   4.714   5.833   5.466
 6123SOL     OW19267   5.767   1.345   5.599
 6123SOL    HW119268   5.676   1.365   5.563
 6123SOL    HW219269   5.762   1.330   5.698
 6124SOL     OW19270   2.057   0.139   4.889
 6124SOL    HW119271   2.117   0.078   4.941
 6124SOL    HW219272   1.964   0.103   4.890
 6125SOL     OW19273   2.452   3.972   0.143
 6125SOL    HW119274   2.506   3.916   0.206
 6125SOL    HW219275   2.485   3.959   0.050
 6126SOL     OW19276   0.439   2.519   5.096
 6126SOL    HW119277   0.461   2.555   5.187
 6126SOL    HW219278   0.489   2.433   5.082
 6127SOL     OW19279   4.626   1.255   1.994
 6127SOL    HW119280   4.528   1.246   1.976
 6127SOL    HW219281   4.656   1.346   1.966
 6128SOL     OW19282   5.795   5.839   0.885
 6128SOL    HW119283   5.730   5.903   0.925
 6128SOL    HW219284   5.866   5.817   0.952
 6129SOL     OW19285   1.858   4.734   3.150
 6129SOL    HW119286   1.789   4.700   3.086
 6129SOL    HW219287   1.880   4.663   3.217
 6130SOL     OW19288   5.155   2.779   1.594
 6130SOL    HW119289   5.131   2.766   1.497
 6130SOL    HW219290   5.132   2.872   1.621
 6131SOL     OW19291   0.115   2.379   2.253
 6131SOL    HW119292   0.170   2.455   2.287
 6131SOL    HW219293   0.122   2.302   2.316
 6132SOL     OW19294   3.756   1.547   6.767
 6132SOL    HW119295   3.752   1.595   6.679
 6132SOL    HW219296   3.847   1.506   6.779
 6133SOL     OW19297   1.435   2.575   3.554
 6133SOL    HW119298   1.397   2.511   3.621
 6133SOL    HW219299   1.534   2.583   3.567
 6134SOL     OW19300   5.526   5.832   5.770
 6134SOL    HW119301   5.445   5.819   5.713
 6134SOL    HW219302   5.609   5.818   5.716
 6135SOL     OW19303   6.079   0.276   0.150
 6135SOL    HW119304   6.056   0.357   0.204
 6135SOL    HW219305   5.994   0.230   0.122
 6136SOL     OW19306   1.669   2.961   1.176
 6136SOL    HW119307   1.600   2.889   1.171
 6136SOL    HW219308   1.626   3.049   1.156
 6137SOL     OW19309   0.587   4.562   3.556
 6137SOL    HW119310   0.562   4.469   3.583
 6137SOL    HW219311   0.661   4.559   3.489
 6138SOL     OW19312   3.910   0.458   2.112
 6138SOL    HW119313   3.835   0.404   2.074
 6138SOL    HW219314   3.974   0.397   2.159
 6139SOL     OW19315   0.803   6.916   5.670
 6139SOL    HW119316   0.840   6.829   5.637
 6139SOL    HW219317   0.762   6.966   5.593
 6140SOL     OW19318   1.511   0.274   3.410
 6140SOL    HW119319   1.603   0.312   3.414
 6140SOL    HW219320   1.460   0.300   3.492
 6141SOL     OW19321   0.426   0.262   5.906
 6141SOL    HW119322   0.368   0.212   5.842
 6141SOL    HW219323   0.474   0.197   5.965
 6142SOL     OW19324   0.611   1.112   0.805
 6142SOL    HW119325   0.636   1.048   0.732
 6142SOL    HW219326   0.512   1.115   0.814
 6143SOL     OW19327   6.406   4.042   6.757
 6143SOL    HW119328   6.483   3.989   6.793
 6143SOL    HW219329   6.414   4.137   6.786
 6144SOL     OW19330   4.601   4.354   2.601
 6144SOL    HW119331   4.569   4.319   2.689
 6144SOL    HW219332   4.667   4.290   2.561
 6145SOL     OW19333   5.467   4.075   4.011
 6145SOL    HW119334   5.538   4.016   4.050
 6145SOL    HW219335   5.509   4.159   3.975
 6146SOL     OW19336   3.377   0.442   4.248
 6146SOL    HW119337   3.343   0.426   4.341
 6146SOL    HW219338   3.476   0.428   4.246
 6147SOL     OW19339   1.898   3.232   4.579
 6147SOL    HW119340   1.881   3.294   4.655
 6147SOL    HW219341   1.901   3.283   4.494
 6148SOL     OW19342   4.110   4.963   0.022
 6148SOL    HW119343   4.192   4.996   6.998
 6148SOL    HW219344   4.031   5.016   7.014
 6149SOL     OW19345   2.366   0.296   2.150
 6149SOL    HW119346   2.288   0.350   2.182
 6149SOL    HW219347   2.450   0.334   2.187
 6150SOL     OW19348   6.307   4.295   6.625
 6150SOL    HW119349   6.392   4.345   6.645
 6150SOL    HW219350   6.242   4.307   6.700
 6151SOL     OW19351   5.375   4.897   4.142
 6151SOL    HW119352   5.403   4.911   4.047
 6151SOL    HW219353   5.451   4.859   4.194
 6152SOL     OW19354   1.033   5.526   4.000
 6152SOL    HW119355   1.066   5.512   4.093
 6152SOL    HW219356   1.098   5.583   3.950
 6153SOL     OW19357   4.399   5.386   0.974
 6153SOL    HW119358   4.444   5.472   0.952
 6153SOL    HW219359   4.362   5.345   0.891
 6154SOL     OW19360   4.972   3.325   2.214
 6154SOL    HW119361   5.057   3.365   2.246
 6154SOL    HW219362   4.911   3.309   2.292
 6155SOL     OW19363   2.636   1.172   3.056
 6155SOL    HW119364   2.678   1.156   3.146
 6155SOL    HW219365   2.543   1.206   3.068
 6156SOL     OW19366   5.526   3.976   1.614
 6156SOL    HW119367   5.457   4.035   1.572
 6156SOL    HW219368   5.576   4.028   1.684
 6157SOL     OW19369   0.461   2.269   3.470
 6157SOL    HW119370   0.435   2.190   3.525
 6157SOL    HW219371   0.395   2.281   3.396
 6158SOL     OW19372   3.341   2.496   6.157
 6158SOL    HW119373   3.362   2.507   6.060
 6158SOL    HW219374   3.346   2.585   6.203
 6159SOL     OW19375   5.523   2.496   6.908
 6159SOL    HW119376   5.444   2.437   6.928
 6159SOL    HW219377   5.537   2.559   6.985
 6160SOL     OW19378   0.005   0.140   6.565
 6160SOL    HW119379   0.083   0.200   6.549
 6160SOL    HW219380   7.004   0.140   6.662
 6161SOL     OW19381   4.934   2.424   6.644
 6161SOL    HW119382   5.014   2.479   6.620
 6161SOL    HW219383   4.896   2.382   6.562
 6162SOL     OW19384   6.027   6.477   2.734
 6162SOL    HW119385   6.102   6.462   2.670
 6162SOL    HW219386   6.064   6.501   2.823
 6163SOL     OW19387   4.900   6.177   2.874
 6163SOL    HW119388   4.931   6.088   2.906
 6163SOL    HW219389   4.815   6.202   2.921
 6164SOL     OW19390   3.759   4.111   4.386
 6164SOL    HW119391   3.664   4.080   4.394
 6164SOL    HW219392   3.802   4.111   4.476
 6165SOL     OW19393   3.968   2.563   0.195
 6165SOL    HW119394   3.932   2.490   0.252
 6165SOL    HW219395   3.899   2.634   0.183
 6166SOL     OW19396   0.281   2.239   6.929
 6166SOL    HW119397   0.321   2.319   6.975
 6166SOL    HW219398   0.211   2.270   6.865
 6167SOL     OW19399   1.865   4.988   3.141
 6167SOL    HW119400   1.773   5.029   3.135
 6167SOL    HW219401   1.856   4.889   3.149
 6168SOL     OW19402   6.306   2.357   3.877
 6168SOL    HW119403   6.218   2.396   3.850
 6168SOL    HW219404   6.305   2.337   3.975
 6169SOL     OW19405   1.047   0.208   6.565
 6169SOL    HW119406   1.131   0.188   6.616
 6169SOL    HW219407   0.967   0.183   6.620
 6170SOL     OW19408   3.748   4.458   6.865
 6170SOL    HW119409   3.783   4.519   6.935
 6170SOL    HW219410   3.682   4.507   6.808
 6171SOL     OW19411   0.592   4.228   2.509
 6171SOL    HW119412   0.500   4.213   2.475
 6171SOL    HW219413   0.650   4.150   2.485
 6172SOL     OW19414   0.745   0.730   2.807
 6172SOL    HW119415   0.690   0.731   2.723
 6172SOL    HW219416   0.696   0.680   2.878
 6173SOL     OW19417   0.697   4.744   2.471
 6173SOL    HW119418   0.718   4.674   2.540
 6173SOL    HW219419   0.767   4.742   2.400
 6174SOL     OW19420   6.171   4.827   2.640
 6174SOL    HW119421   6.101   4.771   2.684
 6174SOL    HW219422   6.232   4.768   2.586
 6175SOL     OW19423   5.685   6.048   2.682
 6175SOL    HW119424   5.655   6.047   2.777
 6175SOL    HW219425   5.721   6.139   2.660
 6176SOL     OW19426   6.057   3.570   6.549
 6176SOL    HW119427   6.012   3.587   6.637
 6176SOL    HW219428   5.990   3.580   6.475
 6177SOL     OW19429   4.804   0.947   1.501
 6177SOL    HW119430   4.857   1.032   1.498
 6177SOL    HW219431   4.812   0.906   1.592
 6178SOL     OW19432   4.812   4.500   1.334
 6178SOL    HW119433   4.905   4.520   1.366
 6178SOL    HW219434   4.774   4.424   1.388
 6179SOL     OW19435   6.857   3.215   4.667
 6179SOL    HW119436   6.922   3.286   4.693
 6179SOL    HW219437   6.810   3.180   4.748
 6180SOL     OW19438   3.428   6.850   0.906
 6180SOL    HW119439   3.391   6.936   0.943
 6180SOL    HW219440   3.396   6.773   0.961
 6181SOL     OW19441   4.708   6.462   0.161
 6181SOL    HW119442   4.640   6.404   0.117
 6181SOL    HW219443   4.767   6.504   0.092
 6182SOL     OW19444   5.291   5.255   5.026
 6182SOL    HW119445   5.244   5.188   5.083
 6182SOL    HW219446   5.275   5.347   5.063
 6183SOL     OW19447   2.118   0.676   2.876
 6183SOL    HW119448   2.072   0.765   2.883
 6183SOL    HW219449   2.185   0.680   2.802
 6184SOL     OW19450   1.770   6.727   0.183
 6184SOL    HW119451   1.858   6.690   0.213
 6184SOL    HW219452   1.774   6.750   0.086
 6185SOL     OW19453   0.490   4.078   6.900
 6185SOL    HW119454   0.508   4.087   6.998
 6185SOL    HW219455   0.521   3.988   6.869
 6186SOL     OW19456   5.710   0.057   4.208
 6186SOL    HW119457   5.737   0.100   4.294
 6186SOL    HW219458   5.660   6.996   4.227
 6187SOL     OW19459   5.120   4.800   3.556
 6187SOL    HW119460   5.118   4.764   3.463
 6187SOL    HW219461   5.027   4.803   3.593
 6188SOL     OW19462   2.266   6.357   1.287
 6188SOL    HW119463   2.226   6.436   1.333
 6188SOL    HW219464   2.357   6.340   1.324
 6189SOL     OW19465   4.860   4.402   2.967
 6189SOL    HW119466   4.826   4.484   3.011
 6189SOL    HW219467   4.806   4.383   2.885
 6190SOL     OW19468   5.509   3.444   6.096
 6190SOL    HW119469   5.528   3.360   6.045
 6190SOL    HW219470   5.486   3.517   6.031
 6191SOL     OW19471   5.430   2.249   0.853
 6191SOL    HW119472   5.361   2.201   0.800
 6191SOL    HW219473   5.507   2.274   0.794
 6192SOL     OW19474   2.987   3.893   0.047
 6192SOL    HW119475   2.922   3.861   7.001
 6192SOL    HW219476   2.939   3.916   0.131
 6193SOL     OW19477   4.710   0.057   2.217
 6193SOL    HW119478   4.699   0.137   2.277
 6193SOL    HW219479   4.689   0.084   2.123
 6194SOL     OW19480   2.246   0.346   0.771
 6194SOL    HW119481   2.239   0.294   0.857
 6194SOL    HW219482   2.305   0.425   0.785
 6195SOL     OW19483   4.479   5.356   5.982
 6195SOL    HW119484   4.566   5.307   5.979
 6195SOL    HW219485   4.405   5.294   5.954
 6196SOL     OW19486   0.612   2.634   6.007
 6196SOL    HW119487   0.607   2.581   5.922
 6196SOL    HW219488   0.622   2.572   6.085
 6197SOL     OW19489   2.905   3.992   1.099
 6197SOL    HW119490   2.817   3.992   1.148
 6197SOL    HW219491   2.976   4.029   1.159
 6198SOL     OW19492   3.212   5.997   2.905
 6198SOL    HW119493   3.230   5.932   2.978
 6198SOL    HW219494   3.184   6.085   2.944
 6199SOL     OW19495   0.365   0.148   1.239
 6199SOL    HW119496   0.340   0.172   1.145
 6199SOL    HW219497   0.453   0.191   1.262
 6200SOL     OW19498   2.596   1.269   6.500
 6200SOL    HW119499   2.521   1.321   6.542
 6200SOL    HW219500   2.602   1.179   6.543
 6201SOL     OW19501   2.345   4.766   5.985
 6201SOL    HW119502   2.246   4.771   5.996
 6201SOL    HW219503   2.390   4.796   6.069
 6202SOL     OW19504   4.078   1.779   1.784
 6202SOL    HW119505   4.065   1.731   1.697
 6202SOL    HW219506   4.176   1.794   1.798
 6203SOL     OW19507   5.185   0.508   3.770
 6203SOL    HW119508   5.149   0.520   3.677
 6203SOL    HW219509   5.108   0.504   3.835
 6204SOL     OW19510   0.834   4.952   5.482
 6204SOL    HW119511   0.865   4.893   5.408
 6204SOL    HW219512   0.734   4.946   5.489
 6205SOL     OW19513   5.057   5.502   6.801
 6205SOL    HW119514   5.138   5.503   6.860
 6205SOL    HW219515   4.989   5.438   6.838
 6206SOL     OW19516   0.033   0.585   2.334
 6206SOL    HW119517   0.095   0.545   2.401
 6206SOL    HW219518   6.964   0.591   2.373
 6207SOL     OW19519   1.276   4.135   4.969
 6207SOL    HW119520   1.273   4.234   4.980
 6207SOL    HW219521   1.370   4.106   4.953
 6208SOL     OW19522   6.288   0.314   5.669
 6208SOL    HW119523   6.194   0.337   5.645
 6208SOL    HW219524   6.296   0.215   5.680
 6209SOL     OW19525   3.934   5.900   0.432
 6209SOL    HW119526   3.940   5.968   0.359
 6209SOL    HW219527   3.856   5.840   0.416
 6210SOL     OW19528   5.628   4.132   2.929
 6210SOL    HW119529   5.551   4.141   2.992
 6210SOL    HW219530   5.594   4.103   2.839
 6211SOL     OW19531   2.607   0.175   6.025
 6211SOL    HW119532   2.521   0.221   6.001
 6211SOL    HW219533   2.590   0.108   6.097
 6212SOL     OW19534   0.240   5.900   3.486
 6212SOL    HW119535   0.319   5.866   3.536
 6212SOL    HW219536   0.242   6.000   3.485
 6213SOL     OW19537   6.084   0.619   6.412
 6213SOL    HW119538   6.081   0.694   6.478
 6213SOL    HW219539   6.167   0.566   6.426
 6214SOL     OW19540   6.047   5.353   2.841
 6214SOL    HW119541   5.988   5.393   2.771
 6214SOL    HW219542   6.142   5.350   2.807
 6215SOL     OW19543   3.857   1.785   0.146
 6215SOL    HW119544   3.926   1.835   0.199
 6215SOL    HW219545   3.869   1.804   0.049
 6216SOL     OW19546   6.650   2.266   1.395
 6216SOL    HW119547   6.604   2.182   1.425
 6216SOL    HW219548   6.747   2.260   1.416
 6217SOL     OW19549   4.928   2.621   1.631
 6217SOL    HW119550   5.002   2.688   1.627
 6217SOL    HW219551   4.896   2.601   1.538
 6218SOL     OW19552   3.312   5.352   4.497
 6218SOL    HW119553   3.213   5.363   4.505
 6218SOL    HW219554   3.332   5.269   4.446
 6219SOL     OW19555   1.746   2.143   4.875
 6219SOL    HW119556   1.656   2.172   4.842
 6219SOL    HW219557   1.818   2.190   4.823
 6220SOL     OW19558   1.605   4.390   5.592
 6220SOL    HW119559   1.626   4.453   5.518
 6220SOL    HW219560   1.685   4.381   5.652
 6221SOL     OW19561   4.870   5.233   4.976
 6221SOL    HW119562   4.920   5.235   5.063
 6221SOL    HW219563   4.863   5.139   4.944
 6222SOL     OW19564   0.991   6.802   1.494
 6222SOL    HW119565   0.976   6.704   1.479
 6222SOL    HW219566   1.006   6.820   1.591
 6223SOL     OW19567   6.067   3.809   3.999
 6223SOL    HW119568   6.086   3.821   4.096
 6223SOL    HW219569   6.017   3.889   3.964
 6224SOL     OW19570   1.914   1.616   6.484
 6224SOL    HW119571   1.934   1.520   6.503
 6224SOL    HW219572   1.940   1.672   6.563
 6225SOL     OW19573   3.336   3.589   1.507
 6225SOL    HW119574   3.293   3.499   1.519
 6225SOL    HW219575   3.291   3.655   1.567
 6226SOL     OW19576   5.747   1.145   3.581
 6226SOL    HW119577   5.760   1.073   3.649
 6226SOL    HW219578   5.711   1.227   3.627
 6227SOL     OW19579   2.850   4.484   5.898
 6227SOL    HW119580   2.815   4.421   5.968
 6227SOL    HW219581   2.776   4.545   5.868
 6228SOL     OW19582   6.742   1.915   3.191
 6228SOL    HW119583   6.666   1.851   3.182
 6228SOL    HW219584   6.823   1.877   3.147
 6229SOL     OW19585   1.973   1.693   3.245
 6229SOL    HW119586   1.949   1.611   3.193
 6229SOL    HW219587   1.922   1.771   3.209
 6230SOL     OW19588   1.647   0.942   4.943
 6230SOL    HW119589   1.572   0.915   5.004
 6230SOL    HW219590   1.649   0.881   4.864
 6231SOL     OW19591   6.675   4.812   1.259
 6231SOL    HW119592   6.711   4.753   1.330
 6231SOL    HW219593   6.596   4.769   1.216
 6232SOL     OW19594   0.013   1.014   0.337
 6232SOL    HW119595   7.007   1.041   0.246
 6232SOL    HW219596   6.992   0.929   0.363
 6233SOL     OW19597   5.387   1.847   7.014
 6233SOL    HW119598   5.344   1.785   0.057
 6233SOL    HW219599   5.352   1.827   6.922
 6234SOL     OW19600   0.851   1.467   5.167
 6234SOL    HW119601   0.795   1.546   5.191
 6234SOL    HW219602   0.807   1.415   5.094
 6235SOL     OW19603   1.927   6.540   3.476
 6235SOL    HW119604   1.955   6.453   3.518
 6235SOL    HW219605   1.991   6.564   3.404
 6236SOL     OW19606   0.172   4.822   1.232
 6236SOL    HW119607   0.181   4.848   1.328
 6236SOL    HW219608   0.077   4.798   1.212
 6237SOL     OW19609   4.336   6.003   0.636
 6237SOL    HW119610   4.263   5.943   0.667
 6237SOL    HW219611   4.424   5.968   0.669
 6238SOL     OW19612   4.789   5.297   2.662
 6238SOL    HW119613   4.736   5.375   2.629
 6238SOL    HW219614   4.880   5.299   2.619
 6239SOL     OW19615   2.626   6.457   2.139
 6239SOL    HW119616   2.541   6.421   2.179
 6239SOL    HW219617   2.618   6.458   2.039
 6240SOL     OW19618   2.933   2.127   1.003
 6240SOL    HW119619   2.914   2.211   1.054
 6240SOL    HW219620   2.887   2.050   1.048
 6241SOL     OW19621   2.793   1.064   2.518
 6241SOL    HW119622   2.884   1.088   2.486
 6241SOL    HW219623   2.747   1.145   2.554
 6242SOL     OW19624   5.340   1.515   3.537
 6242SOL    HW119625   5.436   1.492   3.558
 6242SOL    HW219626   5.305   1.451   3.469
 6243SOL     OW19627   6.107   6.768   3.667
 6243SOL    HW119628   6.121   6.816   3.580
 6243SOL    HW219629   6.088   6.835   3.739
 6244SOL     OW19630   2.587   2.413   2.038
 6244SOL    HW119631   2.624   2.338   2.093
 6244SOL    HW219632   2.630   2.413   1.948
 6245SOL     OW19633   3.113   4.534   1.679
 6245SOL    HW119634   3.181   4.462   1.693
 6245SOL    HW219635   3.042   4.527   1.749
 6246SOL     OW19636   2.891   2.862   6.894
 6246SOL    HW119637   2.875   2.956   6.922
 6246SOL    HW219638   2.823   2.802   6.935
 6247SOL     OW19639   0.331   6.578   3.469
 6247SOL    HW119640   0.315   6.649   3.401
 6247SOL    HW219641   0.245   6.554   3.514
 6248SOL     OW19642   0.678   3.844   1.243
 6248SOL    HW119643   0.617   3.916   1.276
 6248SOL    HW219644   0.771   3.881   1.233
 6249SOL     OW19645   0.356   4.553   0.187
 6249SOL    HW119646   0.284   4.595   0.243
 6249SOL    HW219647   0.418   4.625   0.154
 6250SOL     OW19648   6.707   6.297   0.677
 6250SOL    HW119649   6.779   6.360   0.647
 6250SOL    HW219650   6.748   6.219   0.724
 6251SOL     OW19651   4.263   6.903   1.201
 6251SOL    HW119652   4.353   6.860   1.202
 6251SOL    HW219653   4.218   6.889   1.289
 6252SOL     OW19654   2.238   6.145   5.294
 6252SOL    HW119655   2.276   6.129   5.386
 6252SOL    HW219656   2.312   6.148   5.227
 6253SOL     OW19657   2.294   4.153   2.490
 6253SOL    HW119658   2.221   4.094   2.454
 6253SOL    HW219659   2.285   4.244   2.450
 6254SOL     OW19660   5.814   0.380   6.850
 6254SOL    HW119661   5.818   0.459   6.789
 6254SOL    HW219662   5.862   0.401   6.935
 6255SOL     OW19663   1.443   1.230   1.411
 6255SOL    HW119664   1.385   1.204   1.488
 6255SOL    HW219665   1.529   1.267   1.445
 6256SOL     OW19666   4.109   5.119   2.425
 6256SOL    HW119667   4.146   5.100   2.515
 6256SOL    HW219668   4.082   5.033   2.381
 6257SOL     OW19669   5.026   2.591   0.957
 6257SOL    HW119670   4.979   2.675   0.984
 6257SOL    HW219671   5.111   2.614   0.909
 6258SOL     OW19672   5.006   0.862   3.232
 6258SOL    HW119673   4.944   0.914   3.174
 6258SOL    HW219674   5.069   0.926   3.278
 6259SOL     OW19675   2.891   1.843   1.369
 6259SOL    HW119676   2.877   1.939   1.342
 6259SOL    HW219677   2.984   1.832   1.404
 6260SOL     OW19678   3.201   4.383   0.440
 6260SOL    HW119679   3.146   4.410   0.362
 6260SOL    HW219680   3.296   4.407   0.424
 6261SOL     OW19681   3.952   6.979   6.648
 6261SOL    HW119682   3.953   6.993   6.747
 6261SOL    HW219683   4.038   7.009   6.608
 6262SOL     OW19684   1.679   4.331   0.641
 6262SOL    HW119685   1.653   4.239   0.613
 6262SOL    HW219686   1.611   4.367   0.705
 6263SOL     OW19687   0.339   5.808   6.651
 6263SOL    HW119688   0.404   5.800   6.727
 6263SOL    HW219689   0.250   5.838   6.686
 6264SOL     OW19690   2.395   0.910   0.963
 6264SOL    HW119691   2.433   0.980   0.902
 6264SOL    HW219692   2.382   0.825   0.912
 6265SOL     OW19693   3.290   4.257   1.244
 6265SOL    HW119694   3.363   4.296   1.187
 6265SOL    HW219695   3.267   4.323   1.316
 6266SOL     OW19696   3.768   0.781   4.257
 6266SOL    HW119697   3.821   0.697   4.242
 6266SOL    HW219698   3.779   0.842   4.178
 6267SOL     OW19699   3.314   0.157   6.958
 6267SOL    HW119700   3.316   0.206   0.021
 6267SOL    HW219701   3.401   0.168   6.911
 6268SOL     OW19702   2.663   5.602   2.862
 6268SOL    HW119703   2.674   5.667   2.937
 6268SOL    HW219704   2.618   5.648   2.785
 6269SOL     OW19705   6.139   5.690   2.366
 6269SOL    HW119706   6.091   5.774   2.340
 6269SOL    HW219707   6.139   5.682   2.466
 6270SOL     OW19708   2.279   6.737   6.064
 6270SOL    HW119709   2.293   6.814   6.002
 6270SOL    HW219710   2.281   6.769   6.158
 6271SOL     OW19711   0.045   2.611   5.606
 6271SOL    HW119712   7.007   2.690   5.603
 6271SOL    HW219713   7.022   2.535   5.652
 6272SOL     OW19714   0.649   3.194   4.441
 6272SOL    HW119715   0.607   3.119   4.491
 6272SOL    HW219716   0.588   3.273   4.442
 6273SOL     OW19717   1.473   0.685   1.776
 6273SOL    HW119718   1.542   0.618   1.748
 6273SOL    HW219719   1.434   0.658   1.864
 6274SOL     OW19720   2.676   5.413   5.970
 6274SOL    HW119721   2.761   5.410   5.917
 6274SOL    HW219722   2.692   5.373   6.060
 6275SOL     OW19723   3.100   6.534   5.792
 6275SOL    HW119724   3.142   6.608   5.844
 6275SOL    HW219725   3.171   6.478   5.750
 6276SOL     OW19726   1.452   4.966   3.586
 6276SOL    HW119727   1.527   5.026   3.614
 6276SOL    HW219728   1.490   4.888   3.536
 6277SOL     OW19729   4.516   2.487   2.483
 6277SOL    HW119730   4.593   2.444   2.436
 6277SOL    HW219731   4.464   2.542   2.418
 6278SOL     OW19732   4.459   0.192   4.345
 6278SOL    HW119733   4.527   0.236   4.285
 6278SOL    HW219734   4.506   0.142   4.418
 6279SOL     OW19735   3.825   1.637   0.821
 6279SOL    HW119736   3.903   1.589   0.780
 6279SOL    HW219737   3.758   1.658   0.750
 6280SOL     OW19738   0.214   2.955   6.022
 6280SOL    HW119739   0.130   3.000   6.053
 6280SOL    HW219740   0.193   2.863   5.992
 6281SOL     OW19741   2.954   6.274   6.189
 6281SOL    HW119742   2.923   6.369   6.176
 6281SOL    HW219743   2.925   6.219   6.110
 6282SOL     OW19744   1.200   0.012   4.696
 6282SOL    HW119745   1.169   6.941   4.684
 6282SOL    HW219746   1.230   0.049   4.608
 6283SOL     OW19747   6.142   2.601   4.740
 6283SOL    HW119748   6.185   2.527   4.688
 6283SOL    HW219749   6.113   2.673   4.678
 6284SOL     OW19750   1.701   5.419   4.864
 6284SOL    HW119751   1.785   5.432   4.812
 6284SOL    HW219752   1.722   5.411   4.961
 6285SOL     OW19753   1.542   3.153   4.307
 6285SOL    HW119754   1.594   3.082   4.355
 6285SOL    HW219755   1.462   3.112   4.263
 6286SOL     OW19756   6.369   1.376   3.863
 6286SOL    HW119757   6.464   1.382   3.895
 6286SOL    HW219758   6.318   1.314   3.922
 6287SOL     OW19759   4.515   4.522   2.036
 6287SOL    HW119760   4.536   4.426   2.054
 6287SOL    HW219761   4.586   4.580   2.076
 6288SOL     OW19762   5.238   4.030   1.593
 6288SOL    HW119763   5.138   4.026   1.589
 6288SOL    HW219764   5.267   4.035   1.689
 6289SOL     OW19765   1.696   2.842   3.544
 6289SOL    HW119766   1.604   2.875   3.564
 6289SOL    HW219767   1.702   2.744   3.565
 6290SOL     OW19768   5.383   3.995   4.323
 6290SOL    HW119769   5.288   4.026   4.325
 6290SOL    HW219770   5.388   3.904   4.283
 6291SOL     OW19771   3.956   3.530   3.685
 6291SOL    HW119772   3.865   3.503   3.716
 6291SOL    HW219773   4.018   3.452   3.691
 6292SOL     OW19774   0.806   2.818   3.324
 6292SOL    HW119775   0.846   2.891   3.269
 6292SOL    HW219776   0.849   2.815   3.414
 6293SOL     OW19777   4.914   0.172   0.182
 6293SOL    HW119778   4.950   0.116   0.257
 6293SOL    HW219779   4.925   0.122   0.096
 6294SOL     OW19780   3.587   5.282   3.086
 6294SOL    HW119781   3.633   5.364   3.120
 6294SOL    HW219782   3.589   5.211   3.157
 6295SOL     OW19783   4.893   5.780   5.247
 6295SOL    HW119784   4.990   5.804   5.243
 6295SOL    HW219785   4.854   5.812   5.333
 6296SOL     OW19786   6.642   0.605   3.870
 6296SOL    HW119787   6.557   0.654   3.888
 6296SOL    HW219788   6.710   0.669   3.833
 6297SOL     OW19789   5.383   6.645   5.820
 6297SOL    HW119790   5.423   6.596   5.897
 6297SOL    HW219791   5.286   6.664   5.839
 6298SOL     OW19792   0.940   3.720   6.011
 6298SOL    HW119793   0.975   3.722   6.104
 6298SOL    HW219794   0.922   3.813   5.979
 6299SOL     OW19795   6.279   2.273   6.428
 6299SOL    HW119796   6.211   2.331   6.382
 6299SOL    HW219797   6.232   2.201   6.479
 6300SOL     OW19798   5.217   0.453   4.835
 6300SOL    HW119799   5.230   0.355   4.842
 6300SOL    HW219800   5.124   0.476   4.864
 6301SOL     OW19801   2.798   6.931   1.135
 6301SOL    HW119802   2.730   6.921   1.208
 6301SOL    HW219803   2.851   7.014   1.150
 6302SOL     OW19804   1.177   1.108   3.800
 6302SOL    HW119805   1.176   1.075   3.705
 6302SOL    HW219806   1.167   1.031   3.862
 6303SOL     OW19807   2.254   0.799   5.142
 6303SOL    HW119808   2.196   0.880   5.134
 6303SOL    HW219809   2.240   0.740   5.063
 6304SOL     OW19810   3.136   0.720   1.164
 6304SOL    HW119811   3.129   0.815   1.135
 6304SOL    HW219812   3.218   0.708   1.221
 6305SOL     OW19813   6.501   6.709   1.336
 6305SOL    HW119814   6.437   6.690   1.261
 6305SOL    HW219815   6.539   6.623   1.370
 6306SOL     OW19816   6.841   3.009   4.213
 6306SOL    HW119817   6.754   3.025   4.166
 6306SOL    HW219818   6.861   3.087   4.273
 6307SOL     OW19819   3.289   4.718   5.487
 6307SOL    HW119820   3.238   4.636   5.461
 6307SOL    HW219821   3.231   4.776   5.545
 6308SOL     OW19822   1.964   1.460   5.294
 6308SOL    HW119823   1.945   1.556   5.276
 6308SOL    HW219824   2.045   1.452   5.352
 6309SOL     OW19825   4.855   3.175   3.761
 6309SOL    HW119826   4.845   3.174   3.861
 6309SOL    HW219827   4.836   3.266   3.726
 6310SOL     OW19828   2.140   4.641   4.323
 6310SOL    HW119829   2.213   4.591   4.276
 6310SOL    HW219830   2.064   4.657   4.261
 6311SOL     OW19831   6.520   0.157   5.217
 6311SOL    HW119832   6.444   0.221   5.210
 6311SOL    HW219833   6.602   0.198   5.176
 6312SOL     OW19834   4.292   5.188   6.249
 6312SOL    HW119835   4.220   5.224   6.191
 6312SOL    HW219836   4.357   5.135   6.194
 6313SOL     OW19837   1.895   6.344   3.016
 6313SOL    HW119838   1.931   6.434   3.042
 6313SOL    HW219839   1.904   6.281   3.093
 6314SOL     OW19840   3.550   6.143   1.990
 6314SOL    HW119841   3.577   6.061   2.040
 6314SOL    HW219842   3.452   6.159   2.003
 6315SOL     OW19843   4.504   2.932   6.884
 6315SOL    HW119844   4.576   2.877   6.927
 6315SOL    HW219845   4.543   3.018   6.850
 6316SOL     OW19846   4.486   2.173   6.189
 6316SOL    HW119847   4.532   2.225   6.117
 6316SOL    HW219848   4.469   2.231   6.268
 6317SOL     OW19849   5.322   6.618   3.252
 6317SOL    HW119850   5.286   6.648   3.340
 6317SOL    HW219851   5.273   6.537   3.222
 6318SOL     OW19852   2.784   1.899   5.467
 6318SOL    HW119853   2.839   1.880   5.385
 6318SOL    HW219854   2.730   1.982   5.452
 6319SOL     OW19855   0.323   3.048   3.672
 6319SOL    HW119856   0.316   3.040   3.573
 6319SOL    HW219857   0.395   3.114   3.695
 6320SOL     OW19858   5.921   4.175   3.283
 6320SOL    HW119859   5.833   4.132   3.305
 6320SOL    HW219860   5.955   4.223   3.363
 6321SOL     OW19861   2.828   5.795   0.817
 6321SOL    HW119862   2.911   5.745   0.795
 6321SOL    HW219863   2.850   5.891   0.836
 6322SOL     OW19864   1.585   1.806   6.335
 6322SOL    HW119865   1.623   1.719   6.301
 6322SOL    HW219866   1.549   1.859   6.258
 6323SOL     OW19867   3.580   2.220   1.633
 6323SOL    HW119868   3.638   2.247   1.709
 6323SOL    HW219869   3.548   2.301   1.585
 6324SOL     OW19870   4.568   0.908   5.773
 6324SOL    HW119871   4.549   0.999   5.809
 6324SOL    HW219872   4.664   0.885   5.790
 6325SOL     OW19873   1.229   3.048   2.040
 6325SOL    HW119874   1.245   2.960   2.085
 6325SOL    HW219875   1.198   3.115   2.107
 6326SOL     OW19876   5.294   5.966   0.557
 6326SOL    HW119877   5.376   5.945   0.611
 6326SOL    HW219878   5.261   5.882   0.513
 6327SOL     OW19879   6.771   6.163   5.239
 6327SOL    HW119880   6.787   6.213   5.324
 6327SOL    HW219881   6.689   6.107   5.247
 6328SOL     OW19882   2.115   4.444   6.926
 6328SOL    HW119883   2.204   4.489   6.936
 6328SOL    HW219884   2.118   4.382   6.848
 6329SOL     OW19885   0.815   1.448   3.799
 6329SOL    HW119886   0.769   1.361   3.784
 6329SOL    HW219887   0.890   1.458   3.734
 6330SOL     OW19888   4.760   0.812   0.744
 6330SOL    HW119889   4.781   0.850   0.654
 6330SOL    HW219890   4.808   0.725   0.756
 6331SOL     OW19891   6.496   2.479   0.592
 6331SOL    HW119892   6.517   2.433   0.678
 6331SOL    HW219893   6.397   2.493   0.584
 6332SOL     OW19894   5.952   5.290   1.272
 6332SOL    HW119895   6.007   5.308   1.353
 6332SOL    HW219896   5.950   5.372   1.215
 6333SOL     OW19897   3.713   5.623   3.644
 6333SOL    HW119898   3.652   5.656   3.572
 6333SOL    HW219899   3.700   5.525   3.657
 6334SOL     OW19900   2.518   0.536   2.754
 6334SOL    HW119901   2.577   0.525   2.674
 6334SOL    HW219902   2.567   0.587   2.825
 6335SOL     OW19903   5.724   1.601   0.267
 6335SOL    HW119904   5.764   1.680   0.221
 6335SOL    HW219905   5.684   1.631   0.354
 6336SOL     OW19906   0.016   2.350   4.947
 6336SOL    HW119907   6.992   2.403   5.017
 6336SOL    HW219908   7.021   2.389   4.857
 6337SOL     OW19909   5.401   3.160   6.198
 6337SOL    HW119910   5.437   3.239   6.148
 6337SOL    HW219911   5.382   3.187   6.292
 6338SOL     OW19912   2.442   2.265   2.391
 6338SOL    HW119913   2.373   2.201   2.356
 6338SOL    HW219914   2.533   2.230   2.372
 6339SOL     OW19915   0.159   2.507   3.379
 6339SOL    HW119916   0.145   2.469   3.471
 6339SOL    HW219917   0.178   2.432   3.316
 6340SOL     OW19918   2.457   5.467   3.056
 6340SOL    HW119919   2.484   5.528   3.131
 6340SOL    HW219920   2.437   5.376   3.092
 6341SOL     OW19921   0.058   4.945   3.603
 6341SOL    HW119922   0.119   4.984   3.671
 6341SOL    HW219923   0.093   4.965   3.511
 6342SOL     OW19924   2.471   2.594   2.734
 6342SOL    HW119925   2.407   2.518   2.720
 6342SOL    HW219926   2.565   2.560   2.731
 6343SOL     OW19927   4.695   2.862   0.128
 6343SOL    HW119928   4.782   2.898   0.161
 6343SOL    HW219929   4.678   2.772   0.170
 6344SOL     OW19930   6.464   3.075   5.470
 6344SOL    HW119931   6.403   3.039   5.400
 6344SOL    HW219932   6.516   3.152   5.432
 6345SOL     OW19933   4.179   1.498   2.633
 6345SOL    HW119934   4.128   1.434   2.576
 6345SOL    HW219935   4.264   1.524   2.586
 6346SOL     OW19936   6.466   3.305   3.490
 6346SOL    HW119937   6.507   3.391   3.520
 6346SOL    HW219938   6.373   3.322   3.458
 6347SOL     OW19939   3.272   0.279   1.357
 6347SOL    HW119940   3.357   0.300   1.403
 6347SOL    HW219941   3.238   0.360   1.309
 6348SOL     OW19942   0.707   3.536   4.930
 6348SOL    HW119943   0.653   3.527   4.847
 6348SOL    HW219944   0.803   3.519   4.910
 6349SOL     OW19945   3.054   1.007   1.721
 6349SOL    HW119946   3.008   1.091   1.694
 6349SOL    HW219947   3.066   0.949   1.640
 6350SOL     OW19948   1.444   5.353   3.531
 6350SOL    HW119949   1.491   5.374   3.445
 6350SOL    HW219950   1.485   5.271   3.571
 6351SOL     OW19951   6.355   2.777   2.658
 6351SOL    HW119952   6.274   2.820   2.698
 6351SOL    HW219953   6.341   2.678   2.652
 6352SOL     OW19954   1.182   5.690   3.432
 6352SOL    HW119955   1.167   5.687   3.333
 6352SOL    HW219956   1.278   5.670   3.452
 6353SOL     OW19957   6.611   0.619   6.544
 6353SOL    HW119958   6.685   0.555   6.562
 6353SOL    HW219959   6.625   0.662   6.455
 6354SOL     OW19960   1.246   6.461   2.492
 6354SOL    HW119961   1.193   6.389   2.537
 6354SOL    HW219962   1.332   6.474   2.540
 6355SOL     OW19963   0.460   3.510   4.782
 6355SOL    HW119964   0.476   3.462   4.696
 6355SOL    HW219965   0.365   3.542   4.785
 6356SOL     OW19966   5.056   4.633   1.926
 6356SOL    HW119967   4.986   4.615   1.996
 6356SOL    HW219968   5.012   4.635   1.836
 6357SOL     OW19969   4.187   2.875   0.494
 6357SOL    HW119970   4.218   2.898   0.402
 6357SOL    HW219971   4.203   2.952   0.556
 6358SOL     OW19972   6.779   2.400   4.372
 6358SOL    HW119973   6.804   2.360   4.460
 6358SOL    HW219974   6.862   2.415   4.317
 6359SOL     OW19975   6.832   0.259   5.314
 6359SOL    HW119976   6.834   0.306   5.226
 6359SOL    HW219977   6.810   0.324   5.387
 6360SOL     OW19978   2.461   4.460   3.784
 6360SOL    HW119979   2.531   4.520   3.744
 6360SOL    HW219980   2.492   4.429   3.874
 6361SOL     OW19981   4.943   6.033   6.661
 6361SOL    HW119982   4.962   5.939   6.631
 6361SOL    HW219983   5.023   6.069   6.709
 6362SOL     OW19984   6.303   4.733   6.899
 6362SOL    HW119985   6.264   4.774   6.816
 6362SOL    HW219986   6.240   4.744   6.975
 6363SOL     OW19987   2.516   6.037   4.041
 6363SOL    HW119988   2.482   6.097   4.113
 6363SOL    HW219989   2.451   6.035   3.965
 6364SOL     OW19990   2.620   2.238   5.721
 6364SOL    HW119991   2.563   2.277   5.648
 6364SOL    HW219992   2.715   2.234   5.691
 6365SOL     OW19993   4.676   0.272   4.217
 6365SOL    HW119994   4.751   0.206   4.221
 6365SOL    HW219995   4.712   0.364   4.233
 6366SOL     OW19996   0.901   5.375   5.231
 6366SOL    HW119997   0.992   5.351   5.263
 6366SOL    HW219998   0.837   5.374   5.308
 6367SOL     OW19999   5.115   0.567   3.519
 6367SOL    HW120000   5.064   0.535   3.440
 6367SOL    HW220001   5.174   0.643   3.493
 6368SOL     OW20002   3.176   0.220   4.184
 6368SOL    HW120003   3.256   0.280   4.187
 6368SOL    HW220004   3.117   0.238   4.263
 6369SOL     OW20005   2.697   5.023   4.244
 6369SOL    HW120006   2.675   5.107   4.294
 6369SOL    HW220007   2.795   5.003   4.254
 6370SOL     OW20008   0.828   2.209   2.054
 6370SOL    HW120009   0.909   2.219   1.996
 6370SOL    HW220010   0.834   2.272   2.131
 6371SOL     OW20011   4.814   2.956   3.085
 6371SOL    HW120012   4.749   2.903   3.030
 6371SOL    HW220013   4.899   2.904   3.093
 6372SOL     OW20014   3.285   6.363   1.450
 6372SOL    HW120015   3.219   6.306   1.402
 6372SOL    HW220016   3.249   6.387   1.540
 6373SOL     OW20017   5.868   4.466   4.947
 6373SOL    HW120018   5.785   4.412   4.959
 6373SOL    HW220019   5.887   4.516   5.032
 6374SOL     OW20020   3.409   3.386   3.393
 6374SOL    HW120021   3.417   3.314   3.324
 6374SOL    HW220022   3.330   3.444   3.372
 6375SOL     OW20023   0.877   1.096   3.294
 6375SOL    HW120024   0.848   1.185   3.257
 6375SOL    HW220025   0.825   1.023   3.249
 6376SOL     OW20026   0.555   1.517   5.281
 6376SOL    HW120027   0.473   1.489   5.230
 6376SOL    HW220028   0.577   1.446   5.348
 6377SOL     OW20029   6.806   0.900   5.775
 6377SOL    HW120030   6.746   0.847   5.715
 6377SOL    HW220031   6.819   0.991   5.736
 6378SOL     OW20032   4.760   4.634   3.230
 6378SOL    HW120033   4.851   4.657   3.265
 6378SOL    HW220034   4.699   4.614   3.307
 6379SOL     OW20035   1.746   5.241   4.412
 6379SOL    HW120036   1.841   5.267   4.395
 6379SOL    HW220037   1.735   5.217   4.509
 6380SOL     OW20038   1.159   1.167   5.382
 6380SOL    HW120039   1.191   1.167   5.477
 6380SOL    HW220040   1.088   1.237   5.371
 6381SOL     OW20041   3.043   3.615   2.446
 6381SOL    HW120042   2.964   3.556   2.431
 6381SOL    HW220043   3.048   3.683   2.372
 6382SOL     OW20044   1.528   2.669   6.238
 6382SOL    HW120045   1.505   2.590   6.182
 6382SOL    HW220046   1.476   2.748   6.207
 6383SOL     OW20047   1.939   2.219   3.826
 6383SOL    HW120048   2.025   2.197   3.781
 6383SOL    HW220049   1.935   2.317   3.846
 6384SOL     OW20050   6.209   4.846   1.856
 6384SOL    HW120051   6.237   4.835   1.951
 6384SOL    HW220052   6.256   4.925   1.816
 6385SOL     OW20053   6.111   5.132   3.976
 6385SOL    HW120054   6.201   5.150   4.015
 6385SOL    HW220055   6.071   5.051   4.019
 6386SOL     OW20056   2.737   5.144   1.255
 6386SOL    HW120057   2.699   5.112   1.341
 6386SOL    HW220058   2.662   5.167   1.192
 6387SOL     OW20059   0.552   1.870   6.002
 6387SOL    HW120060   0.573   1.961   6.038
 6387SOL    HW220061   0.502   1.879   5.916
 6388SOL     OW20062   3.623   4.560   1.255
 6388SOL    HW120063   3.689   4.486   1.250
 6388SOL    HW220064   3.629   4.605   1.344
 6389SOL     OW20065   0.673   5.837   2.347
 6389SOL    HW120066   0.596   5.901   2.353
 6389SOL    HW220067   0.647   5.749   2.388
 6390SOL     OW20068   6.710   2.437   3.178
 6390SOL    HW120069   6.721   2.340   3.158
 6390SOL    HW220070   6.782   2.466   3.242
 6391SOL     OW20071   3.344   1.242   0.303
 6391SOL    HW120072   3.250   1.265   0.326
 6391SOL    HW220073   3.349   1.211   0.208
 6392SOL     OW20074   2.245   6.606   3.999
 6392SOL    HW120075   2.152   6.584   4.029
 6392SOL    HW220076   2.311   6.549   4.049
 6393SOL     OW20077   5.678   6.744   1.775
 6393SOL    HW120078   5.751   6.767   1.839
 6393SOL    HW220079   5.589   6.749   1.822
 6394SOL     OW20080   2.447   4.915   1.256
 6394SOL    HW120081   2.459   4.877   1.348
 6394SOL    HW220082   2.509   4.868   1.193
 6395SOL     OW20083   6.389   1.647   1.238
 6395SOL    HW120084   6.476   1.644   1.287
 6395SOL    HW220085   6.386   1.727   1.179
 6396SOL     OW20086   5.508   2.831   6.044
 6396SOL    HW120087   5.559   2.893   6.102
 6396SOL    HW220088   5.411   2.835   6.068
 6397SOL     OW20089   6.841   2.017   6.853
 6397SOL    HW120090   6.794   2.063   6.778
 6397SOL    HW220091   6.938   2.006   6.830
 6398SOL     OW20092   3.313   0.918   1.760
 6398SOL    HW120093   3.233   0.978   1.756
 6398SOL    HW220094   3.385   0.962   1.814
 6399SOL     OW20095   1.598   5.690   6.892
 6399SOL    HW120096   1.578   5.743   6.810
 6399SOL    HW220097   1.662   5.616   6.868
 6400SOL     OW20098   2.139   5.614   3.229
 6400SOL    HW120099   2.127   5.554   3.150
 6400SOL    HW220100   2.223   5.667   3.218
 6401SOL     OW20101   0.176   4.655   3.742
 6401SOL    HW120102   0.083   4.685   3.723
 6401SOL    HW220103   0.234   4.735   3.760
 6402SOL     OW20104   2.720   0.696   2.890
 6402SOL    HW120105   2.678   0.776   2.932
 6402SOL    HW220106   2.775   0.724   2.812
 6403SOL     OW20107   0.747   5.570   6.786
 6403SOL    HW120108   0.761   5.564   6.885
 6403SOL    HW220109   0.823   5.618   6.744
 6404SOL     OW20110   4.246   1.563   3.341
 6404SOL    HW120111   4.247   1.548   3.440
 6404SOL    HW220112   4.185   1.639   3.320
 6405SOL     OW20113   1.804   1.995   2.845
 6405SOL    HW120114   1.766   2.087   2.850
 6405SOL    HW220115   1.869   1.989   2.769
 6406SOL     OW20116   1.463   1.265   3.394
 6406SOL    HW120117   1.508   1.353   3.379
 6406SOL    HW220118   1.457   1.215   3.307
 6407SOL     OW20119   3.041   6.911   4.460
 6407SOL    HW120120   3.074   6.895   4.367
 6407SOL    HW220121   3.112   6.958   4.513
 6408SOL     OW20122   5.857   2.504   6.909
 6408SOL    HW120123   5.831   2.446   6.832
 6408SOL    HW220124   5.922   2.455   6.967
 6409SOL     OW20125   6.298   3.997   2.882
 6409SOL    HW120126   6.262   4.037   2.797
 6409SOL    HW220127   6.249   4.035   2.960
 6410SOL     OW20128   2.318   1.881   0.780
 6410SOL    HW120129   2.242   1.841   0.832
 6410SOL    HW220130   2.320   1.841   0.688
 6411SOL     OW20131   0.932   2.189   3.342
 6411SOL    HW120132   0.905   2.103   3.385
 6411SOL    HW220133   0.969   2.251   3.412
 6412SOL     OW20134   6.819   3.094   5.471
 6412SOL    HW120135   6.865   3.156   5.408
 6412SOL    HW220136   6.721   3.091   5.448
 6413SOL     OW20137   5.774   4.926   1.831
 6413SOL    HW120138   5.810   4.845   1.875
 6413SOL    HW220139   5.703   4.900   1.765
 6414SOL     OW20140   5.774   1.024   2.008
 6414SOL    HW120141   5.785   1.100   2.073
 6414SOL    HW220142   5.828   1.042   1.926
 6415SOL     OW20143   2.625   2.349   2.704
 6415SOL    HW120144   2.531   2.315   2.701
 6415SOL    HW220145   2.661   2.353   2.611
 6416SOL     OW20146   0.842   0.361   6.471
 6416SOL    HW120147   0.797   0.404   6.549
 6416SOL    HW220148   0.938   0.344   6.493
 6417SOL     OW20149   0.617   6.375   3.222
 6417SOL    HW120150   0.630   6.327   3.136
 6417SOL    HW220151   0.651   6.319   3.297
 6418SOL     OW20152   6.498   5.061   2.376
 6418SOL    HW120153   6.412   5.102   2.345
 6418SOL    HW220154   6.556   5.133   2.416
 6419SOL     OW20155   3.053   5.363   1.731
 6419SOL    HW120156   3.086   5.284   1.783
 6419SOL    HW220157   3.005   5.331   1.650
 6420SOL     OW20158   2.973   3.147   6.184
 6420SOL    HW120159   3.043   3.102   6.240
 6420SOL    HW220160   2.883   3.114   6.210
 6421SOL     OW20161   6.331   1.361   1.353
 6421SOL    HW120162   6.363   1.366   1.448
 6421SOL    HW220163   6.330   1.452   1.313
 6422SOL     OW20164   6.970   0.624   3.536
 6422SOL    HW120165   6.932   0.715   3.520
 6422SOL    HW220166   6.897   0.557   3.543
 6423SOL     OW20167   5.017   3.831   1.360
 6423SOL    HW120168   4.940   3.839   1.297
 6423SOL    HW220169   4.984   3.837   1.454
 6424SOL     OW20170   6.845   4.413   5.804
 6424SOL    HW120171   6.781   4.487   5.783
 6424SOL    HW220172   6.805   4.326   5.778
 6425SOL     OW20173   6.868   4.374   3.265
 6425SOL    HW120174   6.922   4.437   3.320
 6425SOL    HW220175   6.785   4.419   3.234
 6426SOL     OW20176   1.267   3.078   4.266
 6426SOL    HW120177   1.246   3.114   4.356
 6426SOL    HW220178   1.235   2.983   4.260
 6427SOL     OW20179   1.499   3.880   6.872
 6427SOL    HW120180   1.540   3.913   6.786
 6427SOL    HW220181   1.413   3.928   6.888
 6428SOL     OW20182   6.422   3.450   2.007
 6428SOL    HW120183   6.332   3.453   1.964
 6428SOL    HW220184   6.469   3.537   1.994
 6429SOL     OW20185   1.749   0.542   4.767
 6429SOL    HW120186   1.788   0.513   4.679
 6429SOL    HW220187   1.653   0.517   4.771
 6430SOL     OW20188   4.661   0.720   2.091
 6430SOL    HW120189   4.742   0.696   2.145
 6430SOL    HW220190   4.659   0.665   2.008
 6431SOL     OW20191   5.614   6.951   3.387
 6431SOL    HW120192   5.520   6.983   3.398
 6431SOL    HW220193   5.612   6.854   3.361
 6432SOL     OW20194   4.338   4.277   6.812
 6432SOL    HW120195   4.312   4.369   6.841
 6432SOL    HW220196   4.308   4.211   6.880
 6433SOL     OW20197   3.145   4.860   1.236
 6433SOL    HW120198   3.088   4.931   1.195
 6433SOL    HW220199   3.221   4.839   1.175
 6434SOL     OW20200   1.267   3.694   1.064
 6434SOL    HW120201   1.271   3.609   1.011
 6434SOL    HW220202   1.358   3.715   1.099
 6435SOL     OW20203   3.325   5.096   0.283
 6435SOL    HW120204   3.370   5.142   0.360
 6435SOL    HW220205   3.298   5.004   0.310
 6436SOL     OW20206   1.851   3.079   3.624
 6436SOL    HW120207   1.940   3.037   3.603
 6436SOL    HW220208   1.786   3.008   3.649
 6437SOL     OW20209   1.822   1.239   0.103
 6437SOL    HW120210   1.837   1.141   0.105
 6437SOL    HW220211   1.753   1.264   0.172
 6438SOL     OW20212   0.553   3.983   5.198
 6438SOL    HW120213   0.476   3.972   5.262
 6438SOL    HW220214   0.637   3.954   5.241
 6439SOL     OW20215   0.846   6.535   0.677
 6439SOL    HW120216   0.935   6.494   0.656
 6439SOL    HW220217   0.856   6.635   0.681
 6440SOL     OW20218   2.302   2.050   1.757
 6440SOL    HW120219   2.233   2.080   1.692
 6440SOL    HW220220   2.258   2.025   1.843
 6441SOL     OW20221   1.577   0.434   2.506
 6441SOL    HW120222   1.583   0.470   2.413
 6441SOL    HW220223   1.483   0.408   2.526
 6442SOL     OW20224   2.539   1.419   4.544
 6442SOL    HW120225   2.522   1.387   4.637
 6442SOL    HW220226   2.584   1.508   4.546
 6443SOL     OW20227   3.190   2.873   0.423
 6443SOL    HW120228   3.241   2.941   0.475
 6443SOL    HW220229   3.236   2.785   0.428
 6444SOL     OW20230   0.251   2.278   3.279
 6444SOL    HW120231   0.328   2.258   3.218
 6444SOL    HW220232   0.177   2.213   3.262
 6445SOL     OW20233   4.280   2.640   5.417
 6445SOL    HW120234   4.238   2.627   5.328
 6445SOL    HW220235   4.228   2.590   5.487
 6446SOL     OW20236   0.392   1.099   6.187
 6446SOL    HW120237   0.333   1.039   6.241
 6446SOL    HW220238   0.337   1.144   6.116
 6447SOL     OW20239   0.993   5.758   2.133
 6447SOL    HW120240   1.056   5.833   2.112
 6447SOL    HW220241   1.020   5.715   2.219
 6448SOL     OW20242   6.041   3.992   2.368
 6448SOL    HW120243   6.032   4.018   2.272
 6448SOL    HW220244   6.110   3.921   2.377
 6449SOL     OW20245   3.861   3.902   1.825
 6449SOL    HW120246   3.877   3.966   1.750
 6449SOL    HW220247   3.947   3.885   1.872
 6450SOL     OW20248   6.243   2.957   1.836
 6450SOL    HW120249   6.194   2.972   1.922
 6450SOL    HW220250   6.315   2.889   1.849
 6451SOL     OW20251   3.579   6.211   5.472
 6451SOL    HW120252   3.653   6.155   5.434
 6451SOL    HW220253   3.546   6.169   5.556
 6452SOL     OW20254   3.522   0.025   4.761
 6452SOL    HW120255   3.592   0.087   4.726
 6452SOL    HW220256   3.557   7.000   4.842
 6453SOL     OW20257   1.136   6.640   6.949
 6453SOL    HW120258   1.048   6.601   6.919
 6453SOL    HW220259   1.200   6.566   6.968
 6454SOL     OW20260   2.432   1.255   3.924
 6454SOL    HW120261   2.449   1.352   3.903
 6454SOL    HW220262   2.446   1.240   4.022
 6455SOL     OW20263   0.877   2.670   4.456
 6455SOL    HW120264   0.868   2.599   4.526
 6455SOL    HW220265   0.837   2.755   4.491
 6456SOL     OW20266   1.509   0.051   3.217
 6456SOL    HW120267   1.537   0.112   3.291
 6456SOL    HW220268   1.477   6.988   3.257
 6457SOL     OW20269   5.725   1.804   1.558
 6457SOL    HW120270   5.821   1.775   1.553
 6457SOL    HW220271   5.666   1.728   1.529
 6458SOL     OW20272   1.103   6.297   2.633
 6458SOL    HW120273   1.098   6.224   2.565
 6458SOL    HW220274   1.133   6.258   2.720
 6459SOL     OW20275   5.517   5.759   0.442
 6459SOL    HW120276   5.597   5.802   0.485
 6459SOL    HW220277   5.539   5.665   0.417
 6460SOL     OW20278   4.571   4.928   0.119
 6460SOL    HW120279   4.500   4.933   0.189
 6460SOL    HW220280   4.623   4.843   0.129
 6461SOL     OW20281   2.884   5.812   5.581
 6461SOL    HW120282   2.934   5.725   5.574
 6461SOL    HW220283   2.791   5.794   5.610
 6462SOL     OW20284   2.243   3.383   5.178
 6462SOL    HW120285   2.209   3.363   5.086
 6462SOL    HW220286   2.268   3.480   5.184
 6463SOL     OW20287   2.803   4.819   6.289
 6463SOL    HW120288   2.736   4.760   6.245
 6463SOL    HW220289   2.758   4.874   6.359
 6464SOL     OW20290   0.820   4.675   3.758
 6464SOL    HW120291   0.790   4.749   3.697
 6464SOL    HW220292   0.870   4.606   3.705
 6465SOL     OW20293   6.093   2.142   3.827
 6465SOL    HW120294   6.072   2.227   3.875
 6465SOL    HW220295   6.189   2.142   3.798
 6466SOL     OW20296   6.741   2.543   5.045
 6466SOL    HW120297   6.796   2.523   5.126
 6466SOL    HW220298   6.678   2.467   5.029
 6467SOL     OW20299   2.248   1.036   6.350
 6467SOL    HW120300   2.260   1.117   6.293
 6467SOL    HW220301   2.192   1.059   6.430
 6468SOL     OW20302   4.195   6.324   1.656
 6468SOL    HW120303   4.287   6.320   1.694
 6468SOL    HW220304   4.199   6.363   1.564
 6469SOL     OW20305   6.312   1.218   5.494
 6469SOL    HW120306   6.290   1.121   5.497
 6469SOL    HW220307   6.315   1.255   5.587
 6470SOL     OW20308   6.980   5.807   6.365
 6470SOL    HW120309   7.001   5.759   6.279
 6470SOL    HW220310   6.896   5.769   6.404
 6471SOL     OW20311   6.786   5.332   6.373
 6471SOL    HW120312   6.875   5.322   6.418
 6471SOL    HW220313   6.714   5.338   6.442
 6472SOL     OW20314   0.726   6.048   1.372
 6472SOL    HW120315   0.789   6.036   1.448
 6472SOL    HW220316   0.746   6.134   1.325
 6473SOL     OW20317   2.085   0.956   5.954
 6473SOL    HW120318   2.117   0.913   6.038
 6473SOL    HW220319   2.119   1.049   5.949
 6474SOL     OW20320   1.537   3.991   6.169
 6474SOL    HW120321   1.514   3.957   6.261
 6474SOL    HW220322   1.480   3.943   6.102
 6475SOL     OW20323   5.946   6.001   3.872
 6475SOL    HW120324   5.912   5.964   3.786
 6475SOL    HW220325   5.936   6.100   3.873
 6476SOL     OW20326   4.588   4.404   2.299
 6476SOL    HW120327   4.604   4.318   2.251
 6476SOL    HW220328   4.569   4.386   2.395
 6477SOL     OW20329   6.668   5.223   6.718
 6477SOL    HW120330   6.674   5.140   6.662
 6477SOL    HW220331   6.697   5.202   6.812
 6478SOL     OW20332   3.683   5.749   1.894
 6478SOL    HW120333   3.634   5.776   1.811
 6478SOL    HW220334   3.638   5.788   1.974
 6479SOL     OW20335   4.322   4.836   1.971
 6479SOL    HW120336   4.419   4.854   1.989
 6479SOL    HW220337   4.288   4.769   2.037
 6480SOL     OW20338   3.677   2.980   5.904
 6480SOL    HW120339   3.697   2.886   5.933
 6480SOL    HW220340   3.653   3.035   5.984
 6481SOL     OW20341   3.582   2.158   1.368
 6481SOL    HW120342   3.622   2.216   1.297
 6481SOL    HW220343   3.580   2.209   1.454
 6482SOL     OW20344   6.716   0.872   0.175
 6482SOL    HW120345   6.795   0.841   0.228
 6482SOL    HW220346   6.745   0.890   0.081
 6483SOL     OW20347   2.362   6.338   2.130
 6483SOL    HW120348   2.307   6.290   2.061
 6483SOL    HW220349   2.375   6.278   2.209
 6484SOL     OW20350   4.561   0.274   2.401
 6484SOL    HW120351   4.564   0.313   2.309
 6484SOL    HW220352   4.513   0.187   2.399
 6485SOL     OW20353   1.409   2.872   3.505
 6485SOL    HW120354   1.382   2.782   3.538
 6485SOL    HW220355   1.339   2.939   3.530
 6486SOL     OW20356   0.985   4.246   4.239
 6486SOL    HW120357   0.940   4.311   4.177
 6486SOL    HW220358   0.939   4.158   4.234
 6487SOL     OW20359   6.700   5.424   4.349
 6487SOL    HW120360   6.701   5.438   4.448
 6487SOL    HW220361   6.619   5.468   4.310
 6488SOL     OW20362   3.362   6.175   5.672
 6488SOL    HW120363   3.410   6.204   5.755
 6488SOL    HW220364   3.274   6.135   5.697
 6489SOL     OW20365   1.939   2.608   7.000
 6489SOL    HW120366   1.913   2.684   0.037
 6489SOL    HW220367   1.858   2.574   6.952
 6490SOL     OW20368   4.131   2.600   0.526
 6490SOL    HW120369   4.053   2.581   0.467
 6490SOL    HW220370   4.146   2.699   0.531
 6491SOL     OW20371   4.335   1.145   6.773
 6491SOL    HW120372   4.267   1.072   6.779
 6491SOL    HW220373   4.412   1.123   6.833
 6492SOL     OW20374   5.953   6.808   0.128
 6492SOL    HW120375   5.953   6.863   0.211
 6492SOL    HW220376   5.977   6.865   0.050
 6493SOL     OW20377   1.821   6.432   5.543
 6493SOL    HW120378   1.802   6.366   5.616
 6493SOL    HW220379   1.920   6.449   5.540
 6494SOL     OW20380   0.824   0.274   3.541
 6494SOL    HW120381   0.916   0.272   3.503
 6494SOL    HW220382   0.781   0.184   3.528
 6495SOL     OW20383   5.043   5.899   3.550
 6495SOL    HW120384   5.048   5.924   3.646
 6495SOL    HW220385   5.125   5.848   3.524
 6496SOL     OW20386   6.555   6.287   2.046
 6496SOL    HW120387   6.584   6.335   1.964
 6496SOL    HW220388   6.635   6.266   2.103
 6497SOL     OW20389   2.391   3.702   1.017
 6497SOL    HW120390   2.451   3.640   1.066
 6497SOL    HW220391   2.297   3.688   1.046
 6498SOL     OW20392   2.406   4.797   4.051
 6498SOL    HW120393   2.410   4.861   4.127
 6498SOL    HW220394   2.488   4.807   3.995
 6499SOL     OW20395   5.192   0.636   5.273
 6499SOL    HW120396   5.194   0.662   5.177
 6499SOL    HW220397   5.265   0.684   5.322
 6500SOL     OW20398   6.604   3.932   3.427
 6500SOL    HW120399   6.519   3.883   3.408
 6500SOL    HW220400   6.590   3.994   3.504
 6501SOL     OW20401   6.659   3.538   1.313
 6501SOL    HW120402   6.592   3.469   1.343
 6501SOL    HW220403   6.629   3.628   1.343
 6502SOL     OW20404   0.443   4.273   3.703
 6502SOL    HW120405   0.364   4.269   3.764
 6502SOL    HW220406   0.415   4.249   3.610
 6503SOL     OW20407   5.799   6.665   3.736
 6503SOL    HW120408   5.733   6.685   3.663
 6503SOL    HW220409   5.890   6.697   3.709
 6504SOL     OW20410   4.175   0.016   6.519
 6504SOL    HW120411   4.272   0.034   6.507
 6504SOL    HW220412   4.124   0.051   6.440
 6505SOL     OW20413   6.147   4.351   0.833
 6505SOL    HW120414   6.241   4.387   0.836
 6505SOL    HW220415   6.097   4.394   0.758
 6506SOL     OW20416   1.036   3.139   0.902
 6506SOL    HW120417   1.020   3.121   0.805
 6506SOL    HW220418   1.096   3.069   0.940
 6507SOL     OW20419   1.361   5.784   0.932
 6507SOL    HW120420   1.311   5.703   0.900
 6507SOL    HW220421   1.329   5.810   1.023
 6508SOL     OW20422   1.890   1.909   3.946
 6508SOL    HW120423   1.916   1.833   3.886
 6508SOL    HW220424   1.958   1.982   3.938
 6509SOL     OW20425   1.187   2.463   4.997
 6509SOL    HW120426   1.145   2.410   4.924
 6509SOL    HW220427   1.195   2.559   4.969
 6510SOL     OW20428   0.138   5.360   6.305
 6510SOL    HW120429   0.078   5.384   6.382
 6510SOL    HW220430   0.089   5.298   6.243
 6511SOL     OW20431   6.088   0.487   5.093
 6511SOL    HW120432   6.028   0.551   5.141
 6511SOL    HW220433   6.160   0.456   5.154
 6512SOL     OW20434   4.540   6.954   2.878
 6512SOL    HW120435   4.445   6.986   2.885
 6512SOL    HW220436   4.545   6.876   2.816
 6513SOL     OW20437   3.451   6.585   4.298
 6513SOL    HW120438   3.544   6.567   4.264
 6513SOL    HW220439   3.415   6.667   4.253
 6514SOL     OW20440   4.963   6.985   4.038
 6514SOL    HW120441   4.962   0.058   4.064
 6514SOL    HW220442   4.992   6.976   3.943
 6515SOL     OW20443   6.675   5.494   3.853
 6515SOL    HW120444   6.689   5.454   3.762
 6515SOL    HW220445   6.694   5.425   3.923
 6516SOL     OW20446   0.544   1.536   6.742
 6516SOL    HW120447   0.590   1.521   6.654
 6516SOL    HW220448   0.550   1.633   6.766
 6517SOL     OW20449   0.165   1.622   0.637
 6517SOL    HW120450   0.199   1.702   0.685
 6517SOL    HW220451   0.146   1.646   0.541
 6518SOL     OW20452   0.747   6.139   0.527
 6518SOL    HW120453   0.750   6.111   0.623
 6518SOL    HW220454   0.654   6.168   0.504
 6519SOL     OW20455   2.440   1.443   4.262
 6519SOL    HW120456   2.463   1.434   4.359
 6519SOL    HW220457   2.363   1.382   4.241
 6520SOL     OW20458   6.529   5.566   2.780
 6520SOL    HW120459   6.456   5.634   2.780
 6520SOL    HW220460   6.615   5.610   2.755
 6521SOL     OW20461   1.421   1.051   4.363
 6521SOL    HW120462   1.419   1.038   4.263
 6521SOL    HW220463   1.481   1.128   4.385
 6522SOL     OW20464   2.299   5.377   6.820
 6522SOL    HW120465   2.394   5.402   6.836
 6522SOL    HW220466   2.294   5.280   6.796
 6523SOL     OW20467   2.654   1.353   6.245
 6523SOL    HW120468   2.660   1.294   6.325
 6523SOL    HW220469   2.706   1.437   6.261
 6524SOL     OW20470   3.618   3.842   3.661
 6524SOL    HW120471   3.698   3.856   3.602
 6524SOL    HW220472   3.608   3.745   3.681
 6525SOL     OW20473   1.222   2.613   2.821
 6525SOL    HW120474   1.301   2.607   2.881
 6525SOL    HW220475   1.173   2.526   2.821
 6526SOL     OW20476   0.931   6.430   4.792
 6526SOL    HW120477   1.010   6.369   4.793
 6526SOL    HW220478   0.937   6.493   4.869
 6527SOL     OW20479   1.423   0.786   5.048
 6527SOL    HW120480   1.443   0.745   5.137
 6527SOL    HW220481   1.348   0.735   5.004
 6528SOL     OW20482   0.066   0.490   4.277
 6528SOL    HW120483   0.019   0.403   4.289
 6528SOL    HW220484   0.007   0.554   4.227
 6529SOL     OW20485   5.561   1.995   2.910
 6529SOL    HW120486   5.594   1.907   2.944
 6529SOL    HW220487   5.563   2.062   2.984
 6530SOL     OW20488   6.508   2.759   0.577
 6530SOL    HW120489   6.409   2.766   0.564
 6530SOL    HW220490   6.531   2.666   0.604
 6531SOL     OW20491   5.743   2.254   3.895
 6531SOL    HW120492   5.808   2.328   3.907
 6531SOL    HW220493   5.658   2.275   3.945
 6532SOL     OW20494   6.422   2.106   0.046
 6532SOL    HW120495   6.401   2.160   0.127
 6532SOL    HW220496   6.369   2.140   6.992
 6533SOL     OW20497   5.718   6.308   0.954
 6533SOL    HW120498   5.786   6.258   0.900
 6533SOL    HW220499   5.720   6.275   1.048
 6534SOL     OW20500   2.503   3.755   1.274
 6534SOL    HW120501   2.430   3.755   1.343
 6534SOL    HW220502   2.463   3.762   1.183
 6535SOL     OW20503   6.916   3.295   5.319
 6535SOL    HW120504   6.989   3.270   5.255
 6535SOL    HW220505   6.894   3.392   5.309
 6536SOL     OW20506   6.002   2.213   6.721
 6536SOL    HW120507   6.063   2.141   6.688
 6536SOL    HW220508   6.028   2.300   6.679
 6537SOL     OW20509   6.507   6.581   6.847
 6537SOL    HW120510   6.511   6.497   6.792
 6537SOL    HW220511   6.600   6.614   6.863
 6538SOL     OW20512   3.559   3.655   0.012
 6538SOL    HW120513   3.646   3.610   7.018
 6538SOL    HW220514   3.497   3.591   0.057
 6539SOL     OW20515   2.337   2.045   6.621
 6539SOL    HW120516   2.342   1.980   6.546
 6539SOL    HW220517   2.334   2.138   6.584
 6540SOL     OW20518   3.686   1.888   4.388
 6540SOL    HW120519   3.669   1.987   4.392
 6540SOL    HW220520   3.736   1.867   4.304
 6541SOL     OW20521   2.916   2.510   5.298
 6541SOL    HW120522   2.834   2.477   5.251
 6541SOL    HW220523   2.996   2.462   5.263
 6542SOL     OW20524   6.126   4.974   3.348
 6542SOL    HW120525   6.220   4.991   3.378
 6542SOL    HW220526   6.122   4.886   3.300
 6543SOL     OW20527   6.460   5.649   0.090
 6543SOL    HW120528   6.414   5.715   0.148
 6543SOL    HW220529   6.558   5.671   0.085
 6544SOL     OW20530   6.823   6.272   4.161
 6544SOL    HW120531   6.889   6.347   4.161
 6544SOL    HW220532   6.803   6.245   4.256
 6545SOL     OW20533   5.392   1.004   5.979
 6545SOL    HW120534   5.317   0.979   6.041
 6545SOL    HW220535   5.359   1.002   5.885
 6546SOL     OW20536   4.478   4.733   5.880
 6546SOL    HW120537   4.394   4.681   5.899
 6546SOL    HW220538   4.501   4.789   5.959
 6547SOL     OW20539   4.485   1.920   6.085
 6547SOL    HW120540   4.507   2.012   6.116
 6547SOL    HW220541   4.386   1.906   6.090
 6548SOL     OW20542   0.157   4.266   5.757
 6548SOL    HW120543   0.129   4.343   5.700
 6548SOL    HW220544   0.110   4.271   5.845
 6549SOL     OW20545   4.072   2.086   1.261
 6549SOL    HW120546   4.018   2.003   1.275
 6549SOL    HW220547   4.145   2.090   1.330
 6550SOL     OW20548   0.527   5.593   3.360
 6550SOL    HW120549   0.566   5.501   3.356
 6550SOL    HW220550   0.427   5.586   3.362
 6551SOL     OW20551   2.233   4.355   1.667
 6551SOL    HW120552   2.299   4.426   1.644
 6551SOL    HW220553   2.277   4.265   1.660
 6552SOL     OW20554   2.434   5.529   5.284
 6552SOL    HW120555   2.420   5.529   5.383
 6552SOL    HW220556   2.406   5.441   5.246
 6553SOL     OW20557   0.463   3.061   1.589
 6553SOL    HW120558   0.418   3.115   1.518
 6553SOL    HW220559   0.425   2.968   1.589
 6554SOL     OW20560   6.046   1.601   5.914
 6554SOL    HW120561   5.986   1.603   5.994
 6554SOL    HW220562   6.115   1.530   5.925
 6555SOL     OW20563   2.030   0.578   2.054
 6555SOL    HW120564   2.063   0.509   2.118
 6555SOL    HW220565   1.931   0.585   2.059
 6556SOL     OW20566   4.707   4.649   5.007
 6556SOL    HW120567   4.706   4.726   4.944
 6556SOL    HW220568   4.783   4.588   4.985
 6557SOL     OW20569   6.105   5.662   0.671
 6557SOL    HW120570   6.027   5.699   0.622
 6557SOL    HW220571   6.120   5.714   0.755
 6558SOL     OW20572   6.507   6.023   0.810
 6558SOL    HW120573   6.492   6.043   0.713
 6558SOL    HW220574   6.499   5.924   0.826
 6559SOL     OW20575   4.848   3.565   0.746
 6559SOL    HW120576   4.900   3.613   0.674
 6559SOL    HW220577   4.794   3.632   0.797
 6560SOL     OW20578   3.911   3.224   1.071
 6560SOL    HW120579   3.918   3.125   1.060
 6560SOL    HW220580   3.933   3.249   1.166
 6561SOL     OW20581   4.078   3.749   2.343
 6561SOL    HW120582   4.170   3.780   2.367
 6561SOL    HW220583   4.042   3.804   2.268
 6562SOL     OW20584   6.771   4.721   6.096
 6562SOL    HW120585   6.827   4.641   6.119
 6562SOL    HW220586   6.685   4.690   6.054
 6563SOL     OW20587   0.246   5.886   0.025
 6563SOL    HW120588   0.291   5.880   6.959
 6563SOL    HW220589   0.315   5.877   0.097
 6564SOL     OW20590   0.974   3.647   2.363
 6564SOL    HW120591   1.010   3.696   2.283
 6564SOL    HW220592   0.875   3.660   2.368
 6565SOL     OW20593   5.103   2.168   4.953
 6565SOL    HW120594   5.123   2.164   5.051
 6565SOL    HW220595   5.159   2.239   4.910
 6566SOL     OW20596   3.715   0.234   1.330
 6566SOL    HW120597   3.676   0.143   1.343
 6566SOL    HW220598   3.809   0.226   1.296
 6567SOL     OW20599   4.599   2.738   1.137
 6567SOL    HW120600   4.537   2.774   1.206
 6567SOL    HW220601   4.668   2.680   1.181
 6568SOL     OW20602   4.753   4.299   1.500
 6568SOL    HW120603   4.828   4.320   1.563
 6568SOL    HW220604   4.673   4.268   1.552
 6569SOL     OW20605   2.669   5.529   0.828
 6569SOL    HW120606   2.713   5.606   0.782
 6569SOL    HW220607   2.701   5.526   0.923
 6570SOL     OW20608   5.031   0.295   2.308
 6570SOL    HW120609   5.007   0.211   2.259
 6570SOL    HW220610   5.079   0.272   2.393
 6571SOL     OW20611   2.463   5.928   3.098
 6571SOL    HW120612   2.465   5.957   3.193
 6571SOL    HW220613   2.392   5.979   3.049
 6572SOL     OW20614   5.951   3.680   5.478
 6572SOL    HW120615   5.930   3.725   5.391
 6572SOL    HW220616   5.869   3.680   5.536
 6573SOL     OW20617   3.364   0.844   2.387
 6573SOL    HW120618   3.282   0.856   2.330
 6573SOL    HW220619   3.338   0.846   2.483
 6574SOL     OW20620   2.198   6.183   1.973
 6574SOL    HW120621   2.169   6.088   1.989
 6574SOL    HW220622   2.122   6.244   1.992
 6575SOL     OW20623   0.978   1.512   1.553
 6575SOL    HW120624   1.062   1.519   1.607
 6575SOL    HW220625   0.899   1.502   1.613
 6576SOL     OW20626   1.341   6.076   6.746
 6576SOL    HW120627   1.272   6.146   6.765
 6576SOL    HW220628   1.295   5.990   6.721
 6577SOL     OW20629   0.430   1.383   3.703
 6577SOL    HW120630   0.435   1.316   3.628
 6577SOL    HW220631   0.481   1.349   3.781
 6578SOL     OW20632   6.293   5.299   3.682
 6578SOL    HW120633   6.324   5.352   3.761
 6578SOL    HW220634   6.353   5.316   3.604
 6579SOL     OW20635   6.985   3.713   3.849
 6579SOL    HW120636   6.917   3.642   3.830
 6579SOL    HW220637   6.939   3.801   3.863
 6580SOL     OW20638   6.018   0.726   1.409
 6580SOL    HW120639   6.015   0.812   1.358
 6580SOL    HW220640   5.943   0.667   1.379
 6581SOL     OW20641   4.055   1.521   6.064
 6581SOL    HW120642   4.052   1.422   6.050
 6581SOL    HW220643   3.967   1.561   6.036
 6582SOL     OW20644   0.708   6.904   2.764
 6582SOL    HW120645   0.656   6.942   2.687
 6582SOL    HW220646   0.801   6.884   2.734
 6583SOL     OW20647   5.368   1.406   6.594
 6583SOL    HW120648   5.325   1.357   6.670
 6583SOL    HW220649   5.466   1.387   6.594
 6584SOL     OW20650   5.555   1.892   6.510
 6584SOL    HW120651   5.577   1.989   6.499
 6584SOL    HW220652   5.479   1.869   6.450
 6585SOL     OW20653   0.321   1.632   6.990
 6585SOL    HW120654   0.248   1.700   6.976
 6585SOL    HW220655   0.344   1.590   6.902
 6586SOL     OW20656   6.320   1.936   6.221
 6586SOL    HW120657   6.396   1.975   6.273
 6586SOL    HW220658   6.348   1.922   6.126
 6587SOL     OW20659   2.165   5.808   4.021
 6587SOL    HW120660   2.206   5.803   3.930
 6587SOL    HW220661   2.123   5.720   4.044
 6588SOL     OW20662   1.433   3.895   0.845
 6588SOL    HW120663   1.496   3.867   0.918
 6588SOL    HW220664   1.485   3.913   0.762
 6589SOL     OW20665   4.663   0.527   6.556
 6589SOL    HW120666   4.707   0.616   6.567
 6589SOL    HW220667   4.574   0.528   6.603
 6590SOL     OW20668   0.466   1.580   4.927
 6590SOL    HW120669   0.431   1.647   4.862
 6590SOL    HW220670   0.566   1.583   4.927
 6591SOL     OW20671   5.624   6.918   2.553
 6591SOL    HW120672   5.663   6.977   2.623
 6591SOL    HW220673   5.621   6.824   2.587
 6592SOL     OW20674   4.025   0.423   4.645
 6592SOL    HW120675   4.119   0.405   4.672
 6592SOL    HW220676   4.021   0.509   4.594
 6593SOL     OW20677   2.502   2.156   3.940
 6593SOL    HW120678   2.537   2.078   3.992
 6593SOL    HW220679   2.533   2.241   3.983
 6594SOL     OW20680   4.767   0.801   6.922
 6594SOL    HW120681   4.838   0.746   6.878
 6594SOL    HW220682   4.680   0.751   6.920
 6595SOL     OW20683   1.590   3.581   1.224
 6595SOL    HW120684   1.505   3.529   1.218
 6595SOL    HW220685   1.632   3.567   1.314
 6596SOL     OW20686   4.383   0.712   5.831
 6596SOL    HW120687   4.291   0.752   5.838
 6596SOL    HW220688   4.444   0.778   5.786
 6597SOL     OW20689   0.557   6.502   4.595
 6597SOL    HW120690   0.644   6.506   4.546
 6597SOL    HW220691   0.571   6.456   4.682
 6598SOL     OW20692   1.439   5.310   4.859
 6598SOL    HW120693   1.454   5.300   4.761
 6598SOL    HW220694   1.524   5.342   4.902
 6599SOL     OW20695   4.298   5.060   6.010
 6599SOL    HW120696   4.240   4.979   6.002
 6599SOL    HW220697   4.297   5.111   5.924
 6600SOL     OW20698   4.875   4.973   4.910
 6600SOL    HW120699   4.944   4.968   4.838
 6600SOL    HW220700   4.784   4.963   4.870
 6601SOL     OW20701   0.731   0.589   0.508
 6601SOL    HW120702   0.816   0.593   0.560
 6601SOL    HW220703   0.710   0.680   0.472
 6602SOL     OW20704   0.837   2.616   1.062
 6602SOL    HW120705   0.823   2.714   1.077
 6602SOL    HW220706   0.902   2.603   0.987
 6603SOL     OW20707   2.198   3.765   3.777
 6603SOL    HW120708   2.289   3.724   3.785
 6603SOL    HW220709   2.198   3.830   3.701
 6604SOL     OW20710   2.578   5.863   1.605
 6604SOL    HW120711   2.501   5.923   1.628
 6604SOL    HW220712   2.638   5.908   1.539
 6605SOL     OW20713   5.253   5.783   0.343
 6605SOL    HW120714   5.345   5.761   0.377
 6605SOL    HW220715   5.261   5.829   0.255
 6606SOL     OW20716   4.734   0.554   2.450
 6606SOL    HW120717   4.712   0.627   2.516
 6606SOL    HW220718   4.773   0.476   2.499
 6607SOL     OW20719   2.228   0.965   1.690
 6607SOL    HW120720   2.143   1.012   1.664
 6607SOL    HW220721   2.301   1.032   1.702
 6608SOL     OW20722   5.263   3.303   2.950
 6608SOL    HW120723   5.225   3.213   2.970
 6608SOL    HW220724   5.199   3.353   2.890
 6609SOL     OW20725   5.730   0.690   6.938
 6609SOL    HW120726   5.638   0.712   6.972
 6609SOL    HW220727   5.722   0.637   6.853
 6610SOL     OW20728   1.781   0.503   6.928
 6610SOL    HW120729   1.743   0.418   6.962
 6610SOL    HW220730   1.880   0.494   6.920
 6611SOL     OW20731   6.573   2.692   2.776
 6611SOL    HW120732   6.557   2.638   2.858
 6611SOL    HW220733   6.486   2.716   2.733
 6612SOL     OW20734   1.389   5.502   6.396
 6612SOL    HW120735   1.452   5.495   6.319
 6612SOL    HW220736   1.380   5.413   6.441
 6613SOL     OW20737   5.012   5.204   2.946
 6613SOL    HW120738   4.971   5.295   2.941
 6613SOL    HW220739   5.023   5.168   2.854
 6614SOL     OW20740   5.070   5.778   5.941
 6614SOL    HW120741   5.070   5.815   6.033
 6614SOL    HW220742   5.124   5.694   5.939
 6615SOL     OW20743   0.199   3.413   4.989
 6615SOL    HW120744   0.134   3.415   4.913
 6615SOL    HW220745   0.182   3.490   5.051
 6616SOL     OW20746   4.440   1.290   5.578
 6616SOL    HW120747   4.422   1.264   5.483
 6616SOL    HW220748   4.525   1.342   5.583
 6617SOL     OW20749   3.150   6.806   3.902
 6617SOL    HW120750   3.182   6.883   3.958
 6617SOL    HW220751   3.199   6.723   3.928
 6618SOL     OW20752   0.766   3.652   2.170
 6618SOL    HW120753   0.716   3.729   2.208
 6618SOL    HW220754   0.703   3.576   2.153
 6619SOL     OW20755   4.362   0.047   3.872
 6619SOL    HW120756   4.431   0.100   3.922
 6619SOL    HW220757   4.279   0.102   3.863
 6620SOL     OW20758   1.689   2.914   5.969
 6620SOL    HW120759   1.763   2.911   5.902
 6620SOL    HW220760   1.727   2.904   6.061
 6621SOL     OW20761   2.600   3.851   0.353
 6621SOL    HW120762   2.582   3.918   0.425
 6621SOL    HW220763   2.563   3.762   0.380
 6622SOL     OW20764   6.302   6.077   1.024
 6622SOL    HW120765   6.355   6.054   0.942
 6622SOL    HW220766   6.320   6.010   1.095
 6623SOL     OW20767   3.356   3.180   2.038
 6623SOL    HW120768   3.454   3.164   2.038
 6623SOL    HW220769   3.308   3.092   2.033
 6624SOL     OW20770   3.210   5.624   4.838
 6624SOL    HW120771   3.220   5.527   4.859
 6624SOL    HW220772   3.113   5.648   4.837
 6625SOL     OW20773   6.102   1.069   6.660
 6625SOL    HW120774   6.131   1.120   6.741
 6625SOL    HW220775   6.120   1.123   6.578
 6626SOL     OW20776   3.266   5.800   3.073
 6626SOL    HW120777   3.245   5.791   3.171
 6626SOL    HW220778   3.337   5.734   3.048
 6627SOL     OW20779   1.765   0.447   6.256
 6627SOL    HW120780   1.846   0.407   6.298
 6627SOL    HW220781   1.708   0.373   6.217
 6628SOL     OW20782   5.007   4.798   2.319
 6628SOL    HW120783   4.929   4.812   2.258
 6628SOL    HW220784   5.016   4.700   2.339
 6629SOL     OW20785   3.143   6.149   1.299
 6629SOL    HW120786   3.240   6.138   1.321
 6629SOL    HW220787   3.088   6.084   1.351
 6630SOL     OW20788   3.764   1.414   0.117
 6630SOL    HW120789   3.738   1.320   0.094
 6630SOL    HW220790   3.862   1.426   0.101
 6631SOL     OW20791   4.570   0.345   2.142
 6631SOL    HW120792   4.504   0.420   2.135
 6631SOL    HW220793   4.647   0.362   2.080
 6632SOL     OW20794   0.237   1.918   0.705
 6632SOL    HW120795   0.190   1.947   0.621
 6632SOL    HW220796   0.170   1.900   0.776
 6633SOL     OW20797   1.075   5.693   6.857
 6633SOL    HW120798   1.115   5.654   6.774
 6633SOL    HW220799   1.098   5.636   6.935
 6634SOL     OW20800   6.312   3.016   6.122
 6634SOL    HW120801   6.337   3.104   6.080
 6634SOL    HW220802   6.233   3.029   6.182
 6635SOL     OW20803   4.234   5.263   3.453
 6635SOL    HW120804   4.149   5.233   3.410
 6635SOL    HW220805   4.232   5.240   3.551
 6636SOL     OW20806   1.233   3.127   5.602
 6636SOL    HW120807   1.261   3.186   5.527
 6636SOL    HW220808   1.174   3.178   5.664
 6637SOL     OW20809   1.346   0.730   0.380
 6637SOL    HW120810   1.430   0.770   0.416
 6637SOL    HW220811   1.316   0.657   0.442
 6638SOL     OW20812   2.542   5.066   4.776
 6638SOL    HW120813   2.542   5.143   4.841
 6638SOL    HW220814   2.506   4.984   4.821
 6639SOL     OW20815   5.422   5.093   6.229
 6639SOL    HW120816   5.425   5.168   6.295
 6639SOL    HW220817   5.511   5.085   6.185
 6640SOL     OW20818   0.153   1.809   4.276
 6640SOL    HW120819   0.145   1.823   4.177
 6640SOL    HW220820   0.195   1.720   4.294
 6641SOL     OW20821   3.344   4.091   6.498
 6641SOL    HW120822   3.356   4.191   6.500
 6641SOL    HW220823   3.329   4.061   6.404
 6642SOL     OW20824   1.928   5.107   6.901
 6642SOL    HW120825   1.937   5.108   6.801
 6642SOL    HW220826   1.840   5.148   6.926
 6643SOL     OW20827   6.256   4.543   6.162
 6643SOL    HW120828   6.337   4.548   6.221
 6643SOL    HW220829   6.265   4.464   6.101
 6644SOL     OW20830   2.910   4.802   1.878
 6644SOL    HW120831   2.856   4.718   1.874
 6644SOL    HW220832   2.928   4.827   1.973
 6645SOL     OW20833   0.066   4.914   0.069
 6645SOL    HW120834   0.139   4.940   0.006
 6645SOL    HW220835   0.035   4.821   0.049
 6646SOL     OW20836   3.841   5.297   4.274
 6646SOL    HW120837   3.796   5.232   4.336
 6646SOL    HW220838   3.858   5.383   4.323
 6647SOL     OW20839   3.222   0.440   2.520
 6647SOL    HW120840   3.312   0.454   2.562
 6647SOL    HW220841   3.216   0.495   2.436
 6648SOL     OW20842   3.870   5.896   2.927
 6648SOL    HW120843   3.955   5.877   2.975
 6648SOL    HW220844   3.853   5.824   2.860
 6649SOL     OW20845   5.294   1.807   6.382
 6649SOL    HW120846   5.276   1.751   6.462
 6649SOL    HW220847   5.348   1.755   6.315
 6650SOL     OW20848   3.838   0.722   3.090
 6650SOL    HW120849   3.754   0.678   3.121
 6650SOL    HW220850   3.887   0.759   3.168
 6651SOL     OW20851   1.468   2.068   0.370
 6651SOL    HW120852   1.552   2.077   0.316
 6651SOL    HW220853   1.391   2.050   0.310
 6652SOL     OW20854   6.727   4.493   1.066
 6652SOL    HW120855   6.673   4.562   1.018
 6652SOL    HW220856   6.771   4.433   0.999
 6653SOL     OW20857   3.738   4.010   3.102
 6653SOL    HW120858   3.761   4.069   3.180
 6653SOL    HW220859   3.664   4.052   3.050
 6654SOL     OW20860   1.736   2.583   1.314
 6654SOL    HW120861   1.697   2.632   1.236
 6654SOL    HW220862   1.745   2.486   1.291
 6655SOL     OW20863   3.032   6.802   1.942
 6655SOL    HW120864   3.023   6.886   1.889
 6655SOL    HW220865   2.947   6.749   1.936
 6656SOL     OW20866   6.698   0.916   2.680
 6656SOL    HW120867   6.722   0.895   2.775
 6656SOL    HW220868   6.780   0.906   2.623
 6657SOL     OW20869   4.288   0.081   6.159
 6657SOL    HW120870   4.248   0.010   6.101
 6657SOL    HW220871   4.382   0.099   6.129
 6658SOL     OW20872   5.799   0.783   4.945
 6658SOL    HW120873   5.822   0.768   4.849
 6658SOL    HW220874   5.701   0.772   4.959
 6659SOL     OW20875   3.027   2.700   0.082
 6659SOL    HW120876   3.031   2.789   0.129
 6659SOL    HW220877   3.013   2.715   7.008
 6660SOL     OW20878   0.153   6.675   1.888
 6660SOL    HW120879   0.096   6.673   1.970
 6660SOL    HW220880   0.114   6.740   1.823
 6661SOL     OW20881   6.336   5.029   3.684
 6661SOL    HW120882   6.245   5.003   3.715
 6661SOL    HW220883   6.349   5.127   3.695
 6662SOL     OW20884   2.177   1.256   0.329
 6662SOL    HW120885   2.177   1.192   0.252
 6662SOL    HW220886   2.221   1.213   0.408
 6663SOL     OW20887   6.755   5.640   3.232
 6663SOL    HW120888   6.655   5.639   3.228
 6663SOL    HW220889   6.790   5.549   3.213
 6664SOL     OW20890   1.432   0.026   1.556
 6664SOL    HW120891   1.486   0.102   1.592
 6664SOL    HW220892   1.451   6.966   1.608
 6665SOL     OW20893   0.821   6.578   3.100
 6665SOL    HW120894   0.823   6.508   3.028
 6665SOL    HW220895   0.731   6.580   3.143
 6666SOL     OW20896   6.366   1.445   4.874
 6666SOL    HW120897   6.444   1.415   4.929
 6666SOL    HW220898   6.372   1.405   4.783
 6667SOL     OW20899   5.901   5.335   5.129
 6667SOL    HW120900   5.971   5.307   5.063
 6667SOL    HW220901   5.894   5.434   5.131
 6668SOL     OW20902   0.047   5.399   2.004
 6668SOL    HW120903   0.095   5.487   2.010
 6668SOL    HW220904   0.106   5.326   2.037
 6669SOL     OW20905   2.117   4.808   3.047
 6669SOL    HW120906   2.153   4.714   3.057
 6669SOL    HW220907   2.018   4.807   3.060
 6670SOL     OW20908   3.159   4.914   6.862
 6670SOL    HW120909   3.245   4.876   6.830
 6670SOL    HW220910   3.138   4.880   6.954
 6671SOL     OW20911   6.080   4.692   0.054
 6671SOL    HW120912   6.123   4.611   0.094
 6671SOL    HW220913   5.987   4.671   0.026
 6672SOL     OW20914   1.485   0.682   6.010
 6672SOL    HW120915   1.412   0.711   6.072
 6672SOL    HW220916   1.539   0.761   5.982
 6673SOL     OW20917   4.962   5.305   2.438
 6673SOL    HW120918   4.942   5.208   2.450
 6673SOL    HW220919   5.051   5.326   2.477
 6674SOL     OW20920   0.784   5.587   5.670
 6674SOL    HW120921   0.846   5.626   5.601
 6674SOL    HW220922   0.720   5.657   5.701
 6675SOL     OW20923   5.340   3.843   0.320
 6675SOL    HW120924   5.321   3.831   0.223
 6675SOL    HW220925   5.317   3.937   0.348
 6676SOL     OW20926   0.918   3.299   5.160
 6676SOL    HW120927   0.851   3.239   5.204
 6676SOL    HW220928   1.007   3.253   5.159
 6677SOL     OW20929   0.010   3.228   0.168
 6677SOL    HW120930   0.045   3.282   0.244
 6677SOL    HW220931   7.008   3.289   0.093
 6678SOL     OW20932   1.153   3.098   6.388
 6678SOL    HW120933   1.087   3.028   6.416
 6678SOL    HW220934   1.243   3.075   6.424
 6679SOL     OW20935   1.424   2.066   5.004
 6679SOL    HW120936   1.490   1.993   5.017
 6679SOL    HW220937   1.387   2.095   5.093
 6680SOL     OW20938   3.568   5.809   6.221
 6680SOL    HW120939   3.641   5.783   6.157
 6680SOL    HW220940   3.517   5.886   6.183
 6681SOL     OW20941   5.582   5.557   6.824
 6681SOL    HW120942   5.675   5.527   6.804
 6681SOL    HW220943   5.582   5.655   6.844
 6682SOL     OW20944   0.217   4.992   2.625
 6682SOL    HW120945   0.316   4.984   2.621
 6682SOL    HW220946   0.181   5.017   2.535
 6683SOL     OW20947   5.020   2.205   5.464
 6683SOL    HW120948   4.941   2.186   5.406
 6683SOL    HW220949   5.011   2.156   5.550
 6684SOL     OW20950   1.938   6.944   2.331
 6684SOL    HW120951   1.879   6.930   2.252
 6684SOL    HW220952   2.025   6.897   2.318
 6685SOL     OW20953   5.647   2.298   6.739
 6685SOL    HW120954   5.591   2.371   6.777
 6685SOL    HW220955   5.683   2.241   6.813
 6686SOL     OW20956   6.165   4.225   4.539
 6686SOL    HW120957   6.220   4.301   4.572
 6686SOL    HW220958   6.224   4.149   4.514
 6687SOL     OW20959   1.471   1.301   0.910
 6687SOL    HW120960   1.421   1.336   0.989
 6687SOL    HW220961   1.407   1.290   0.833
 6688SOL     OW20962   0.083   4.805   2.775
 6688SOL    HW120963   0.164   4.783   2.830
 6688SOL    HW220964   0.111   4.854   2.693
 6689SOL     OW20965   4.503   3.290   0.959
 6689SOL    HW120966   4.593   3.262   0.927
 6689SOL    HW220967   4.504   3.297   1.059
 6690SOL     OW20968   2.436   2.425   1.499
 6690SOL    HW120969   2.527   2.461   1.478
 6690SOL    HW220970   2.397   2.477   1.575
 6691SOL     OW20971   2.375   5.483   1.353
 6691SOL    HW120972   2.394   5.550   1.282
 6691SOL    HW220973   2.285   5.441   1.337
 6692SOL     OW20974   3.079   4.198   5.151
 6692SOL    HW120975   3.152   4.179   5.216
 6692SOL    HW220976   3.039   4.288   5.171
 6693SOL     OW20977   4.380   3.849   5.844
 6693SOL    HW120978   4.391   3.800   5.930
 6693SOL    HW220979   4.286   3.838   5.811
 6694SOL     OW20980   4.600   6.349   0.931
 6694SOL    HW120981   4.688   6.374   0.892
 6694SOL    HW220982   4.541   6.313   0.859
 6695SOL     OW20983   0.826   1.430   6.789
 6695SOL    HW120984   0.839   1.333   6.812
 6695SOL    HW220985   0.737   1.460   6.822
 6696SOL     OW20986   2.101   2.737   1.574
 6696SOL    HW120987   2.188   2.753   1.527
 6696SOL    HW220988   2.028   2.787   1.528
 6697SOL     OW20989   4.883   1.241   2.693
 6697SOL    HW120990   4.823   1.237   2.612
 6697SOL    HW220991   4.977   1.223   2.665
 6698SOL     OW20992   3.957   3.105   0.271
 6698SOL    HW120993   3.978   3.049   0.351
 6698SOL    HW220994   4.042   3.133   0.227
 6699SOL     OW20995   3.588   4.745   0.068
 6699SOL    HW120996   3.623   4.801   7.016
 6699SOL    HW220997   3.660   4.731   0.136
 6700SOL     OW20998   0.578   5.795   1.336
 6700SOL    HW120999   0.489   5.838   1.352
 6700SOL    HW221000   0.645   5.866   1.313
 6701SOL     OW21001   6.654   1.986   0.858
 6701SOL    HW121002   6.719   1.918   0.825
 6701SOL    HW221003   6.615   2.036   0.781
 6702SOL     OW21004   2.976   1.791   0.730
 6702SOL    HW121005   2.989   1.890   0.720
 6702SOL    HW221006   3.065   1.746   0.733
 6703SOL     OW21007   6.280   1.763   6.992
 6703SOL    HW121008   6.323   1.675   7.010
 6703SOL    HW221009   6.350   1.829   6.966
 6704SOL     OW21010   4.380   2.260   2.336
 6704SOL    HW121011   4.468   2.303   2.317
 6704SOL    HW221012   4.320   2.269   2.256
 6705SOL     OW21013   6.563   2.364   1.747
 6705SOL    HW121014   6.622   2.289   1.777
 6705SOL    HW221015   6.556   2.431   1.821
 6706SOL     OW21016   1.032   3.620   0.541
 6706SOL    HW121017   1.057   3.630   0.445
 6706SOL    HW221018   1.102   3.666   0.598
 6707SOL     OW21019   6.247   5.900   4.469
 6707SOL    HW121020   6.322   5.863   4.524
 6707SOL    HW221021   6.236   5.845   4.386
 6708SOL     OW21022   1.098   5.046   2.097
 6708SOL    HW121023   1.183   5.076   2.141
 6708SOL    HW221024   1.106   4.950   2.071
 6709SOL     OW21025   3.776   6.645   1.959
 6709SOL    HW121026   3.870   6.617   1.941
 6709SOL    HW221027   3.724   6.566   1.992
 6710SOL     OW21028   2.947   2.347   6.356
 6710SOL    HW121029   2.939   2.444   6.329
 6710SOL    HW221030   3.025   2.306   6.307
 6711SOL     OW21031   5.124   3.901   6.431
 6711SOL    HW121032   5.095   3.956   6.353
 6711SOL    HW221033   5.080   3.812   6.427
 6712SOL     OW21034   3.963   5.420   0.391
 6712SOL    HW121035   4.061   5.440   0.386
 6712SOL    HW221036   3.929   5.438   0.483
 6713SOL     OW21037   2.646   2.135   1.472
 6713SOL    HW121038   2.626   2.154   1.568
 6713SOL    HW221039   2.567   2.158   1.416
 6714SOL     OW21040   5.267   0.179   4.892
 6714SOL    HW121041   5.198   0.137   4.950
 6714SOL    HW221042   5.348   0.202   4.946
 6715SOL     OW21043   0.905   2.067   0.578
 6715SOL    HW121044   0.967   1.999   0.617
 6715SOL    HW221045   0.945   2.158   0.589
 6716SOL     OW21046   2.098   6.311   0.881
 6716SOL    HW121047   2.170   6.362   0.928
 6716SOL    HW221048   2.138   6.253   0.810
 6717SOL     OW21049   3.165   3.972   0.401
 6717SOL    HW121050   3.181   3.904   0.329
 6717SOL    HW221051   3.073   4.009   0.392
 6718SOL     OW21052   3.595   6.277   6.588
 6718SOL    HW121053   3.591   6.367   6.545
 6718SOL    HW221054   3.505   6.234   6.581
 6719SOL     OW21055   0.248   0.079   5.801
 6719SOL    HW121056   0.292   7.019   5.835
 6719SOL    HW221057   0.149   0.071   5.814
 6720SOL     OW21058   2.067   5.965   1.888
 6720SOL    HW121059   2.014   5.955   1.804
 6720SOL    HW221060   2.156   5.920   1.878
 6721SOL     OW21061   5.584   6.369   4.470
 6721SOL    HW121062   5.649   6.408   4.404
 6721SOL    HW221063   5.497   6.353   4.424
 6722SOL     OW21064   4.609   3.220   0.084
 6722SOL    HW121065   4.567   3.140   0.127
 6722SOL    HW221066   4.708   3.214   0.091
 6723SOL     OW21067   2.324   6.622   3.095
 6723SOL    HW121068   2.409   6.643   3.144
 6723SOL    HW221069   2.313   6.686   3.020
 6724SOL     OW21070   2.891   4.657   5.445
 6724SOL    HW121071   2.972   4.610   5.478
 6724SOL    HW221072   2.861   4.617   5.359
 6725SOL     OW21073   0.952   4.761   2.336
 6725SOL    HW121074   1.046   4.782   2.362
 6725SOL    HW221075   0.941   4.663   2.325
 6726SOL     OW21076   2.062   2.997   4.640
 6726SOL    HW121077   2.000   3.071   4.613
 6726SOL    HW221078   2.112   3.025   4.723
 6727SOL     OW21079   5.174   3.580   6.419
 6727SOL    HW121080   5.158   3.601   6.516
 6727SOL    HW221081   5.087   3.582   6.370
 6728SOL     OW21082   3.691   2.143   4.396
 6728SOL    HW121083   3.784   2.156   4.362
 6728SOL    HW221084   3.626   2.183   4.331
 6729SOL     OW21085   6.856   0.250   2.570
 6729SOL    HW121086   6.771   0.204   2.595
 6729SOL    HW221087   6.838   0.347   2.555
 6730SOL     OW21088   2.775   0.412   0.313
 6730SOL    HW121089   2.826   0.362   0.243
 6730SOL    HW221090   2.791   0.371   0.403
 6731SOL     OW21091   2.634   4.378   1.404
 6731SOL    HW121092   2.648   4.440   1.328
 6731SOL    HW221093   2.615   4.286   1.370
 6732SOL     OW21094   2.425   6.663   0.446
 6732SOL    HW121095   2.467   6.665   0.355
 6732SOL    HW221096   2.496   6.648   0.515
 6733SOL     OW21097   4.218   5.724   5.829
 6733SOL    HW121098   4.236   5.664   5.907
 6733SOL    HW221099   4.153   5.679   5.767
 6734SOL     OW21100   1.041   3.330   5.788
 6734SOL    HW121101   1.139   3.347   5.791
 6734SOL    HW221102   1.020   3.246   5.837
 6735SOL     OW21103   7.004   4.779   5.941
 6735SOL    HW121104   0.049   4.749   6.008
 6735SOL    HW221105   6.913   4.767   5.979
 6736SOL     OW21106   2.808   2.998   1.707
 6736SOL    HW121107   2.806   3.081   1.764
 6736SOL    HW221108   2.718   2.954   1.709
 6737SOL     OW21109   1.946   1.558   2.473
 6737SOL    HW121110   1.886   1.606   2.410
 6737SOL    HW221111   2.031   1.533   2.427
 6738SOL     OW21112   2.219   1.847   2.599
 6738SOL    HW121113   2.258   1.915   2.661
 6738SOL    HW221114   2.167   1.780   2.652
 6739SOL     OW21115   4.149   6.252   5.068
 6739SOL    HW121116   4.214   6.186   5.029
 6739SOL    HW221117   4.191   6.343   5.069
 6740SOL     OW21118   1.529   1.305   4.400
 6740SOL    HW121119   1.566   1.356   4.478
 6740SOL    HW221120   1.453   1.357   4.360
 6741SOL     OW21121   6.509   1.122   6.018
 6741SOL    HW121122   6.448   1.075   5.954
 6741SOL    HW221123   6.458   1.190   6.070
 6742SOL     OW21124   6.587   5.732   5.476
 6742SOL    HW121125   6.493   5.741   5.444
 6742SOL    HW221126   6.619   5.819   5.511
 6743SOL     OW21127   3.969   3.609   1.172
 6743SOL    HW121128   4.037   3.677   1.198
 6743SOL    HW221129   3.969   3.598   1.073
 6744SOL     OW21130   4.363   4.605   5.580
 6744SOL    HW121131   4.300   4.682   5.567
 6744SOL    HW221132   4.359   4.545   5.500
 6745SOL     OW21133   0.770   4.720   2.914
 6745SOL    HW121134   0.793   4.638   2.966
 6745SOL    HW221135   0.830   4.726   2.834
 6746SOL     OW21136   0.548   1.982   1.488
 6746SOL    HW121137   0.558   2.041   1.568
 6746SOL    HW221138   0.610   1.904   1.496
 6747SOL     OW21139   5.178   5.699   4.862
 6747SOL    HW121140   5.179   5.696   4.762
 6747SOL    HW221141   5.182   5.606   4.898
 6748SOL     OW21142   1.008   0.795   2.584
 6748SOL    HW121143   0.919   0.803   2.541
 6748SOL    HW221144   1.076   0.770   2.515
 6749SOL     OW21145   4.179   0.593   6.741
 6749SOL    HW121146   4.191   0.580   6.839
 6749SOL    HW221147   4.269   0.596   6.697
 6750SOL     OW21148   2.759   2.292   4.863
 6750SOL    HW121149   2.707   2.376   4.852
 6750SOL    HW221150   2.847   2.301   4.816
 6751SOL     OW21151   2.560   2.503   4.752
 6751SOL    HW121152   2.573   2.495   4.653
 6751SOL    HW221153   2.520   2.592   4.774
 6752SOL     OW21154   5.479   2.939   0.861
 6752SOL    HW121155   5.392   2.981   0.834
 6752SOL    HW221156   5.464   2.878   0.938
 6753SOL     OW21157   4.306   1.920   6.509
 6753SOL    HW121158   4.283   1.889   6.417
 6753SOL    HW221159   4.388   1.873   6.541
 6754SOL     OW21160   5.973   1.659   6.475
 6754SOL    HW121161   6.070   1.680   6.488
 6754SOL    HW221162   5.945   1.591   6.543
 6755SOL     OW21163   5.154   1.875   3.581
 6755SOL    HW121164   5.096   1.873   3.499
 6755SOL    HW221165   5.188   1.968   3.595
 6756SOL     OW21166   5.002   5.210   4.174
 6756SOL    HW121167   5.055   5.126   4.167
 6756SOL    HW221168   4.927   5.197   4.239
 6757SOL     OW21169   5.847   6.403   2.008
 6757SOL    HW121170   5.864   6.500   1.992
 6757SOL    HW221171   5.748   6.387   2.010
 6758SOL     OW21172   5.176   3.012   2.200
 6758SOL    HW121173   5.213   3.083   2.139
 6758SOL    HW221174   5.225   2.926   2.186
 6759SOL     OW21175   1.337   4.703   2.988
 6759SOL    HW121176   1.400   4.765   2.943
 6759SOL    HW221177   1.275   4.755   3.047
 6760SOL     OW21178   6.785   4.068   4.045
 6760SOL    HW121179   6.842   4.040   3.967
 6760SOL    HW221180   6.832   4.137   4.099
 6761SOL     OW21181   5.080   2.866   5.578
 6761SOL    HW121182   5.007   2.798   5.591
 6761SOL    HW221183   5.039   2.957   5.566
 6762SOL     OW21184   6.813   4.260   3.534
 6762SOL    HW121185   6.844   4.167   3.553
 6762SOL    HW221186   6.854   4.292   3.449
 6763SOL     OW21187   6.266   6.845   5.573
 6763SOL    HW121188   6.173   6.881   5.582
 6763SOL    HW221189   6.312   6.887   5.496
 6764SOL     OW21190   3.133   3.888   6.658
 6764SOL    HW121191   3.103   3.898   6.564
 6764SOL    HW221192   3.108   3.970   6.710
 6765SOL     OW21193   6.258   3.833   2.435
 6765SOL    HW121194   6.332   3.884   2.391
 6765SOL    HW221195   6.293   3.787   2.517
 6766SOL     OW21196   2.088   0.492   5.328
 6766SOL    HW121197   2.156   0.562   5.307
 6766SOL    HW221198   2.083   0.479   5.427
 6767SOL     OW21199   0.671   2.451   6.215
 6767SOL    HW121200   0.663   2.479   6.311
 6767SOL    HW221201   0.768   2.446   6.190
 6768SOL     OW21202   0.413   7.009   4.318
 6768SOL    HW121203   0.340   0.054   4.313
 6768SOL    HW221204   0.473   7.017   4.239
 6769SOL     OW21205   1.873   2.728   5.244
 6769SOL    HW121206   1.844   2.698   5.335
 6769SOL    HW221207   1.835   2.818   5.225
 6770SOL     OW21208   0.523   1.512   3.240
 6770SOL    HW121209   0.438   1.483   3.284
 6770SOL    HW221210   0.584   1.553   3.308
 6771SOL     OW21211   3.762   2.164   3.453
 6771SOL    HW121212   3.668   2.129   3.456
 6771SOL    HW221213   3.786   2.184   3.358
 6772SOL     OW21214   0.196   1.918   2.458
 6772SOL    HW121215   0.183   1.867   2.373
 6772SOL    HW221216   0.286   1.896   2.495
 6773SOL     OW21217   0.364   6.028   1.793
 6773SOL    HW121218   0.352   6.058   1.888
 6773SOL    HW221219   0.440   5.963   1.788
 6774SOL     OW21220   2.238   2.488   5.712
 6774SOL    HW121221   2.280   2.533   5.633
 6774SOL    HW221222   2.144   2.464   5.690
 6775SOL     OW21223   0.544   2.293   4.861
 6775SOL    HW121224   0.509   2.203   4.887
 6775SOL    HW221225   0.565   2.294   4.764
 6776SOL     OW21226   3.479   4.110   2.699
 6776SOL    HW121227   3.473   4.125   2.600
 6776SOL    HW221228   3.564   4.062   2.720
 6777SOL     OW21229   5.993   5.248   0.262
 6777SOL    HW121230   5.951   5.337   0.245
 6777SOL    HW221231   5.929   5.175   0.237
 6778SOL     OW21232   6.704   4.805   2.582
 6778SOL    HW121233   6.769   4.877   2.560
 6778SOL    HW221234   6.677   4.757   2.498
 6779SOL     OW21235   5.761   4.270   5.950
 6779SOL    HW121236   5.695   4.205   5.986
 6779SOL    HW221237   5.767   4.349   6.012
 6780SOL     OW21238   2.813   2.174   3.022
 6780SOL    HW121239   2.805   2.131   2.932
 6780SOL    HW221240   2.901   2.151   3.063
 6781SOL     OW21241   6.908   1.496   4.206
 6781SOL    HW121242   6.922   1.464   4.300
 6781SOL    HW221243   6.881   1.592   4.207
 6782SOL     OW21244   6.871   1.694   3.102
 6782SOL    HW121245   6.837   1.661   3.190
 6782SOL    HW221246   6.970   1.706   3.108
 6783SOL     OW21247   1.722   5.084   4.892
 6783SOL    HW121248   1.802   5.142   4.904
 6783SOL    HW221249   1.709   5.065   4.794
 6784SOL     OW21250   2.295   3.815   1.451
 6784SOL    HW121251   2.293   3.800   1.550
 6784SOL    HW221252   2.278   3.912   1.432
 6785SOL     OW21253   5.074   5.498   4.422
 6785SOL    HW121254   5.062   5.400   4.438
 6785SOL    HW221255   4.986   5.538   4.396
 6786SOL     OW21256   6.280   2.333   6.848
 6786SOL    HW121257   6.378   2.353   6.847
 6786SOL    HW221258   6.236   2.376   6.769
 6787SOL     OW21259   3.923   2.009   6.231
 6787SOL    HW121260   3.872   2.011   6.317
 6787SOL    HW221261   4.008   2.060   6.242
 6788SOL     OW21262   6.114   4.009   3.157
 6788SOL    HW121263   6.043   4.072   3.189
 6788SOL    HW221264   6.077   3.953   3.083
 6789SOL     OW21265   6.239   4.096   3.965
 6789SOL    HW121266   6.297   4.022   3.999
 6789SOL    HW221267   6.153   4.059   3.932
 6790SOL     OW21268   1.001   5.215   5.993
 6790SOL    HW121269   1.058   5.228   6.075
 6790SOL    HW221270   1.010   5.121   5.961
 6791SOL     OW21271   3.283   0.425   3.344
 6791SOL    HW121272   3.189   0.426   3.311
 6791SOL    HW221273   3.312   0.519   3.365
 6792SOL     OW21274   4.008   0.039   5.508
 6792SOL    HW121275   3.971   0.123   5.547
 6792SOL    HW221276   4.068   0.061   5.431
 6793SOL     OW21277   1.626   3.590   0.189
 6793SOL    HW121278   1.672   3.664   0.141
 6793SOL    HW221279   1.655   3.502   0.151
 6794SOL     OW21280   4.827   1.786   5.475
 6794SOL    HW121281   4.884   1.704   5.465
 6794SOL    HW221282   4.731   1.762   5.460
 6795SOL     OW21283   1.108   1.170   1.117
 6795SOL    HW121284   1.065   1.227   1.047
 6795SOL    HW221285   1.207   1.177   1.110
 6796SOL     OW21286   6.655   1.250   2.995
 6796SOL    HW121287   6.628   1.231   2.901
 6796SOL    HW221288   6.642   1.348   3.015
 6797SOL     OW21289   1.196   2.693   1.034
 6797SOL    HW121290   1.187   2.792   1.021
 6797SOL    HW221291   1.118   2.646   0.991
 6798SOL     OW21292   5.538   0.280   1.540
 6798SOL    HW121293   5.637   0.268   1.530
 6798SOL    HW221294   5.516   0.378   1.534
 6799SOL     OW21295   6.209   0.669   3.401
 6799SOL    HW121296   6.306   0.651   3.384
 6799SOL    HW221297   6.184   0.637   3.492
 6800SOL     OW21298   0.127   1.961   1.714
 6800SOL    HW121299   0.048   2.003   1.761
 6800SOL    HW221300   0.207   2.019   1.727
 6801SOL     OW21301   0.671   6.093   5.313
 6801SOL    HW121302   0.758   6.045   5.299
 6801SOL    HW221303   0.662   6.117   5.410
 6802SOL     OW21304   2.940   4.894   2.182
 6802SOL    HW121305   2.906   4.980   2.146
 6802SOL    HW221306   2.884   4.865   2.259
 6803SOL     OW21307   5.248   4.695   5.758
 6803SOL    HW121308   5.310   4.755   5.707
 6803SOL    HW221309   5.178   4.749   5.804
 6804SOL     OW21310   3.343   4.880   3.083
 6804SOL    HW121311   3.304   4.916   2.998
 6804SOL    HW221312   3.434   4.843   3.064
 6805SOL     OW21313   0.054   4.067   5.329
 6805SOL    HW121314   0.041   3.969   5.342
 6805SOL    HW221315   0.018   4.116   5.408
 6806SOL     OW21316   0.087   2.197   2.516
 6806SOL    HW121317   0.076   2.098   2.505
 6806SOL    HW221318   0.156   2.215   2.587
 6807SOL     OW21319   3.094   4.102   1.896
 6807SOL    HW121320   3.081   4.082   1.993
 6807SOL    HW221321   3.049   4.032   1.840
 6808SOL     OW21322   3.587   1.056   4.466
 6808SOL    HW121323   3.498   1.091   4.437
 6808SOL    HW221324   3.587   0.956   4.461
 6809SOL     OW21325   5.649   3.178   0.953
 6809SOL    HW121326   5.589   3.208   1.028
 6809SOL    HW221327   5.610   3.098   0.908
 6810SOL     OW21328   2.436   0.453   4.467
 6810SOL    HW121329   2.444   0.369   4.413
 6810SOL    HW221330   2.523   0.471   4.512
 6811SOL     OW21331   6.615   1.367   1.136
 6811SOL    HW121332   6.653   1.440   1.193
 6811SOL    HW221333   6.515   1.372   1.139
 6812SOL     OW21334   3.525   3.889   5.128
 6812SOL    HW121335   3.432   3.855   5.141
 6812SOL    HW221336   3.535   3.977   5.173
 6813SOL     OW21337   5.941   4.069   1.616
 6813SOL    HW121338   5.936   4.168   1.603
 6813SOL    HW221339   5.912   4.023   1.533
 6814SOL     OW21340   5.239   1.271   6.796
 6814SOL    HW121341   5.203   1.182   6.769
 6814SOL    HW221342   5.180   1.311   6.866
 6815SOL     OW21343   1.822   4.780   5.636
 6815SOL    HW121344   1.893   4.748   5.574
 6815SOL    HW221345   1.808   4.878   5.622
 6816SOL     OW21346   0.566   0.978   2.914
 6816SOL    HW121347   0.505   0.901   2.928
 6816SOL    HW221348   0.518   1.063   2.933
 6817SOL     OW21349   3.561   2.068   2.272
 6817SOL    HW121350   3.628   2.139   2.252
 6817SOL    HW221351   3.552   2.007   2.193
 6818SOL     OW21352   1.662   6.914   5.465
 6818SOL    HW121353   1.652   6.821   5.500
 6818SOL    HW221354   1.688   6.912   5.369
 6819SOL     OW21355   4.900   4.313   1.725
 6819SOL    HW121356   4.976   4.309   1.790
 6819SOL    HW221357   4.827   4.370   1.762
 6820SOL     OW21358   2.943   5.959   1.778
 6820SOL    HW121359   2.883   5.888   1.740
 6820SOL    HW221360   3.025   5.916   1.816
 6821SOL     OW21361   3.925   2.719   5.318
 6821SOL    HW121362   3.997   2.671   5.267
 6821SOL    HW221363   3.893   2.661   5.393
 6822SOL     OW21364   6.672   2.703   6.538
 6822SOL    HW121365   6.708   2.645   6.611
 6822SOL    HW221366   6.629   2.645   6.468
 6823SOL     OW21367   6.158   3.396   6.154
 6823SOL    HW121368   6.069   3.354   6.137
 6823SOL    HW221369   6.157   3.491   6.122
 6824SOL     OW21370   0.918   0.698   5.821
 6824SOL    HW121371   0.923   0.782   5.767
 6824SOL    HW221372   0.830   0.653   5.803
 6825SOL     OW21373   5.748   4.615   1.023
 6825SOL    HW121374   5.768   4.623   0.926
 6825SOL    HW221375   5.798   4.536   1.061
 6826SOL     OW21376   6.514   4.011   3.699
 6826SOL    HW121377   6.462   4.084   3.745
 6826SOL    HW221378   6.568   3.961   3.766
 6827SOL     OW21379   4.261   5.709   4.528
 6827SOL    HW121380   4.227   5.690   4.621
 6827SOL    HW221381   4.326   5.785   4.531
 6828SOL     OW21382   2.791   2.136   2.744
 6828SOL    HW121383   2.729   2.062   2.718
 6828SOL    HW221384   2.742   2.223   2.741
 6829SOL     OW21385   4.013   6.805   4.227
 6829SOL    HW121386   3.937   6.862   4.257
 6829SOL    HW221387   4.046   6.750   4.305
 6830SOL     OW21388   4.924   0.018   3.347
 6830SOL    HW121389   5.003   0.048   3.294
 6830SOL    HW221390   4.951   6.971   3.412
 6831SOL     OW21391   1.670   1.598   6.148
 6831SOL    HW121392   1.756   1.552   6.171
 6831SOL    HW221393   1.620   1.543   6.080
 6832SOL     OW21394   3.033   2.491   0.277
 6832SOL    HW121395   3.125   2.458   0.296
 6832SOL    HW221396   3.036   2.558   0.203
 6833SOL     OW21397   3.369   4.814   5.914
 6833SOL    HW121398   3.456   4.765   5.900
 6833SOL    HW221399   3.308   4.759   5.971
 6834SOL     OW21400   5.585   6.855   1.101
 6834SOL    HW121401   5.645   6.934   1.087
 6834SOL    HW221402   5.636   6.780   1.143
 6835SOL     OW21403   2.679   1.686   4.576
 6835SOL    HW121404   2.767   1.658   4.613
 6835SOL    HW221405   2.693   1.757   4.507
 6836SOL     OW21406   2.073   4.257   5.911
 6836SOL    HW121407   1.988   4.224   5.953
 6836SOL    HW221408   2.124   4.179   5.874
 6837SOL     OW21409   0.811   0.327   1.765
 6837SOL    HW121410   0.903   0.312   1.729
 6837SOL    HW221411   0.747   0.337   1.689
 6838SOL     OW21412   2.776   3.806   5.308
 6838SOL    HW121413   2.812   3.773   5.395
 6838SOL    HW221414   2.851   3.842   5.252
 6839SOL     OW21415   5.998   2.832   4.300
 6839SOL    HW121416   6.016   2.930   4.303
 6839SOL    HW221417   5.940   2.811   4.222
 6840SOL     OW21418   2.761   6.923   5.714
 6840SOL    HW121419   2.663   6.913   5.696
 6840SOL    HW221420   2.795   7.007   5.673
 6841SOL     OW21421   4.112   5.946   1.395
 6841SOL    HW121422   4.131   6.000   1.314
 6841SOL    HW221423   4.083   6.005   1.470
 6842SOL     OW21424   0.352   3.852   6.055
 6842SOL    HW121425   0.435   3.830   6.107
 6842SOL    HW221426   0.274   3.803   6.095
 6843SOL     OW21427   3.302   2.016   2.295
 6843SOL    HW121428   3.395   2.053   2.295
 6843SOL    HW221429   3.246   2.070   2.232
 6844SOL     OW21430   4.513   4.916   3.878
 6844SOL    HW121431   4.569   4.997   3.862
 6844SOL    HW221432   4.564   4.850   3.932
 6845SOL     OW21433   4.773   4.569   2.088
 6845SOL    HW121434   4.764   4.659   2.129
 6845SOL    HW221435   4.787   4.500   2.159
 6846SOL     OW21436   3.215   3.106   2.294
 6846SOL    HW121437   3.244   3.029   2.237
 6846SOL    HW221438   3.294   3.164   2.315
 6847SOL     OW21439   6.216   3.449   1.305
 6847SOL    HW121440   6.264   3.472   1.221
 6847SOL    HW221441   6.159   3.527   1.333
 6848SOL     OW21442   0.861   6.437   3.573
 6848SOL    HW121443   0.898   6.528   3.586
 6848SOL    HW221444   0.837   6.398   3.662
 6849SOL     OW21445   3.706   6.616   3.882
 6849SOL    HW121446   3.802   6.625   3.853
 6849SOL    HW221447   3.702   6.570   3.970
 6850SOL     OW21448   5.419   3.084   2.618
 6850SOL    HW121449   5.365   3.039   2.689
 6850SOL    HW221450   5.363   3.097   2.536
 6851SOL     OW21451   1.375   5.191   5.461
 6851SOL    HW121452   1.376   5.222   5.366
 6851SOL    HW221453   1.393   5.268   5.522
 6852SOL     OW21454   0.503   3.986   1.885
 6852SOL    HW121455   0.436   3.983   1.960
 6852SOL    HW221456   0.486   4.067   1.829
 6853SOL     OW21457   0.763   3.805   4.988
 6853SOL    HW121458   0.720   3.715   4.977
 6853SOL    HW221459   0.750   3.836   5.082
 6854SOL     OW21460   6.349   2.561   6.676
 6854SOL    HW121461   6.351   2.576   6.578
 6854SOL    HW221462   6.350   2.649   6.723
 6855SOL     OW21463   2.713   6.879   1.686
 6855SOL    HW121464   2.801   6.918   1.714
 6855SOL    HW221465   2.696   6.902   1.590
 6856SOL     OW21466   5.509   3.894   5.244
 6856SOL    HW121467   5.443   3.901   5.319
 6856SOL    HW221468   5.516   3.799   5.214
 6857SOL     OW21469   4.072   1.558   5.508
 6857SOL    HW121470   4.031   1.632   5.562
 6857SOL    HW221471   4.075   1.474   5.563
 6858SOL     OW21472   3.905   3.098   4.869
 6858SOL    HW121473   3.894   3.016   4.925
 6858SOL    HW221474   3.951   3.169   4.922
 6859SOL     OW21475   3.749   0.715   0.890
 6859SOL    HW121476   3.828   0.723   0.829
 6859SOL    HW221477   3.714   0.806   0.911
 6860SOL     OW21478   5.242   3.555   0.049
 6860SOL    HW121479   5.283   3.523   0.135
 6860SOL    HW221480   5.310   3.608   7.021
 6861SOL     OW21481   6.541   4.929   6.857
 6861SOL    HW121482   6.472   4.875   6.905
 6861SOL    HW221483   6.567   5.007   6.913
 6862SOL     OW21484   3.281   5.633   3.910
 6862SOL    HW121485   3.330   5.657   3.994
 6862SOL    HW221486   3.196   5.685   3.904
 6863SOL     OW21487   5.332   2.677   4.318
 6863SOL    HW121488   5.327   2.706   4.413
 6863SOL    HW221489   5.377   2.748   4.264
 6864SOL     OW21490   3.169   6.178   4.671
 6864SOL    HW121491   3.082   6.160   4.716
 6864SOL    HW221492   3.178   6.120   4.591
 6865SOL     OW21493   6.555   4.580   3.786
 6865SOL    HW121494   6.546   4.537   3.696
 6865SOL    HW221495   6.572   4.677   3.774
 6866SOL     OW21496   6.831   3.439   2.394
 6866SOL    HW121497   6.745   3.395   2.368
 6866SOL    HW221498   6.867   3.393   2.475
 6867SOL     OW21499   2.154   4.144   2.152
 6867SOL    HW121500   2.157   4.058   2.203
 6867SOL    HW221501   2.173   4.220   2.214
 6868SOL     OW21502   2.093   5.509   4.542
 6868SOL    HW121503   2.054   5.599   4.523
 6868SOL    HW221504   2.182   5.501   4.496
 6869SOL     OW21505   5.670   2.528   5.445
 6869SOL    HW121506   5.722   2.456   5.490
 6869SOL    HW221507   5.578   2.532   5.484
 6870SOL     OW21508   5.640   3.729   3.051
 6870SOL    HW121509   5.699   3.667   2.999
 6870SOL    HW221510   5.547   3.723   3.017
 6871SOL     OW21511   5.240   5.759   0.913
 6871SOL    HW121512   5.188   5.686   0.870
 6871SOL    HW221513   5.186   5.843   0.915
 6872SOL     OW21514   1.804   3.729   6.559
 6872SOL    HW121515   1.848   3.676   6.632
 6872SOL    HW221516   1.867   3.740   6.483
 6873SOL     OW21517   6.119   3.853   6.442
 6873SOL    HW121518   6.210   3.876   6.407
 6873SOL    HW221519   6.116   3.757   6.467
 6874SOL     OW21520   0.432   2.686   4.650
 6874SOL    HW121521   0.416   2.604   4.705
 6874SOL    HW221522   0.352   2.747   4.656
 6875SOL     OW21523   2.922   1.350   3.326
 6875SOL    HW121524   2.929   1.358   3.426
 6875SOL    HW221525   2.864   1.424   3.291
 6876SOL     OW21526   4.123   6.196   6.860
 6876SOL    HW121527   4.179   6.279   6.857
 6876SOL    HW221528   4.181   6.118   6.883
 6877SOL     OW21529   1.984   4.301   0.094
 6877SOL    HW121530   2.065   4.257   0.131
 6877SOL    HW221531   2.012   4.371   0.027
 6878SOL     OW21532   1.768   1.380   5.518
 6878SOL    HW121533   1.823   1.337   5.590
 6878SOL    HW221534   1.823   1.389   5.435
 6879SOL     OW21535   1.520   2.077   6.321
 6879SOL    HW121536   1.485   2.028   6.400
 6879SOL    HW221537   1.588   2.145   6.350
 6880SOL     OW21538   2.135   4.080   4.642
 6880SOL    HW121539   2.109   4.021   4.566
 6880SOL    HW221540   2.160   4.025   4.721
 6881SOL     OW21541   0.119   3.817   2.111
 6881SOL    HW121542   0.105   3.732   2.161
 6881SOL    HW221543   0.051   3.823   2.037
 6882SOL     OW21544   1.897   0.393   5.134
 6882SOL    HW121545   1.911   0.294   5.132
 6882SOL    HW221546   1.966   0.435   5.192
 6883SOL     OW21547   4.409   7.020   1.479
 6883SOL    HW121548   4.329   0.056   1.467
 6883SOL    HW221549   4.388   6.928   1.447
 6884SOL     OW21550   1.882   5.413   3.973
 6884SOL    HW121551   1.935   5.349   3.917
 6884SOL    HW221552   1.884   5.504   3.930
 6885SOL     OW21553   2.532   5.491   4.242
 6885SOL    HW121554   2.549   5.414   4.304
 6885SOL    HW221555   2.582   5.476   4.156
 6886SOL     OW21556   5.896   1.231   2.481
 6886SOL    HW121557   5.874   1.181   2.565
 6886SOL    HW221558   5.938   1.318   2.504
 6887SOL     OW21559   5.504   0.848   4.489
 6887SOL    HW121560   5.557   0.773   4.450
 6887SOL    HW221561   5.441   0.811   4.557
 6888SOL     OW21562   5.833   0.030   4.780
 6888SOL    HW121563   5.857   6.956   4.778
 6888SOL    HW221564   5.755   0.046   4.719
 6889SOL     OW21565   1.318   4.380   5.939
 6889SOL    HW121566   1.302   4.309   5.871
 6889SOL    HW221567   1.275   4.465   5.908
 6890SOL     OW21568   1.865   6.831   1.316
 6890SOL    HW121569   1.817   6.919   1.310
 6890SOL    HW221570   1.953   6.844   1.361
 6891SOL     OW21571   1.143   4.316   3.993
 6891SOL    HW121572   1.239   4.327   3.970
 6891SOL    HW221573   1.116   4.221   3.979
 6892SOL     OW21574   3.023   0.293   3.829
 6892SOL    HW121575   2.977   0.334   3.750
 6892SOL    HW221576   2.958   0.239   3.882
 6893SOL     OW21577   4.383   6.027   3.159
 6893SOL    HW121578   4.427   6.104   3.112
 6893SOL    HW221579   4.453   5.964   3.192
 6894SOL     OW21580   6.583   5.011   6.586
 6894SOL    HW121581   6.611   4.932   6.532
 6894SOL    HW221582   6.533   4.981   6.666
 6895SOL     OW21583   2.836   4.602   6.856
 6895SOL    HW121584   2.903   4.601   6.782
 6895SOL    HW221585   2.744   4.601   6.817
 6896SOL     OW21586   3.390   0.167   3.300
 6896SOL    HW121587   3.336   0.118   3.232
 6896SOL    HW221588   3.351   0.258   3.315
 6897SOL     OW21589   3.619   3.795   0.418
 6897SOL    HW121590   3.625   3.813   0.320
 6897SOL    HW221591   3.563   3.865   0.462
 6898SOL     OW21592   4.205   1.861   2.161
 6898SOL    HW121593   4.149   1.941   2.184
 6898SOL    HW221594   4.153   1.778   2.182
 6899SOL     OW21595   4.826   6.235   6.984
 6899SOL    HW121596   4.920   6.209   7.003
 6899SOL    HW221597   4.822   6.285   6.897
 6900SOL     OW21598   5.254   0.297   6.490
 6900SOL    HW121599   5.223   0.203   6.479
 6900SOL    HW221600   5.314   0.322   6.414
 6901SOL     OW21601   1.678   6.946   6.693
 6901SOL    HW121602   1.757   6.904   6.737
 6901SOL    HW221603   1.708   7.003   6.617
 6902SOL     OW21604   6.963   6.439   0.619
 6902SOL    HW121605   0.024   6.404   0.577
 6902SOL    HW221606   6.986   6.518   0.677
 6903SOL     OW21607   4.462   4.761   0.498
 6903SOL    HW121608   4.455   4.817   0.415
 6903SOL    HW221609   4.371   4.726   0.522
 6904SOL     OW21610   6.189   1.570   3.901
 6904SOL    HW121611   6.182   1.610   3.992
 6904SOL    HW221612   6.276   1.521   3.893
 6905SOL     OW21613   5.938   6.523   1.116
 6905SOL    HW121614   5.922   6.572   1.030
 6905SOL    HW221615   5.870   6.450   1.126
 6906SOL     OW21616   4.074   0.500   2.827
 6906SOL    HW121617   4.013   0.574   2.800
 6906SOL    HW221618   4.053   0.471   2.921
 6907SOL     OW21619   3.279   1.475   1.557
 6907SOL    HW121620   3.202   1.532   1.587
 6907SOL    HW221621   3.350   1.533   1.516
 6908SOL     OW21622   1.397   6.443   5.373
 6908SOL    HW121623   1.377   6.540   5.361
 6908SOL    HW221624   1.491   6.424   5.346
 6909SOL     OW21625   4.550   4.273   0.204
 6909SOL    HW121626   4.496   4.349   0.170
 6909SOL    HW221627   4.607   4.236   0.131
 6910SOL     OW21628   6.637   1.641   1.793
 6910SOL    HW121629   6.575   1.676   1.864
 6910SOL    HW221630   6.699   1.713   1.764
 6911SOL     OW21631   4.296   1.331   4.912
 6911SOL    HW121632   4.363   1.268   4.872
 6911SOL    HW221633   4.231   1.279   4.967
 6912SOL     OW21634   5.314   5.077   0.845
 6912SOL    HW121635   5.326   5.169   0.882
 6912SOL    HW221636   5.278   5.017   0.916
 6913SOL     OW21637   5.485   5.213   4.574
 6913SOL    HW121638   5.453   5.183   4.663
 6913SOL    HW221639   5.407   5.227   4.513
 6914SOL     OW21640   6.239   5.429   0.722
 6914SOL    HW121641   6.220   5.410   0.819
 6914SOL    HW221642   6.196   5.515   0.696
 6915SOL     OW21643   0.756   4.978   2.645
 6915SOL    HW121644   0.832   4.972   2.709
 6915SOL    HW221645   0.734   4.886   2.612
 6916SOL     OW21646   6.454   3.040   0.274
 6916SOL    HW121647   6.481   3.038   0.178
 6916SOL    HW221648   6.517   2.983   0.327
 6917SOL     OW21649   5.029   6.266   6.079
 6917SOL    HW121650   5.117   6.264   6.033
 6917SOL    HW221651   4.960   6.221   6.022
 6918SOL     OW21652   0.053   3.085   3.650
 6918SOL    HW121653   0.062   3.036   3.564
 6918SOL    HW221654   0.143   3.115   3.681
 6919SOL     OW21655   2.189   5.961   2.600
 6919SOL    HW121656   2.115   5.944   2.666
 6919SOL    HW221657   2.269   5.997   2.649
 6920SOL     OW21658   5.036   6.428   4.309
 6920SOL    HW121659   5.032   6.526   4.288
 6920SOL    HW221660   4.950   6.385   4.282
 6921SOL     OW21661   0.139   0.927   3.779
 6921SOL    HW121662   0.227   0.963   3.750
 6921SOL    HW221663   0.072   0.939   3.705
 6922SOL     OW21664   2.628   6.770   0.660
 6922SOL    HW121665   2.680   6.748   0.578
 6922SOL    HW221666   2.627   6.869   0.674
 6923SOL     OW21667   4.554   0.890   3.971
 6923SOL    HW121668   4.572   0.982   4.005
 6923SOL    HW221669   4.460   0.864   3.992
 6924SOL     OW21670   6.938   5.545   1.622
 6924SOL    HW121671   6.845   5.583   1.619
 6924SOL    HW221672   6.991   5.579   1.545
 6925SOL     OW21673   4.295   6.052   2.818
 6925SOL    HW121674   4.257   6.143   2.838
 6925SOL    HW221675   4.387   6.062   2.781
 6926SOL     OW21676   2.908   3.397   4.380
 6926SOL    HW121677   2.948   3.367   4.467
 6926SOL    HW221678   2.948   3.343   4.305
 6927SOL     OW21679   4.871   3.919   6.201
 6927SOL    HW121680   4.786   3.948   6.155
 6927SOL    HW221681   4.949   3.950   6.147
 6928SOL     OW21682   4.820   0.810   6.204
 6928SOL    HW121683   4.907   0.800   6.156
 6928SOL    HW221684   4.813   0.741   6.276
 6929SOL     OW21685   4.070   5.793   0.653
 6929SOL    HW121686   4.027   5.811   0.564
 6929SOL    HW221687   3.999   5.783   0.722
 6930SOL     OW21688   0.519   0.235   2.782
 6930SOL    HW121689   0.519   0.144   2.740
 6930SOL    HW221690   0.429   0.277   2.771
 6931SOL     OW21691   1.989   1.295   1.831
 6931SOL    HW121692   2.079   1.333   1.851
 6931SOL    HW221693   1.996   1.230   1.755
 6932SOL     OW21694   3.215   1.891   0.358
 6932SOL    HW121695   3.147   1.960   0.336
 6932SOL    HW221696   3.261   1.914   0.443
 6933SOL     OW21697   4.216   5.502   6.016
 6933SOL    HW121698   4.139   5.449   5.980
 6933SOL    HW221699   4.302   5.460   5.989
 6934SOL     OW21700   5.093   3.356   6.727
 6934SOL    HW121701   5.188   3.330   6.706
 6934SOL    HW221702   5.079   3.452   6.704
 6935SOL     OW21703   4.512   5.975   3.484
 6935SOL    HW121704   4.541   5.891   3.437
 6935SOL    HW221705   4.417   5.965   3.514
 6936SOL     OW21706   1.265   3.365   1.171
 6936SOL    HW121707   1.187   3.308   1.196
 6936SOL    HW221708   1.241   3.462   1.182
 6937SOL     OW21709   4.512   0.099   5.967
 6937SOL    HW121710   4.529   0.042   5.886
 6937SOL    HW221711   4.447   0.171   5.943
 6938SOL     OW21712   5.299   2.795   5.428
 6938SOL    HW121713   5.222   2.783   5.367
 6938SOL    HW221714   5.277   2.865   5.496
 6939SOL     OW21715   6.843   4.334   2.447
 6939SOL    HW121716   6.771   4.404   2.453
 6939SOL    HW221717   6.836   4.287   2.359
 6940SOL     OW21718   4.949   0.525   5.969
 6940SOL    HW121719   4.857   0.490   5.983
 6940SOL    HW221720   4.951   0.584   5.888
 6941SOL     OW21721   4.095   3.557   3.432
 6941SOL    HW121722   4.077   3.533   3.527
 6941SOL    HW221723   4.158   3.490   3.392
 6942SOL     OW21724   6.715   2.668   0.200
 6942SOL    HW121725   6.641   2.601   0.192
 6942SOL    HW221726   6.791   2.628   0.251
 6943SOL     OW21727   6.007   5.882   6.110
 6943SOL    HW121728   6.069   5.946   6.065
 6943SOL    HW221729   5.913   5.917   6.104
 6944SOL     OW21730   0.978   5.520   6.104
 6944SOL    HW121731   0.918   5.599   6.092
 6944SOL    HW221732   0.960   5.453   6.031
 6945SOL     OW21733   6.781   2.768   5.931
 6945SOL    HW121734   6.773   2.843   5.866
 6945SOL    HW221735   6.694   2.756   5.979
 6946SOL     OW21736   5.602   4.026   2.667
 6946SOL    HW121737   5.570   4.088   2.595
 6946SOL    HW221738   5.690   3.987   2.639
 6947SOL     OW21739   3.209   6.534   2.724
 6947SOL    HW121740   3.181   6.627   2.702
 6947SOL    HW221741   3.246   6.490   2.643
 6948SOL     OW21742   4.781   0.773   6.512
 6948SOL    HW121743   4.717   0.836   6.467
 6948SOL    HW221744   4.872   0.787   6.475
 6949SOL     OW21745   5.262   6.728   3.504
 6949SOL    HW121746   5.275   6.747   3.602
 6949SOL    HW221747   5.167   6.702   3.488
 6950SOL     OW21748   2.332   1.429   3.135
 6950SOL    HW121749   2.361   1.338   3.164
 6950SOL    HW221750   2.400   1.468   3.073
 6951SOL     OW21751   6.654   5.630   6.109
 6951SOL    HW121752   6.606   5.546   6.133
 6951SOL    HW221753   6.652   5.644   6.010
 6952SOL     OW21754   0.473   5.231   4.831
 6952SOL    HW121755   0.537   5.168   4.787
 6952SOL    HW221756   0.437   5.189   4.914
 6953SOL     OW21757   4.720   1.310   5.901
 6953SOL    HW121758   4.694   1.285   5.994
 6953SOL    HW221759   4.744   1.227   5.849
 6954SOL     OW21760   6.598   2.881   4.142
 6954SOL    HW121761   6.664   2.836   4.202
 6954SOL    HW221762   6.591   2.831   4.056
 6955SOL     OW21763   0.270   6.188   2.033
 6955SOL    HW121764   0.274   6.287   2.022
 6955SOL    HW221765   0.348   6.158   2.088
 6956SOL     OW21766   4.557   5.214   1.821
 6956SOL    HW121767   4.633   5.278   1.811
 6956SOL    HW221768   4.544   5.163   1.736
 6957SOL     OW21769   6.969   4.855   1.644
 6957SOL    HW121770   7.009   4.795   1.574
 6957SOL    HW221771   6.935   4.799   1.719
 6958SOL     OW21772   2.326   2.906   6.253
 6958SOL    HW121773   2.267   2.827   6.241
 6958SOL    HW221774   2.344   2.921   6.350
 6959SOL     OW21775   3.693   1.748   4.892
 6959SOL    HW121776   3.730   1.762   4.800
 6959SOL    HW221777   3.644   1.830   4.921
 6960SOL     OW21778   0.235   4.706   6.897
 6960SOL    HW121779   0.152   4.666   6.935
 6960SOL    HW221780   0.228   4.806   6.897
 6961SOL     OW21781   1.114   1.291   3.441
 6961SOL    HW121782   1.096   1.291   3.343
 6961SOL    HW221783   1.154   1.204   3.468
 6962SOL     OW21784   4.984   4.689   1.687
 6962SOL    HW121785   4.918   4.752   1.647
 6962SOL    HW221786   5.025   4.633   1.615
 6963SOL     OW21787   0.273   4.835   1.842
 6963SOL    HW121788   0.214   4.901   1.794
 6963SOL    HW221789   0.235   4.816   1.932
 6964SOL     OW21790   4.190   5.292   4.776
 6964SOL    HW121791   4.214   5.197   4.754
 6964SOL    HW221792   4.097   5.311   4.747
 6965SOL     OW21793   0.135   2.697   5.898
 6965SOL    HW121794   0.064   2.765   5.877
 6965SOL    HW221795   0.093   2.617   5.940
 6966SOL     OW21796   4.943   2.195   2.680
 6966SOL    HW121797   4.958   2.100   2.653
 6966SOL    HW221798   5.014   2.253   2.640
 6967SOL     OW21799   1.159   1.620   6.131
 6967SOL    HW121800   1.188   1.645   6.039
 6967SOL    HW221801   1.237   1.622   6.193
 6968SOL     OW21802   4.385   5.858   1.416
 6968SOL    HW121803   4.441   5.934   1.450
 6968SOL    HW221804   4.291   5.870   1.448
 6969SOL     OW21805   3.459   1.477   0.775
 6969SOL    HW121806   3.442   1.407   0.844
 6969SOL    HW221807   3.398   1.554   0.790
 6970SOL     OW21808   4.720   4.656   0.417
 6970SOL    HW121809   4.773   4.666   0.501
 6970SOL    HW221810   4.629   4.696   0.429
 6971SOL     OW21811   5.972   2.105   1.940
 6971SOL    HW121812   6.001   2.057   1.857
 6971SOL    HW221813   6.001   2.201   1.934
 6972SOL     OW21814   5.589   4.805   4.313
 6972SOL    HW121815   5.680   4.770   4.292
 6972SOL    HW221816   5.524   4.728   4.316
 6973SOL     OW21817   2.026   5.045   3.919
 6973SOL    HW121818   2.072   4.956   3.925
 6973SOL    HW221819   2.052   5.101   3.998
 6974SOL     OW21820   3.161   4.027   3.929
 6974SOL    HW121821   3.213   3.942   3.914
 6974SOL    HW221822   3.164   4.083   3.847
 6975SOL     OW21823   4.134   0.797   5.788
 6975SOL    HW121824   4.069   0.739   5.738
 6975SOL    HW221825   4.190   0.848   5.722
 6976SOL     OW21826   2.527   5.179   6.509
 6976SOL    HW121827   2.460   5.179   6.583
 6976SOL    HW221828   2.610   5.131   6.539
 6977SOL     OW21829   3.393   1.416   2.614
 6977SOL    HW121830   3.366   1.393   2.707
 6977SOL    HW221831   3.328   1.374   2.549
 6978SOL     OW21832   0.675   0.804   2.192
 6978SOL    HW121833   0.595   0.762   2.149
 6978SOL    HW221834   0.704   0.883   2.138
 6979SOL     OW21835   0.431   4.584   2.472
 6979SOL    HW121836   0.368   4.587   2.394
 6979SOL    HW221837   0.507   4.647   2.454
 6980SOL     OW21838   2.407   0.871   4.111
 6980SOL    HW121839   2.411   0.792   4.173
 6980SOL    HW221840   2.372   0.950   4.161
 6981SOL     OW21841   2.662   5.235   0.866
 6981SOL    HW121842   2.638   5.330   0.844
 6981SOL    HW221843   2.583   5.189   0.906
 6982SOL     OW21844   0.988   6.969   4.061
 6982SOL    HW121845   0.948   6.929   4.143
 6982SOL    HW221846   0.916   7.015   4.008
 6983SOL     OW21847   6.910   0.331   4.546
 6983SOL    HW121848   6.889   0.347   4.449
 6983SOL    HW221849   7.003   0.363   4.565
 6984SOL     OW21850   2.129   2.112   5.653
 6984SOL    HW121851   2.077   2.135   5.735
 6984SOL    HW221852   2.223   2.091   5.679
 6985SOL     OW21853   4.200   5.637   2.595
 6985SOL    HW121854   4.152   5.720   2.623
 6985SOL    HW221855   4.270   5.616   2.662
 6986SOL     OW21856   1.824   6.128   5.737
 6986SOL    HW121857   1.746   6.133   5.675
 6986SOL    HW221858   1.817   6.045   5.793
 6987SOL     OW21859   0.326   2.719   6.696
 6987SOL    HW121860   0.344   2.622   6.711
 6987SOL    HW221861   0.403   2.760   6.648
 6988SOL     OW21862   4.835   1.264   3.728
 6988SOL    HW121863   4.770   1.220   3.667
 6988SOL    HW221864   4.856   1.203   3.804
 6989SOL     OW21865   1.199   1.794   3.551
 6989SOL    HW121866   1.234   1.700   3.548
 6989SOL    HW221867   1.125   1.799   3.618
 6990SOL     OW21868   4.356   3.330   6.924
 6990SOL    HW121869   4.293   3.339   6.847
 6990SOL    HW221870   4.436   3.277   6.895
 6991SOL     OW21871   2.572   4.858   5.356
 6991SOL    HW121872   2.590   4.768   5.317
 6991SOL    HW221873   2.476   4.883   5.339
 6992SOL     OW21874   6.040   6.443   4.489
 6992SOL    HW121875   6.064   6.348   4.469
 6992SOL    HW221876   6.074   6.502   4.416
 6993SOL     OW21877   0.060   0.568   3.297
 6993SOL    HW121878   0.035   0.575   3.394
 6993SOL    HW221879   0.039   0.655   3.252
 6994SOL     OW21880   1.605   3.030   6.396
 6994SOL    HW121881   1.631   3.126   6.387
 6994SOL    HW221882   1.688   2.974   6.407
 6995SOL     OW21883   5.564   5.640   3.120
 6995SOL    HW121884   5.655   5.601   3.102
 6995SOL    HW221885   5.535   5.615   3.213
 6996SOL     OW21886   2.535   0.339   5.300
 6996SOL    HW121887   2.534   0.425   5.351
 6996SOL    HW221888   2.447   0.327   5.253
 6997SOL     OW21889   4.504   6.111   4.759
 6997SOL    HW121890   4.499   6.016   4.728
 6997SOL    HW221891   4.473   6.116   4.854
 6998SOL     OW21892   1.784   3.517   2.426
 6998SOL    HW121893   1.769   3.581   2.502
 6998SOL    HW221894   1.716   3.534   2.355
 6999SOL     OW21895   3.252   2.026   6.077
 6999SOL    HW121896   3.167   1.973   6.080
 6999SOL    HW221897   3.268   2.067   6.167
 7000SOL     OW21898   0.693   6.103   2.557
 7000SOL    HW121899   0.766   6.073   2.617
 7000SOL    HW221900   0.615   6.041   2.565
 7001SOL     OW21901   2.398   2.938   5.814
 7001SOL    HW121902   2.304   2.938   5.849
 7001SOL    HW221903   2.405   3.002   5.738
 7002SOL     OW21904   0.789   5.197   3.385
 7002SOL    HW121905   0.840   5.257   3.322
 7002SOL    HW221906   0.738   5.129   3.333
 7003SOL     OW21907   3.056   6.895   0.766
 7003SOL    HW121908   3.155   6.904   0.751
 7003SOL    HW221909   3.040   6.840   0.848
 7004SOL     OW21910   1.287   4.014   1.478
 7004SOL    HW121911   1.340   4.064   1.409
 7004SOL    HW221912   1.220   3.955   1.432
 7005SOL     OW21913   5.310   6.298   6.747
 7005SOL    HW121914   5.239   6.355   6.789
 7005SOL    HW221915   5.388   6.291   6.809
 7006SOL     OW21916   4.844   4.233   4.659
 7006SOL    HW121917   4.778   4.221   4.734
 7006SOL    HW221918   4.906   4.309   4.682
 7007SOL     OW21919   4.261   6.329   2.867
 7007SOL    HW121920   4.235   6.426   2.875
 7007SOL    HW221921   4.350   6.316   2.911
 7008SOL     OW21922   2.097   5.188   4.671
 7008SOL    HW121923   2.072   5.109   4.616
 7008SOL    HW221924   2.192   5.213   4.652
 7009SOL     OW21925   6.492   5.557   2.424
 7009SOL    HW121926   6.462   5.648   2.452
 7009SOL    HW221927   6.414   5.495   2.425
 7010SOL     OW21928   3.527   4.925   6.508
 7010SOL    HW121929   3.603   4.881   6.461
 7010SOL    HW221930   3.479   4.986   6.444
 7011SOL     OW21931   2.417   6.808   5.658
 7011SOL    HW121932   2.352   6.860   5.603
 7011SOL    HW221933   2.413   6.840   5.753
 7012SOL     OW21934   1.195   0.248   1.983
 7012SOL    HW121935   1.232   0.307   1.912
 7012SOL    HW221936   1.270   0.210   2.038
 7013SOL     OW21937   0.887   0.211   1.409
 7013SOL    HW121938   0.921   0.118   1.401
 7013SOL    HW221939   0.944   0.261   1.474
 7014SOL     OW21940   2.716   4.462   1.020
 7014SOL    HW121941   2.629   4.470   1.069
 7014SOL    HW221942   2.791   4.465   1.086
 7015SOL     OW21943   4.765   2.721   2.703
 7015SOL    HW121944   4.705   2.695   2.627
 7015SOL    HW221945   4.710   2.739   2.784
 7016SOL     OW21946   4.287   4.877   1.270
 7016SOL    HW121947   4.323   4.935   1.342
 7016SOL    HW221948   4.197   4.843   1.297
 7017SOL     OW21949   3.097   1.860   3.682
 7017SOL    HW121950   3.010   1.890   3.643
 7017SOL    HW221951   3.089   1.854   3.781
 7018SOL     OW21952   0.214   3.643   4.717
 7018SOL    HW121953   0.246   3.704   4.789
 7018SOL    HW221954   0.213   3.691   4.630
 7019SOL     OW21955   2.705   5.352   6.684
 7019SOL    HW121956   2.666   5.408   6.757
 7019SOL    HW221957   2.737   5.265   6.722
 7020SOL     OW21958   6.200   0.226   6.581
 7020SOL    HW121959   6.122   0.284   6.558
 7020SOL    HW221960   6.243   0.260   6.665
 7021SOL     OW21961   2.218   0.734   5.603
 7021SOL    HW121962   2.272   0.750   5.686
 7021SOL    HW221963   2.237   0.807   5.537
 7022SOL     OW21964   5.278   3.447   0.298
 7022SOL    HW121965   5.348   3.377   0.309
 7022SOL    HW221966   5.286   3.514   0.373
 7023SOL     OW21967   6.153   2.499   1.630
 7023SOL    HW121968   6.162   2.517   1.728
 7023SOL    HW221969   6.205   2.417   1.606
 7024SOL     OW21970   1.803   5.805   0.009
 7024SOL    HW121971   1.731   5.768   6.974
 7024SOL    HW221972   1.886   5.820   6.978
 7025SOL     OW21973   3.085   1.790   6.816
 7025SOL    HW121974   3.040   1.867   6.771
 7025SOL    HW221975   3.179   1.816   6.840
 7026SOL     OW21976   3.679   1.754   1.611
 7026SOL    HW121977   3.734   1.675   1.586
 7026SOL    HW221978   3.683   1.823   1.539
 7027SOL     OW21979   3.818   5.573   4.328
 7027SOL    HW121980   3.904   5.623   4.315
 7027SOL    HW221981   3.748   5.611   4.267
 7028SOL     OW21982   4.466   6.276   3.451
 7028SOL    HW121983   4.417   6.298   3.536
 7028SOL    HW221984   4.471   6.177   3.440
 7029SOL     OW21985   3.644   6.233   0.496
 7029SOL    HW121986   3.719   6.183   0.454
 7029SOL    HW221987   3.668   6.330   0.505
 7030SOL     OW21988   6.875   3.541   5.353
 7030SOL    HW121989   6.812   3.549   5.430
 7030SOL    HW221990   6.950   3.606   5.365
 7031SOL     OW21991   1.862   5.693   4.274
 7031SOL    HW121992   1.878   5.686   4.175
 7031SOL    HW221993   1.777   5.646   4.297
 7032SOL     OW21994   6.246   0.892   2.989
 7032SOL    HW121995   6.322   0.870   2.927
 7032SOL    HW221996   6.278   0.953   3.061
 7033SOL     OW21997   7.016   1.082   3.998
 7033SOL    HW121998   0.045   1.059   3.915
 7033SOL    HW221999   0.052   1.073   4.078
 7034SOL     OW22000   6.441   0.576   3.316
 7034SOL    HW122001   6.525   0.591   3.368
 7034SOL    HW222002   6.431   0.479   3.297
 7035SOL     OW22003   0.187   6.280   2.747
 7035SOL    HW122004   0.096   6.321   2.749
 7035SOL    HW222005   0.247   6.328   2.811
 7036SOL     OW22006   6.569   5.355   1.585
 7036SOL    HW122007   6.536   5.419   1.654
 7036SOL    HW222008   6.492   5.317   1.535
 7037SOL     OW22009   0.894   6.345   5.575
 7037SOL    HW122010   0.947   6.264   5.549
 7037SOL    HW222011   0.847   6.381   5.495
 7038SOL     OW22012   0.969   4.467   3.656
 7038SOL    HW122013   0.987   4.383   3.606
 7038SOL    HW222014   1.044   4.531   3.640
 7039SOL     OW22015   4.054   0.953   6.122
 7039SOL    HW122016   4.099   0.902   6.195
 7039SOL    HW222017   4.118   1.020   6.085
 7040SOL     OW22018   4.952   2.240   6.424
 7040SOL    HW122019   4.864   2.222   6.381
 7040SOL    HW222020   5.025   2.227   6.357
 7041SOL     OW22021   1.603   1.584   2.934
 7041SOL    HW122022   1.629   1.533   2.852
 7041SOL    HW222023   1.547   1.663   2.907
 7042SOL     OW22024   4.145   5.785   6.696
 7042SOL    HW122025   4.237   5.746   6.703
 7042SOL    HW222026   4.106   5.794   6.787
 7043SOL     OW22027   1.812   1.809   3.493
 7043SOL    HW122028   1.903   1.776   3.468
 7043SOL    HW222029   1.817   1.856   3.581
 7044SOL     OW22030   4.764   4.579   2.655
 7044SOL    HW122031   4.717   4.491   2.646
 7044SOL    HW222032   4.696   4.653   2.659
 7045SOL     OW22033   5.481   6.305   0.839
 7045SOL    HW122034   5.421   6.225   0.845
 7045SOL    HW222035   5.558   6.292   0.901
 7046SOL     OW22036   3.958   0.659   4.505
 7046SOL    HW122037   4.012   0.669   4.422
 7046SOL    HW222038   3.866   0.628   4.482
 7047SOL     OW22039   1.078   0.807   4.239
 7047SOL    HW122040   1.081   0.906   4.246
 7047SOL    HW222041   1.117   0.777   4.153
 7048SOL     OW22042   6.879   6.280   0.957
 7048SOL    HW122043   6.978   6.282   0.943
 7048SOL    HW222044   6.848   6.186   0.969
 7049SOL     OW22045   2.325   1.165   0.583
 7049SOL    HW122046   2.421   1.170   0.556
 7049SOL    HW222047   2.315   1.190   0.679
 7050SOL     OW22048   3.415   4.004   4.702
 7050SOL    HW122049   3.338   4.010   4.766
 7050SOL    HW222050   3.395   4.056   4.620
 7051SOL     OW22051   0.308   0.340   1.594
 7051SOL    HW122052   0.305   0.244   1.622
 7051SOL    HW222053   0.226   0.387   1.625
 7052SOL     OW22054   0.115   2.329   4.293
 7052SOL    HW122055   0.110   2.230   4.282
 7052SOL    HW222056   0.151   2.350   4.384
 7053SOL     OW22057   0.208   4.226   6.498
 7053SOL    HW122058   0.280   4.274   6.548
 7053SOL    HW222059   0.201   4.263   6.406
 7054SOL     OW22060   6.037   7.005   1.635
 7054SOL    HW122061   6.102   6.935   1.666
 7054SOL    HW222062   6.033   0.056   1.703
 7055SOL     OW22063   4.481   0.529   4.679
 7055SOL    HW122064   4.450   0.446   4.633
 7055SOL    HW222065   4.557   0.569   4.628
 7056SOL     OW22066   5.726   4.893   3.554
 7056SOL    HW122067   5.642   4.941   3.579
 7056SOL    HW222068   5.758   4.925   3.465
 7057SOL     OW22069   0.298   4.623   3.454
 7057SOL    HW122070   0.287   4.693   3.524
 7057SOL    HW222071   0.372   4.561   3.480
 7058SOL     OW22072   0.549   5.046   5.174
 7058SOL    HW122073   0.603   4.984   5.116
 7058SOL    HW222074   0.563   5.140   5.144
 7059SOL     OW22075   0.821   0.452   2.317
 7059SOL    HW122076   0.803   0.510   2.396
 7059SOL    HW222077   0.769   0.485   2.238
 7060SOL     OW22078   3.534   6.267   1.487
 7060SOL    HW122079   3.567   6.284   1.580
 7060SOL    HW222080   3.438   6.293   1.481
 7061SOL     OW22081   0.465   1.241   2.968
 7061SOL    HW122082   0.372   1.273   2.981
 7061SOL    HW222083   0.525   1.283   3.036
 7062SOL     OW22084   5.673   1.635   5.025
 7062SOL    HW122085   5.681   1.702   4.951
 7062SOL    HW222086   5.598   1.662   5.086
 7063SOL     OW22087   1.985   6.637   1.141
 7063SOL    HW122088   1.934   6.711   1.187
 7063SOL    HW222089   1.951   6.549   1.173
 7064SOL     OW22090   4.463   1.996   2.230
 7064SOL    HW122091   4.411   2.081   2.237
 7064SOL    HW222092   4.400   1.919   2.223
 7065SOL     OW22093   4.426   4.040   1.441
 7065SOL    HW122094   4.366   3.999   1.510
 7065SOL    HW222095   4.418   3.990   1.355
 7066SOL     OW22096   3.805   0.087   0.599
 7066SOL    HW122097   3.839   0.005   0.645
 7066SOL    HW222098   3.735   0.060   0.532
 7067SOL     OW22099   0.866   3.436   5.988
 7067SOL    HW122100   0.934   3.378   5.944
 7067SOL    HW222101   0.900   3.530   5.994
 7068SOL     OW22102   1.466   2.022   3.230
 7068SOL    HW122103   1.565   2.027   3.216
 7068SOL    HW222104   1.440   2.082   3.306
 7069SOL     OW22105   6.412   4.028   5.400
 7069SOL    HW122106   6.376   3.983   5.318
 7069SOL    HW222107   6.336   4.055   5.459
 7070SOL     OW22108   6.226   4.820   5.259
 7070SOL    HW122109   6.276   4.905   5.244
 7070SOL    HW222110   6.145   4.818   5.200
 7071SOL     OW22111   1.401   5.593   5.180
 7071SOL    HW122112   1.312   5.609   5.222
 7071SOL    HW222113   1.467   5.566   5.251
 7072SOL     OW22114   6.316   6.371   6.008
 7072SOL    HW122115   6.258   6.433   5.955
 7072SOL    HW222116   6.408   6.370   5.970
 7073SOL     OW22117   0.134   0.981   5.570
 7073SOL    HW122118   0.184   0.913   5.623
 7073SOL    HW222119   0.083   1.040   5.631
 7074SOL     OW22120   3.319   2.345   1.727
 7074SOL    HW122121   3.228   2.314   1.701
 7074SOL    HW222122   3.383   2.268   1.724
 7075SOL     OW22123   2.063   6.078   4.084
 7075SOL    HW122124   2.059   5.983   4.053
 7075SOL    HW222125   1.971   6.119   4.079
 7076SOL     OW22126   3.845   1.635   6.504
 7076SOL    HW122127   3.790   1.681   6.434
 7076SOL    HW222128   3.913   1.699   6.540
 7077SOL     OW22129   2.295   5.816   5.339
 7077SOL    HW122130   2.295   5.784   5.434
 7077SOL    HW222131   2.221   5.881   5.325
 7078SOL     OW22132   6.364   6.840   3.300
 7078SOL    HW122133   6.375   6.839   3.200
 7078SOL    HW222134   6.430   6.778   3.341
 7079SOL     OW22135   6.402   6.169   6.382
 7079SOL    HW122136   6.350   6.140   6.302
 7079SOL    HW222137   6.475   6.103   6.401
 7080SOL     OW22138   4.403   2.358   4.006
 7080SOL    HW122139   4.318   2.355   4.058
 7080SOL    HW222140   4.382   2.362   3.908
 7081SOL     OW22141   3.039   1.640   5.554
 7081SOL    HW122142   3.045   1.739   5.568
 7081SOL    HW222143   3.117   1.596   5.597
 7082SOL     OW22144   5.646   1.358   6.891
 7082SOL    HW122145   5.572   1.419   6.919
 7082SOL    HW222146   5.611   1.266   6.876
 7083SOL     OW22147   3.312   1.074   6.024
 7083SOL    HW122148   3.360   1.001   6.072
 7083SOL    HW222149   3.256   1.034   5.951
 7084SOL     OW22150   6.626   6.118   6.143
 7084SOL    HW122151   6.600   6.059   6.067
 7084SOL    HW222152   6.635   6.064   6.226
 7085SOL     OW22153   2.279   2.450   3.361
 7085SOL    HW122154   2.336   2.497   3.294
 7085SOL    HW222155   2.224   2.380   3.316
 7086SOL     OW22156   5.325   1.047   6.621
 7086SOL    HW122157   5.420   1.041   6.592
 7086SOL    HW222158   5.265   1.008   6.550
 7087SOL     OW22159   0.738   3.555   4.324
 7087SOL    HW122160   0.721   3.482   4.258
 7087SOL    HW222161   0.748   3.516   4.415
 7088SOL     OW22162   5.154   3.022   4.222
 7088SOL    HW122163   5.177   3.083   4.298
 7088SOL    HW222164   5.063   2.983   4.237
 7089SOL     OW22165   3.647   2.475   6.186
 7089SOL    HW122166   3.673   2.572   6.180
 7089SOL    HW222167   3.568   2.459   6.128
 7090SOL     OW22168   1.900   1.745   5.237
 7090SOL    HW122169   1.990   1.766   5.200
 7090SOL    HW222170   1.892   1.783   5.330
 7091SOL     OW22171   0.395   0.802   0.514
 7091SOL    HW122172   0.415   0.856   0.596
 7091SOL    HW222173   0.368   0.864   0.439
 7092SOL     OW22174   3.754   4.222   0.128
 7092SOL    HW122175   3.721   4.162   0.055
 7092SOL    HW222176   3.738   4.179   0.217
 7093SOL     OW22177   3.361   4.041   4.313
 7093SOL    HW122178   3.401   4.067   4.225
 7093SOL    HW222179   3.399   4.098   4.385
 7094SOL     OW22180   0.639   7.011   5.862
 7094SOL    HW122181   0.695   0.069   5.878
 7094SOL    HW222182   0.691   6.946   5.806
 7095SOL     OW22183   1.644   3.301   6.409
 7095SOL    HW122184   1.630   3.367   6.483
 7095SOL    HW222185   1.680   3.348   6.328
 7096SOL     OW22186   4.673   2.172   3.777
 7096SOL    HW122187   4.681   2.264   3.815
 7096SOL    HW222188   4.764   2.139   3.750
 7097SOL     OW22189   0.227   0.993   2.128
 7097SOL    HW122190   0.275   0.945   2.054
 7097SOL    HW222191   0.271   1.080   2.146
 7098SOL     OW22192   1.739   5.913   5.887
 7098SOL    HW122193   1.641   5.932   5.888
 7098SOL    HW222194   1.758   5.830   5.938
 7099SOL     OW22195   1.384   1.061   5.018
 7099SOL    HW122196   1.397   1.087   4.922
 7099SOL    HW222197   1.372   0.962   5.024
 7100SOL     OW22198   4.836   3.877   1.128
 7100SOL    HW122199   4.890   3.918   1.054
 7100SOL    HW222200   4.762   3.823   1.089
 7101SOL     OW22201   3.169   0.279   4.679
 7101SOL    HW122202   3.250   0.334   4.657
 7101SOL    HW222203   3.111   0.330   4.743
 7102SOL     OW22204   4.292   1.379   1.230
 7102SOL    HW122205   4.235   1.306   1.193
 7102SOL    HW222206   4.389   1.357   1.215
 7103SOL     OW22207   3.873   6.575   0.101
 7103SOL    HW122208   3.823   6.544   0.021
 7103SOL    HW222209   3.809   6.602   0.173
 7104SOL     OW22210   1.761   2.811   3.259
 7104SOL    HW122211   1.843   2.866   3.270
 7104SOL    HW222212   1.703   2.821   3.340
 7105SOL     OW22213   3.277   3.383   4.448
 7105SOL    HW122214   3.209   3.342   4.387
 7105SOL    HW222215   3.274   3.483   4.438
 7106SOL     OW22216   3.574   3.094   4.952
 7106SOL    HW122217   3.674   3.087   4.950
 7106SOL    HW222218   3.535   3.006   4.924
 7107SOL     OW22219   3.080   1.473   0.101
 7107SOL    HW122220   3.084   1.460   0.200
 7107SOL    HW222221   3.171   1.457   0.062
 7108SOL     OW22222   5.236   6.539   1.206
 7108SOL    HW122223   5.326   6.533   1.250
 7108SOL    HW222224   5.213   6.450   1.166
 7109SOL     OW22225   3.549   0.386   6.117
 7109SOL    HW122226   3.639   0.354   6.147
 7109SOL    HW222227   3.510   0.321   6.052
 7110SOL     OW22228   5.291   5.248   4.107
 7110SOL    HW122229   5.329   5.180   4.044
 7110SOL    HW222230   5.197   5.270   4.078
 7111SOL     OW22231   1.705   3.725   4.166
 7111SOL    HW122232   1.668   3.726   4.073
 7111SOL    HW222233   1.633   3.700   4.231
 7112SOL     OW22234   1.419   5.956   3.956
 7112SOL    HW122235   1.513   5.968   3.988
 7112SOL    HW222236   1.356   5.998   4.021
 7113SOL     OW22237   3.890   4.017   4.701
 7113SOL    HW122238   3.831   3.939   4.680
 7113SOL    HW222239   3.962   4.023   4.633
 7114SOL     OW22240   4.354   0.710   1.630
 7114SOL    HW122241   4.296   0.665   1.562
 7114SOL    HW222242   4.308   0.791   1.666
 7115SOL     OW22243   5.102   1.774   1.493
 7115SOL    HW122244   5.023   1.828   1.524
 7115SOL    HW222245   5.080   1.677   1.500
 7116SOL     OW22246   5.154   4.228   3.756
 7116SOL    HW122247   5.107   4.164   3.695
 7116SOL    HW222248   5.244   4.250   3.718
 7117SOL     OW22249   6.472   6.221   3.330
 7117SOL    HW122250   6.514   6.147   3.383
 7117SOL    HW222251   6.503   6.216   3.235
 7118SOL     OW22252   5.372   4.035   1.317
 7118SOL    HW122253   5.309   4.051   1.392
 7118SOL    HW222254   5.323   4.043   1.230
 7119SOL     OW22255   6.056   1.549   2.886
 7119SOL    HW122256   6.156   1.546   2.877
 7119SOL    HW222257   6.025   1.644   2.877
 7120SOL     OW22258   5.047   1.270   3.422
 7120SOL    HW122259   5.039   1.258   3.521
 7120SOL    HW222260   5.143   1.268   3.395
 7121SOL     OW22261   1.946   6.820   3.525
 7121SOL    HW122262   1.941   6.720   3.520
 7121SOL    HW222263   1.952   6.849   3.621
 7122SOL     OW22264   6.661   1.305   0.346
 7122SOL    HW122265   6.649   1.388   0.291
 7122SOL    HW222266   6.758   1.282   0.350
 7123SOL     OW22267   2.816   5.489   1.839
 7123SOL    HW122268   2.900   5.465   1.789
 7123SOL    HW222269   2.737   5.451   1.791
 7124SOL     OW22270   0.591   5.277   0.379
 7124SOL    HW122271   0.532   5.351   0.410
 7124SOL    HW222272   0.670   5.269   0.439
 7125SOL     OW22273   6.129   6.571   2.085
 7125SOL    HW122274   6.186   6.633   2.139
 7125SOL    HW222275   6.148   6.583   1.988
 7126SOL     OW22276   2.393   4.123   0.611
 7126SOL    HW122277   2.456   4.104   0.687
 7126SOL    HW222278   2.306   4.077   0.629
 7127SOL     OW22279   3.414   5.968   4.027
 7127SOL    HW122280   3.459   6.040   4.081
 7127SOL    HW222281   3.400   5.888   4.084
 7128SOL     OW22282   3.483   4.709   0.513
 7128SOL    HW122283   3.473   4.610   0.516
 7128SOL    HW222284   3.540   4.739   0.590
 7129SOL     OW22285   3.186   0.985   1.093
 7129SOL    HW122286   3.181   1.075   1.136
 7129SOL    HW222287   3.269   0.980   1.037
 7130SOL     OW22288   3.366   4.946   3.939
 7130SOL    HW122289   3.388   4.901   4.026
 7130SOL    HW222290   3.272   4.924   3.914
 7131SOL     OW22291   3.037   1.569   2.163
 7131SOL    HW122292   2.944   1.555   2.195
 7131SOL    HW222293   3.037   1.641   2.093
 7132SOL     OW22294   4.072   3.385   2.946
 7132SOL    HW122295   4.049   3.479   2.924
 7132SOL    HW222296   4.020   3.355   3.026
 7133SOL     OW22297   4.834   5.759   3.394
 7133SOL    HW122298   4.897   5.809   3.452
 7133SOL    HW222299   4.847   5.661   3.405
 7134SOL     OW22300   6.280   6.070   3.944
 7134SOL    HW122301   6.194   6.121   3.943
 7134SOL    HW222302   6.345   6.115   3.883
 7135SOL     OW22303   1.301   0.640   4.424
 7135SOL    HW122304   1.244   0.663   4.344
 7135SOL    HW222305   1.276   0.701   4.500
 7136SOL     OW22306   2.147   0.966   0.496
 7136SOL    HW122307   2.218   1.037   0.507
 7136SOL    HW222308   2.174   0.885   0.548
 7137SOL     OW22309   4.585   0.926   4.912
 7137SOL    HW122310   4.591   0.977   4.998
 7137SOL    HW222311   4.676   0.901   4.881
 7138SOL     OW22312   3.436   3.363   1.049
 7138SOL    HW122313   3.356   3.364   1.109
 7138SOL    HW222314   3.491   3.445   1.064
 7139SOL     OW22315   4.582   3.216   1.684
 7139SOL    HW122316   4.667   3.266   1.671
 7139SOL    HW222317   4.595   3.145   1.753
 7140SOL     OW22318   6.508   3.937   4.949
 7140SOL    HW122319   6.416   3.974   4.941
 7140SOL    HW222320   6.570   4.008   4.982
 7141SOL     OW22321   3.093   0.242   0.960
 7141SOL    HW122322   3.097   0.300   1.042
 7141SOL    HW222323   3.112   0.297   0.879
 7142SOL     OW22324   4.128   6.265   3.866
 7142SOL    HW122325   4.130   6.250   3.965
 7142SOL    HW222326   4.070   6.195   3.823
 7143SOL     OW22327   1.570   4.450   6.051
 7143SOL    HW122328   1.501   4.409   5.992
 7143SOL    HW222329   1.653   4.468   5.998
 7144SOL     OW22330   0.753   1.485   2.983
 7144SOL    HW122331   0.833   1.449   2.935
 7144SOL    HW222332   0.672   1.476   2.925
 7145SOL     OW22333   4.447   0.035   6.838
 7145SOL    HW122334   4.538   0.017   6.800
 7145SOL    HW222335   4.390   6.977   6.828
 7146SOL     OW22336   3.135   6.507   0.386
 7146SOL    HW122337   3.071   6.434   0.411
 7146SOL    HW222338   3.084   6.590   0.365
 7147SOL     OW22339   0.015   0.247   3.469
 7147SOL    HW122340   6.964   0.224   3.532
 7147SOL    HW222341   0.103   0.236   3.516
 7148SOL     OW22342   1.439   6.466   1.588
 7148SOL    HW122343   1.524   6.464   1.640
 7148SOL    HW222344   1.394   6.554   1.600
 7149SOL     OW22345   6.183   1.009   3.885
 7149SOL    HW122346   6.111   0.954   3.927
 7149SOL    HW222347   6.229   0.954   3.815
 7150SOL     OW22348   5.232   2.980   0.751
 7150SOL    HW122349   5.175   3.008   0.829
 7150SOL    HW222350   5.179   2.919   0.692
 7151SOL     OW22351   2.047   5.964   1.115
 7151SOL    HW122352   1.991   5.943   1.196
 7151SOL    HW222353   2.015   6.049   1.074
 7152SOL     OW22354   0.404   3.111   4.821
 7152SOL    HW122355   0.450   3.180   4.878
 7152SOL    HW222356   0.366   3.040   4.879
 7153SOL     OW22357   4.246   0.300   4.748
 7153SOL    HW122358   4.296   0.371   4.798
 7153SOL    HW222359   4.186   0.251   4.811
 7154SOL     OW22360   3.386   5.606   4.406
 7154SOL    HW122361   3.477   5.593   4.445
 7154SOL    HW222362   3.328   5.528   4.431
 7155SOL     OW22363   1.224   5.930   1.948
 7155SOL    HW122364   1.249   5.864   1.877
 7155SOL    HW222365   1.208   6.019   1.906
 7156SOL     OW22366   6.729   5.098   5.471
 7156SOL    HW122367   6.710   5.072   5.376
 7156SOL    HW222368   6.648   5.140   5.511
 7157SOL     OW22369   5.913   5.754   0.498
 7157SOL    HW122370   5.945   5.773   0.405
 7157SOL    HW222371   5.830   5.807   0.516
 7158SOL     OW22372   6.989   6.743   3.007
 7158SOL    HW122373   6.978   6.821   3.069
 7158SOL    HW222374   0.033   6.679   3.045
 7159SOL     OW22375   0.536   5.443   1.224
 7159SOL    HW122376   0.498   5.471   1.312
 7159SOL    HW222377   0.614   5.383   1.239
 7160SOL     OW22378   6.631   0.004   1.849
 7160SOL    HW122379   6.533   7.015   1.833
 7160SOL    HW222380   6.646   0.081   1.911
 7161SOL     OW22381   3.768   3.431   3.881
 7161SOL    HW122382   3.707   3.353   3.894
 7161SOL    HW222383   3.842   3.427   3.948
 7162SOL     OW22384   3.678   5.045   4.057
 7162SOL    HW122385   3.614   4.994   4.114
 7162SOL    HW222386   3.649   5.140   4.050
 7163SOL     OW22387   3.645   0.079   3.617
 7163SOL    HW122388   3.693   0.143   3.677
 7163SOL    HW222389   3.691   0.075   3.529
 7164SOL     OW22390   2.116   1.324   3.282
 7164SOL    HW122391   2.172   1.372   3.214
 7164SOL    HW222392   2.158   1.330   3.372
 7165SOL     OW22393   5.926   1.335   0.617
 7165SOL    HW122394   5.828   1.314   0.619
 7165SOL    HW222395   5.939   1.430   0.591
 7166SOL     OW22396   4.810   4.402   1.050
 7166SOL    HW122397   4.752   4.321   1.055
 7166SOL    HW222398   4.804   4.453   1.136
 7167SOL     OW22399   4.724   3.851   5.307
 7167SOL    HW122400   4.723   3.760   5.264
 7167SOL    HW222401   4.678   3.846   5.396
 7168SOL     OW22402   1.070   1.073   4.181
 7168SOL    HW122403   1.073   1.142   4.108
 7168SOL    HW222404   1.149   1.085   4.241
 7169SOL     OW22405   1.583   3.246   5.928
 7169SOL    HW122406   1.615   3.153   5.911
 7169SOL    HW222407   1.636   3.287   6.002
 7170SOL     OW22408   5.218   4.618   3.073
 7170SOL    HW122409   5.252   4.680   3.002
 7170SOL    HW222410   5.218   4.525   3.038
 7171SOL     OW22411   4.353   3.204   5.587
 7171SOL    HW122412   4.306   3.123   5.554
 7171SOL    HW222413   4.290   3.261   5.639
 7172SOL     OW22414   1.528   6.436   0.690
 7172SOL    HW122415   1.493   6.467   0.778
 7172SOL    HW222416   1.616   6.480   0.672
 7173SOL     OW22417   6.972   5.421   4.302
 7173SOL    HW122418   6.874   5.402   4.291
 7173SOL    HW222419   7.017   5.416   4.213
 7174SOL     OW22420   2.090   4.966   0.278
 7174SOL    HW122421   2.095   5.033   0.204
 7174SOL    HW222422   2.020   4.898   0.257
 7175SOL     OW22423   5.261   3.633   0.509
 7175SOL    HW122424   5.304   3.721   0.486
 7175SOL    HW222425   5.295   3.603   0.599
 7176SOL     OW22426   0.009   4.625   2.008
 7176SOL    HW122427   0.053   4.560   1.946
 7176SOL    HW222428   0.066   4.637   2.090
 7177SOL     OW22429   1.306   6.015   3.498
 7177SOL    HW122430   1.274   6.107   3.523
 7177SOL    HW222431   1.280   5.994   3.404
 7178SOL     OW22432   1.511   3.146   5.198
 7178SOL    HW122433   1.594   3.098   5.228
 7178SOL    HW222434   1.485   3.213   5.268
 7179SOL     OW22435   2.743   3.649   5.724
 7179SOL    HW122436   2.771   3.712   5.797
 7179SOL    HW222437   2.762   3.692   5.635
 7180SOL     OW22438   0.906   6.397   6.939
 7180SOL    HW122439   0.813   6.375   6.912
 7180SOL    HW222440   0.914   6.396   0.015
 7181SOL     OW22441   3.968   0.977   1.191
 7181SOL    HW122442   3.878   0.934   1.196
 7181SOL    HW222443   4.026   0.940   1.263
 7182SOL     OW22444   1.969   4.319   5.167
 7182SOL    HW122445   1.997   4.247   5.104
 7182SOL    HW222446   1.957   4.280   5.259
 7183SOL     OW22447   1.494   5.122   2.674
 7183SOL    HW122448   1.539   5.060   2.610
 7183SOL    HW222449   1.395   5.105   2.673
 7184SOL     OW22450   1.415   6.368   4.113
 7184SOL    HW122451   1.457   6.453   4.080
 7184SOL    HW222452   1.485   6.296   4.117
 7185SOL     OW22453   5.013   2.974   6.639
 7185SOL    HW122454   4.960   2.915   6.577
 7185SOL    HW222455   4.951   3.015   6.706
 7186SOL     OW22456   6.626   6.343   5.471
 7186SOL    HW122457   6.715   6.302   5.488
 7186SOL    HW222458   6.576   6.352   5.558
 7187SOL     OW22459   1.593   4.461   1.865
 7187SOL    HW122460   1.669   4.469   1.929
 7187SOL    HW222461   1.582   4.365   1.838
 7188SOL     OW22462   5.369   0.218   2.202
 7188SOL    HW122463   5.343   0.297   2.257
 7188SOL    HW222464   5.331   0.228   2.110
 7189SOL     OW22465   6.610   1.128   6.303
 7189SOL    HW122466   6.616   1.107   6.205
 7189SOL    HW222467   6.621   1.227   6.316
 7190SOL     OW22468   5.400   4.192   3.066
 7190SOL    HW122469   5.423   4.229   3.156
 7190SOL    HW222470   5.301   4.190   3.055
 7191SOL     OW22471   1.072   3.416   2.936
 7191SOL    HW122472   1.146   3.468   2.977
 7191SOL    HW222473   1.039   3.348   3.001
 7192SOL     OW22474   2.442   5.103   6.115
 7192SOL    HW122475   2.353   5.120   6.072
 7192SOL    HW222476   2.463   5.178   6.177
 7193SOL     OW22477   3.282   1.828   4.810
 7193SOL    HW122478   3.309   1.924   4.825
 7193SOL    HW222479   3.183   1.819   4.820
 7194SOL     OW22480   2.537   1.651   1.328
 7194SOL    HW122481   2.619   1.656   1.271
 7194SOL    HW222482   2.457   1.678   1.275
 7195SOL     OW22483   0.114   5.245   0.682
 7195SOL    HW122484   0.123   5.270   0.586
 7195SOL    HW222485   0.103   5.328   0.737
 7196SOL     OW22486   2.942   3.366   3.234
 7196SOL    HW122487   3.005   3.300   3.274
 7196SOL    HW222488   2.874   3.392   3.301
 7197SOL     OW22489   6.898   1.712   4.670
 7197SOL    HW122490   6.917   1.700   4.768
 7197SOL    HW222491   6.964   1.775   4.630
 7198SOL     OW22492   1.662   6.667   5.615
 7198SOL    HW122493   1.744   6.689   5.668
 7198SOL    HW222494   1.672   6.577   5.574
 7199SOL     OW22495   0.072   0.692   2.778
 7199SOL    HW122496   7.000   0.720   2.774
 7199SOL    HW222497   0.098   0.674   2.873
 7200SOL     OW22498   2.566   0.904   0.558
 7200SOL    HW122499   2.544   0.808   0.573
 7200SOL    HW222500   2.644   0.911   0.497
 7201SOL     OW22501   1.693   4.620   2.944
 7201SOL    HW122502   1.634   4.696   2.916
 7201SOL    HW222503   1.640   4.554   2.997
 7202SOL     OW22504   4.075   0.239   6.215
 7202SOL    HW122505   4.161   0.188   6.214
 7202SOL    HW222506   4.069   0.296   6.133
 7203SOL     OW22507   6.214   0.489   0.559
 7203SOL    HW122508   6.230   0.586   0.576
 7203SOL    HW222509   6.174   0.447   0.640
 7204SOL     OW22510   6.242   0.883   3.656
 7204SOL    HW122511   6.289   0.871   3.569
 7204SOL    HW222512   6.146   0.861   3.645
 7205SOL     OW22513   1.563   5.398   2.912
 7205SOL    HW122514   1.503   5.318   2.921
 7205SOL    HW222515   1.562   5.430   2.818
 7206SOL     OW22516   0.056   1.845   0.908
 7206SOL    HW122517   6.995   1.845   0.853
 7206SOL    HW222518   0.035   1.873   1.001
 7207SOL     OW22519   3.381   6.643   1.093
 7207SOL    HW122520   3.461   6.624   1.150
 7207SOL    HW222521   3.313   6.572   1.107
 7208SOL     OW22522   3.602   6.702   4.794
 7208SOL    HW122523   3.656   6.752   4.862
 7208SOL    HW222524   3.568   6.766   4.725
 7209SOL     OW22525   4.096   3.363   3.954
 7209SOL    HW122526   4.099   3.355   3.854
 7209SOL    HW222527   4.087   3.272   3.994
 7210SOL     OW22528   4.554   1.328   3.843
 7210SOL    HW122529   4.635   1.277   3.815
 7210SOL    HW222530   4.570   1.426   3.831
 7211SOL     OW22531   1.136   6.434   4.144
 7211SOL    HW122532   1.092   6.472   4.063
 7211SOL    HW222533   1.229   6.405   4.120
 7212SOL     OW22534   6.309   5.563   4.875
 7212SOL    HW122535   6.331   5.566   4.777
 7212SOL    HW222536   6.382   5.606   4.927
 7213SOL     OW22537   5.502   0.470   5.430
 7213SOL    HW122538   5.581   0.415   5.404
 7213SOL    HW222539   5.450   0.422   5.501
 7214SOL     OW22540   2.461   5.621   4.603
 7214SOL    HW122541   2.544   5.640   4.552
 7214SOL    HW222542   2.425   5.705   4.643
 7215SOL     OW22543   0.883   3.416   3.912
 7215SOL    HW122544   0.950   3.490   3.902
 7215SOL    HW222545   0.796   3.443   3.871
 7216SOL     OW22546   2.458   6.201   0.278
 7216SOL    HW122547   2.495   6.241   0.194
 7216SOL    HW222548   2.513   6.231   0.356
 7217SOL     OW22549   1.384   3.900   2.333
 7217SOL    HW122550   1.432   3.938   2.254
 7217SOL    HW222551   1.293   3.868   2.304
 7218SOL     OW22552   4.578   1.931   5.817
 7218SOL    HW122553   4.576   1.859   5.748
 7218SOL    HW222554   4.538   1.897   5.902
 7219SOL     OW22555   4.469   6.473   3.256
 7219SOL    HW122556   4.390   6.534   3.262
 7219SOL    HW222557   4.449   6.388   3.306
 7220SOL     OW22558   6.545   1.480   2.672
 7220SOL    HW122559   6.549   1.562   2.616
 7220SOL    HW222560   6.615   1.415   2.642
 7221SOL     OW22561   5.733   4.411   5.684
 7221SOL    HW122562   5.676   4.331   5.702
 7221SOL    HW222563   5.808   4.415   5.750
 7222SOL     OW22564   6.529   6.518   1.109
 7222SOL    HW122565   6.453   6.582   1.104
 7222SOL    HW222566   6.545   6.477   1.019
 7223SOL     OW22567   3.178   1.438   6.088
 7223SOL    HW122568   3.118   1.469   6.161
 7223SOL    HW222569   3.213   1.517   6.037
 7224SOL     OW22570   5.738   0.954   4.572
 7224SOL    HW122571   5.652   0.927   4.527
 7224SOL    HW222572   5.735   1.052   4.593
 7225SOL     OW22573   1.968   5.467   0.196
 7225SOL    HW122574   1.969   5.562   0.228
 7225SOL    HW222575   1.880   5.448   0.151
 7226SOL     OW22576   0.496   6.683   0.281
 7226SOL    HW122577   0.485   6.630   0.197
 7226SOL    HW222578   0.519   6.777   0.258
 7227SOL     OW22579   0.468   2.330   0.204
 7227SOL    HW122580   0.474   2.319   0.303
 7227SOL    HW222581   0.557   2.312   0.163
 7228SOL     OW22582   6.931   6.901   1.986
 7228SOL    HW122583   6.864   6.870   1.919
 7228SOL    HW222584   6.964   6.823   2.040
 7229SOL     OW22585   1.312   0.146   4.445
 7229SOL    HW122586   1.325   0.238   4.482
 7229SOL    HW222587   1.400   0.110   4.414
 7230SOL     OW22588   4.504   5.304   3.800
 7230SOL    HW122589   4.459   5.313   3.889
 7230SOL    HW222590   4.498   5.390   3.751
 7231SOL     OW22591   5.711   1.714   6.398
 7231SOL    HW122592   5.654   1.776   6.452
 7231SOL    HW222593   5.799   1.702   6.443
 7232SOL     OW22594   4.555   4.662   2.311
 7232SOL    HW122595   4.589   4.578   2.269
 7232SOL    HW222596   4.456   4.656   2.321
 7233SOL     OW22597   0.351   2.969   5.674
 7233SOL    HW122598   0.352   2.871   5.692
 7233SOL    HW222599   0.407   2.990   5.594
 7234SOL     OW22600   6.319   2.285   1.716
 7234SOL    HW122601   6.413   2.318   1.716
 7234SOL    HW222602   6.294   2.255   1.624
 7235SOL     OW22603   5.159   3.701   4.741
 7235SOL    HW122604   5.066   3.664   4.747
 7235SOL    HW222605   5.159   3.781   4.681
 7236SOL     OW22606   4.005   1.353   3.266
 7236SOL    HW122607   3.931   1.386   3.207
 7236SOL    HW222608   4.073   1.426   3.278
 7237SOL     OW22609   6.087   5.854   5.618
 7237SOL    HW122610   6.084   5.943   5.663
 7237SOL    HW222611   6.049   5.784   5.680
 7238SOL     OW22612   2.744   2.022   2.355
 7238SOL    HW122613   2.841   2.003   2.372
 7238SOL    HW222614   2.696   1.936   2.334
 7239SOL     OW22615   1.832   1.365   2.201
 7239SOL    HW122616   1.758   1.385   2.265
 7239SOL    HW222617   1.887   1.447   2.185
 7240SOL     OW22618   2.844   3.936   0.288
 7240SOL    HW122619   2.875   4.031   0.294
 7240SOL    HW222620   2.751   3.930   0.326
 7241SOL     OW22621   3.427   0.083   5.257
 7241SOL    HW122622   3.344   0.027   5.253
 7241SOL    HW222623   3.401   0.177   5.281
 7242SOL     OW22624   6.111   4.640   6.466
 7242SOL    HW122625   6.172   4.699   6.519
 7242SOL    HW222626   6.053   4.696   6.407
 7243SOL     OW22627   0.916   5.950   6.858
 7243SOL    HW122628   0.868   5.972   6.773
 7243SOL    HW222629   0.959   5.861   6.850
 7244SOL     OW22630   6.095   1.876   1.339
 7244SOL    HW122631   6.177   1.891   1.394
 7244SOL    HW222632   6.071   1.961   1.291
 7245SOL     OW22633   0.177   1.847   4.678
 7245SOL    HW122634   0.212   1.759   4.644
 7245SOL    HW222635   0.116   1.887   4.610
 7246SOL     OW22636   5.953   6.850   5.154
 7246SOL    HW122637   6.001   6.787   5.215
 7246SOL    HW222638   5.894   6.910   5.208
 7247SOL     OW22639   2.619   5.754   2.075
 7247SOL    HW122640   2.613   5.847   2.109
 7247SOL    HW222641   2.656   5.694   2.146
 7248SOL     OW22642   3.889   1.289   4.053
 7248SOL    HW122643   3.820   1.265   4.122
 7248SOL    HW222644   3.977   1.249   4.079
 7249SOL     OW22645   5.816   4.591   0.034
 7249SOL    HW122646   5.739   4.562   7.000
 7249SOL    HW222647   5.850   4.513   0.086
 7250SOL     OW22648   2.641   4.678   5.828
 7250SOL    HW122649   2.647   4.749   5.757
 7250SOL    HW222650   2.581   4.605   5.796
 7251SOL     OW22651   6.920   6.724   4.672
 7251SOL    HW122652   6.964   6.635   4.684
 7251SOL    HW222653   6.957   6.789   4.739
 7252SOL     OW22654   3.513   3.176   4.593
 7252SOL    HW122655   3.532   3.188   4.496
 7252SOL    HW222656   3.501   3.079   4.613
 7253SOL     OW22657   3.319   6.182   0.851
 7253SOL    HW122658   3.383   6.123   0.803
 7253SOL    HW222659   3.334   6.277   0.823
 7254SOL     OW22660   4.064   5.995   4.106
 7254SOL    HW122661   4.163   5.990   4.097
 7254SOL    HW222662   4.021   5.937   4.036
 7255SOL     OW22663   3.160   3.542   2.133
 7255SOL    HW122664   3.229   3.497   2.190
 7255SOL    HW222665   3.194   3.547   2.039
 7256SOL     OW22666   4.204   4.791   3.711
 7256SOL    HW122667   4.199   4.848   3.793
 7256SOL    HW222668   4.300   4.773   3.688
 7257SOL     OW22669   5.674   2.427   3.414
 7257SOL    HW122670   5.742   2.426   3.340
 7257SOL    HW222671   5.696   2.357   3.481
 7258SOL     OW22672   3.432   0.292   4.849
 7258SOL    HW122673   3.441   0.192   4.845
 7258SOL    HW222674   3.335   0.316   4.855
 7259SOL     OW22675   2.218   4.122   0.160
 7259SOL    HW122676   2.132   4.070   0.160
 7259SOL    HW222677   2.295   4.059   0.162
 7260SOL     OW22678   3.329   2.097   2.682
 7260SOL    HW122679   3.233   2.108   2.653
 7260SOL    HW222680   3.376   2.038   2.616
 7261SOL     OW22681   2.071   3.327   2.058
 7261SOL    HW122682   2.109   3.237   2.083
 7261SOL    HW222683   2.145   3.385   2.023
 7262SOL     OW22684   5.689   1.836   4.824
 7262SOL    HW122685   5.600   1.880   4.820
 7262SOL    HW222686   5.758   1.895   4.782
 7263SOL     OW22687   1.470   5.931   1.287
 7263SOL    HW122688   1.485   6.007   1.351
 7263SOL    HW222689   1.540   5.934   1.216
 7264SOL     OW22690   6.828   1.000   6.379
 7264SOL    HW122691   6.752   1.064   6.368
 7264SOL    HW222692   6.902   1.026   6.316
 7265SOL     OW22693   4.640   4.725   5.489
 7265SOL    HW122694   4.571   4.683   5.549
 7265SOL    HW222695   4.729   4.723   5.534
 7266SOL     OW22696   4.778   0.431   1.989
 7266SOL    HW122697   4.835   0.412   1.909
 7266SOL    HW222698   4.837   0.451   2.067
 7267SOL     OW22699   0.047   4.056   4.521
 7267SOL    HW122700   0.028   4.115   4.443
 7267SOL    HW222701   0.067   4.111   4.602
 7268SOL     OW22702   4.036   6.661   1.298
 7268SOL    HW122703   3.988   6.701   1.220
 7268SOL    HW222704   3.972   6.648   1.373
 7269SOL     OW22705   1.129   5.766   1.720
 7269SOL    HW122706   1.157   5.705   1.645
 7269SOL    HW222707   1.037   5.742   1.749
 7270SOL     OW22708   2.625   1.055   2.758
 7270SOL    HW122709   2.664   1.032   2.669
 7270SOL    HW222710   2.651   1.148   2.784
 7271SOL     OW22711   0.070   3.668   2.953
 7271SOL    HW122712   7.005   3.631   2.984
 7271SOL    HW222713   0.130   3.682   3.032
 7272SOL     OW22714   5.073   2.507   2.399
 7272SOL    HW122715   5.059   2.594   2.447
 7272SOL    HW222716   5.080   2.523   2.301
 7273SOL     OW22717   5.587   4.262   0.633
 7273SOL    HW122718   5.638   4.198   0.690
 7273SOL    HW222719   5.594   4.235   0.537
 7274SOL     OW22720   6.837   4.685   5.357
 7274SOL    HW122721   6.895   4.728   5.426
 7274SOL    HW222722   6.894   4.654   5.280
 7275SOL     OW22723   6.863   0.514   0.700
 7275SOL    HW122724   6.877   0.415   0.704
 7275SOL    HW222725   6.803   0.536   0.623
 7276SOL     OW22726   2.367   2.739   4.127
 7276SOL    HW122727   2.351   2.641   4.118
 7276SOL    HW222728   2.281   2.784   4.151
 7277SOL     OW22729   4.442   2.003   4.800
 7277SOL    HW122730   4.447   1.926   4.736
 7277SOL    HW222731   4.378   2.072   4.763
 7278SOL     OW22732   3.227   1.501   3.203
 7278SOL    HW122733   3.314   1.550   3.213
 7278SOL    HW222734   3.209   1.447   3.285
 7279SOL     OW22735   4.936   5.088   0.352
 7279SOL    HW122736   4.887   5.061   0.269
 7279SOL    HW222737   4.892   5.047   0.432
 7280SOL     OW22738   5.577   2.214   4.995
 7280SOL    HW122739   5.528   2.128   4.990
 7280SOL    HW222740   5.633   2.216   5.078
 7281SOL     OW22741   3.891   6.796   2.249
 7281SOL    HW122742   3.832   6.725   2.288
 7281SOL    HW222743   3.956   6.754   2.187
 7282SOL     OW22744   6.849   5.240   2.074
 7282SOL    HW122745   6.838   5.170   2.003
 7282SOL    HW222746   6.921   5.304   2.047
 7283SOL     OW22747   4.020   4.885   2.356
 7283SOL    HW122748   3.946   4.884   2.424
 7283SOL    HW222749   3.981   4.877   2.264
 7284SOL     OW22750   6.408   1.811   3.988
 7284SOL    HW122751   6.346   1.797   3.910
 7284SOL    HW222752   6.418   1.909   4.005
 7285SOL     OW22753   4.880   2.930   2.227
 7285SOL    HW122754   4.980   2.933   2.217
 7285SOL    HW222755   4.838   2.970   2.146
 7286SOL     OW22756   0.719   0.952   1.261
 7286SOL    HW122757   0.754   1.044   1.281
 7286SOL    HW222758   0.635   0.937   1.312
 7287SOL     OW22759   1.421   2.677   3.918
 7287SOL    HW122760   1.517   2.677   3.947
 7287SOL    HW222761   1.393   2.584   3.894
 7288SOL     OW22762   2.840   2.203   3.439
 7288SOL    HW122763   2.869   2.226   3.532
 7288SOL    HW222764   2.758   2.256   3.415
 7289SOL     OW22765   5.975   2.548   1.213
 7289SOL    HW122766   5.960   2.570   1.309
 7289SOL    HW222767   6.055   2.489   1.204
 7290SOL     OW22768   3.107   1.780   5.283
 7290SOL    HW122769   3.152   1.854   5.232
 7290SOL    HW222770   3.176   1.729   5.334
 7291SOL     OW22771   4.607   1.222   0.600
 7291SOL    HW122772   4.543   1.201   0.526
 7291SOL    HW222773   4.698   1.190   0.575
 7292SOL     OW22774   2.167   0.244   2.692
 7292SOL    HW122775   2.121   0.331   2.713
 7292SOL    HW222776   2.123   0.202   2.613
 7293SOL     OW22777   1.596   0.424   5.304
 7293SOL    HW122778   1.662   0.469   5.244
 7293SOL    HW222779   1.510   0.474   5.302
 7294SOL     OW22780   2.488   6.033   1.327
 7294SOL    HW122781   2.530   6.116   1.362
 7294SOL    HW222782   2.418   6.057   1.259
 7295SOL     OW22783   6.221   5.142   2.304
 7295SOL    HW122784   6.202   5.080   2.380
 7295SOL    HW222785   6.187   5.101   2.219
 7296SOL     OW22786   5.027   4.985   2.021
 7296SOL    HW122787   5.091   5.022   2.088
 7296SOL    HW222788   4.934   5.016   2.043
 7297SOL     OW22789   3.786   6.211   1.380
 7297SOL    HW122790   3.691   6.232   1.406
 7297SOL    HW222791   3.822   6.141   1.442
 7298SOL     OW22792   4.992   5.737   6.653
 7298SOL    HW122793   4.924   5.712   6.584
 7298SOL    HW222794   5.024   5.654   6.699
 7299SOL     OW22795   1.559   2.950   0.095
 7299SOL    HW122796   1.554   2.970   0.193
 7299SOL    HW222797   1.521   3.027   0.044
 7300SOL     OW22798   0.462   5.036   1.824
 7300SOL    HW122799   0.422   4.953   1.862
 7300SOL    HW222800   0.471   5.026   1.725
 7301SOL     OW22801   5.253   0.044   5.916
 7301SOL    HW122802   5.350   0.026   5.931
 7301SOL    HW222803   5.227   0.128   5.964
 7302SOL     OW22804   4.969   1.732   6.499
 7302SOL    HW122805   4.923   1.698   6.581
 7302SOL    HW222806   5.068   1.739   6.516
 7303SOL     OW22807   2.707   1.349   1.268
 7303SOL    HW122808   2.719   1.446   1.246
 7303SOL    HW222809   2.745   1.293   1.194
 7304SOL     OW22810   2.776   5.725   1.715
 7304SOL    HW122811   2.682   5.752   1.693
 7304SOL    HW222812   2.776   5.662   1.792
 7305SOL     OW22813   6.218   1.987   0.802
 7305SOL    HW122814   6.173   1.984   0.713
 7305SOL    HW222815   6.168   2.050   0.862
 7306SOL     OW22816   2.337   2.028   1.114
 7306SOL    HW122817   2.302   2.112   1.073
 7306SOL    HW222818   2.422   2.001   1.068
 7307SOL     OW22819   1.814   6.690   1.663
 7307SOL    HW122820   1.740   6.669   1.728
 7307SOL    HW222821   1.777   6.688   1.570
 7308SOL     OW22822   5.380   1.056   2.740
 7308SOL    HW122823   5.322   1.006   2.805
 7308SOL    HW222824   5.467   1.007   2.729
 7309SOL     OW22825   1.581   5.433   3.306
 7309SOL    HW122826   1.522   5.462   3.231
 7309SOL    HW222827   1.648   5.504   3.326
 7310SOL     OW22828   1.939   3.012   6.872
 7310SOL    HW122829   1.872   3.029   6.800
 7310SOL    HW222830   1.895   3.020   6.961
 7311SOL     OW22831   0.100   6.660   6.236
 7311SOL    HW122832   0.145   6.748   6.248
 7311SOL    HW222833   0.101   6.635   6.139
 7312SOL     OW22834   6.693   2.092   4.823
 7312SOL    HW122835   6.664   2.104   4.918
 7312SOL    HW222836   6.789   2.065   4.820
 7313SOL     OW22837   2.999   0.876   1.964
 7313SOL    HW122838   2.918   0.821   1.946
 7313SOL    HW222839   3.026   0.924   1.880
 7314SOL     OW22840   0.442   4.275   0.084
 7314SOL    HW122841   0.367   4.250   0.022
 7314SOL    HW222842   0.445   4.374   0.095
 7315SOL     OW22843   1.378   4.438   2.675
 7315SOL    HW122844   1.478   4.448   2.677
 7315SOL    HW222845   1.352   4.379   2.598
 7316SOL     OW22846   3.446   2.345   0.639
 7316SOL    HW122847   3.351   2.371   0.660
 7316SOL    HW222848   3.456   2.329   0.541
 7317SOL     OW22849   3.939   2.007   1.682
 7317SOL    HW122850   3.840   2.010   1.700
 7317SOL    HW222851   3.981   1.936   1.737
 7318SOL     OW22852   4.169   6.837   0.529
 7318SOL    HW122853   4.095   6.822   0.463
 7318SOL    HW222854   4.167   6.765   0.598
 7319SOL     OW22855   6.207   4.429   0.058
 7319SOL    HW122856   6.217   4.376   6.997
 7319SOL    HW222857   6.298   4.447   0.097
 7320SOL     OW22858   6.804   2.975   1.520
 7320SOL    HW122859   6.824   2.910   1.447
 7320SOL    HW222860   6.859   3.057   1.509
 7321SOL     OW22861   1.582   0.100   6.883
 7321SOL    HW122862   1.610   0.035   6.812
 7321SOL    HW222863   1.487   0.082   6.909
 7322SOL     OW22864   0.639   2.723   2.847
 7322SOL    HW122865   0.683   2.649   2.795
 7322SOL    HW222866   0.558   2.754   2.797
 7323SOL     OW22867   1.173   2.058   1.326
 7323SOL    HW122868   1.090   2.038   1.274
 7323SOL    HW222869   1.161   2.028   1.420
 7324SOL     OW22870   5.481   4.997   3.564
 7324SOL    HW122871   5.484   5.045   3.476
 7324SOL    HW222872   5.385   4.985   3.592
 7325SOL     OW22873   4.623   1.221   6.151
 7325SOL    HW122874   4.580   1.290   6.210
 7325SOL    HW222875   4.589   1.130   6.177
 7326SOL     OW22876   2.754   0.502   6.991
 7326SOL    HW122877   2.770   0.420   0.024
 7326SOL    HW222878   2.824   0.508   6.921
 7327SOL     OW22879   6.737   3.705   2.776
 7327SOL    HW122880   6.691   3.648   2.708
 7327SOL    HW222881   6.805   3.762   2.730
 7328SOL     OW22882   4.326   4.718   4.765
 7328SOL    HW122883   4.344   4.659   4.843
 7328SOL    HW222884   4.331   4.814   4.793
 7329SOL     OW22885   2.809   3.011   1.146
 7329SOL    HW122886   2.786   3.094   1.095
 7329SOL    HW222887   2.898   3.023   1.190
 7330SOL     OW22888   3.160   3.357   1.174
 7330SOL    HW122889   3.138   3.318   1.264
 7330SOL    HW222890   3.078   3.359   1.118
 7331SOL     OW22891   4.885   0.428   2.950
 7331SOL    HW122892   4.985   0.425   2.951
 7331SOL    HW222893   4.850   0.397   3.038
 7332SOL     OW22894   2.853   4.385   6.637
 7332SOL    HW122895   2.839   4.286   6.635
 7332SOL    HW222896   2.765   4.432   6.641
 7333SOL     OW22897   6.656   2.484   0.996
 7333SOL    HW122898   6.595   2.540   0.940
 7333SOL    HW222899   6.601   2.423   1.054
 7334SOL     OW22900   2.657   0.258   5.055
 7334SOL    HW122901   2.688   0.164   5.072
 7334SOL    HW222902   2.622   0.297   5.141
 7335SOL     OW22903   0.055   2.754   2.180
 7335SOL    HW122904   0.073   2.848   2.151
 7335SOL    HW222905   0.133   2.696   2.154
 7336SOL     OW22906   1.644   6.538   1.129
 7336SOL    HW122907   1.555   6.498   1.107
 7336SOL    HW222908   1.693   6.557   1.044
 7337SOL     OW22909   2.149   2.353   2.875
 7337SOL    HW122910   2.143   2.449   2.904
 7337SOL    HW222911   2.234   2.313   2.908
 7338SOL     OW22912   5.822   3.029   1.904
 7338SOL    HW122913   5.809   2.961   1.832
 7338SOL    HW222914   5.831   2.983   1.992
 7339SOL     OW22915   6.414   4.973   4.798
 7339SOL    HW122916   6.482   5.038   4.832
 7339SOL    HW222917   6.447   4.880   4.810
 7340SOL     OW22918   2.840   0.231   0.117
 7340SOL    HW122919   2.824   0.202   0.022
 7340SOL    HW222920   2.915   0.177   0.156
 7341SOL     OW22921   6.429   4.980   3.444
 7341SOL    HW122922   6.470   4.889   3.443
 7341SOL    HW222923   6.379   4.993   3.530
 7342SOL     OW22924   6.845   0.092   0.400
 7342SOL    HW122925   6.818   0.184   0.428
 7342SOL    HW222926   6.930   0.066   0.446
 7343SOL     OW22927   6.160   3.833   1.953
 7343SOL    HW122928   6.103   3.751   1.957
 7343SOL    HW222929   6.107   3.908   1.912
 7344SOL     OW22930   1.467   6.212   0.182
 7344SOL    HW122931   1.519   6.128   0.166
 7344SOL    HW222932   1.386   6.213   0.124
 7345SOL     OW22933   4.113   5.381   6.454
 7345SOL    HW122934   4.050   5.331   6.512
 7345SOL    HW222935   4.204   5.339   6.459
 7346SOL     OW22936   3.924   4.815   1.848
 7346SOL    HW122937   3.975   4.732   1.869
 7346SOL    HW222938   3.973   4.868   1.779
 7347SOL     OW22939   6.442   1.581   2.204
 7347SOL    HW122940   6.443   1.660   2.143
 7347SOL    HW222941   6.516   1.590   2.271
 7348SOL     OW22942   1.308   1.816   3.295
 7348SOL    HW122943   1.291   1.786   3.389
 7348SOL    HW222944   1.374   1.890   3.296
 7349SOL     OW22945   3.488   2.003   0.942
 7349SOL    HW122946   3.447   2.035   1.027
 7349SOL    HW222947   3.578   1.964   0.962
 7350SOL     OW22948   1.874   2.158   3.407
 7350SOL    HW122949   1.810   2.101   3.355
 7350SOL    HW222950   1.918   2.103   3.478
 7351SOL     OW22951   4.829   4.649   6.943
 7351SOL    HW122952   4.783   4.653   0.008
 7351SOL    HW222953   4.920   4.610   6.954
 7352SOL     OW22954   0.531   1.872   2.578
 7352SOL    HW122955   0.519   1.874   2.479
 7352SOL    HW222956   0.600   1.803   2.602
 7353SOL     OW22957   5.451   1.619   4.093
 7353SOL    HW122958   5.416   1.647   4.182
 7353SOL    HW222959   5.541   1.662   4.077
 7354SOL     OW22960   6.180   5.421   5.943
 7354SOL    HW122961   6.217   5.330   5.962
 7354SOL    HW222962   6.097   5.435   5.998
 7355SOL     OW22963   1.498   5.542   1.682
 7355SOL    HW122964   1.453   5.484   1.750
 7355SOL    HW222965   1.440   5.622   1.663
 7356SOL     OW22966   6.053   1.868   6.215
 7356SOL    HW122967   6.013   1.919   6.291
 7356SOL    HW222968   6.152   1.881   6.215
 7357SOL     OW22969   6.051   2.124   0.148
 7357SOL    HW122970   6.052   2.045   0.087
 7357SOL    HW222971   6.143   2.139   0.184
 7358SOL     OW22972   3.349   1.150   4.351
 7358SOL    HW122973   3.308   1.081   4.411
 7358SOL    HW222974   3.312   1.141   4.259
 7359SOL     OW22975   3.729   2.962   3.147
 7359SOL    HW122976   3.781   2.891   3.194
 7359SOL    HW222977   3.728   2.944   3.049
 7360SOL     OW22978   0.763   2.954   4.883
 7360SOL    HW122979   0.748   2.937   4.980
 7360SOL    HW222980   0.725   2.878   4.830
 7361SOL     OW22981   5.179   6.301   2.001
 7361SOL    HW122982   5.263   6.249   2.017
 7361SOL    HW222983   5.103   6.256   2.048
 7362SOL     OW22984   2.088   5.686   5.506
 7362SOL    HW122985   2.071   5.766   5.562
 7362SOL    HW222986   2.158   5.629   5.550
 7363SOL     OW22987   4.892   3.168   6.820
 7363SOL    HW122988   4.891   3.181   6.919
 7363SOL    HW222989   4.966   3.222   6.780
 7364SOL     OW22990   4.481   6.136   1.556
 7364SOL    HW122991   4.449   6.083   1.634
 7364SOL    HW222992   4.581   6.136   1.553
 7365SOL     OW22993   2.579   0.213   1.892
 7365SOL    HW122994   2.568   0.271   1.973
 7365SOL    HW222995   2.665   0.163   1.898
 7366SOL     OW22996   0.532   5.260   6.998
 7366SOL    HW122997   0.609   5.299   0.025
 7366SOL    HW222998   0.536   5.160   7.002
 7367SOL     OW22999   5.044   3.878   1.714
 7367SOL    HW123000   5.016   3.949   1.650
 7367SOL    HW223001   5.088   3.803   1.664
 7368SOL     OW23002   3.159   3.138   4.624
 7368SOL    HW123003   3.078   3.197   4.632
 7368SOL    HW223004   3.139   3.050   4.666
 7369SOL     OW23005   4.981   3.703   0.527
 7369SOL    HW123006   5.062   3.651   0.501
 7369SOL    HW223007   5.010   3.791   0.565
 7370SOL     OW23008   2.793   6.925   0.359
 7370SOL    HW123009   2.834   6.991   0.422
 7370SOL    HW223010   2.732   6.972   0.296
 7371SOL     OW23011   2.947   4.906   4.209
 7371SOL    HW123012   2.984   4.999   4.202
 7371SOL    HW223013   2.940   4.866   4.117
 7372SOL     OW23014   3.421   0.499   5.612
 7372SOL    HW123015   3.388   0.404   5.607
 7372SOL    HW223016   3.431   0.535   5.520
 7373SOL     OW23017   3.595   0.896   2.234
 7373SOL    HW123018   3.520   0.872   2.295
 7373SOL    HW223019   3.650   0.814   2.215
 7374SOL     OW23020   1.544   3.093   6.875
 7374SOL    HW123021   1.509   3.180   6.842
 7374SOL    HW223022   1.564   3.033   6.798
 7375SOL     OW23023   1.058   0.414   4.350
 7375SOL    HW123024   1.053   0.482   4.278
 7375SOL    HW223025   1.137   0.355   4.336
 7376SOL     OW23026   2.241   3.271   0.041
 7376SOL    HW123027   2.234   3.259   6.965
 7376SOL    HW223028   2.218   3.365   0.064
 7377SOL     OW23029   4.694   4.463   1.820
 7377SOL    HW123030   4.708   4.529   1.893
 7377SOL    HW223031   4.631   4.392   1.850
 7378SOL     OW23032   6.908   1.134   5.169
 7378SOL    HW123033   6.924   1.093   5.079
 7378SOL    HW223034   6.933   1.069   5.240
 7379SOL     OW23035   4.100   1.373   2.401
 7379SOL    HW123036   4.029   1.424   2.352
 7379SOL    HW223037   4.129   1.295   2.345
 7380SOL     OW23038   0.387   3.430   6.039
 7380SOL    HW123039   0.465   3.485   6.070
 7380SOL    HW223040   0.413   3.334   6.038
 7381SOL     OW23041   4.733   2.026   2.485
 7381SOL    HW123042   4.803   1.995   2.549
 7381SOL    HW223043   4.740   1.975   2.400
 7382SOL     OW23044   6.670   4.782   4.698
 7382SOL    HW123045   6.751   4.840   4.710
 7382SOL    HW223046   6.629   4.764   4.788
 7383SOL     OW23047   6.913   6.280   3.262
 7383SOL    HW123048   6.908   6.194   3.211
 7383SOL    HW223049   6.877   6.354   3.206
 7384SOL     OW23050   5.414   6.694   2.411
 7384SOL    HW123051   5.505   6.659   2.435
 7384SOL    HW223052   5.415   6.794   2.413
 7385SOL     OW23053   4.706   6.178   1.303
 7385SOL    HW123054   4.756   6.122   1.236
 7385SOL    HW223055   4.765   6.253   1.333
 7386SOL     OW23056   0.653   2.028   5.486
 7386SOL    HW123057   0.610   2.118   5.494
 7386SOL    HW223058   0.728   2.021   5.552
 7387SOL     OW23059   3.669   5.227   3.829
 7387SOL    HW123060   3.625   5.142   3.799
 7387SOL    HW223061   3.747   5.206   3.888
 7388SOL     OW23062   6.690   4.702   3.518
 7388SOL    HW123063   6.630   4.648   3.458
 7388SOL    HW223064   6.635   4.750   3.586
 7389SOL     OW23065   1.856   4.790   6.524
 7389SOL    HW123066   1.817   4.706   6.485
 7389SOL    HW223067   1.842   4.790   6.623
 7390SOL     OW23068   1.127   0.514   5.853
 7390SOL    HW123069   1.182   0.538   5.773
 7390SOL    HW223070   1.048   0.575   5.859
 7391SOL     OW23071   6.238   3.384   6.428
 7391SOL    HW123072   6.166   3.433   6.478
 7391SOL    HW223073   6.216   3.383   6.331
 7392SOL     OW23074   1.372   5.042   4.295
 7392SOL    HW123075   1.459   5.051   4.247
 7392SOL    HW223076   1.389   5.000   4.385
 7393SOL     OW23077   6.764   4.751   2.281
 7393SOL    HW123078   6.857   4.787   2.283
 7393SOL    HW223079   6.700   4.824   2.255
 7394SOL     OW23080   4.193   3.797   6.285
 7394SOL    HW123081   4.201   3.719   6.347
 7394SOL    HW223082   4.192   3.882   6.338
 7395SOL     OW23083   0.780   0.126   0.353
 7395SOL    HW123084   0.845   0.197   0.380
 7395SOL    HW223085   0.713   0.163   0.289
 7396SOL     OW23086   1.319   6.980   6.662
 7396SOL    HW123087   1.349   0.050   6.683
 7396SOL    HW223088   1.373   6.915   6.715
 7397SOL     OW23089   6.659   4.473   5.143
 7397SOL    HW123090   6.709   4.439   5.222
 7397SOL    HW223091   6.569   4.504   5.172
 7398SOL     OW23092   4.714   4.240   4.374
 7398SOL    HW123093   4.624   4.211   4.407
 7398SOL    HW223094   4.765   4.283   4.448
 7399SOL     OW23095   5.176   3.787   6.085
 7399SOL    HW123096   5.229   3.784   6.169
 7399SOL    HW223097   5.095   3.729   6.094
 7400SOL     OW23098   2.939   4.880   6.714
 7400SOL    HW123099   3.023   4.919   6.753
 7400SOL    HW223100   2.893   4.824   6.783
 7401SOL     OW23101   0.345   1.621   4.301
 7401SOL    HW123102   0.308   1.611   4.394
 7401SOL    HW223103   0.330   1.536   4.250
 7402SOL     OW23104   2.610   0.184   3.613
 7402SOL    HW123105   2.622   0.085   3.605
 7402SOL    HW223106   2.699   0.229   3.608
 7403SOL     OW23107   2.125   3.196   3.017
 7403SOL    HW123108   2.082   3.136   2.950
 7403SOL    HW223109   2.194   3.145   3.068
 7404SOL     OW23110   1.120   0.668   0.849
 7404SOL    HW123111   1.207   0.681   0.801
 7404SOL    HW223112   1.069   0.754   0.851
 7405SOL     OW23113   3.053   5.172   5.780
 7405SOL    HW123114   3.113   5.108   5.733
 7405SOL    HW223115   2.960   5.162   5.744
 7406SOL     OW23116   1.076   4.172   2.208
 7406SOL    HW123117   1.040   4.148   2.298
 7406SOL    HW223118   1.012   4.232   2.161
 7407SOL     OW23119   1.195   5.986   5.623
 7407SOL    HW123120   1.130   6.017   5.554
 7407SOL    HW223121   1.186   6.042   5.705
 7408SOL     OW23122   1.389   4.565   5.615
 7408SOL    HW123123   1.396   4.652   5.566
 7408SOL    HW223124   1.474   4.514   5.606
 7409SOL     OW23125   1.795   7.000   4.901
 7409SOL    HW123126   1.697   7.016   4.906
 7409SOL    HW223127   1.813   6.909   4.863
 7410SOL     OW23128   6.924   5.329   1.180
 7410SOL    HW123129   6.834   5.295   1.207
 7410SOL    HW223130   6.988   5.319   1.255
 7411SOL     OW23131   2.847   5.972   4.716
 7411SOL    HW123132   2.877   6.006   4.806
 7411SOL    HW223133   2.767   6.023   4.686
 7412SOL     OW23134   1.680   1.119   0.921
 7412SOL    HW123135   1.640   1.042   0.970
 7412SOL    HW223136   1.619   1.198   0.928
 7413SOL     OW23137   6.240   3.849   4.718
 7413SOL    HW123138   6.181   3.871   4.640
 7413SOL    HW223139   6.328   3.814   4.684
 7414SOL     OW23140   6.287   6.732   2.214
 7414SOL    HW123141   6.345   6.813   2.198
 7414SOL    HW223142   6.325   6.678   2.289
 7415SOL     OW23143   1.871   3.388   3.176
 7415SOL    HW123144   1.923   3.472   3.194
 7415SOL    HW223145   1.883   3.325   3.252
 7416SOL     OW23146   3.715   1.238   4.271
 7416SOL    HW123147   3.683   1.176   4.343
 7416SOL    HW223148   3.706   1.332   4.302
 7417SOL     OW23149   1.416   6.498   6.962
 7417SOL    HW123150   1.489   6.457   6.908
 7417SOL    HW223151   1.397   6.440   0.019
 7418SOL     OW23152   2.706   3.685   1.514
 7418SOL    HW123153   2.610   3.690   1.483
 7418SOL    HW223154   2.758   3.628   1.450
 7419SOL     OW23155   5.901   1.347   5.211
 7419SOL    HW123156   5.902   1.290   5.130
 7419SOL    HW223157   5.922   1.442   5.186
 7420SOL     OW23158   6.504   5.971   2.349
 7420SOL    HW123159   6.486   5.917   2.431
 7420SOL    HW223160   6.418   6.013   2.317
 7421SOL     OW23161   3.870   4.070   1.475
 7421SOL    HW123162   3.935   4.068   1.551
 7421SOL    HW223163   3.777   4.055   1.510
 7422SOL     OW23164   0.096   3.517   0.319
 7422SOL    HW123165   0.084   3.613   0.347
 7422SOL    HW223166   0.007   3.473   0.314
 7423SOL     OW23167   1.747   4.624   5.848
 7423SOL    HW123168   1.797   4.537   5.855
 7423SOL    HW223169   1.781   4.675   5.769
 7424SOL     OW23170   5.111   1.058   4.026
 7424SOL    HW123171   5.143   0.971   4.063
 7424SOL    HW223172   5.148   1.133   4.080
 7425SOL     OW23173   3.557   4.762   6.177
 7425SOL    HW123174   3.465   4.789   6.206
 7425SOL    HW223175   3.598   4.834   6.122
 7426SOL     OW23176   0.893   1.518   6.090
 7426SOL    HW123177   0.992   1.528   6.101
 7426SOL    HW223178   0.857   1.461   6.164
 7427SOL     OW23179   3.393   5.813   4.792
 7427SOL    HW123180   3.375   5.844   4.699
 7427SOL    HW223181   3.318   5.755   4.823
 7428SOL     OW23182   3.701   2.364   5.883
 7428SOL    HW123183   3.603   2.362   5.863
 7428SOL    HW223184   3.715   2.390   5.979
 7429SOL     OW23185   0.184   0.573   3.021
 7429SOL    HW123186   0.150   0.575   3.115
 7429SOL    HW223187   0.184   0.479   2.988
 7430SOL     OW23188   6.135   3.460   5.367
 7430SOL    HW123189   6.095   3.550   5.383
 7430SOL    HW223190   6.230   3.460   5.399
 7431SOL     OW23191   0.329   3.541   2.074
 7431SOL    HW123192   0.260   3.530   2.145
 7431SOL    HW223193   0.301   3.493   1.991
 7432SOL     OW23194   0.057   6.427   4.214
 7432SOL    HW123195   0.046   6.526   4.229
 7432SOL    HW223196   0.137   6.411   4.156
 7433SOL     OW23197   6.172   5.083   0.734
 7433SOL    HW123198   6.074   5.084   0.717
 7433SOL    HW223199   6.222   5.094   0.648
 7434SOL     OW23200   3.053   1.798   6.364
 7434SOL    HW123201   3.057   1.720   6.426
 7434SOL    HW223202   2.964   1.842   6.371
 7435SOL     OW23203   3.050   6.015   6.800
 7435SOL    HW123204   3.146   5.995   6.777
 7435SOL    HW223205   3.023   6.101   6.756
 7436SOL     OW23206   5.271   2.996   6.684
 7436SOL    HW123207   5.180   2.993   6.644
 7436SOL    HW223208   5.274   2.935   6.764
 7437SOL     OW23209   0.340   5.920   6.094
 7437SOL    HW123210   0.373   5.889   6.005
 7437SOL    HW223211   0.247   5.957   6.084
 7438SOL     OW23212   0.356   4.432   2.212
 7438SOL    HW123213   0.349   4.350   2.154
 7438SOL    HW223214   0.450   4.467   2.208
 7439SOL     OW23215   2.076   6.918   3.281
 7439SOL    HW123216   2.081   6.886   3.376
 7439SOL    HW223217   1.998   6.876   3.235
 7440SOL     OW23218   1.237   2.799   4.291
 7440SOL    HW123219   1.317   2.755   4.248
 7440SOL    HW223220   1.157   2.740   4.278
 7441SOL     OW23221   5.210   1.236   4.208
 7441SOL    HW123222   5.266   1.294   4.149
 7441SOL    HW223223   5.267   1.164   4.248
 7442SOL     OW23224   1.153   1.310   6.187
 7442SOL    HW123225   1.165   1.406   6.214
 7442SOL    HW223226   1.212   1.252   6.243
 7443SOL     OW23227   1.032   1.014   6.379
 7443SOL    HW123228   1.016   1.073   6.458
 7443SOL    HW223229   1.105   1.052   6.322
 7444SOL     OW23230   0.389   3.178   5.936
 7444SOL    HW123231   0.352   3.088   5.958
 7444SOL    HW223232   0.435   3.174   5.847
 7445SOL     OW23233   5.338   1.316   1.787
 7445SOL    HW123234   5.280   1.349   1.862
 7445SOL    HW223235   5.425   1.282   1.825
 7446SOL     OW23236   6.770   3.809   1.177
 7446SOL    HW123237   6.693   3.782   1.236
 7446SOL    HW223238   6.737   3.822   1.084
 7447SOL     OW23239   1.007   4.177   7.016
 7447SOL    HW123240   0.956   4.185   6.930
 7447SOL    HW223241   0.948   4.139   0.063
 7448SOL     OW23242   5.616   7.002   5.742
 7448SOL    HW123243   5.710   6.970   5.754
 7448SOL    HW223244   5.579   6.968   5.655
 7449SOL     OW23245   5.001   2.212   2.097
 7449SOL    HW123246   5.017   2.293   2.041
 7449SOL    HW223247   4.968   2.239   2.187
 7450SOL     OW23248   4.466   2.047   2.791
 7450SOL    HW123249   4.399   2.113   2.827
 7450SOL    HW223250   4.469   2.054   2.691
 7451SOL     OW23251   1.710   0.823   4.709
 7451SOL    HW123252   1.769   0.864   4.639
 7451SOL    HW223253   1.722   0.724   4.708
 7452SOL     OW23254   2.158   6.920   4.720
 7452SOL    HW123255   2.094   6.875   4.658
 7452SOL    HW223256   2.130   7.016   4.732
 7453SOL     OW23257   5.957   6.335   5.120
 7453SOL    HW123258   5.917   6.395   5.189
 7453SOL    HW223259   5.892   6.262   5.097
 7454SOL     OW23260   0.771   3.259   1.455
 7454SOL    HW123261   0.707   3.299   1.390
 7454SOL    HW223262   0.799   3.328   1.521
 7455SOL     OW23263   4.638   2.373   0.391
 7455SOL    HW123264   4.710   2.347   0.456
 7455SOL    HW223265   4.548   2.356   0.432
 7456SOL     OW23266   1.320   3.626   4.881
 7456SOL    HW123267   1.332   3.557   4.953
 7456SOL    HW223268   1.248   3.690   4.908
 7457SOL     OW23269   5.819   1.011   5.157
 7457SOL    HW123270   5.824   0.935   5.092
 7457SOL    HW223271   5.816   1.098   5.107
 7458SOL     OW23272   3.161   1.052   6.863
 7458SOL    HW123273   3.176   0.972   6.923
 7458SOL    HW223274   3.068   1.086   6.876
 7459SOL     OW23275   4.669   0.361   5.495
 7459SOL    HW123276   4.632   0.393   5.408
 7459SOL    HW223277   4.760   0.324   5.481
 7460SOL     OW23278   1.005   4.721   0.532
 7460SOL    HW123279   0.987   4.676   0.444
 7460SOL    HW223280   1.001   4.820   0.520
 7461SOL     OW23281   5.286   1.093   5.250
 7461SOL    HW123282   5.252   1.075   5.158
 7461SOL    HW223283   5.219   1.062   5.317
 7462SOL     OW23284   2.095   1.802   2.328
 7462SOL    HW123285   2.168   1.742   2.295
 7462SOL    HW223286   2.115   1.831   2.421
 7463SOL     OW23287   4.177   3.483   1.867
 7463SOL    HW123288   4.105   3.418   1.889
 7463SOL    HW223289   4.142   3.552   1.804
 7464SOL     OW23290   4.913   6.207   0.999
 7464SOL    HW123291   4.948   6.118   0.968
 7464SOL    HW223292   4.975   6.245   1.067
 7465SOL     OW23293   2.670   0.530   1.465
 7465SOL    HW123294   2.590   0.531   1.525
 7465SOL    HW223295   2.705   0.624   1.455
 7466SOL     OW23296   0.567   0.199   0.143
 7466SOL    HW123297   0.528   0.272   0.087
 7466SOL    HW223298   0.644   0.157   0.094
 7467SOL     OW23299   0.375   2.075   1.270
 7467SOL    HW123300   0.429   2.062   1.187
 7467SOL    HW223301   0.415   2.022   1.344
 7468SOL     OW23302   5.452   1.615   2.851
 7468SOL    HW123303   5.468   1.532   2.904
 7468SOL    HW223304   5.517   1.620   2.775
 7469SOL     OW23305   1.097   0.874   0.502
 7469SOL    HW123306   1.048   0.814   0.438
 7469SOL    HW223307   1.191   0.885   0.473
 7470SOL     OW23308   0.296   1.760   1.802
 7470SOL    HW123309   0.236   1.829   1.761
 7470SOL    HW223310   0.364   1.731   1.736
 7471SOL     OW23311   6.457   6.513   5.358
 7471SOL    HW123312   6.527   6.446   5.383
 7471SOL    HW223313   6.502   6.593   5.318
 7472SOL     OW23314   3.835   0.141   4.136
 7472SOL    HW123315   3.910   0.188   4.091
 7472SOL    HW223316   3.765   0.207   4.162
 7473SOL     OW23317   6.925   3.380   4.004
 7473SOL    HW123318   7.006   3.327   3.980
 7473SOL    HW223319   6.880   3.413   3.920
 7474SOL     OW23320   3.299   1.000   3.781
 7474SOL    HW123321   3.276   0.909   3.748
 7474SOL    HW223322   3.243   1.068   3.734
 7475SOL     OW23323   3.944   0.420   1.294
 7475SOL    HW123324   3.898   0.473   1.223
 7475SOL    HW223325   4.036   0.397   1.263
 7476SOL     OW23326   4.201   5.986   4.403
 7476SOL    HW123327   4.273   6.054   4.418
 7476SOL    HW223328   4.146   5.977   4.486
 7477SOL     OW23329   4.266   0.985   3.589
 7477SOL    HW123330   4.277   1.002   3.687
 7477SOL    HW223331   4.227   1.066   3.545
 7478SOL     OW23332   2.167   4.018   6.827
 7478SOL    HW123333   2.196   3.978   6.914
 7478SOL    HW223334   2.080   4.066   6.840
 7479SOL     OW23335   4.486   0.597   0.229
 7479SOL    HW123336   4.566   0.552   0.188
 7479SOL    HW223337   4.514   0.642   0.315
 7480SOL     OW23338   6.062   5.827   1.359
 7480SOL    HW123339   6.027   5.917   1.385
 7480SOL    HW223340   6.155   5.836   1.324
 7481SOL     OW23341   5.971   4.782   0.605
 7481SOL    HW123342   5.889   4.764   0.660
 7481SOL    HW223343   6.021   4.696   0.592
 7482SOL     OW23344   4.914   0.852   2.775
 7482SOL    HW123345   4.872   0.762   2.781
 7482SOL    HW223346   4.899   0.901   2.861
 7483SOL     OW23347   3.666   1.565   4.300
 7483SOL    HW123348   3.606   1.595   4.225
 7483SOL    HW223349   3.612   1.559   4.385
 7484SOL     OW23350   1.826   6.141   2.046
 7484SOL    HW123351   1.864   6.056   2.084
 7484SOL    HW223352   1.900   6.205   2.026
 7485SOL     OW23353   3.329   5.725   5.986
 7485SOL    HW123354   3.345   5.819   6.016
 7485SOL    HW223355   3.413   5.688   5.945
 7486SOL     OW23356   3.384   5.829   5.314
 7486SOL    HW123357   3.300   5.841   5.261
 7486SOL    HW223358   3.425   5.919   5.331
 7487SOL     OW23359   2.992   6.402   3.372
 7487SOL    HW123360   2.987   6.456   3.288
 7487SOL    HW223361   2.901   6.399   3.415
 7488SOL     OW23362   3.092   0.070   5.502
 7488SOL    HW123363   2.992   0.064   5.497
 7488SOL    HW223364   3.120   0.075   5.598
 7489SOL     OW23365   4.697   2.644   4.290
 7489SOL    HW123366   4.737   2.725   4.334
 7489SOL    HW223367   4.759   2.567   4.299
 7490SOL     OW23368   6.407   1.321   0.914
 7490SOL    HW123369   6.495   1.344   0.871
 7490SOL    HW223370   6.367   1.243   0.867
 7491SOL     OW23371   0.015   6.054   6.474
 7491SOL    HW123372   7.009   5.966   6.437
 7491SOL    HW223373   6.985   6.127   6.432
 7492SOL     OW23374   2.178   2.949   5.215
 7492SOL    HW123375   2.170   2.849   5.213
 7492SOL    HW223376   2.254   2.977   5.156
 7493SOL     OW23377   5.641   3.677   6.141
 7493SOL    HW123378   5.603   3.585   6.143
 7493SOL    HW223379   5.568   3.744   6.156
 7494SOL     OW23380   5.986   0.797   1.901
 7494SOL    HW123381   6.009   0.793   1.998
 7494SOL    HW223382   5.946   0.887   1.881
 7495SOL     OW23383   2.800   1.660   0.590
 7495SOL    HW123384   2.864   1.695   0.658
 7495SOL    HW223385   2.816   1.706   0.502
 7496SOL     OW23386   1.036   5.397   6.352
 7496SOL    HW123387   0.976   5.450   6.412
 7496SOL    HW223388   1.041   5.440   6.262
 7497SOL     OW23389   1.872   4.699   2.520
 7497SOL    HW123390   1.907   4.606   2.509
 7497SOL    HW223391   1.879   4.726   2.616
 7498SOL     OW23392   2.816   1.103   4.689
 7498SOL    HW123393   2.754   1.113   4.611
 7498SOL    HW223394   2.800   1.176   4.754
 7499SOL     OW23395   5.392   6.519   4.625
 7499SOL    HW123396   5.476   6.477   4.591
 7499SOL    HW223397   5.366   6.476   4.711
 7500SOL     OW23398   4.461   5.782   2.173
 7500SOL    HW123399   4.388   5.834   2.219
 7500SOL    HW223400   4.427   5.747   2.086
 7501SOL     OW23401   1.134   3.606   3.794
 7501SOL    HW123402   1.085   3.644   3.873
 7501SOL    HW223403   1.221   3.567   3.823
 7502SOL     OW23404   2.689   0.746   4.855
 7502SOL    HW123405   2.608   0.796   4.888
 7502SOL    HW223406   2.680   0.731   4.756
 7503SOL     OW23407   3.036   0.903   6.652
 7503SOL    HW123408   3.077   0.989   6.683
 7503SOL    HW223409   3.075   0.879   6.563
 7504SOL     OW23410   4.127   6.467   3.456
 7504SOL    HW123411   4.123   6.520   3.370
 7504SOL    HW223412   4.046   6.487   3.511
 7505SOL     OW23413   1.819   1.008   5.389
 7505SOL    HW123414   1.834   0.952   5.471
 7505SOL    HW223415   1.827   0.950   5.307
 7506SOL     OW23416   3.096   1.063   2.524
 7506SOL    HW123417   3.186   1.023   2.541
 7506SOL    HW223418   3.050   1.082   2.611
 7507SOL     OW23419   0.413   6.221   5.746
 7507SOL    HW123420   0.378   6.193   5.657
 7507SOL    HW223421   0.488   6.160   5.773
 7508SOL     OW23422   5.543   6.621   3.090
 7508SOL    HW123423   5.547   6.529   3.053
 7508SOL    HW223424   5.475   6.624   3.164
 7509SOL     OW23425   5.443   3.611   6.445
 7509SOL    HW123426   5.454   3.709   6.465
 7509SOL    HW223427   5.345   3.588   6.444
 7510SOL     OW23428   3.299   3.661   4.904
 7510SOL    HW123429   3.271   3.739   4.847
 7510SOL    HW223430   3.398   3.665   4.918
 7511SOL     OW23431   1.690   6.914   2.448
 7511SOL    HW123432   1.647   6.825   2.466
 7511SOL    HW223433   1.789   6.906   2.462
 7512SOL     OW23434   2.788   3.226   1.869
 7512SOL    HW123435   2.765   3.297   1.803
 7512SOL    HW223436   2.819   3.269   1.954
 7513SOL     OW23437   1.740   2.245   6.086
 7513SOL    HW123438   1.802   2.270   6.012
 7513SOL    HW223439   1.746   2.147   6.103
 7514SOL     OW23440   2.971   6.022   2.098
 7514SOL    HW123441   3.005   6.060   2.012
 7514SOL    HW223442   2.898   5.957   2.079
 7515SOL     OW23443   0.255   0.122   3.127
 7515SOL    HW123444   0.165   0.088   3.099
 7515SOL    HW223445   0.278   0.203   3.072
 7516SOL     OW23446   0.264   0.617   4.409
 7516SOL    HW123447   0.347   0.569   4.381
 7516SOL    HW223448   0.186   0.582   4.358
 7517SOL     OW23449   0.359   3.879   1.215
 7517SOL    HW123450   0.404   3.884   1.126
 7517SOL    HW223451   0.296   3.801   1.217
 7518SOL     OW23452   4.058   5.470   3.650
 7518SOL    HW123453   4.006   5.424   3.578
 7518SOL    HW223454   4.120   5.404   3.694
 7519SOL     OW23455   1.338   6.313   4.641
 7519SOL    HW123456   1.311   6.366   4.561
 7519SOL    HW223457   1.418   6.356   4.684
 7520SOL     OW23458   1.100   6.740   3.317
 7520SOL    HW123459   1.139   6.773   3.231
 7520SOL    HW223460   1.092   6.816   3.382
 7521SOL     OW23461   4.738   4.212   4.889
 7521SOL    HW123462   4.707   4.122   4.920
 7521SOL    HW223463   4.802   4.250   4.955
 7522SOL     OW23464   2.169   1.683   0.090
 7522SOL    HW123465   2.072   1.672   0.111
 7522SOL    HW223466   2.224   1.633   0.158
 7523SOL     OW23467   5.604   0.237   5.818
 7523SOL    HW123468   5.601   0.144   5.780
 7523SOL    HW223469   5.700   0.267   5.824
 7524SOL     OW23470   0.232   1.876   5.589
 7524SOL    HW123471   0.231   1.843   5.683
 7524SOL    HW223472   0.293   1.955   5.582
 7525SOL     OW23473   1.592   1.009   0.103
 7525SOL    HW123474   1.507   0.959   0.117
 7525SOL    HW223475   1.668   0.944   0.097
 7526SOL     OW23476   3.925   2.997   4.362
 7526SOL    HW123477   3.909   3.037   4.452
 7526SOL    HW223478   3.959   2.903   4.373
 7527SOL     OW23479   5.330   4.280   2.697
 7527SOL    HW123480   5.386   4.209   2.655
 7527SOL    HW223481   5.317   4.355   2.633
 7528SOL     OW23482   4.485   3.006   0.248
 7528SOL    HW123483   4.550   2.944   0.204
 7528SOL    HW223484   4.392   2.975   0.230
 7529SOL     OW23485   4.162   1.304   4.175
 7529SOL    HW123486   4.138   1.357   4.257
 7529SOL    HW223487   4.236   1.350   4.127
 7530SOL     OW23488   6.889   3.620   2.216
 7530SOL    HW123489   6.869   3.563   2.296
 7530SOL    HW223490   6.860   3.714   2.233
 7531SOL     OW23491   4.253   2.008   3.881
 7531SOL    HW123492   4.318   1.988   3.955
 7531SOL    HW223493   4.262   1.939   3.809
 7532SOL     OW23494   5.579   5.856   1.987
 7532SOL    HW123495   5.609   5.766   1.954
 7532SOL    HW223496   5.640   5.885   2.062
 7533SOL     OW23497   3.194   1.392   4.357
 7533SOL    HW123498   3.143   1.406   4.272
 7533SOL    HW223499   3.230   1.299   4.360
 7534SOL     OW23500   4.189   6.001   5.399
 7534SOL    HW123501   4.137   5.939   5.341
 7534SOL    HW223502   4.148   6.005   5.490
 7535SOL     OW23503   2.867   2.481   5.871
 7535SOL    HW123504   2.773   2.450   5.859
 7535SOL    HW223505   2.920   2.410   5.917
 7536SOL     OW23506   4.420   5.274   4.366
 7536SOL    HW123507   4.456   5.243   4.278
 7536SOL    HW223508   4.494   5.307   4.423
 7537SOL     OW23509   1.647   4.681   4.713
 7537SOL    HW123510   1.561   4.629   4.704
 7537SOL    HW223511   1.668   4.726   4.627
 7538SOL     OW23512   3.247   3.538   2.845
 7538SOL    HW123513   3.287   3.627   2.822
 7538SOL    HW223514   3.199   3.545   2.932
 7539SOL     OW23515   1.945   3.141   5.332
 7539SOL    HW123516   2.016   3.080   5.299
 7539SOL    HW223517   1.962   3.164   5.428
 7540SOL     OW23518   2.710   1.430   6.861
 7540SOL    HW123519   2.615   1.412   6.837
 7540SOL    HW223520   2.761   1.453   6.778
 7541SOL     OW23521   5.902   2.180   5.327
 7541SOL    HW123522   5.875   2.094   5.370
 7541SOL    HW223523   5.935   2.162   5.235
 7542SOL     OW23524   1.192   0.226   6.065
 7542SOL    HW123525   1.206   0.147   6.005
 7542SOL    HW223526   1.105   0.216   6.114
 7543SOL     OW23527   4.127   3.508   0.390
 7543SOL    HW123528   4.138   3.408   0.388
 7543SOL    HW223529   4.213   3.552   0.366
 7544SOL     OW23530   1.330   2.006   2.967
 7544SOL    HW123531   1.237   1.985   2.938
 7544SOL    HW223532   1.331   2.030   3.064
 7545SOL     OW23533   4.684   0.163   2.808
 7545SOL    HW123534   4.651   0.080   2.852
 7545SOL    HW223535   4.693   0.235   2.877
 7546SOL     OW23536   5.523   0.644   0.507
 7546SOL    HW123537   5.600   0.592   0.471
 7546SOL    HW223538   5.441   0.624   0.452
 7547SOL     OW23539   3.672   0.568   0.398
 7547SOL    HW123540   3.751   0.549   0.456
 7547SOL    HW223541   3.638   0.660   0.417
 7548SOL     OW23542   2.668   1.694   1.555
 7548SOL    HW123543   2.757   1.734   1.531
 7548SOL    HW223544   2.617   1.672   1.472
 7549SOL     OW23545   5.102   1.766   2.486
 7549SOL    HW123546   5.191   1.752   2.529
 7549SOL    HW223547   5.070   1.680   2.447
 7550SOL     OW23548   2.149   6.178   2.427
 7550SOL    HW123549   2.176   6.114   2.499
 7550SOL    HW223550   2.058   6.153   2.393
 7551SOL     OW23551   4.635   3.185   6.401
 7551SOL    HW123552   4.676   3.249   6.466
 7551SOL    HW223553   4.538   3.172   6.423
 7552SOL     OW23554   2.389   5.187   3.747
 7552SOL    HW123555   2.400   5.273   3.697
 7552SOL    HW223556   2.419   5.200   3.842
 7553SOL     OW23557   4.012   5.134   6.179
 7553SOL    HW123558   4.028   5.181   6.266
 7553SOL    HW223559   3.932   5.075   6.187
 7554SOL     OW23560   4.673   1.530   0.998
 7554SOL    HW123561   4.739   1.549   0.926
 7554SOL    HW223562   4.653   1.432   0.999
 7555SOL     OW23563   0.027   5.647   5.259
 7555SOL    HW123564   7.017   5.598   5.178
 7555SOL    HW223565   6.988   5.631   5.336
 7556SOL     OW23566   0.803   3.236   4.747
 7556SOL    HW123567   0.885   3.275   4.788
 7556SOL    HW223568   0.775   3.155   4.799
 7557SOL     OW23569   5.078   4.049   6.057
 7557SOL    HW123570   5.127   3.961   6.055
 7557SOL    HW223571   5.066   4.082   5.964
 7558SOL     OW23572   2.098   2.995   3.802
 7558SOL    HW123573   2.182   2.953   3.835
 7558SOL    HW223574   2.100   3.002   3.702
 7559SOL     OW23575   6.943   4.717   0.673
 7559SOL    HW123576   6.878   4.762   0.734
 7559SOL    HW223577   6.987   4.785   0.615
 7560SOL     OW23578   5.425   6.716   0.821
 7560SOL    HW123579   5.414   6.757   0.731
 7560SOL    HW223580   5.385   6.775   0.890
 7561SOL     OW23581   0.190   3.565   0.603
 7561SOL    HW123582   0.163   3.517   0.519
 7561SOL    HW223583   0.128   3.540   0.677
 7562SOL     OW23584   5.528   6.472   5.391
 7562SOL    HW123585   5.497   6.530   5.467
 7562SOL    HW223586   5.503   6.377   5.408
 7563SOL     OW23587   3.510   0.347   1.478
 7563SOL    HW123588   3.575   0.335   1.403
 7563SOL    HW223589   3.531   0.432   1.527
 7564SOL     OW23590   5.068   0.026   2.886
 7564SOL    HW123591   5.123   0.071   2.816
 7564SOL    HW223592   5.122   6.977   2.930
 7565SOL     OW23593   4.642   5.335   6.614
 7565SOL    HW123594   4.559   5.387   6.633
 7565SOL    HW223595   4.651   5.261   6.681
 7566SOL     OW23596   0.038   5.669   4.437
 7566SOL    HW123597   0.008   5.588   4.386
 7566SOL    HW223598   0.074   5.737   4.373
 7567SOL     OW23599   2.491   4.469   5.757
 7567SOL    HW123600   2.549   4.389   5.740
 7567SOL    HW223601   2.450   4.462   5.847
 7568SOL     OW23602   5.425   5.879   3.022
 7568SOL    HW123603   5.428   5.945   3.097
 7568SOL    HW223604   5.421   5.786   3.060
 7569SOL     OW23605   4.331   5.985   6.864
 7569SOL    HW123606   4.343   5.910   6.799
 7569SOL    HW223607   4.421   6.022   6.889
 7570SOL     OW23608   6.012   5.348   3.829
 7570SOL    HW123609   6.013   5.303   3.740
 7570SOL    HW223610   6.042   5.284   3.899
 7571SOL     OW23611   5.750   3.851   1.525
 7571SOL    HW123612   5.728   3.854   1.428
 7571SOL    HW223613   5.678   3.898   1.577
 7572SOL     OW23614   4.034   1.045   4.201
 7572SOL    HW123615   4.108   1.111   4.190
 7572SOL    HW223616   4.035   1.009   4.294
 7573SOL     OW23617   6.972   5.364   4.920
 7573SOL    HW123618   6.933   5.407   5.001
 7573SOL    HW223619   6.995   5.435   4.852
 7574SOL     OW23620   5.748   0.973   3.799
 7574SOL    HW123621   5.662   0.926   3.819
 7574SOL    HW223622   5.808   0.967   3.879
 7575SOL     OW23623   4.052   1.314   5.659
 7575SOL    HW123624   3.955   1.298   5.647
 7575SOL    HW223625   4.102   1.228   5.649
 7576SOL     OW23626   6.130   4.048   0.041
 7576SOL    HW123627   6.057   4.008   0.096
 7576SOL    HW223628   6.188   4.105   0.099
 7577SOL     OW23629   6.562   1.124   4.687
 7577SOL    HW123630   6.478   1.086   4.725
 7577SOL    HW223631   6.595   1.065   4.613
 7578SOL     OW23632   2.213   6.188   4.647
 7578SOL    HW123633   2.196   6.172   4.550
 7578SOL    HW223634   2.145   6.139   4.701
 7579SOL     OW23635   3.706   1.811   2.793
 7579SOL    HW123636   3.616   1.845   2.764
 7579SOL    HW223637   3.770   1.888   2.797
 7580SOL     OW23638   1.933   4.103   2.743
 7580SOL    HW123639   1.876   4.034   2.699
 7580SOL    HW223640   2.002   4.058   2.800
 7581SOL     OW23641   5.674   1.600   1.006
 7581SOL    HW123642   5.581   1.587   1.040
 7581SOL    HW223643   5.720   1.511   0.999
 7582SOL     OW23644   3.387   1.793   1.257
 7582SOL    HW123645   3.340   1.738   1.189
 7582SOL    HW223646   3.479   1.814   1.224
 7583SOL     OW23647   5.884   3.835   2.106
 7583SOL    HW123648   5.921   3.781   2.181
 7583SOL    HW223649   5.936   3.920   2.097
 7584SOL     OW23650   2.699   6.533   1.292
 7584SOL    HW123651   2.782   6.540   1.237
 7584SOL    HW223652   2.714   6.577   1.381
 7585SOL     OW23653   1.448   4.619   6.625
 7585SOL    HW123654   1.446   4.692   6.693
 7585SOL    HW223655   1.388   4.643   6.548
 7586SOL     OW23656   2.799   0.051   2.954
 7586SOL    HW123657   2.825   7.018   2.876
 7586SOL    HW223658   2.817   0.147   2.934
 7587SOL     OW23659   1.256   2.048   0.189
 7587SOL    HW123660   1.156   2.048   0.185
 7587SOL    HW223661   1.291   1.960   0.158
 7588SOL     OW23662   0.508   5.043   2.347
 7588SOL    HW123663   0.585   5.085   2.395
 7588SOL    HW223664   0.493   5.090   2.260
 7589SOL     OW23665   6.201   6.019   0.441
 7589SOL    HW123666   6.203   6.110   0.399
 7589SOL    HW223667   6.107   5.985   0.443
 7590SOL     OW23668   2.578   1.857   5.638
 7590SOL    HW123669   2.662   1.871   5.585
 7590SOL    HW223670   2.510   1.811   5.582
 7591SOL     OW23671   0.315   5.400   0.086
 7591SOL    HW123672   0.390   5.361   0.033
 7591SOL    HW223673   0.230   5.350   0.065
 7592SOL     OW23674   6.769   5.509   6.878
 7592SOL    HW123675   6.682   5.460   6.872
 7592SOL    HW223676   6.789   5.529   6.974
 7593SOL     OW23677   5.134   2.255   7.012
 7593SOL    HW123678   5.047   2.304   7.010
 7593SOL    HW223679   5.128   2.174   6.954
 7594SOL     OW23680   0.969   5.949   3.307
 7594SOL    HW123681   1.053   5.898   3.326
 7594SOL    HW223682   0.890   5.889   3.315
 7595SOL     OW23683   0.121   3.314   6.102
 7595SOL    HW123684   0.129   3.266   6.189
 7595SOL    HW223685   0.212   3.326   6.062
 7596SOL     OW23686   4.974   4.273   2.408
 7596SOL    HW123687   4.899   4.212   2.433
 7596SOL    HW223688   5.039   4.224   2.350
 7597SOL     OW23689   3.508   5.356   2.067
 7597SOL    HW123690   3.470   5.408   1.991
 7597SOL    HW223691   3.608   5.358   2.063
 7598SOL     OW23692   6.895   0.087   3.290
 7598SOL    HW123693   6.826   0.018   3.311
 7598SOL    HW223694   6.916   0.139   3.373
 7599SOL     OW23695   6.080   1.514   3.222
 7599SOL    HW123696   6.036   1.604   3.212
 7599SOL    HW223697   6.068   1.480   3.315
 7600SOL     OW23698   1.508   0.086   2.355
 7600SOL    HW123699   1.477   0.141   2.432
 7600SOL    HW223700   1.586   0.029   2.384
 7601SOL     OW23701   2.256   6.233   3.453
 7601SOL    HW123702   2.285   6.327   3.434
 7601SOL    HW223703   2.172   6.234   3.507
 7602SOL     OW23704   2.309   4.314   4.567
 7602SOL    HW123705   2.283   4.237   4.625
 7602SOL    HW223706   2.228   4.365   4.539
 7603SOL     OW23707   0.748   6.045   0.028
 7603SOL    HW123708   0.820   6.003   6.996
 7603SOL    HW223709   0.679   6.086   6.991
 7604SOL     OW23710   3.472   6.123   4.278
 7604SOL    HW123711   3.430   6.213   4.293
 7604SOL    HW223712   3.560   6.118   4.326
 7605SOL     OW23713   0.836   5.210   6.776
 7605SOL    HW123714   0.815   5.189   6.680
 7605SOL    HW223715   0.810   5.132   6.833
 7606SOL     OW23716   0.041   2.953   1.746
 7606SOL    HW123717   6.973   2.967   1.785
 7606SOL    HW223718   0.036   2.881   1.677
 7607SOL     OW23719   4.961   0.039   6.955
 7607SOL    HW123720   4.980   0.104   6.880
 7607SOL    HW223721   5.031   6.992   6.957
 7608SOL     OW23722   2.890   3.617   3.432
 7608SOL    HW123723   2.976   3.575   3.403
 7608SOL    HW223724   2.870   3.696   3.374
 7609SOL     OW23725   0.447   3.411   4.168
 7609SOL    HW123726   0.394   3.332   4.200
 7609SOL    HW223727   0.543   3.384   4.158
 7610SOL     OW23728   5.803   0.523   1.357
 7610SOL    HW123729   5.743   0.493   1.283
 7610SOL    HW223730   5.750   0.542   1.439
 7611SOL     OW23731   1.213   2.152   6.935
 7611SOL    HW123732   1.237   2.107   7.020
 7611SOL    HW223733   1.114   2.150   6.924
 7612SOL     OW23734   3.968   1.919   3.993
 7612SOL    HW123735   4.030   1.882   3.923
 7612SOL    HW223736   3.983   2.018   4.002
 7613SOL     OW23737   4.898   1.001   1.252
 7613SOL    HW123738   4.858   0.952   1.330
 7613SOL    HW223739   4.835   0.999   1.175
 7614SOL     OW23740   3.836   1.977   1.967
 7614SOL    HW123741   3.774   1.903   1.943
 7614SOL    HW223742   3.788   2.064   1.963
 7615SOL     OW23743   4.040   5.134   6.744
 7615SOL    HW123744   3.958   5.187   6.723
 7615SOL    HW223745   4.067   5.082   6.662
 7616SOL     OW23746   0.070   3.624   4.155
 7616SOL    HW123747   0.161   3.606   4.116
 7616SOL    HW223748   0.013   3.668   4.086
 7617SOL     OW23749   2.976   5.474   3.105
 7617SOL    HW123750   2.895   5.427   3.069
 7617SOL    HW223751   3.047   5.406   3.124
 7618SOL     OW23752   1.088   2.404   6.534
 7618SOL    HW123753   1.039   2.325   6.570
 7618SOL    HW223754   1.186   2.385   6.533
 7619SOL     OW23755   5.729   3.054   5.170
 7619SOL    HW123756   5.669   3.113   5.116
 7619SOL    HW223757   5.679   3.020   5.250
 7620SOL     OW23758   3.720   6.709   0.655
 7620SOL    HW123759   3.671   6.723   0.742
 7620SOL    HW223760   3.802   6.766   0.654
 7621SOL     OW23761   1.560   0.793   0.575
 7621SOL    HW123762   1.621   0.849   0.631
 7621SOL    HW223763   1.611   0.718   0.534
 7622SOL     OW23764   4.451   2.894   1.338
 7622SOL    HW123765   4.365   2.925   1.297
 7622SOL    HW223766   4.432   2.846   1.423
 7623SOL     OW23767   4.611   6.373   6.728
 7623SOL    HW123768   4.697   6.325   6.712
 7623SOL    HW223769   4.579   6.414   6.643
 7624SOL     OW23770   0.407   1.820   3.497
 7624SOL    HW123771   0.353   1.735   3.499
 7624SOL    HW223772   0.375   1.881   3.569
 7625SOL     OW23773   5.572   0.771   1.383
 7625SOL    HW123774   5.517   0.730   1.310
 7625SOL    HW223775   5.597   0.700   1.449
 7626SOL     OW23776   0.874   7.002   4.996
 7626SOL    HW123777   0.841   6.912   4.971
 7626SOL    HW223778   0.874   0.038   4.916
 7627SOL     OW23779   6.489   3.378   0.903
 7627SOL    HW123780   6.419   3.423   0.848
 7627SOL    HW223781   6.445   3.335   0.982
 7628SOL     OW23782   2.826   0.502   1.244
 7628SOL    HW123783   2.766   0.477   1.320
 7628SOL    HW223784   2.866   0.592   1.262
 7629SOL     OW23785   6.206   5.985   2.398
 7629SOL    HW123786   6.118   5.952   2.363
 7629SOL    HW223787   6.209   6.085   2.389
 7630SOL     OW23788   6.325   0.144   2.645
 7630SOL    HW123789   6.273   0.158   2.561
 7630SOL    HW223790   6.272   0.086   2.707
 7631SOL     OW23791   1.251   1.748   5.538
 7631SOL    HW123792   1.281   1.656   5.564
 7631SOL    HW223793   1.210   1.746   5.447
 7632SOL     OW23794   4.470   2.083   0.777
 7632SOL    HW123795   4.374   2.110   0.790
 7632SOL    HW223796   4.477   1.983   0.779
 7633SOL     OW23797   5.564   4.064   6.701
 7633SOL    HW123798   5.465   4.061   6.688
 7633SOL    HW223799   5.587   4.017   6.787
 7634SOL     OW23800   1.696   0.813   2.322
 7634SOL    HW123801   1.664   0.891   2.268
 7634SOL    HW223802   1.767   0.843   2.385
 7635SOL     OW23803   2.465   5.883   5.880
 7635SOL    HW123804   2.482   5.978   5.908
 7635SOL    HW223805   2.492   5.822   5.955
 7636SOL     OW23806   1.000   1.280   3.993
 7636SOL    HW123807   0.920   1.322   3.950
 7636SOL    HW223808   1.042   1.215   3.929
 7637SOL     OW23809   1.170   0.160   4.045
 7637SOL    HW123810   1.234   0.140   3.971
 7637SOL    HW223811   1.094   0.095   4.043
 7638SOL     OW23812   5.742   5.654   1.892
 7638SOL    HW123813   5.775   5.598   1.815
 7638SOL    HW223814   5.800   5.735   1.902
 7639SOL     OW23815   0.669   1.694   6.188
 7639SOL    HW123816   0.748   1.656   6.140
 7639SOL    HW223817   0.634   1.772   6.135
 7640SOL     OW23818   2.685   2.624   0.885
 7640SOL    HW123819   2.776   2.663   0.900
 7640SOL    HW223820   2.682   2.580   0.795
 7641SOL     OW23821   0.138   4.605   2.254
 7641SOL    HW123822   0.195   4.527   2.227
 7641SOL    HW223823   0.078   4.578   2.330
 7642SOL     OW23824   2.727   1.809   2.865
 7642SOL    HW123825   2.647   1.783   2.918
 7642SOL    HW223826   2.700   1.874   2.793
 7643SOL     OW23827   4.456   2.437   3.324
 7643SOL    HW123828   4.382   2.408   3.385
 7643SOL    HW223829   4.500   2.518   3.362
 7644SOL     OW23830   6.637   2.936   3.036
 7644SOL    HW123831   6.726   2.906   3.000
 7644SOL    HW223832   6.619   2.890   3.123
 7645SOL     OW23833   4.795   5.073   0.119
 7645SOL    HW123834   4.715   5.016   0.135
 7645SOL    HW223835   4.777   5.137   0.045
 7646SOL     OW23836   1.916   1.894   2.010
 7646SOL    HW123837   1.909   1.798   2.034
 7646SOL    HW223838   1.894   1.950   2.090
 7647SOL     OW23839   1.895   3.546   2.037
 7647SOL    HW123840   1.956   3.470   2.060
 7647SOL    HW223841   1.929   3.592   1.955
 7648SOL     OW23842   4.430   1.342   3.561
 7648SOL    HW123843   4.336   1.373   3.547
 7648SOL    HW223844   4.446   1.327   3.659
 7649SOL     OW23845   1.709   0.606   2.118
 7649SOL    HW123846   1.736   0.512   2.138
 7649SOL    HW223847   1.712   0.660   2.203
 7650SOL     OW23848   6.394   2.795   2.245
 7650SOL    HW123849   6.362   2.886   2.273
 7650SOL    HW223850   6.465   2.764   2.308
 7651SOL     OW23851   2.789   0.101   6.898
 7651SOL    HW123852   2.769   0.007   6.926
 7651SOL    HW223853   2.769   0.113   6.801
 7652SOL     OW23854   6.275   3.466   3.926
 7652SOL    HW123855   6.186   3.512   3.918
 7652SOL    HW223856   6.273   3.407   4.007
 7653SOL     OW23857   2.792   2.260   0.673
 7653SOL    HW123858   2.696   2.236   0.685
 7653SOL    HW223859   2.850   2.184   0.702
 7654SOL     OW23860   4.594   2.652   3.478
 7654SOL    HW123861   4.527   2.660   3.552
 7654SOL    HW223862   4.686   2.644   3.517
 7655SOL     OW23863   3.743   6.755   4.399
 7655SOL    HW123864   3.651   6.749   4.438
 7655SOL    HW223865   3.759   6.847   4.364
 7656SOL     OW23866   0.079   6.166   5.181
 7656SOL    HW123867   0.098   6.256   5.141
 7656SOL    HW223868   7.008   6.140   5.161
 7657SOL     OW23869   2.623   2.364   3.415
 7657SOL    HW123870   2.581   2.448   3.448
 7657SOL    HW223871   2.552   2.298   3.391
 7658SOL     OW23872   4.699   0.404   6.038
 7658SOL    HW123873   4.769   0.339   6.008
 7658SOL    HW223874   4.614   0.384   5.990
 7659SOL     OW23875   6.039   6.876   1.252
 7659SOL    HW123876   6.018   6.969   1.284
 7659SOL    HW223877   5.960   6.840   1.202
 7660SOL     OW23878   5.189   5.334   3.101
 7660SOL    HW123879   5.189   5.274   3.181
 7660SOL    HW223880   5.109   5.316   3.045
 7661SOL     OW23881   5.772   2.347   4.272
 7661SOL    HW123882   5.822   2.334   4.357
 7661SOL    HW223883   5.675   2.362   4.291
 7662SOL     OW23884   1.522   2.865   2.320
 7662SOL    HW123885   1.473   2.948   2.345
 7662SOL    HW223886   1.480   2.786   2.366
 7663SOL     OW23887   0.491   5.468   6.787
 7663SOL    HW123888   0.555   5.539   6.816
 7663SOL    HW223889   0.497   5.390   6.850
 7664SOL     OW23890   3.182   6.179   2.528
 7664SOL    HW123891   3.084   6.198   2.531
 7664SOL    HW223892   3.233   6.264   2.530
 7665SOL     OW23893   2.731   0.453   4.553
 7665SOL    HW123894   2.749   0.388   4.627
 7665SOL    HW223895   2.816   0.499   4.528
 7666SOL     OW23896   0.216   6.825   1.481
 7666SOL    HW123897   0.168   6.761   1.421
 7666SOL    HW223898   0.314   6.816   1.468
 7667SOL     OW23899   4.656   6.667   6.860
 7667SOL    HW123900   4.719   6.607   6.909
 7667SOL    HW223901   4.641   6.750   6.912
 7668SOL     OW23902   3.475   4.326   1.571
 7668SOL    HW123903   3.419   4.280   1.640
 7668SOL    HW223904   3.503   4.260   1.502
 7669SOL     OW23905   4.685   0.549   4.486
 7669SOL    HW123906   4.713   0.541   4.390
 7669SOL    HW223907   4.762   0.525   4.545
 7670SOL     OW23908   1.268   5.882   0.039
 7670SOL    HW123909   1.178   5.878   0.084
 7670SOL    HW223910   1.291   5.978   0.022
 7671SOL     OW23911   4.767   1.639   4.412
 7671SOL    HW123912   4.721   1.608   4.329
 7671SOL    HW223913   4.713   1.612   4.492
 7672SOL     OW23914   6.238   0.278   3.791
 7672SOL    HW123915   6.246   0.273   3.692
 7672SOL    HW223916   6.200   0.193   3.827
 7673SOL     OW23917   1.123   4.560   0.959
 7673SOL    HW123918   1.090   4.644   1.002
 7673SOL    HW223919   1.091   4.557   0.864
 7674SOL     OW23920   6.324   1.703   4.963
 7674SOL    HW123921   6.383   1.676   5.039
 7674SOL    HW223922   6.317   1.628   4.898
 7675SOL     OW23923   4.897   0.210   1.812
 7675SOL    HW123924   4.925   0.119   1.784
 7675SOL    HW223925   4.975   0.273   1.804
 7676SOL     OW23926   1.289   1.255   6.602
 7676SOL    HW123927   1.346   1.333   6.578
 7676SOL    HW223928   1.232   1.277   6.681
 7677SOL     OW23929   1.832   3.151   2.454
 7677SOL    HW123930   1.924   3.160   2.415
 7677SOL    HW223931   1.764   3.179   2.387
 7678SOL     OW23932   0.946   0.780   6.899
 7678SOL    HW123933   1.011   0.706   6.883
 7678SOL    HW223934   0.863   0.762   6.846
 7679SOL     OW23935   0.990   5.104   4.887
 7679SOL    HW123936   1.087   5.100   4.863
 7679SOL    HW223937   0.958   5.198   4.876
 7680SOL     OW23938   3.324   3.339   6.563
 7680SOL    HW123939   3.403   3.375   6.514
 7680SOL    HW223940   3.273   3.415   6.604
 7681SOL     OW23941   3.113   1.379   0.368
 7681SOL    HW123942   3.129   1.412   0.461
 7681SOL    HW223943   3.025   1.332   0.364
 7682SOL     OW23944   2.803   6.632   1.976
 7682SOL    HW123945   2.729   6.698   1.965
 7682SOL    HW223946   2.782   6.549   1.925
 7683SOL     OW23947   6.549   2.548   3.009
 7683SOL    HW123948   6.455   2.530   3.036
 7683SOL    HW223949   6.611   2.515   3.080
 7684SOL     OW23950   5.261   2.185   6.606
 7684SOL    HW123951   5.276   2.275   6.647
 7684SOL    HW223952   5.233   2.196   6.510
 7685SOL     OW23953   3.527   2.804   0.325
 7685SOL    HW123954   3.570   2.875   0.379
 7685SOL    HW223955   3.482   2.738   0.386
 7686SOL     OW23956   4.577   0.259   3.076
 7686SOL    HW123957   4.519   0.337   3.054
 7686SOL    HW223958   4.524   0.193   3.129
 7687SOL     OW23959   4.950   5.073   5.359
 7687SOL    HW123960   4.952   5.088   5.458
 7687SOL    HW223961   4.904   4.987   5.340
 7688SOL     OW23962   6.463   6.620   5.645
 7688SOL    HW123963   6.412   6.696   5.684
 7688SOL    HW223964   6.418   6.587   5.563
 7689SOL     OW23965   4.374   6.168   4.547
 7689SOL    HW123966   4.410   6.248   4.500
 7689SOL    HW223967   4.426   6.153   4.631
 7690SOL     OW23968   5.282   4.801   2.853
 7690SOL    HW123969   5.213   4.856   2.902
 7690SOL    HW223970   5.236   4.743   2.786
 7691SOL     OW23971   5.002   2.763   3.981
 7691SOL    HW123972   5.031   2.700   4.053
 7691SOL    HW223973   5.083   2.803   3.937
 7692SOL     OW23974   1.415   6.323   1.209
 7692SOL    HW123975   1.435   6.291   1.301
 7692SOL    HW223976   1.356   6.257   1.163
 7693SOL     OW23977   4.114   0.925   6.746
 7693SOL    HW123978   4.015   0.920   6.757
 7693SOL    HW223979   4.139   0.896   6.654
 7694SOL     OW23980   0.200   4.527   3.956
 7694SOL    HW123981   0.181   4.583   3.875
 7694SOL    HW223982   0.149   4.563   4.034
 7695SOL     OW23983   4.150   0.403   0.771
 7695SOL    HW123984   4.088   0.478   0.797
 7695SOL    HW223985   4.115   0.357   0.690
 7696SOL     OW23986   6.784   2.031   4.438
 7696SOL    HW123987   6.747   2.105   4.494
 7696SOL    HW223988   6.825   2.069   4.355
 7697SOL     OW23989   2.369   1.935   3.671
 7697SOL    HW123990   2.317   1.863   3.624
 7697SOL    HW223991   2.307   1.989   3.728
 7698SOL     OW23992   6.578   2.728   4.969
 7698SOL    HW123993   6.553   2.711   4.873
 7698SOL    HW223994   6.636   2.653   5.001
 7699SOL     OW23995   2.477   5.546   0.209
 7699SOL    HW123996   2.397   5.487   0.223
 7699SOL    HW223997   2.447   5.639   0.190
 7700SOL     OW23998   4.582   0.018   4.934
 7700SOL    HW123999   4.564   0.014   5.032
 7700SOL    HW224000   4.654   6.977   4.910
 7701SOL     OW24001   6.532   0.876   5.620
 7701SOL    HW124002   6.575   0.939   5.556
 7701SOL    HW224003   6.487   0.803   5.568
 7702SOL     OW24004   3.544   6.628   5.808
 7702SOL    HW124005   3.494   6.705   5.767
 7702SOL    HW224006   3.485   6.582   5.875
 7703SOL     OW24007   0.392   1.142   5.225
 7703SOL    HW124008   0.374   1.055   5.271
 7703SOL    HW224009   0.309   1.197   5.223
 7704SOL     OW24010   4.200   4.475   6.963
 7704SOL    HW124011   4.136   4.423   7.019
 7704SOL    HW224012   4.165   4.568   6.951
 7705SOL     OW24013   3.578   4.892   5.119
 7705SOL    HW124014   3.541   4.890   5.026
 7705SOL    HW224015   3.504   4.911   5.183
 7706SOL     OW24016   5.814   0.009   5.345
 7706SOL    HW124017   5.723   7.001   5.316
 7706SOL    HW224018   5.832   0.099   5.307
 7707SOL     OW24019   0.238   5.528   6.130
 7707SOL    HW124020   0.310   5.490   6.071
 7707SOL    HW224021   0.202   5.456   6.190
 7708SOL     OW24022   4.495   5.875   4.503
 7708SOL    HW124023   4.486   5.899   4.407
 7708SOL    HW224024   4.562   5.802   4.513
 7709SOL     OW24025   4.535   2.453   1.991
 7709SOL    HW124026   4.579   2.543   1.982
 7709SOL    HW224027   4.478   2.436   1.910
 7710SOL     OW24028   2.952   0.025   0.542
 7710SOL    HW124029   2.954   7.003   0.632
 7710SOL    HW224030   3.042   0.061   0.521
 7711SOL     OW24031   5.754   6.081   6.076
 7711SOL    HW124032   5.828   6.131   6.030
 7711SOL    HW224033   5.675   6.076   6.015
 7712SOL     OW24034   5.723   4.889   1.278
 7712SOL    HW124035   5.783   4.860   1.204
 7712SOL    HW224036   5.704   4.987   1.269
 7713SOL     OW24037   1.769   4.202   0.293
 7713SOL    HW124038   1.842   4.271   0.287
 7713SOL    HW224039   1.788   4.141   0.370
 7714SOL     OW24040   6.082   4.655   4.476
 7714SOL    HW124041   6.090   4.578   4.412
 7714SOL    HW224042   6.041   4.623   4.562
 7715SOL     OW24043   5.225   0.517   1.284
 7715SOL    HW124044   5.138   0.473   1.301
 7715SOL    HW224045   5.216   0.579   1.205
 7716SOL     OW24046   4.632   2.363   2.250
 7716SOL    HW124047   4.725   2.332   2.265
 7716SOL    HW224048   4.622   2.396   2.156
 7717SOL     OW24049   2.926   1.542   5.047
 7717SOL    HW124050   2.976   1.541   5.134
 7717SOL    HW224051   2.938   1.632   5.003
 7718SOL     OW24052   2.140   1.551   2.964
 7718SOL    HW124053   2.214   1.526   3.027
 7718SOL    HW224054   2.053   1.549   3.012
 7719SOL     OW24055   0.051   2.785   4.851
 7719SOL    HW124056   0.104   2.730   4.917
 7719SOL    HW224057   7.003   2.836   4.899
 7720SOL     OW24058   6.528   6.447   0.852
 7720SOL    HW124059   6.571   6.357   0.847
 7720SOL    HW224060   6.436   6.438   0.889
 7721SOL     OW24061   2.312   4.291   3.331
 7721SOL    HW124062   2.373   4.328   3.261
 7721SOL    HW224063   2.364   4.275   3.416
 7722SOL     OW24064   6.253   4.905   2.960
 7722SOL    HW124065   6.288   4.909   2.866
 7722SOL    HW224066   6.330   4.896   3.023
 7723SOL     OW24067   0.079   3.108   0.538
 7723SOL    HW124068   0.011   3.076   0.472
 7723SOL    HW224069   0.037   3.113   0.629
 7724SOL     OW24070   1.830   3.831   1.466
 7724SOL    HW124071   1.767   3.899   1.428
 7724SOL    HW224072   1.780   3.747   1.485
 7725SOL     OW24073   5.543   2.585   3.192
 7725SOL    HW124074   5.451   2.605   3.225
 7725SOL    HW224075   5.585   2.515   3.250
 7726SOL     OW24076   0.535   4.551   2.841
 7726SOL    HW124077   0.523   4.545   2.940
 7726SOL    HW224078   0.519   4.645   2.811
 7727SOL     OW24079   6.057   2.445   3.866
 7727SOL    HW124080   6.022   2.495   3.787
 7727SOL    HW224081   6.068   2.507   3.944
 7728SOL     OW24082   1.703   3.259   3.006
 7728SOL    HW124083   1.755   3.314   3.072
 7728SOL    HW224084   1.725   3.162   3.019
 7729SOL     OW24085   5.074   2.308   0.981
 7729SOL    HW124086   5.162   2.303   1.028
 7729SOL    HW224087   5.042   2.403   0.979
 7730SOL     OW24088   4.495   6.280   3.046
 7730SOL    HW124089   4.579   6.240   3.080
 7730SOL    HW224090   4.483   6.371   3.086
 7731SOL     OW24091   6.297   1.011   0.386
 7731SOL    HW124092   6.279   0.924   0.341
 7731SOL    HW224093   6.396   1.022   0.399
 7732SOL     OW24094   4.945   5.898   0.706
 7732SOL    HW124095   4.957   5.874   0.610
 7732SOL    HW224096   4.865   5.850   0.743
 7733SOL     OW24097   4.192   0.166   1.434
 7733SOL    HW124098   4.180   0.233   1.508
 7733SOL    HW224099   4.104   0.127   1.409
 7734SOL     OW24100   1.543   3.022   3.291
 7734SOL    HW124101   1.502   2.972   3.367
 7734SOL    HW224102   1.479   3.025   3.214
 7735SOL     OW24103   5.270   4.325   6.610
 7735SOL    HW124104   5.366   4.335   6.635
 7735SOL    HW224105   5.258   4.345   6.513
 7736SOL     OW24106   5.575   4.261   0.330
 7736SOL    HW124107   5.581   4.359   0.343
 7736SOL    HW224108   5.531   4.241   0.243
 7737SOL     OW24109   4.776   2.302   0.610
 7737SOL    HW124110   4.744   2.209   0.626
 7737SOL    HW224111   4.722   2.366   0.665
 7738SOL     OW24112   3.028   6.074   0.228
 7738SOL    HW124113   2.930   6.072   0.244
 7738SOL    HW224114   3.066   5.982   0.237
 7739SOL     OW24115   1.204   2.536   0.466
 7739SOL    HW124116   1.198   2.463   0.534
 7739SOL    HW224117   1.214   2.495   0.375
 7740SOL     OW24118   6.876   6.932   2.557
 7740SOL    HW124119   6.792   6.942   2.503
 7740SOL    HW224120   6.946   6.994   2.521
 7741SOL     OW24121   2.244   5.868   3.677
 7741SOL    HW124122   2.183   5.831   3.607
 7741SOL    HW224123   2.339   5.856   3.648
 7742SOL     OW24124   5.980   1.770   3.230
 7742SOL    HW124125   5.890   1.776   3.273
 7742SOL    HW224126   6.026   1.858   3.235
 7743SOL     OW24127   4.580   3.109   5.722
 7743SOL    HW124128   4.569   3.012   5.743
 7743SOL    HW224129   4.499   3.143   5.674
 7744SOL     OW24130   6.457   6.750   3.927
 7744SOL    HW124131   6.468   6.712   4.019
 7744SOL    HW224132   6.530   6.816   3.910
 7745SOL     OW24133   3.566   2.647   6.595
 7745SOL    HW124134   3.500   2.715   6.628
 7745SOL    HW224135   3.605   2.679   6.508
 7746SOL     OW24136   1.924   0.104   0.176
 7746SOL    HW124137   1.935   0.011   0.141
 7746SOL    HW224138   2.000   0.126   0.237
 7747SOL     OW24139   5.288   6.489   0.835
 7747SOL    HW124140   5.358   6.418   0.829
 7747SOL    HW224141   5.331   6.579   0.834
 7748SOL     OW24142   1.950   3.803   6.345
 7748SOL    HW124143   1.887   3.843   6.278
 7748SOL    HW224144   2.017   3.871   6.372
 7749SOL     OW24145   5.024   3.277   5.881
 7749SOL    HW124146   5.024   3.234   5.972
 7749SOL    HW224147   5.117   3.274   5.844
 7750SOL     OW24148   0.533   6.395   1.911
 7750SOL    HW124149   0.520   6.382   1.813
 7750SOL    HW224150   0.523   6.308   1.959
 7751SOL     OW24151   0.972   1.746   1.327
 7751SOL    HW124152   0.880   1.756   1.366
 7751SOL    HW224153   0.965   1.724   1.230
 7752SOL     OW24154   4.622   1.083   4.370
 7752SOL    HW124155   4.670   1.086   4.282
 7752SOL    HW224156   4.525   1.066   4.355
 7753SOL     OW24157   2.186   1.277   5.071
 7753SOL    HW124158   2.249   1.252   4.997
 7753SOL    HW224159   2.133   1.357   5.044
 7754SOL     OW24160   4.436   6.623   1.570
 7754SOL    HW124161   4.442   6.538   1.518
 7754SOL    HW224162   4.353   6.672   1.545
 7755SOL     OW24163   1.947   4.549   6.316
 7755SOL    HW124164   1.938   4.457   6.277
 7755SOL    HW224165   1.861   4.574   6.360
 7756SOL     OW24166   2.769   6.023   1.471
 7756SOL    HW124167   2.767   6.122   1.456
 7756SOL    HW224168   2.827   5.980   1.403
 7757SOL     OW24169   0.195   4.639   3.215
 7757SOL    HW124170   0.230   4.627   3.308
 7757SOL    HW224171   0.113   4.696   3.217
 7758SOL     OW24172   1.484   0.739   5.317
 7758SOL    HW124173   1.406   0.700   5.366
 7758SOL    HW224174   1.488   0.837   5.335
 7759SOL     OW24175   2.983   2.002   6.644
 7759SOL    HW124176   2.985   2.101   6.634
 7759SOL    HW224177   2.899   1.966   6.604
 7760SOL     OW24178   4.392   2.553   1.736
 7760SOL    HW124179   4.441   2.639   1.750
 7760SOL    HW224180   4.414   2.515   1.646
 7761SOL     OW24181   4.446   5.624   4.332
 7761SOL    HW124182   4.439   5.700   4.267
 7761SOL    HW224183   4.397   5.648   4.416
 7762SOL     OW24184   0.186   0.807   4.023
 7762SOL    HW124185   0.164   0.861   3.942
 7762SOL    HW224186   0.285   0.813   4.041
 7763SOL     OW24187   2.415   0.021   4.712
 7763SOL    HW124188   2.327   7.019   4.674
 7763SOL    HW224189   2.421   7.012   4.807
 7764SOL     OW24190   3.248   3.880   5.246
 7764SOL    HW124191   3.285   3.971   5.265
 7764SOL    HW224192   3.228   3.834   5.333
 7765SOL     OW24193   6.241   3.426   4.514
 7765SOL    HW124194   6.220   3.449   4.609
 7765SOL    HW224195   6.267   3.330   4.508
 7766SOL     OW24196   0.652   4.579   6.921
 7766SOL    HW124197   0.724   4.567   6.989
 7766SOL    HW224198   0.628   4.491   6.881
 7767SOL     OW24199   2.596   0.887   3.054
 7767SOL    HW124200   2.627   0.981   3.036
 7767SOL    HW224201   2.652   0.847   3.126
 7768SOL     OW24202   4.214   4.722   2.953
 7768SOL    HW124203   4.252   4.745   3.042
 7768SOL    HW224204   4.265   4.646   2.913
 7769SOL     OW24205   3.373   2.349   5.291
 7769SOL    HW124206   3.293   2.361   5.233
 7769SOL    HW224207   3.413   2.438   5.313
 7770SOL     OW24208   1.231   3.422   4.722
 7770SOL    HW124209   1.271   3.496   4.775
 7770SOL    HW224210   1.291   3.342   4.725
 7771SOL     OW24211   3.415   2.778   6.221
 7771SOL    HW124212   3.437   2.816   6.131
 7771SOL    HW224213   3.469   2.825   6.291
 7772SOL     OW24214   5.368   0.498   1.521
 7772SOL    HW124215   5.325   0.535   1.438
 7772SOL    HW224216   5.298   0.488   1.592
 7773SOL     OW24217   3.576   6.274   0.228
 7773SOL    HW124218   3.494   6.228   0.195
 7773SOL    HW224219   3.580   6.270   0.328
 7774SOL     OW24220   4.339   1.349   2.846
 7774SOL    HW124221   4.431   1.387   2.855
 7774SOL    HW224222   4.282   1.412   2.794
 7775SOL     OW24223   3.194   0.822   7.020
 7775SOL    HW124224   3.233   0.730   7.013
 7775SOL    HW224225   3.110   0.818   0.051
 7776SOL     OW24226   1.326   0.503   5.434
 7776SOL    HW124227   1.317   0.481   5.531
 7776SOL    HW224228   1.294   0.426   5.379
 7777SOL     OW24229   4.947   5.492   2.956
 7777SOL    HW124230   4.941   5.554   2.877
 7777SOL    HW224231   4.883   5.522   3.027
 7778SOL     OW24232   5.703   4.509   3.110
 7778SOL    HW124233   5.689   4.607   3.127
 7778SOL    HW224234   5.644   4.456   3.170
 7779SOL     OW24235   3.592   5.881   2.096
 7779SOL    HW124236   3.534   5.824   2.154
 7779SOL    HW224237   3.678   5.899   2.144
 7780SOL     OW24238   6.102   6.069   5.250
 7780SOL    HW124239   6.176   6.029   5.196
 7780SOL    HW224240   6.074   6.156   5.209
 7781SOL     OW24241   1.798   2.850   0.481
 7781SOL    HW124242   1.872   2.800   0.435
 7781SOL    HW224243   1.750   2.788   0.543
 7782SOL     OW24244   5.735   4.356   3.614
 7782SOL    HW124245   5.735   4.381   3.711
 7782SOL    HW224246   5.717   4.438   3.559
 7783SOL     OW24247   0.913   0.739   5.142
 7783SOL    HW124248   0.875   0.723   5.051
 7783SOL    HW224249   0.939   0.835   5.151
 7784SOL     OW24250   2.332   2.662   2.959
 7784SOL    HW124251   2.377   2.668   2.870
 7784SOL    HW224252   2.233   2.652   2.945
 7785SOL     OW24253   0.743   6.264   2.345
 7785SOL    HW124254   0.768   6.205   2.268
 7785SOL    HW224255   0.708   6.207   2.420
 7786SOL     OW24256   4.653   0.097   6.206
 7786SOL    HW124257   4.674   0.191   6.232
 7786SOL    HW224258   4.608   0.096   6.117
 7787SOL     OW24259   2.710   2.562   1.469
 7787SOL    HW124260   2.800   2.520   1.455
 7787SOL    HW224261   2.721   2.659   1.488
 7788SOL     OW24262   0.192   4.421   1.573
 7788SOL    HW124263   0.153   4.329   1.567
 7788SOL    HW224264   0.286   4.420   1.538
 7789SOL     OW24265   3.731   0.920   6.458
 7789SOL    HW124266   3.736   0.826   6.424
 7789SOL    HW224267   3.820   0.965   6.444
 7790SOL     OW24268   5.240   4.434   1.955
 7790SOL    HW124269   5.199   4.345   1.976
 7790SOL    HW224270   5.172   4.506   1.970
 7791SOL     OW24271   2.714   5.590   2.290
 7791SOL    HW124272   2.712   5.495   2.318
 7791SOL    HW224273   2.786   5.604   2.221
 7792SOL     OW24274   1.380   1.690   2.272
 7792SOL    HW124275   1.286   1.718   2.253
 7792SOL    HW224276   1.443   1.764   2.248
 7793SOL     OW24277   5.199   0.951   6.412
 7793SOL    HW124278   5.255   0.911   6.339
 7793SOL    HW224279   5.113   0.985   6.373
 7794SOL     OW24280   0.492   5.915   2.614
 7794SOL    HW124281   0.471   5.826   2.655
 7794SOL    HW224282   0.422   5.937   2.546
 7795SOL     OW24283   2.819   5.355   6.199
 7795SOL    HW124284   2.773   5.279   6.246
 7795SOL    HW224285   2.899   5.320   6.149
 7796SOL     OW24286   3.389   3.126   6.278
 7796SOL    HW124287   3.308   3.073   6.305
 7796SOL    HW224288   3.381   3.219   6.314
 7797SOL     OW24289   1.023   6.098   3.079
 7797SOL    HW124290   1.013   6.033   3.153
 7797SOL    HW224291   1.072   6.179   3.112
 7798SOL     OW24292   1.009   2.560   0.873
 7798SOL    HW124293   0.958   2.547   0.788
 7798SOL    HW224294   1.038   2.471   0.908
 7799SOL     OW24295   2.683   6.152   3.827
 7799SOL    HW124296   2.632   6.238   3.826
 7799SOL    HW224297   2.711   6.131   3.921
 7800SOL     OW24298   0.140   6.450   1.524
 7800SOL    HW124299   0.122   6.393   1.444
 7800SOL    HW224300   0.201   6.401   1.587
 7801SOL     OW24301   1.916   2.239   2.401
 7801SOL    HW124302   1.980   2.254   2.476
 7801SOL    HW224303   1.921   2.316   2.338
 7802SOL     OW24304   6.712   3.412   5.079
 7802SOL    HW124305   6.781   3.461   5.025
 7802SOL    HW224306   6.737   3.315   5.084
 7803SOL     OW24307   4.331   2.247   5.758
 7803SOL    HW124308   4.312   2.340   5.790
 7803SOL    HW224309   4.344   2.248   5.659
 7804SOL     OW24310   2.678   2.142   5.353
 7804SOL    HW124311   2.724   2.162   5.266
 7804SOL    HW224312   2.636   2.226   5.388
 7805SOL     OW24313   5.876   3.255   0.833
 7805SOL    HW124314   5.782   3.257   0.867
 7805SOL    HW224315   5.908   3.160   0.828
 7806SOL     OW24316   7.012   2.265   5.547
 7806SOL    HW124317   0.002   2.174   5.587
 7806SOL    HW224318   0.059   2.327   5.581
 7807SOL     OW24319   2.197   4.970   5.604
 7807SOL    HW124320   2.243   4.882   5.594
 7807SOL    HW224321   2.129   4.964   5.677
 7808SOL     OW24322   5.396   3.622   2.942
 7808SOL    HW124323   5.313   3.678   2.945
 7808SOL    HW224324   5.378   3.533   2.983
 7809SOL     OW24325   4.734   5.238   3.310
 7809SOL    HW124326   4.784   5.237   3.397
 7809SOL    HW224327   4.639   5.210   3.326
 7810SOL     OW24328   4.158   6.434   5.531
 7810SOL    HW124329   4.236   6.485   5.566
 7810SOL    HW224330   4.165   6.338   5.559
 7811SOL     OW24331   1.357   5.622   2.257
 7811SOL    HW124332   1.398   5.711   2.238
 7811SOL    HW224333   1.428   5.557   2.283
 7812SOL     OW24334   2.335   2.059   6.211
 7812SOL    HW124335   2.260   2.124   6.200
 7812SOL    HW224336   2.335   1.995   6.134
 7813SOL     OW24337   6.215   1.494   1.025
 7813SOL    HW124338   6.247   1.588   1.011
 7813SOL    HW224339   6.265   1.432   0.964
 7814SOL     OW24340   0.759   3.185   2.194
 7814SOL    HW124341   0.761   3.206   2.291
 7814SOL    HW224342   0.718   3.262   2.144
 7815SOL     OW24343   5.904   2.963   4.909
 7815SOL    HW124344   5.884   2.990   5.004
 7815SOL    HW224345   5.868   2.871   4.892
 7816SOL     OW24346   0.776   1.335   4.924
 7816SOL    HW124347   0.812   1.275   4.853
 7816SOL    HW224348   0.699   1.290   4.970
 7817SOL     OW24349   2.883   3.027   6.594
 7817SOL    HW124350   2.905   2.943   6.544
 7817SOL    HW224351   2.967   3.075   6.618
 7818SOL     OW24352   5.425   0.790   2.226
 7818SOL    HW124353   5.376   0.850   2.164
 7818SOL    HW224354   5.523   0.805   2.218
 7819SOL     OW24355   1.406   3.871   3.965
 7819SOL    HW124356   1.455   3.784   3.963
 7819SOL    HW224357   1.409   3.913   3.875
 7820SOL     OW24358   1.895   0.191   5.777
 7820SOL    HW124359   1.809   0.167   5.733
 7820SOL    HW224360   1.915   0.288   5.762
 7821SOL     OW24361   5.990   5.599   6.240
 7821SOL    HW124362   6.078   5.563   6.273
 7821SOL    HW224363   6.005   5.687   6.196
 7822SOL     OW24364   1.158   0.797   4.594
 7822SOL    HW124365   1.136   0.877   4.538
 7822SOL    HW224366   1.227   0.821   4.662
 7823SOL     OW24367   1.042   4.450   6.953
 7823SOL    HW124368   1.097   4.509   7.012
 7823SOL    HW224369   1.038   4.358   6.993
 7824SOL     OW24370   4.998   2.572   2.847
 7824SOL    HW124371   4.911   2.580   2.799
 7824SOL    HW224372   4.997   2.629   2.929
 7825SOL     OW24373   3.649   3.163   1.975
 7825SOL    HW124374   3.643   3.170   1.875
 7825SOL    HW224375   3.686   3.074   1.999
 7826SOL     OW24376   6.909   0.767   0.345
 7826SOL    HW124377   6.916   0.728   0.253
 7826SOL    HW224378   6.912   0.693   0.413
 7827SOL     OW24379   5.237   4.850   1.360
 7827SOL    HW124380   5.170   4.911   1.319
 7827SOL    HW224381   5.194   4.762   1.381
 7828SOL     OW24382   0.308   6.728   1.116
 7828SOL    HW124383   0.403   6.703   1.097
 7828SOL    HW224384   0.264   6.756   1.032
 7829SOL     OW24385   3.568   2.789   1.670
 7829SOL    HW124386   3.625   2.713   1.699
 7829SOL    HW224387   3.473   2.758   1.659
 7830SOL     OW24388   5.689   3.164   6.915
 7830SOL    HW124389   5.596   3.158   6.951
 7830SOL    HW224390   5.685   3.191   6.819
 7831SOL     OW24391   0.882   3.435   0.247
 7831SOL    HW124392   0.913   3.340   0.255
 7831SOL    HW224393   0.960   3.497   0.260
 7832SOL     OW24394   2.501   2.325   5.481
 7832SOL    HW124395   2.421   2.304   5.425
 7832SOL    HW224396   2.499   2.421   5.507
 7833SOL     OW24397   0.286   6.797   0.670
 7833SOL    HW124398   0.361   6.859   0.646
 7833SOL    HW224399   0.213   6.848   0.716
 7834SOL     OW24400   1.077   0.738   1.469
 7834SOL    HW124401   1.041   0.831   1.466
 7834SOL    HW224402   1.015   0.680   1.523
 7835SOL     OW24403   2.162   3.077   4.883
 7835SOL    HW124404   2.135   3.170   4.905
 7835SOL    HW224405   2.235   3.048   4.945
 7836SOL     OW24406   2.383   6.083   0.040
 7836SOL    HW124407   2.455   6.081   6.994
 7836SOL    HW224408   2.424   6.097   0.131
 7837SOL     OW24409   6.119   6.806   2.993
 7837SOL    HW124410   6.165   6.743   2.931
 7837SOL    HW224411   6.072   6.755   3.065
 7838SOL     OW24412   3.999   6.456   4.800
 7838SOL    HW124413   3.907   6.441   4.835
 7838SOL    HW224414   4.049   6.369   4.799
 7839SOL     OW24415   6.505   4.740   4.893
 7839SOL    HW124416   6.517   4.759   4.990
 7839SOL    HW224417   6.446   4.660   4.882
 7840SOL     OW24418   5.126   2.602   4.146
 7840SOL    HW124419   5.101   2.515   4.188
 7840SOL    HW224420   5.218   2.628   4.176
 7841SOL     OW24421   0.430   1.411   6.254
 7841SOL    HW124422   0.416   1.327   6.306
 7841SOL    HW224423   0.481   1.390   6.171
 7842SOL     OW24424   2.379   1.041   2.856
 7842SOL    HW124425   2.383   0.979   2.935
 7842SOL    HW224426   2.472   1.058   2.822
 7843SOL     OW24427   5.294   3.523   0.768
 7843SOL    HW124428   5.393   3.520   0.772
 7843SOL    HW224429   5.259   3.435   0.733
 7844SOL     OW24430   4.067   0.554   3.357
 7844SOL    HW124431   4.161   0.522   3.370
 7844SOL    HW224432   4.067   0.644   3.315
 7845SOL     OW24433   6.097   1.720   4.495
 7845SOL    HW124434   6.060   1.764   4.576
 7845SOL    HW224435   6.129   1.789   4.430
 7846SOL     OW24436   3.001   7.008   1.774
 7846SOL    HW124437   2.985   0.083   1.761
 7846SOL    HW224438   3.032   6.967   1.688
 7847SOL     OW24439   6.759   0.758   0.779
 7847SOL    HW124440   6.841   0.813   0.793
 7847SOL    HW224441   6.784   0.662   0.768
 7848SOL     OW24442   4.414   3.824   1.617
 7848SOL    HW124443   4.381   3.739   1.577
 7848SOL    HW224444   4.511   3.834   1.597
 7849SOL     OW24445   5.765   3.130   4.752
 7849SOL    HW124446   5.812   3.050   4.791
 7849SOL    HW224447   5.757   3.118   4.653
 7850SOL     OW24448   1.211   0.895   5.562
 7850SOL    HW124449   1.276   0.852   5.625
 7850SOL    HW224450   1.225   0.861   5.470
 7851SOL     OW24451   6.058   6.982   0.315
 7851SOL    HW124452   6.070   7.020   0.407
 7851SOL    HW224453   6.089   0.026   0.248
 7852SOL     OW24454   2.971   6.271   6.744
 7852SOL    HW124455   2.947   6.281   6.648
 7852SOL    HW224456   3.013   6.356   6.777
 7853SOL     OW24457   2.574   3.050   6.893
 7853SOL    HW124458   2.508   2.975   6.890
 7853SOL    HW224459   2.578   3.088   6.985
 7854SOL     OW24460   3.455   4.111   2.408
 7854SOL    HW124461   3.546   4.140   2.435
 7854SOL    HW224462   3.453   4.096   2.309
 7855SOL     OW24463   4.275   5.836   6.235
 7855SOL    HW124464   4.246   5.743   6.214
 7855SOL    HW224465   4.252   5.858   6.330
 7856SOL     OW24466   5.471   3.605   5.322
 7856SOL    HW124467   5.479   3.515   5.280
 7856SOL    HW224468   5.399   3.657   5.275
 7857SOL     OW24469   6.239   1.779   5.768
 7857SOL    HW124470   6.170   1.715   5.803
 7857SOL    HW224471   6.237   1.779   5.668
 7858SOL     OW24472   5.864   3.874   3.377
 7858SOL    HW124473   5.861   3.775   3.361
 7858SOL    HW224474   5.828   3.922   3.297
 7859SOL     OW24475   1.233   5.100   6.124
 7859SOL    HW124476   1.223   5.001   6.126
 7859SOL    HW224477   1.226   5.136   6.218
 7860SOL     OW24478   4.063   6.844   1.712
 7860SOL    HW124479   4.038   6.941   1.708
 7860SOL    HW224480   4.141   6.833   1.774
 7861SOL     OW24481   4.898   4.915   0.816
 7861SOL    HW124482   4.816   4.964   0.788
 7861SOL    HW224483   4.975   4.943   0.758
 7862SOL     OW24484   3.128   4.370   1.448
 7862SOL    HW124485   3.126   4.435   1.523
 7862SOL    HW224486   3.035   4.342   1.424
 7863SOL     OW24487   6.559   5.777   2.171
 7863SOL    HW124488   6.469   5.775   2.127
 7863SOL    HW224489   6.567   5.860   2.226
 7864SOL     OW24490   0.684   5.352   4.354
 7864SOL    HW124491   0.764   5.309   4.312
 7864SOL    HW224492   0.678   5.326   4.450
 7865SOL     OW24493   3.380   6.686   2.873
 7865SOL    HW124494   3.324   6.637   2.805
 7865SOL    HW224495   3.345   6.779   2.884
 7866SOL     OW24496   2.602   1.872   4.033
 7866SOL    HW124497   2.587   1.773   4.029
 7866SOL    HW224498   2.644   1.896   4.121
 7867SOL     OW24499   5.675   4.228   2.027
 7867SOL    HW124500   5.656   4.130   2.036
 7867SOL    HW224501   5.720   4.260   2.111
 7868SOL     OW24502   5.274   6.221   0.424
 7868SOL    HW124503   5.281   6.141   0.482
 7868SOL    HW224504   5.242   6.299   0.478
 7869SOL     OW24505   0.620   3.230   1.932
 7869SOL    HW124506   0.571   3.268   1.853
 7869SOL    HW224507   0.713   3.206   1.905
 7870SOL     OW24508   6.628   5.236   4.068
 7870SOL    HW124509   6.538   5.202   4.044
 7870SOL    HW224510   6.693   5.160   4.073
 7871SOL     OW24511   5.080   3.296   3.216
 7871SOL    HW124512   5.020   3.314   3.138
 7871SOL    HW224513   5.025   3.266   3.294
 7872SOL     OW24514   6.951   3.362   2.653
 7872SOL    HW124515   6.881   3.338   2.720
 7872SOL    HW224516   7.018   3.423   2.695
 7873SOL     OW24517   0.297   5.388   5.154
 7873SOL    HW124518   0.343   5.465   5.197
 7873SOL    HW224519   0.298   5.399   5.055
 7874SOL     OW24520   5.969   1.850   0.376
 7874SOL    HW124521   6.026   1.817   0.300
 7874SOL    HW224522   5.877   1.870   0.341
 7875SOL     OW24523   4.218   2.772   6.208
 7875SOL    HW124524   4.286   2.814   6.147
 7875SOL    HW224525   4.236   2.798   6.302
 7876SOL     OW24526   6.727   0.455   3.619
 7876SOL    HW124527   6.661   0.516   3.575
 7876SOL    HW224528   6.762   0.498   3.702
 7877SOL     OW24529   6.878   2.504   2.957
 7877SOL    HW124530   6.800   2.486   3.016
 7877SOL    HW224531   6.846   2.535   2.867
 7878SOL     OW24532   4.743   4.142   2.467
 7878SOL    HW124533   4.737   4.158   2.369
 7878SOL    HW224534   4.751   4.044   2.485
 7879SOL     OW24535   4.890   0.424   3.931
 7879SOL    HW124536   4.869   0.518   3.908
 7879SOL    HW224537   4.824   0.363   3.888
 7880SOL     OW24538   0.216   6.807   6.448
 7880SOL    HW124539   0.249   6.812   6.542
 7880SOL    HW224540   0.294   6.812   6.385
 7881SOL     OW24541   0.027   4.196   4.773
 7881SOL    HW124542   6.962   4.240   4.759
 7881SOL    HW224543   0.090   4.261   4.815
 7882SOL     OW24544   7.016   3.360   2.953
 7882SOL    HW124545   6.932   3.310   2.930
 7882SOL    HW224546   6.999   3.418   3.032
 7883SOL     OW24547   3.090   1.123   3.309
 7883SOL    HW124548   3.186   1.120   3.335
 7883SOL    HW224549   3.053   1.214   3.327
 7884SOL     OW24550   1.106   4.373   4.444
 7884SOL    HW124551   1.052   4.456   4.462
 7884SOL    HW224552   1.054   4.312   4.385
 7885SOL     OW24553   6.054   5.688   2.630
 7885SOL    HW124554   6.129   5.683   2.696
 7885SOL    HW224555   5.995   5.765   2.653
 7886SOL     OW24556   4.644   2.713   1.948
 7886SOL    HW124557   4.668   2.699   2.044
 7886SOL    HW224558   4.642   2.811   1.928
 7887SOL     OW24559   3.335   3.546   0.292
 7887SOL    HW124560   3.360   3.577   0.384
 7887SOL    HW224561   3.285   3.618   0.244
 7888SOL     OW24562   5.785   1.456   3.900
 7888SOL    HW124563   5.846   1.464   3.821
 7888SOL    HW224564   5.829   1.399   3.970
 7889SOL     OW24565   5.898   4.831   1.050
 7889SOL    HW124566   5.857   4.740   1.050
 7889SOL    HW224567   5.968   4.836   0.979
 7890SOL     OW24568   1.155   3.125   4.536
 7890SOL    HW124569   1.065   3.155   4.505
 7890SOL    HW224570   1.150   3.028   4.563
 7891SOL     OW24571   0.124   2.298   3.895
 7891SOL    HW124572   0.185   2.347   3.958
 7891SOL    HW224573   0.032   2.295   3.934
 7892SOL     OW24574   1.187   3.318   6.069
 7892SOL    HW124575   1.150   3.353   6.156
 7892SOL    HW224576   1.134   3.239   6.040
 7893SOL     OW24577   6.542   1.225   1.835
 7893SOL    HW124578   6.616   1.161   1.815
 7893SOL    HW224579   6.568   1.282   1.913
 7894SOL     OW24580   2.230   0.838   6.156
 7894SOL    HW124581   2.249   0.890   6.239
 7894SOL    HW224582   2.317   0.807   6.116
 7895SOL     OW24583   3.654   6.218   3.477
 7895SOL    HW124584   3.576   6.166   3.445
 7895SOL    HW224585   3.729   6.210   3.412
 7896SOL     OW24586   4.224   2.373   1.311
 7896SOL    HW124587   4.165   2.338   1.238
 7896SOL    HW224588   4.168   2.403   1.388
 7897SOL     OW24589   3.623   4.067   6.990
 7897SOL    HW124590   3.586   4.139   6.932
 7897SOL    HW224591   3.669   3.998   6.934
 7898SOL     OW24592   5.298   0.562   4.234
 7898SOL    HW124593   5.274   0.486   4.173
 7898SOL    HW224594   5.364   0.529   4.302
 7899SOL     OW24595   5.263   4.865   1.008
 7899SOL    HW124596   5.341   4.835   1.063
 7899SOL    HW224597   5.186   4.802   1.022
 7900SOL     OW24598   0.770   3.718   0.523
 7900SOL    HW124599   0.866   3.704   0.545
 7900SOL    HW224600   0.719   3.736   0.607
 7901SOL     OW24601   5.910   1.027   6.210
 7901SOL    HW124602   5.970   1.089   6.160
 7901SOL    HW224603   5.846   1.080   6.266
 7902SOL     OW24604   0.418   6.577   2.680
 7902SOL    HW124605   0.455   6.603   2.590
 7902SOL    HW224606   0.467   6.627   2.751
 7903SOL     OW24607   1.993   1.944   4.666
 7903SOL    HW124608   1.908   1.978   4.627
 7903SOL    HW224609   1.974   1.899   4.753
 7904SOL     OW24610   5.753   0.642   2.390
 7904SOL    HW124611   5.697   0.706   2.444
 7904SOL    HW224612   5.843   0.633   2.432
 7905SOL     OW24613   5.816   0.278   0.267
 7905SOL    HW124614   5.840   0.196   0.215
 7905SOL    HW224615   5.856   0.272   0.359
 7906SOL     OW24616   1.374   5.021   1.149
 7906SOL    HW124617   1.448   5.067   1.101
 7906SOL    HW224618   1.286   5.052   1.112
 7907SOL     OW24619   6.324   0.007   3.799
 7907SOL    HW124620   6.352   7.001   3.708
 7907SOL    HW224621   6.229   7.004   3.816
 7908SOL     OW24622   0.550   0.246   6.401
 7908SOL    HW124623   0.541   0.147   6.398
 7908SOL    HW224624   0.626   0.271   6.461
 7909SOL     OW24625   5.657   3.947   2.035
 7909SOL    HW124626   5.739   3.895   2.061
 7909SOL    HW224627   5.622   3.914   1.948
 7910SOL     OW24628   2.167   3.716   0.604
 7910SOL    HW124629   2.157   3.713   0.505
 7910SOL    HW224630   2.154   3.624   0.642
 7911SOL     OW24631   1.284   4.233   0.598
 7911SOL    HW124632   1.271   4.142   0.559
 7911SOL    HW224633   1.334   4.290   0.533
 7912SOL     OW24634   5.523   5.214   0.198
 7912SOL    HW124635   5.598   5.267   0.159
 7912SOL    HW224636   5.436   5.249   0.163
 7913SOL     OW24637   0.483   3.767   0.744
 7913SOL    HW124638   0.476   3.772   0.645
 7913SOL    HW224639   0.451   3.677   0.775
 7914SOL     OW24640   6.027   5.107   4.892
 7914SOL    HW124641   6.082   5.189   4.877
 7914SOL    HW224642   5.996   5.070   4.804
 7915SOL     OW24643   3.471   7.023   2.818
 7915SOL    HW124644   3.395   6.982   2.869
 7915SOL    HW224645   3.557   7.004   2.865
 7916SOL     OW24646   1.589   0.611   4.423
 7916SOL    HW124647   1.494   0.640   4.429
 7916SOL    HW224648   1.646   0.686   4.390
 7917SOL     OW24649   3.952   3.377   0.037
 7917SOL    HW124650   3.929   3.314   6.987
 7917SOL    HW224651   3.873   3.387   0.098
 7918SOL     OW24652   1.944   0.861   4.870
 7918SOL    HW124653   1.961   0.946   4.920
 7918SOL    HW224654   1.849   0.859   4.840
 7919SOL     OW24655   1.168   5.225   2.402
 7919SOL    HW124656   1.081   5.181   2.380
 7919SOL    HW224657   1.177   5.309   2.348
 7920SOL     OW24658   4.577   0.356   0.581
 7920SOL    HW124659   4.508   0.322   0.517
 7920SOL    HW224660   4.590   0.288   0.654
 7921SOL     OW24661   4.999   1.150   1.505
 7921SOL    HW124662   5.077   1.100   1.465
 7921SOL    HW224663   5.006   1.148   1.604
 7922SOL     OW24664   0.620   5.891   1.032
 7922SOL    HW124665   0.716   5.881   1.055
 7922SOL    HW224666   0.577   5.800   1.029
 7923SOL     OW24667   3.833   1.233   6.651
 7923SOL    HW124668   3.866   1.305   6.712
 7923SOL    HW224669   3.747   1.262   6.608
 7924SOL     OW24670   6.648   0.509   1.425
 7924SOL    HW124671   6.633   0.425   1.479
 7924SOL    HW224672   6.561   0.558   1.416
 7925SOL     OW24673   2.717   6.602   0.841
 7925SOL    HW124674   2.682   6.666   0.772
 7925SOL    HW224675   2.660   6.606   0.923
 7926SOL     OW24676   5.070   6.348   6.442
 7926SOL    HW124677   5.063   6.249   6.448
 7926SOL    HW224678   5.125   6.373   6.361
 7927SOL     OW24679   5.217   6.826   2.614
 7927SOL    HW124680   5.291   6.784   2.667
 7927SOL    HW224681   5.209   6.782   2.525
 7928SOL     OW24682   6.588   1.364   3.439
 7928SOL    HW124683   6.500   1.337   3.400
 7928SOL    HW224684   6.576   1.390   3.535
 7929SOL     OW24685   4.353   4.114   6.076
 7929SOL    HW124686   4.351   4.024   6.118
 7929SOL    HW224687   4.356   4.105   5.976
 7930SOL     OW24688   3.987   5.836   5.615
 7930SOL    HW124689   3.892   5.863   5.630
 7930SOL    HW224690   3.989   5.742   5.581
 7931SOL     OW24691   3.114   2.562   0.622
 7931SOL    HW124692   3.134   2.468   0.650
 7931SOL    HW224693   3.027   2.565   0.574
 7932SOL     OW24694   0.171   5.777   1.575
 7932SOL    HW124695   0.235   5.765   1.499
 7932SOL    HW224696   0.149   5.874   1.585
 7933SOL     OW24697   6.935   1.287   5.942
 7933SOL    HW124698   6.842   1.312   5.915
 7933SOL    HW224699   6.987   1.370   5.962
 7934SOL     OW24700   1.099   4.273   0.993
 7934SOL    HW124701   1.167   4.203   0.967
 7934SOL    HW224702   1.089   4.339   0.919
 7935SOL     OW24703   5.519   3.748   2.573
 7935SOL    HW124704   5.518   3.838   2.615
 7935SOL    HW224705   5.614   3.723   2.549
 7936SOL     OW24706   3.239   6.340   4.001
 7936SOL    HW124707   3.320   6.368   3.949
 7936SOL    HW224708   3.266   6.312   4.093
 7937SOL     OW24709   2.586   5.729   6.517
 7937SOL    HW124710   2.540   5.784   6.447
 7937SOL    HW224711   2.639   5.657   6.472
 7938SOL     OW24712   3.899   6.728   4.639
 7938SOL    HW124713   3.838   6.688   4.707
 7938SOL    HW224714   3.847   6.757   4.559
 7939SOL     OW24715   0.581   1.966   5.243
 7939SOL    HW124716   0.597   1.986   5.340
 7939SOL    HW224717   0.494   2.007   5.215
 7940SOL     OW24718   5.160   1.248   3.015
 7940SOL    HW124719   5.186   1.199   2.932
 7940SOL    HW224720   5.078   1.205   3.055
 7941SOL     OW24721   4.125   6.687   2.094
 7941SOL    HW124722   4.067   6.654   2.020
 7941SOL    HW224723   4.173   6.609   2.135
 7942SOL     OW24724   0.682   3.681   1.571
 7942SOL    HW124725   0.717   3.672   1.478
 7942SOL    HW224726   0.584   3.699   1.568
 7943SOL     OW24727   2.345   5.105   6.770
 7943SOL    HW124728   2.256   5.064   6.794
 7943SOL    HW224729   2.417   5.037   6.784
 7944SOL     OW24730   1.121   2.956   1.098
 7944SOL    HW124731   1.182   2.956   1.177
 7944SOL    HW224732   1.051   3.027   1.109
 7945SOL     OW24733   5.654   5.076   2.586
 7945SOL    HW124734   5.670   5.010   2.659
 7945SOL    HW224735   5.589   5.146   2.618
 7946SOL     OW24736   4.132   1.251   5.216
 7946SOL    HW124737   4.049   1.200   5.239
 7946SOL    HW224738   4.108   1.332   5.163
 7947SOL     OW24739   0.870   2.737   5.165
 7947SOL    HW124740   0.851   2.673   5.239
 7947SOL    HW224741   0.860   2.691   5.077
 7948SOL     OW24742   1.335   5.061   2.217
 7948SOL    HW124743   1.432   5.037   2.215
 7948SOL    HW224744   1.319   5.131   2.286
 7949SOL     OW24745   3.899   5.076   6.462
 7949SOL    HW124746   3.827   5.145   6.467
 7949SOL    HW224747   3.875   4.997   6.518
 7950SOL     OW24748   5.825   5.058   5.515
 7950SOL    HW124749   5.842   5.152   5.486
 7950SOL    HW224750   5.913   5.013   5.533
 7951SOL     OW24751   3.119   5.427   2.780
 7951SOL    HW124752   3.077   5.341   2.808
 7951SOL    HW224753   3.052   5.481   2.728
 7952SOL     OW24754   5.440   3.132   7.018
 7952SOL    HW124755   5.412   3.049   6.969
 7952SOL    HW224756   5.361   3.193   0.003
 7953SOL     OW24757   3.440   1.825   0.555
 7953SOL    HW124758   3.446   1.840   0.456
 7953SOL    HW224759   3.488   1.741   0.579
 7954SOL     OW24760   3.650   3.001   0.476
 7954SOL    HW124761   3.611   3.075   0.421
 7954SOL    HW224762   3.614   3.006   0.569
 7955SOL     OW24763   1.440   1.479   6.608
 7955SOL    HW124764   1.501   1.522   6.675
 7955SOL    HW224765   1.354   1.530   6.605
 7956SOL     OW24766   7.008   0.710   1.075
 7956SOL    HW124767   6.931   0.678   1.130
 7956SOL    HW224768   0.069   0.704   1.128
 7957SOL     OW24769   4.925   0.206   5.001
 7957SOL    HW124770   4.923   0.189   5.100
 7957SOL    HW224771   4.957   0.124   4.954
 7958SOL     OW24772   5.707   3.445   6.914
 7958SOL    HW124773   5.711   3.380   6.991
 7958SOL    HW224774   5.613   3.450   6.881
 7959SOL     OW24775   5.176   0.842   5.813
 7959SOL    HW124776   5.117   0.802   5.743
 7959SOL    HW224777   5.230   0.916   5.773
 7960SOL     OW24778   6.936   0.765   6.495
 7960SOL    HW124779   6.949   0.673   6.459
 7960SOL    HW224780   6.880   0.818   6.432
 7961SOL     OW24781   6.488   0.463   0.129
 7961SOL    HW124782   6.394   0.474   0.098
 7961SOL    HW224783   6.522   0.373   0.103
 7962SOL     OW24784   6.092   6.449   5.851
 7962SOL    HW124785   6.099   6.476   5.755
 7962SOL    HW224786   6.090   6.531   5.908
 7963SOL     OW24787   6.327   5.328   4.131
 7963SOL    HW124788   6.278   5.294   4.212
 7963SOL    HW224789   6.384   5.406   4.157
 7964SOL     OW24790   6.184   3.434   1.880
 7964SOL    HW124791   6.141   3.348   1.851
 7964SOL    HW224792   6.118   3.488   1.932
 7965SOL     OW24793   4.210   1.813   0.086
 7965SOL    HW124794   4.221   1.773   7.019
 7965SOL    HW224795   4.249   1.752   0.155
 7966SOL     OW24796   4.418   4.367   5.365
 7966SOL    HW124797   4.385   4.304   5.435
 7966SOL    HW224798   4.384   4.337   5.275
 7967SOL     OW24799   1.326   5.029   1.803
 7967SOL    HW124800   1.271   4.949   1.779
 7967SOL    HW224801   1.415   4.998   1.837
 7968SOL     OW24802   6.412   2.098   4.389
 7968SOL    HW124803   6.476   2.149   4.331
 7968SOL    HW224804   6.460   2.065   4.470
 7969SOL     OW24805   4.825   6.043   0.216
 7969SOL    HW124806   4.924   6.047   0.225
 7969SOL    HW224807   4.783   6.044   0.307
 7970SOL     OW24808   6.145   3.268   2.511
 7970SOL    HW124809   6.067   3.236   2.565
 7970SOL    HW224810   6.198   3.190   2.478
 7971SOL     OW24811   3.148   1.579   0.811
 7971SOL    HW124812   3.067   1.560   0.867
 7971SOL    HW224813   3.169   1.499   0.755
 7972SOL     OW24814   3.754   2.913   2.588
 7972SOL    HW124815   3.829   2.976   2.605
 7972SOL    HW224816   3.680   2.960   2.541
 7973SOL     OW24817   6.146   3.707   3.212
 7973SOL    HW124818   6.101   3.750   3.134
 7973SOL    HW224819   6.240   3.742   3.220
 7974SOL     OW24820   6.142   1.754   5.176
 7974SOL    HW124821   6.047   1.725   5.164
 7974SOL    HW224822   6.195   1.732   5.094
 7975SOL     OW24823   5.653   1.104   1.082
 7975SOL    HW124824   5.713   1.179   1.057
 7975SOL    HW224825   5.593   1.082   1.006
 7976SOL     OW24826   1.329   6.744   0.317
 7976SOL    HW124827   1.346   6.694   0.402
 7976SOL    HW224828   1.411   6.796   0.292
 7977SOL     OW24829   5.444   6.295   3.143
 7977SOL    HW124830   5.451   6.200   3.175
 7977SOL    HW224831   5.347   6.320   3.137
 7978SOL     OW24832   0.417   4.416   0.948
 7978SOL    HW124833   0.363   4.335   0.927
 7978SOL    HW224834   0.367   4.498   0.921
 7979SOL     OW24835   1.539   3.723   4.718
 7979SOL    HW124836   1.464   3.685   4.771
 7979SOL    HW224837   1.504   3.758   4.631
 7980SOL     OW24838   3.620   5.182   6.176
 7980SOL    HW124839   3.523   5.204   6.167
 7980SOL    HW224840   3.640   5.096   6.129
 7981SOL     OW24841   1.930   5.293   3.137
 7981SOL    HW124842   1.956   5.196   3.134
 7981SOL    HW224843   1.881   5.311   3.223
 7982SOL     OW24844   1.086   1.943   6.284
 7982SOL    HW124845   1.074   1.903   6.193
 7982SOL    HW224846   1.057   2.039   6.283
 7983SOL     OW24847   5.162   0.689   1.068
 7983SOL    HW124848   5.151   0.788   1.056
 7983SOL    HW224849   5.136   0.643   0.983
 7984SOL     OW24850   1.160   1.742   1.711
 7984SOL    HW124851   1.234   1.792   1.755
 7984SOL    HW224852   1.199   1.669   1.654
 7985SOL     OW24853   1.976   2.463   5.599
 7985SOL    HW124854   1.942   2.423   5.514
 7985SOL    HW224855   1.984   2.562   5.588
 7986SOL     OW24856   3.236   1.163   4.108
 7986SOL    HW124857   3.171   1.134   4.037
 7986SOL    HW224858   3.292   1.238   4.074
 7987SOL     OW24859   1.016   3.527   0.856
 7987SOL    HW124860   1.015   3.460   0.782
 7987SOL    HW224861   1.110   3.541   0.887
 7988SOL     OW24862   0.284   1.606   1.151
 7988SOL    HW124863   0.357   1.566   1.205
 7988SOL    HW224864   0.244   1.684   1.200
 7989SOL     OW24865   0.990   4.287   0.586
 7989SOL    HW124866   1.082   4.279   0.623
 7989SOL    HW224867   0.936   4.207   0.611
 7990SOL     OW24868   3.018   5.568   5.537
 7990SOL    HW124869   3.021   5.560   5.437
 7990SOL    HW224870   3.110   5.583   5.573
 7991SOL     OW24871   5.566   1.359   5.112
 7991SOL    HW124872   5.609   1.280   5.069
 7991SOL    HW224873   5.602   1.443   5.071
 7992SOL     OW24874   2.586   0.591   0.371
 7992SOL    HW124875   2.654   0.522   0.347
 7992SOL    HW224876   2.588   0.608   0.470
 7993SOL     OW24877   6.590   6.163   1.485
 7993SOL    HW124878   6.582   6.111   1.570
 7993SOL    HW224879   6.684   6.194   1.474
 7994SOL     OW24880   5.579   0.877   3.293
 7994SOL    HW124881   5.510   0.913   3.230
 7994SOL    HW224882   5.646   0.948   3.315
 7995SOL     OW24883   0.465   4.505   1.806
 7995SOL    HW124884   0.536   4.566   1.839
 7995SOL    HW224885   0.420   4.546   1.726
 7996SOL     OW24886   3.933   6.640   2.947
 7996SOL    HW124887   3.942   6.579   2.868
 7996SOL    HW224888   3.854   6.700   2.934
 7997SOL     OW24889   0.688   2.252   6.580
 7997SOL    HW124890   0.664   2.187   6.652
 7997SOL    HW224891   0.768   2.217   6.529
 7998SOL     OW24892   3.083   0.727   0.345
 7998SOL    HW124893   3.113   0.812   0.300
 7998SOL    HW224894   3.125   0.721   0.435
 7999SOL     OW24895   1.493   1.411   5.138
 7999SOL    HW124896   1.483   1.390   5.235
 7999SOL    HW224897   1.561   1.350   5.098
 8000SOL     OW24898   5.734   6.338   6.175
 8000SOL    HW124899   5.749   6.419   6.118
 8000SOL    HW224900   5.760   6.256   6.123
 8001SOL     OW24901   4.710   0.312   0.961
 8001SOL    HW124902   4.709   0.265   1.049
 8001SOL    HW224903   4.670   0.403   0.972
 8002SOL     OW24904   0.078   0.420   6.077
 8002SOL    HW124905   0.035   0.350   6.133
 8002SOL    HW224906   0.177   0.404   6.074
 8003SOL     OW24907   1.829   6.623   2.581
 8003SOL    HW124908   1.735   6.656   2.570
 8003SOL    HW224909   1.887   6.698   2.613
 8004SOL     OW24910   0.900   2.907   4.199
 8004SOL    HW124911   0.904   2.959   4.285
 8004SOL    HW224912   0.933   2.814   4.215
 8005SOL     OW24913   2.497   0.265   3.291
 8005SOL    HW124914   2.577   0.209   3.269
 8005SOL    HW224915   2.464   0.311   3.209
 8006SOL     OW24916   3.821   4.878   5.238
 8006SOL    HW124917   3.876   4.794   5.247
 8006SOL    HW224918   3.739   4.859   5.185
 8007SOL     OW24919   6.148   1.316   6.791
 8007SOL    HW124920   6.147   1.398   6.848
 8007SOL    HW224921   6.243   1.294   6.766
 8008SOL     OW24922   4.387   6.835   0.141
 8008SOL    HW124923   4.474   6.865   0.180
 8008SOL    HW224924   4.345   6.768   0.203
 8009SOL     OW24925   4.964   1.343   0.892
 8009SOL    HW124926   4.987   1.288   0.972
 8009SOL    HW224927   4.879   1.309   0.851
 8010SOL     OW24928   2.629   2.552   5.216
 8010SOL    HW124929   2.548   2.610   5.226
 8010SOL    HW224930   2.704   2.606   5.178
 8011SOL     OW24931   3.313   1.730   2.191
 8011SOL    HW124932   3.302   1.825   2.219
 8011SOL    HW224933   3.317   1.725   2.091
 8012SOL     OW24934   1.044   2.923   5.709
 8012SOL    HW124935   1.111   2.989   5.677
 8012SOL    HW224936   1.070   2.889   5.800
 8013SOL     OW24937   1.672   2.579   3.635
 8013SOL    HW124938   1.729   2.500   3.614
 8013SOL    HW224939   1.700   2.619   3.722
 8014SOL     OW24940   1.923   0.801   3.235
 8014SOL    HW124941   1.847   0.807   3.300
 8014SOL    HW224942   1.955   0.893   3.213
 8015SOL     OW24943   2.204   6.910   5.524
 8015SOL    HW124944   2.263   6.965   5.464
 8015SOL    HW224945   2.114   6.952   5.530
 8016SOL     OW24946   4.565   1.732   5.660
 8016SOL    HW124947   4.547   1.653   5.718
 8016SOL    HW224948   4.553   1.706   5.564
 8017SOL     OW24949   6.805   0.368   0.417
 8017SOL    HW124950   6.821   0.382   0.319
 8017SOL    HW224951   6.740   0.437   0.450
 8018SOL     OW24952   4.194   1.317   0.588
 8018SOL    HW124953   4.285   1.336   0.550
 8018SOL    HW224954   4.164   1.227   0.556
 8019SOL     OW24955   3.071   3.453   0.745
 8019SOL    HW124956   3.041   3.522   0.679
 8019SOL    HW224957   3.150   3.487   0.796
 8020SOL     OW24958   6.655   0.322   5.039
 8020SOL    HW124959   6.587   0.396   5.040
 8020SOL    HW224960   6.735   0.351   4.986
 8021SOL     OW24961   1.578   2.000   2.487
 8021SOL    HW124962   1.645   1.932   2.515
 8021SOL    HW224963   1.493   1.987   2.540
 8022SOL     OW24964   5.259   1.156   2.172
 8022SOL    HW124965   5.235   1.130   2.265
 8022SOL    HW224966   5.293   1.076   2.123
 8023SOL     OW24967   4.861   6.346   3.652
 8023SOL    HW124968   4.813   6.355   3.739
 8023SOL    HW224969   4.842   6.426   3.596
 8024SOL     OW24970   1.962   6.161   6.271
 8024SOL    HW124971   2.014   6.239   6.305
 8024SOL    HW224972   1.925   6.110   6.348
 8025SOL     OW24973   2.239   5.096   1.618
 8025SOL    HW124974   2.281   5.136   1.536
 8025SOL    HW224975   2.190   5.013   1.593
 8026SOL     OW24976   0.920   5.637   6.484
 8026SOL    HW124977   0.820   5.634   6.480
 8026SOL    HW224978   0.952   5.723   6.445
 8027SOL     OW24979   3.818   6.204   6.397
 8027SOL    HW124980   3.776   6.116   6.415
 8027SOL    HW224981   3.851   6.244   6.483
 8028SOL     OW24982   3.068   5.369   4.569
 8028SOL    HW124983   3.013   5.409   4.642
 8028SOL    HW224984   3.019   5.292   4.528
 8029SOL     OW24985   6.217   1.099   1.392
 8029SOL    HW124986   6.240   1.192   1.363
 8029SOL    HW224987   6.178   1.049   1.315
 8030SOL     OW24988   6.303   4.868   1.157
 8030SOL    HW124989   6.240   4.832   1.089
 8030SOL    HW224990   6.289   4.967   1.168
 8031SOL     OW24991   6.453   0.776   3.107
 8031SOL    HW124992   6.393   0.751   3.031
 8031SOL    HW224993   6.443   0.709   3.181
 8032SOL     OW24994   5.282   2.654   0.801
 8032SOL    HW124995   5.317   2.676   0.892
 8032SOL    HW224996   5.246   2.737   0.759
 8033SOL     OW24997   3.769   4.430   0.580
 8033SOL    HW124998   3.745   4.434   0.483
 8033SOL    HW224999   3.709   4.489   0.632
 8034SOL     OW25000   5.575   6.949   5.236
 8034SOL    HW125001   5.531   0.001   5.187
 8034SOL    HW225002   5.573   6.867   5.179
 8035SOL     OW25003   4.870   1.824   3.083
 8035SOL    HW125004   4.844   1.888   3.012
 8035SOL    HW225005   4.914   1.744   3.042
 8036SOL     OW25006   6.150   3.034   4.060
 8036SOL    HW125007   6.240   3.011   4.024
 8036SOL    HW225008   6.080   3.008   3.994
 8037SOL     OW25009   1.390   3.115   6.514
 8037SOL    HW125010   1.473   3.105   6.459
 8037SOL    HW225011   1.385   3.041   6.581
 8038SOL     OW25012   6.180   6.272   2.371
 8038SOL    HW125013   6.081   6.277   2.363
 8038SOL    HW225014   6.221   6.275   2.280
 8039SOL     OW25015   1.171   2.004   5.915
 8039SOL    HW125016   1.113   1.926   5.938
 8039SOL    HW225017   1.243   2.012   5.984
 8040SOL     OW25018   1.795   5.616   6.015
 8040SOL    HW125019   1.742   5.585   5.936
 8040SOL    HW225020   1.890   5.589   6.003
 8041SOL     OW25021   4.075   1.787   3.287
 8041SOL    HW125022   4.106   1.859   3.225
 8041SOL    HW225023   3.977   1.771   3.273
 8042SOL     OW25024   4.765   4.627   5.790
 8042SOL    HW125025   4.780   4.528   5.791
 8042SOL    HW225026   4.668   4.646   5.806
 8043SOL     OW25027   5.303   4.278   0.717
 8043SOL    HW125028   5.271   4.364   0.676
 8043SOL    HW225029   5.391   4.253   0.678
 8044SOL     OW25030   3.554   3.798   0.848
 8044SOL    HW125031   3.487   3.792   0.923
 8044SOL    HW225032   3.573   3.894   0.829
 8045SOL     OW25033   0.706   1.002   2.661
 8045SOL    HW125034   0.658   0.967   2.741
 8045SOL    HW225035   0.800   1.026   2.686
 8046SOL     OW25036   0.179   5.145   2.085
 8046SOL    HW125037   0.270   5.187   2.087
 8046SOL    HW225038   0.188   5.045   2.088
 8047SOL     OW25039   3.982   0.305   5.613
 8047SOL    HW125040   3.902   0.324   5.557
 8047SOL    HW225041   3.958   0.311   5.710
 8048SOL     OW25042   3.427   3.931   0.100
 8048SOL    HW125043   3.443   3.969   0.191
 8048SOL    HW225044   3.498   3.963   0.037
 8049SOL     OW25045   1.674   6.928   0.611
 8049SOL    HW125046   1.603   6.981   0.657
 8049SOL    HW225047   1.653   6.923   0.513
 8050SOL     OW25048   1.633   4.373   4.196
 8050SOL    HW125049   1.545   4.408   4.229
 8050SOL    HW225050   1.628   4.274   4.186
 8051SOL     OW25051   3.315   6.358   4.292
 8051SOL    HW125052   3.354   6.450   4.292
 8051SOL    HW225053   3.249   6.350   4.366
 8052SOL     OW25054   2.170   1.972   2.001
 8052SOL    HW125055   2.234   1.903   2.036
 8052SOL    HW225056   2.076   1.939   2.012
 8053SOL     OW25057   2.681   3.401   6.324
 8053SOL    HW125058   2.643   3.407   6.232
 8053SOL    HW225059   2.642   3.322   6.371
 8054SOL     OW25060   5.350   4.162   4.925
 8054SOL    HW125061   5.429   4.118   4.968
 8054SOL    HW225062   5.336   4.253   4.965
 8055SOL     OW25063   0.121   0.419   5.218
 8055SOL    HW125064   0.148   0.331   5.180
 8055SOL    HW225065   0.022   0.430   5.211
 8056SOL     OW25066   2.479   0.709   3.887
 8056SOL    HW125067   2.438   0.756   3.965
 8056SOL    HW225068   2.514   0.776   3.821
 8057SOL     OW25069   2.444   2.686   1.868
 8057SOL    HW125070   2.395   2.620   1.810
 8057SOL    HW225071   2.499   2.636   1.936
 8058SOL     OW25072   2.978   6.779   2.923
 8058SOL    HW125073   2.924   6.826   2.853
 8058SOL    HW225074   2.982   6.837   3.005
 8059SOL     OW25075   2.597   3.145   6.428
 8059SOL    HW125076   2.621   3.093   6.509
 8059SOL    HW225077   2.505   3.120   6.398
 8060SOL     OW25078   6.534   0.167   5.928
 8060SOL    HW125079   6.523   0.102   5.854
 8060SOL    HW225080   6.500   0.257   5.899
 8061SOL     OW25081   0.582   1.091   2.444
 8061SOL    HW125082   0.603   1.056   2.536
 8061SOL    HW225083   0.667   1.113   2.396
 8062SOL     OW25084   4.421   6.119   5.311
 8062SOL    HW125085   4.350   6.094   5.378
 8062SOL    HW225086   4.430   6.218   5.308
 8063SOL     OW25087   3.335   0.659   2.984
 8063SOL    HW125088   3.418   0.667   2.929
 8063SOL    HW225089   3.317   0.562   3.004
 8064SOL     OW25090   6.512   3.309   0.151
 8064SOL    HW125091   6.509   3.222   0.103
 8064SOL    HW225092   6.518   3.293   0.250
 8065SOL     OW25093   3.125   0.034   5.025
 8065SOL    HW125094   3.149   6.975   4.974
 8065SOL    HW225095   3.127   0.014   5.123
 8066SOL     OW25096   6.898   1.048   4.917
 8066SOL    HW125097   6.937   1.006   4.835
 8066SOL    HW225098   6.862   1.138   4.894
 8067SOL     OW25099   5.049   2.988   3.390
 8067SOL    HW125100   5.069   3.059   3.458
 8067SOL    HW225101   4.951   2.968   3.390
 8068SOL     OW25102   6.643   4.537   1.387
 8068SOL    HW125103   6.632   4.601   1.463
 8068SOL    HW225104   6.564   4.544   1.326
 8069SOL     OW25105   3.070   5.124   2.536
 8069SOL    HW125106   3.091   5.035   2.577
 8069SOL    HW225107   2.970   5.135   2.529
 8070SOL     OW25108   5.191   4.516   0.623
 8070SOL    HW125109   5.093   4.509   0.646
 8070SOL    HW225110   5.223   4.609   0.640
 8071SOL     OW25111   4.143   6.927   6.045
 8071SOL    HW125112   4.095   6.892   6.126
 8071SOL    HW225113   4.091   7.003   6.006
 8072SOL     OW25114   1.984   3.327   6.659
 8072SOL    HW125115   1.970   3.328   6.559
 8072SOL    HW225116   1.986   3.421   6.693
 8073SOL     OW25117   2.980   0.102   6.549
 8073SOL    HW125118   3.022   0.056   6.628
 8073SOL    HW225119   3.046   0.166   6.510
 8074SOL     OW25120   2.309   2.039   0.326
 8074SOL    HW125121   2.378   1.985   0.375
 8074SOL    HW225122   2.297   2.001   0.234
 8075SOL     OW25123   6.955   6.429   6.892
 8075SOL    HW125124   6.955   6.329   6.885
 8075SOL    HW225125   6.926   6.456   6.984
 8076SOL     OW25126   6.438   0.118   6.840
 8076SOL    HW125127   6.487   0.037   6.807
 8076SOL    HW225128   6.377   0.091   6.915
 8077SOL     OW25129   4.321   5.684   1.953
 8077SOL    HW125130   4.250   5.754   1.948
 8077SOL    HW225131   4.349   5.659   1.861
 8078SOL     OW25132   1.004   1.305   0.888
 8078SOL    HW125133   1.006   1.238   0.814
 8078SOL    HW225134   1.072   1.376   0.870
 8079SOL     OW25135   1.195   1.250   5.010
 8079SOL    HW125136   1.219   1.311   4.935
 8079SOL    HW225137   1.263   1.177   5.018
 8080SOL     OW25138   1.396   3.306   2.689
 8080SOL    HW125139   1.492   3.299   2.659
 8080SOL    HW225140   1.393   3.338   2.784
 8081SOL     OW25141   6.169   4.885   4.724
 8081SOL    HW125142   6.256   4.933   4.741
 8081SOL    HW225143   6.154   4.818   4.797
 8082SOL     OW25144   2.600   1.760   2.378
 8082SOL    HW125145   2.676   1.713   2.334
 8082SOL    HW225146   2.534   1.693   2.412
 8083SOL     OW25147   5.453   2.261   4.459
 8083SOL    HW125148   5.388   2.293   4.529
 8083SOL    HW225149   5.407   2.197   4.398
 8084SOL     OW25150   2.312   0.073   6.212
 8084SOL    HW125151   2.398   0.024   6.197
 8084SOL    HW225152   2.304   0.097   6.309
 8085SOL     OW25153   0.534   5.375   4.090
 8085SOL    HW125154   0.439   5.403   4.081
 8085SOL    HW225155   0.567   5.396   4.182
 8086SOL     OW25156   0.750   1.057   2.033
 8086SOL    HW125157   0.651   1.069   2.034
 8086SOL    HW225158   0.785   1.078   1.942
 8087SOL     OW25159   1.181   0.573   0.086
 8087SOL    HW125160   1.204   0.480   0.115
 8087SOL    HW225161   1.166   0.574   7.010
 8088SOL     OW25162   5.267   6.717   6.501
 8088SOL    HW125163   5.269   6.726   6.401
 8088SOL    HW225164   5.358   6.690   6.533
 8089SOL     OW25165   6.062   2.417   6.526
 8089SOL    HW125166   5.962   2.417   6.538
 8089SOL    HW225167   6.084   2.418   6.429
 8090SOL     OW25168   4.205   1.725   6.803
 8090SOL    HW125169   4.284   1.784   6.821
 8090SOL    HW225170   4.237   1.632   6.784
 8091SOL     OW25171   1.290   4.277   4.661
 8091SOL    HW125172   1.255   4.216   4.733
 8091SOL    HW225173   1.215   4.308   4.604
 8092SOL     OW25174   4.888   1.994   5.304
 8092SOL    HW125175   4.872   1.927   5.376
 8092SOL    HW225176   4.801   2.035   5.276
 8093SOL     OW25177   2.829   6.256   2.858
 8093SOL    HW125178   2.829   6.204   2.773
 8093SOL    HW225179   2.911   6.233   2.911
 8094SOL     OW25180   1.009   3.595   4.272
 8094SOL    HW125181   1.052   3.575   4.360
 8094SOL    HW225182   0.909   3.586   4.282
 8095SOL     OW25183   1.175   4.139   5.417
 8095SOL    HW125184   1.224   4.117   5.502
 8095SOL    HW225185   1.133   4.230   5.426
 8096SOL     OW25186   1.279   6.648   2.079
 8096SOL    HW125187   1.225   6.728   2.102
 8096SOL    HW225188   1.220   6.581   2.032
 8097SOL     OW25189   2.941   6.725   5.108
 8097SOL    HW125190   3.025   6.723   5.053
 8097SOL    HW225191   2.937   6.643   5.165
 8098SOL     OW25192   0.856   6.003   3.595
 8098SOL    HW125193   0.920   5.963   3.529
 8098SOL    HW225194   0.833   5.935   3.664
 8099SOL     OW25195   3.673   5.520   3.938
 8099SOL    HW125196   3.646   5.516   3.842
 8099SOL    HW225197   3.700   5.429   3.969
 8100SOL     OW25198   6.217   1.269   6.511
 8100SOL    HW125199   6.265   1.354   6.531
 8100SOL    HW225200   6.175   1.274   6.420
 8101SOL     OW25201   2.254   6.020   0.735
 8101SOL    HW125202   2.250   5.941   0.674
 8101SOL    HW225203   2.173   6.077   0.721
 8102SOL     OW25204   1.093   3.030   4.889
 8102SOL    HW125205   1.175   3.043   4.945
 8102SOL    HW225206   1.018   3.084   4.927
 8103SOL     OW25207   3.738   1.316   2.283
 8103SOL    HW125208   3.785   1.404   2.280
 8103SOL    HW225209   3.804   1.243   2.298
 8104SOL     OW25210   1.904   6.419   5.854
 8104SOL    HW125211   1.926   6.354   5.782
 8104SOL    HW225212   1.870   6.370   5.934
 8105SOL     OW25213   6.447   1.797   3.271
 8105SOL    HW125214   6.426   1.789   3.368
 8105SOL    HW225215   6.404   1.721   3.221
 8106SOL     OW25216   2.269   6.258   4.055
 8106SOL    HW125217   2.241   6.338   4.109
 8106SOL    HW225218   2.204   6.183   4.071
 8107SOL     OW25219   2.061   5.771   4.487
 8107SOL    HW125220   1.981   5.767   4.427
 8107SOL    HW225221   2.139   5.808   4.436
 8108SOL     OW25222   0.220   1.239   6.775
 8108SOL    HW125223   0.217   1.260   6.872
 8108SOL    HW225224   0.138   1.274   6.731
 8109SOL     OW25225   6.778   3.625   6.490
 8109SOL    HW125226   6.758   3.557   6.420
 8109SOL    HW225227   6.776   3.582   6.581
 8110SOL     OW25228   4.686   4.793   1.110
 8110SOL    HW125229   4.679   4.891   1.129
 8110SOL    HW225230   4.649   4.742   1.188
 8111SOL     OW25231   5.920   0.993   3.153
 8111SOL    HW125232   5.928   0.938   3.236
 8111SOL    HW225233   5.905   1.088   3.177
 8112SOL     OW25234   0.535   2.743   4.988
 8112SOL    HW125235   0.515   2.650   5.020
 8112SOL    HW225236   0.568   2.798   5.065
 8113SOL     OW25237   6.239   3.137   1.309
 8113SOL    HW125238   6.145   3.102   1.314
 8113SOL    HW225239   6.295   3.089   1.377
 8114SOL     OW25240   1.639   4.263   2.280
 8114SOL    HW125241   1.624   4.360   2.264
 8114SOL    HW225242   1.679   4.250   2.371
 8115SOL     OW25243   3.120   6.852   6.922
 8115SOL    HW125244   3.085   6.941   6.891
 8115SOL    HW225245   3.043   6.795   6.951
 8116SOL     OW25246   3.574   5.433   0.613
 8116SOL    HW125247   3.537   5.393   0.697
 8116SOL    HW225248   3.658   5.482   0.634
 8117SOL     OW25249   2.215   6.820   2.840
 8117SOL    HW125250   2.157   6.741   2.860
 8117SOL    HW225251   2.217   6.835   2.741
 8118SOL     OW25252   6.167   4.162   6.451
 8118SOL    HW125253   6.222   4.079   6.440
 8118SOL    HW225254   6.205   4.218   6.524
 8119SOL     OW25255   5.444   6.201   5.375
 8119SOL    HW125256   5.379   6.183   5.301
 8119SOL    HW225257   5.514   6.130   5.376
 8120SOL     OW25258   2.172   5.537   0.565
 8120SOL    HW125259   2.216   5.483   0.637
 8120SOL    HW225260   2.195   5.498   0.476
 8121SOL     OW25261   1.101   4.375   3.196
 8121SOL    HW125262   1.016   4.393   3.145
 8121SOL    HW225263   1.111   4.277   3.209
 8122SOL     OW25264   1.171   4.494   2.864
 8122SOL    HW125265   1.238   4.465   2.795
 8122SOL    HW225266   1.212   4.563   2.923
 8123SOL     OW25267   0.809   1.956   6.731
 8123SOL    HW125268   0.879   1.892   6.699
 8123SOL    HW225269   0.852   2.040   6.764
 8124SOL     OW25270   5.253   5.910   4.081
 8124SOL    HW125271   5.345   5.912   4.042
 8124SOL    HW225272   5.201   5.835   4.039
 8125SOL     OW25273   0.404   0.793   2.989
 8125SOL    HW125274   0.450   0.716   3.033
 8125SOL    HW225275   0.306   0.786   3.004
 8126SOL     OW25276   3.813   4.890   3.772
 8126SOL    HW125277   3.832   4.842   3.858
 8126SOL    HW225278   3.872   4.853   3.700
 8127SOL     OW25279   2.454   2.679   0.375
 8127SOL    HW125280   2.355   2.689   0.368
 8127SOL    HW225281   2.475   2.597   0.429
 8128SOL     OW25282   3.304   2.616   1.713
 8128SOL    HW125283   3.309   2.516   1.717
 8128SOL    HW225284   3.210   2.644   1.695
 8129SOL     OW25285   1.161   2.344   0.255
 8129SOL    HW125286   1.187   2.248   0.245
 8129SOL    HW225287   1.194   2.397   0.178
 8130SOL     OW25288   1.258   5.554   0.353
 8130SOL    HW125289   1.289   5.484   0.289
 8130SOL    HW225290   1.336   5.610   0.382
 8131SOL     OW25291   2.586   2.569   1.228
 8131SOL    HW125292   2.614   2.642   1.165
 8131SOL    HW225293   2.659   2.552   1.294
 8132SOL     OW25294   6.668   6.969   3.960
 8132SOL    HW125295   6.610   0.025   3.975
 8132SOL    HW225296   6.709   6.941   4.047
 8133SOL     OW25297   3.644   5.277   1.784
 8133SOL    HW125298   3.562   5.223   1.803
 8133SOL    HW225299   3.670   5.328   1.867
 8134SOL     OW25300   6.354   1.485   5.707
 8134SOL    HW125301   6.382   1.527   5.621
 8134SOL    HW225302   6.431   1.483   5.770
 8135SOL     OW25303   2.274   0.326   1.561
 8135SOL    HW125304   2.190   0.334   1.614
 8135SOL    HW225305   2.320   0.240   1.585
 8136SOL     OW25306   5.265   5.501   2.505
 8136SOL    HW125307   5.259   5.498   2.406
 8136SOL    HW225308   5.359   5.478   2.533
 8137SOL     OW25309   3.264   1.293   5.682
 8137SOL    HW125310   3.271   1.267   5.778
 8137SOL    HW225311   3.208   1.226   5.633
 8138SOL     OW25312   5.515   1.112   1.844
 8138SOL    HW125313   5.585   1.064   1.897
 8138SOL    HW225314   5.548   1.124   1.750
 8139SOL     OW25315   0.841   1.483   2.541
 8139SOL    HW125316   0.933   1.519   2.523
 8139SOL    HW225317   0.847   1.406   2.605
 8140SOL     OW25318   4.585   1.261   4.588
 8140SOL    HW125319   4.613   1.179   4.539
 8140SOL    HW225320   4.540   1.324   4.525
 8141SOL     OW25321   3.812   5.201   5.791
 8141SOL    HW125322   3.757   5.221   5.871
 8141SOL    HW225323   3.785   5.112   5.753
 8142SOL     OW25324   6.492   4.658   0.513
 8142SOL    HW125325   6.519   4.717   0.589
 8142SOL    HW225326   6.452   4.713   0.440
 8143SOL     OW25327   5.991   4.508   5.941
 8143SOL    HW125328   5.937   4.501   6.025
 8143SOL    HW225329   6.087   4.489   5.962
 8144SOL     OW25330   5.331   6.690   6.853
 8144SOL    HW125331   5.379   6.680   6.766
 8144SOL    HW225332   5.397   6.718   6.923
 8145SOL     OW25333   5.854   5.847   2.750
 8145SOL    HW125334   5.793   5.918   2.715
 8145SOL    HW225335   5.841   5.839   2.849
 8146SOL     OW25336   3.548   0.970   5.582
 8146SOL    HW125337   3.646   0.951   5.578
 8146SOL    HW225338   3.518   1.007   5.494
 8147SOL     OW25339   4.449   1.864   3.608
 8147SOL    HW125340   4.387   1.880   3.531
 8147SOL    HW225341   4.535   1.824   3.575
 8148SOL     OW25342   5.449   2.783   2.460
 8148SOL    HW125343   5.441   2.881   2.477
 8148SOL    HW225344   5.359   2.746   2.437
 8149SOL     OW25345   3.829   5.652   2.716
 8149SOL    HW125346   3.846   5.561   2.677
 8149SOL    HW225347   3.747   5.691   2.674
 8150SOL     OW25348   0.554   4.932   0.689
 8150SOL    HW125349   0.514   5.023   0.691
 8150SOL    HW225350   0.482   4.864   0.676
 8151SOL     OW25351   0.784   2.426   3.774
 8151SOL    HW125352   0.713   2.466   3.833
 8151SOL    HW225353   0.864   2.485   3.773
 8152SOL     OW25354   1.954   1.093   3.252
 8152SOL    HW125355   2.035   1.152   3.249
 8152SOL    HW225356   1.929   1.076   3.347
 8153SOL     OW25357   3.096   0.254   1.631
 8153SOL    HW125358   3.149   0.299   1.703
 8153SOL    HW225359   3.147   0.254   1.546
 8154SOL     OW25360   2.447   6.329   3.845
 8154SOL    HW125361   2.394   6.323   3.929
 8154SOL    HW225362   2.452   6.425   3.816
 8155SOL     OW25363   3.209   2.934   2.070
 8155SOL    HW125364   3.122   2.950   2.024
 8155SOL    HW225365   3.266   2.874   2.015
 8156SOL     OW25366   5.650   0.916   5.356
 8156SOL    HW125367   5.725   0.929   5.291
 8156SOL    HW225368   5.596   1.000   5.362
 8157SOL     OW25369   6.074   4.353   6.282
 8157SOL    HW125370   6.141   4.408   6.232
 8157SOL    HW225371   6.122   4.282   6.334
 8158SOL     OW25372   1.053   5.833   1.385
 8158SOL    HW125373   1.010   5.743   1.380
 8158SOL    HW225374   1.001   5.890   1.449
 8159SOL     OW25375   2.020   5.393   2.094
 8159SOL    HW125376   2.089   5.402   2.022
 8159SOL    HW225377   1.986   5.299   2.096
 8160SOL     OW25378   4.755   2.574   0.792
 8160SOL    HW125379   4.655   2.579   0.790
 8160SOL    HW225380   4.791   2.654   0.838
 8161SOL     OW25381   4.730   0.890   0.482
 8161SOL    HW125382   4.732   0.990   0.479
 8161SOL    HW225383   4.774   0.853   0.399
 8162SOL     OW25384   5.911   0.213   0.625
 8162SOL    HW125385   5.996   0.207   0.573
 8162SOL    HW225386   5.930   0.255   0.714
 8163SOL     OW25387   2.333   4.234   5.241
 8163SOL    HW125388   2.359   4.138   5.239
 8163SOL    HW225389   2.281   4.256   5.158
 8164SOL     OW25390   5.091   2.268   1.402
 8164SOL    HW125391   4.997   2.297   1.420
 8164SOL    HW225392   5.089   2.184   1.346
 8165SOL     OW25393   1.683   4.029   1.352
 8165SOL    HW125394   1.631   4.066   1.429
 8165SOL    HW225395   1.628   4.036   1.269
 8166SOL     OW25396   2.623   0.523   1.862
 8166SOL    HW125397   2.633   0.424   1.869
 8166SOL    HW225398   2.538   0.545   1.813
 8167SOL     OW25399   6.058   2.583   3.574
 8167SOL    HW125400   5.970   2.615   3.610
 8167SOL    HW225401   6.103   2.658   3.525
 8168SOL     OW25402   3.688   1.411   3.258
 8168SOL    HW125403   3.721   1.411   3.164
 8168SOL    HW225404   3.590   1.429   3.259
 8169SOL     OW25405   4.517   3.900   6.589
 8169SOL    HW125406   4.487   3.995   6.600
 8169SOL    HW225407   4.566   3.871   6.671
 8170SOL     OW25408   0.813   5.670   4.034
 8170SOL    HW125409   0.889   5.613   4.002
 8170SOL    HW225410   0.817   5.677   4.133
 8171SOL     OW25411   0.687   1.494   6.518
 8171SOL    HW125412   0.749   1.431   6.472
 8171SOL    HW225413   0.618   1.527   6.453
 8172SOL     OW25414   0.051   0.050   0.517
 8172SOL    HW125415   0.015   0.015   0.603
 8172SOL    HW225416   0.137   0.098   0.533
 8173SOL     OW25417   3.469   2.583   6.943
 8173SOL    HW125418   3.560   2.614   6.918
 8173SOL    HW225419   3.406   2.661   6.947
 8174SOL     OW25420   5.631   1.405   1.505
 8174SOL    HW125421   5.703   1.382   1.439
 8174SOL    HW225422   5.617   1.504   1.504
 8175SOL     OW25423   0.436   1.930   6.452
 8175SOL    HW125424   0.481   1.844   6.427
 8175SOL    HW225425   0.482   2.006   6.406
 8176SOL     OW25426   2.417   5.650   1.877
 8176SOL    HW125427   2.433   5.634   1.780
 8176SOL    HW225428   2.504   5.642   1.926
 8177SOL     OW25429   0.927   6.655   4.502
 8177SOL    HW125430   0.862   6.703   4.561
 8177SOL    HW225431   0.905   6.557   4.501
 8178SOL     OW25432   1.584   6.306   6.850
 8178SOL    HW125433   1.559   6.330   6.756
 8178SOL    HW225434   1.572   6.208   6.864
 8179SOL     OW25435   3.215   3.054   0.047
 8179SOL    HW125436   3.150   2.998   0.099
 8179SOL    HW225437   3.219   3.146   0.087
 8180SOL     OW25438   0.116   6.739   4.491
 8180SOL    HW125439   0.020   6.730   4.518
 8180SOL    HW225440   0.171   6.760   4.572
 8181SOL     OW25441   2.600   2.030   3.134
 8181SOL    HW125442   2.557   2.069   3.216
 8181SOL    HW225443   2.661   2.098   3.093
 8182SOL     OW25444   3.333   2.180   5.575
 8182SOL    HW125445   3.370   2.222   5.492
 8182SOL    HW225446   3.233   2.176   5.568
 8183SOL     OW25447   0.973   3.473   4.840
 8183SOL    HW125448   1.054   3.481   4.783
 8183SOL    HW225449   1.000   3.469   4.936
 8184SOL     OW25450   0.318   0.614   5.285
 8184SOL    HW125451   0.347   0.584   5.375
 8184SOL    HW225452   0.240   0.559   5.255
 8185SOL     OW25453   3.197   1.317   2.467
 8185SOL    HW125454   3.211   1.351   2.374
 8185SOL    HW225455   3.146   1.231   2.464
 8186SOL     OW25456   3.123   6.034   5.706
 8186SOL    HW125457   3.075   6.089   5.775
 8186SOL    HW225458   3.057   5.976   5.659
 8187SOL     OW25459   1.339   2.201   5.274
 8187SOL    HW125460   1.241   2.202   5.293
 8187SOL    HW225461   1.375   2.109   5.292
 8188SOL     OW25462   5.822   2.039   2.698
 8188SOL    HW125463   5.765   2.120   2.681
 8188SOL    HW225464   5.839   2.031   2.796
 8189SOL     OW25465   5.986   4.636   2.757
 8189SOL    HW125466   5.988   4.639   2.857
 8189SOL    HW225467   5.995   4.541   2.727
 8190SOL     OW25468   5.113   3.185   3.620
 8190SOL    HW125469   5.113   3.282   3.596
 8190SOL    HW225470   5.040   3.167   3.686
 8191SOL     OW25471   0.492   4.882   4.054
 8191SOL    HW125472   0.527   4.950   3.989
 8191SOL    HW225473   0.519   4.791   4.025
 8192SOL     OW25474   2.337   5.509   2.170
 8192SOL    HW125475   2.283   5.594   2.174
 8192SOL    HW225476   2.320   5.463   2.083
 8193SOL     OW25477   4.642   6.834   5.215
 8193SOL    HW125478   4.653   6.869   5.308
 8193SOL    HW225479   4.699   6.752   5.203
 8194SOL     OW25480   6.795   0.903   6.936
 8194SOL    HW125481   6.839   0.947   6.857
 8194SOL    HW225482   6.764   0.812   6.910
 8195SOL     OW25483   6.457   0.119   0.286
 8195SOL    HW125484   6.434   0.199   0.341
 8195SOL    HW225485   6.500   0.050   0.344
 8196SOL     OW25486   3.458   6.539   6.523
 8196SOL    HW125487   3.493   6.563   6.613
 8196SOL    HW225488   3.366   6.502   6.531
 8197SOL     OW25489   6.936   0.503   6.460
 8197SOL    HW125490   6.851   0.450   6.449
 8197SOL    HW225491   7.007   0.463   6.402
 8198SOL     OW25492   2.652   6.670   3.123
 8198SOL    HW125493   2.597   6.730   3.066
 8198SOL    HW225494   2.686   6.594   3.068
 8199SOL     OW25495   7.022   3.691   0.054
 8199SOL    HW125496   0.088   3.734   0.072
 8199SOL    HW225497   6.951   3.743   0.101
 8200SOL     OW25498   5.147   4.392   1.287
 8200SOL    HW125499   5.216   4.348   1.344
 8200SOL    HW225500   5.072   4.329   1.270
 8201SOL     OW25501   5.836   0.052   3.723
 8201SOL    HW125502   5.753   0.108   3.727
 8201SOL    HW225503   5.844   0.011   3.632
 8202SOL     OW25504   1.404   4.603   3.220
 8202SOL    HW125505   1.384   4.621   3.124
 8202SOL    HW225506   1.437   4.508   3.230
 8203SOL     OW25507   5.335   4.045   1.837
 8203SOL    HW125508   5.369   4.014   1.926
 8203SOL    HW225509   5.406   4.099   1.791
 8204SOL     OW25510   3.408   0.008   2.148
 8204SOL    HW125511   3.508   0.019   2.148
 8204SOL    HW225512   3.376   0.001   2.053
 8205SOL     OW25513   5.648   5.432   1.399
 8205SOL    HW125514   5.698   5.519   1.395
 8205SOL    HW225515   5.558   5.443   1.356
 8206SOL     OW25516   4.028   1.922   5.406
 8206SOL    HW125517   4.006   2.002   5.462
 8206SOL    HW225518   3.946   1.890   5.359
 8207SOL     OW25519   3.118   5.146   6.289
 8207SOL    HW125520   3.084   5.167   6.197
 8207SOL    HW225521   3.067   5.201   6.355
 8208SOL     OW25522   1.509   4.244   1.433
 8208SOL    HW125523   1.437   4.302   1.396
 8208SOL    HW225524   1.587   4.301   1.460
 8209SOL     OW25525   1.101   0.562   5.203
 8209SOL    HW125526   1.174   0.623   5.232
 8209SOL    HW225527   1.022   0.616   5.174
 8210SOL     OW25528   2.309   1.502   0.311
 8210SOL    HW125529   2.262   1.413   0.313
 8210SOL    HW225530   2.403   1.490   0.342
 8211SOL     OW25531   3.284   3.151   4.010
 8211SOL    HW125532   3.355   3.103   4.061
 8211SOL    HW225533   3.298   3.137   3.912
 8212SOL     OW25534   2.939   0.127   1.181
 8212SOL    HW125535   2.931   0.151   1.278
 8212SOL    HW225536   3.035   0.128   1.154
 8213SOL     OW25537   4.545   4.194   1.622
 8213SOL    HW125538   4.504   4.126   1.560
 8213SOL    HW225539   4.486   4.205   1.702
 8214SOL     OW25540   3.357   5.738   4.170
 8214SOL    HW125541   3.375   5.673   4.244
 8214SOL    HW225542   3.261   5.767   4.174
 8215SOL     OW25543   4.415   6.710   6.661
 8215SOL    HW125544   4.370   6.745   6.743
 8215SOL    HW225545   4.513   6.701   6.679
 8216SOL     OW25546   4.822   5.926   1.605
 8216SOL    HW125547   4.870   5.880   1.680
 8216SOL    HW225548   4.819   6.024   1.622
 8217SOL     OW25549   2.536   5.649   3.241
 8217SOL    HW125550   2.541   5.664   3.340
 8217SOL    HW225551   2.601   5.709   3.195
 8218SOL     OW25552   1.673   0.321   5.563
 8218SOL    HW125553   1.629   0.237   5.594
 8218SOL    HW225554   1.641   0.343   5.471
 8219SOL     OW25555   3.871   4.036   1.018
 8219SOL    HW125556   3.963   4.059   0.988
 8219SOL    HW225557   3.825   3.983   0.947
 8220SOL     OW25558   3.659   3.801   3.982
 8220SOL    HW125559   3.755   3.791   3.954
 8220SOL    HW225560   3.621   3.884   3.941
 8221SOL     OW25561   5.922   3.119   3.435
 8221SOL    HW125562   5.934   3.182   3.358
 8221SOL    HW225563   6.009   3.108   3.483
 8222SOL     OW25564   6.259   2.709   1.120
 8222SOL    HW125565   6.232   2.740   1.211
 8222SOL    HW225566   6.252   2.610   1.115
 8223SOL     OW25567   0.328   5.929   4.945
 8223SOL    HW125568   0.330   6.029   4.944
 8223SOL    HW225569   0.327   5.895   4.851
 8224SOL     OW25570   5.664   1.673   0.511
 8224SOL    HW125571   5.714   1.747   0.556
 8224SOL    HW225572   5.627   1.611   0.579
 8225SOL     OW25573   5.248   1.649   0.713
 8225SOL    HW125574   5.308   1.729   0.720
 8225SOL    HW225575   5.257   1.593   0.795
 8226SOL     OW25576   3.525   0.160   0.477
 8226SOL    HW125577   3.491   0.241   0.429
 8226SOL    HW225578   3.501   0.078   0.426
 8227SOL     OW25579   4.925   1.908   2.647
 8227SOL    HW125580   4.999   1.848   2.617
 8227SOL    HW225581   4.883   1.870   2.730
 8228SOL     OW25582   1.787   0.485   5.748
 8228SOL    HW125583   1.742   0.502   5.836
 8228SOL    HW225584   1.726   0.430   5.691
 8229SOL     OW25585   4.329   4.603   1.190
 8229SOL    HW125586   4.372   4.693   1.181
 8229SOL    HW225587   4.344   4.568   1.283
 8230SOL     OW25588   4.976   0.723   5.622
 8230SOL    HW125589   5.002   0.627   5.622
 8230SOL    HW225590   4.983   0.760   5.529
 8231SOL     OW25591   2.529   1.494   2.951
 8231SOL    HW125592   2.617   1.485   2.998
 8231SOL    HW225593   2.544   1.521   2.856
 8232SOL     OW25594   3.868   6.475   2.714
 8232SOL    HW125595   3.803   6.547   2.689
 8232SOL    HW225596   3.868   6.404   2.643
 8233SOL     OW25597   1.077   0.885   6.014
 8233SOL    HW125598   1.033   0.852   5.931
 8233SOL    HW225599   1.008   0.912   6.081
 8234SOL     OW25600   1.789   2.222   0.530
 8234SOL    HW125601   1.776   2.132   0.571
 8234SOL    HW225602   1.829   2.211   0.439
 8235SOL     OW25603   0.148   5.478   0.903
 8235SOL    HW125604   0.184   5.411   0.969
 8235SOL    HW225605   0.057   5.507   0.932
 8236SOL     OW25606   0.652   6.627   0.023
 8236SOL    HW125607   0.709   6.660   0.097
 8236SOL    HW225608   0.617   6.704   6.993
 8237SOL     OW25609   4.395   5.624   6.457
 8237SOL    HW125610   4.456   5.701   6.439
 8237SOL    HW225611   4.311   5.634   6.404
 8238SOL     OW25612   1.372   4.487   0.530
 8238SOL    HW125613   1.415   4.458   0.616
 8238SOL    HW225614   1.443   4.519   0.467
 8239SOL     OW25615   0.906   1.295   5.391
 8239SOL    HW125616   0.949   1.352   5.461
 8239SOL    HW225617   0.872   1.352   5.317
 8240SOL     OW25618   3.601   3.632   4.419
 8240SOL    HW125619   3.617   3.718   4.371
 8240SOL    HW225620   3.502   3.617   4.428
 8241SOL     OW25621   1.681   4.222   6.220
 8241SOL    HW125622   1.655   4.298   6.160
 8241SOL    HW225623   1.609   4.152   6.218
 8242SOL     OW25624   0.242   2.665   4.264
 8242SOL    HW125625   0.153   2.687   4.224
 8242SOL    HW225626   0.277   2.746   4.312
 8243SOL     OW25627   0.654   4.559   4.591
 8243SOL    HW125628   0.581   4.514   4.539
 8243SOL    HW225629   0.715   4.489   4.629
 8244SOL     OW25630   1.320   0.304   4.216
 8244SOL    HW125631   1.265   0.256   4.148
 8244SOL    HW225632   1.327   0.248   4.299
 8245SOL     OW25633   5.307   1.738   3.864
 8245SOL    HW125634   5.269   1.679   3.792
 8245SOL    HW225635   5.323   1.684   3.947
 8246SOL     OW25636   1.633   5.035   6.083
 8246SOL    HW125637   1.550   5.005   6.130
 8246SOL    HW225638   1.644   4.984   5.998
 8247SOL     OW25639   3.335   5.353   3.103
 8247SOL    HW125640   3.422   5.304   3.095
 8247SOL    HW225641   3.259   5.290   3.088
 8248SOL     OW25642   0.662   5.125   2.971
 8248SOL    HW125643   0.610   5.210   2.979
 8248SOL    HW225644   0.745   5.142   2.917
 8249SOL     OW25645   2.761   1.945   6.060
 8249SOL    HW125646   2.730   1.879   5.991
 8249SOL    HW225647   2.853   1.921   6.091
 8250SOL     OW25648   1.950   1.371   6.634
 8250SOL    HW125649   1.978   1.363   6.730
 8250SOL    HW225650   1.962   1.283   6.588
 8251SOL     OW25651   0.137   2.169   4.635
 8251SOL    HW125652   0.121   2.266   4.616
 8251SOL    HW225653   0.160   2.122   4.550
 8252SOL     OW25654   1.356   2.295   6.530
 8252SOL    HW125655   1.388   2.258   6.443
 8252SOL    HW225656   1.392   2.239   6.605
 8253SOL     OW25657   4.321   5.692   0.800
 8253SOL    HW125658   4.279   5.766   0.746
 8253SOL    HW225659   4.334   5.724   0.895
 8254SOL     OW25660   5.275   4.963   6.949
 8254SOL    HW125661   5.287   4.964   0.025
 8254SOL    HW225662   5.340   4.900   6.907
 8255SOL     OW25663   0.954   6.253   6.534
 8255SOL    HW125664   1.025   6.244   6.464
 8255SOL    HW225665   0.923   6.161   6.561
 8256SOL     OW25666   1.796   5.578   3.375
 8256SOL    HW125667   1.874   5.565   3.436
 8256SOL    HW225668   1.821   5.640   3.301
 8257SOL     OW25669   4.886   3.635   3.154
 8257SOL    HW125670   4.931   3.589   3.078
 8257SOL    HW225671   4.802   3.585   3.178
 8258SOL     OW25672   6.866   2.995   1.923
 8258SOL    HW125673   6.877   3.094   1.919
 8258SOL    HW225674   6.823   2.970   2.010
 8259SOL     OW25675   4.615   1.566   4.180
 8259SOL    HW125676   4.559   1.492   4.216
 8259SOL    HW225677   4.561   1.621   4.115
 8260SOL     OW25678   4.286   1.454   1.493
 8260SOL    HW125679   4.377   1.491   1.513
 8260SOL    HW225680   4.281   1.430   1.396
 8261SOL     OW25681   5.910   0.295   3.057
 8261SOL    HW125682   5.887   0.201   3.085
 8261SOL    HW225683   5.994   0.324   3.103
 8262SOL     OW25684   6.511   4.090   2.116
 8262SOL    HW125685   6.481   4.095   2.211
 8262SOL    HW225686   6.576   4.015   2.105
 8263SOL     OW25687   0.172   2.157   6.426
 8263SOL    HW125688   0.191   2.070   6.472
 8263SOL    HW225689   0.258   2.199   6.397
 8264SOL     OW25690   2.471   0.058   2.407
 8264SOL    HW125691   2.422   0.135   2.366
 8264SOL    HW225692   2.408   7.004   2.417
 8265SOL     OW25693   5.276   0.247   0.737
 8265SOL    HW125694   5.218   0.177   0.779
 8265SOL    HW225695   5.365   0.206   0.713
 8266SOL     OW25696   2.525   0.476   3.550
 8266SOL    HW125697   2.555   0.486   3.645
 8266SOL    HW225698   2.581   0.534   3.491
 8267SOL     OW25699   1.361   4.032   3.356
 8267SOL    HW125700   1.412   4.117   3.368
 8267SOL    HW225701   1.279   4.050   3.302
 8268SOL     OW25702   3.155   4.367   6.691
 8268SOL    HW125703   3.066   4.384   6.649
 8268SOL    HW225704   3.159   4.412   6.780
 8269SOL     OW25705   5.418   2.281   3.549
 8269SOL    HW125706   5.362   2.261   3.469
 8269SOL    HW225707   5.456   2.373   3.541
 8270SOL     OW25708   3.470   0.606   5.974
 8270SOL    HW125709   3.490   0.543   6.048
 8270SOL    HW225710   3.390   0.574   5.924
 8271SOL     OW25711   4.033   6.540   5.851
 8271SOL    HW125712   3.958   6.577   5.796
 8271SOL    HW225713   4.102   6.611   5.866
 8272SOL     OW25714   1.093   0.255   1.587
 8272SOL    HW125715   1.084   0.168   1.538
 8272SOL    HW225716   1.144   0.320   1.532
 8273SOL     OW25717   3.080   0.107   6.812
 8273SOL    HW125718   3.153   0.143   6.871
 8273SOL    HW225719   2.991   0.123   6.856
 8274SOL     OW25720   5.367   6.118   6.115
 8274SOL    HW125721   5.396   6.187   6.181
 8274SOL    HW225722   5.281   6.077   6.145
 8275SOL     OW25723   5.362   0.658   3.928
 8275SOL    HW125724   5.301   0.688   4.002
 8275SOL    HW225725   5.311   0.599   3.865
 8276SOL     OW25726   0.426   2.363   6.167
 8276SOL    HW125727   0.348   2.422   6.189
 8276SOL    HW225728   0.510   2.417   6.173
 8277SOL     OW25729   1.059   5.954   6.021
 8277SOL    HW125730   1.031   6.039   6.066
 8277SOL    HW225731   1.156   5.938   6.039
 8278SOL     OW25732   3.716   1.277   0.767
 8278SOL    HW125733   3.785   1.226   0.817
 8278SOL    HW225734   3.675   1.346   0.827
 8279SOL     OW25735   5.063   5.283   5.915
 8279SOL    HW125736   5.015   5.245   5.994
 8279SOL    HW225737   4.999   5.338   5.861
 8280SOL     OW25738   5.091   2.957   0.010
 8280SOL    HW125739   5.162   3.026   7.017
 8280SOL    HW225740   5.047   2.974   0.098
 8281SOL     OW25741   2.556   4.944   6.805
 8281SOL    HW125742   2.610   4.982   6.881
 8281SOL    HW225743   2.494   4.874   6.840
 8282SOL     OW25744   3.269   2.861   0.843
 8282SOL    HW125745   3.296   2.776   0.889
 8282SOL    HW225746   3.192   2.902   0.891
 8283SOL     OW25747   0.496   5.342   2.960
 8283SOL    HW125748   0.466   5.430   2.995
 8283SOL    HW225749   0.420   5.297   2.913
 8284SOL     OW25750   2.309   2.034   2.272
 8284SOL    HW125751   2.344   1.941   2.260
 8284SOL    HW225752   2.257   2.061   2.191
 8285SOL     OW25753   3.274   4.473   6.202
 8285SOL    HW125754   3.364   4.496   6.240
 8285SOL    HW225755   3.236   4.553   6.155
 8286SOL     OW25756   5.588   1.076   5.681
 8286SOL    HW125757   5.615   1.075   5.584
 8286SOL    HW225758   5.669   1.082   5.738
 8287SOL     OW25759   1.939   0.581   3.058
 8287SOL    HW125760   1.900   0.655   3.112
 8287SOL    HW225761   2.010   0.617   2.998
 8288SOL     OW25762   1.525   1.270   3.091
 8288SOL    HW125763   1.616   1.297   3.061
 8288SOL    HW225764   1.456   1.317   3.035
 8289SOL     OW25765   6.399   1.886   5.958
 8289SOL    HW125766   6.339   1.851   5.886
 8289SOL    HW225767   6.477   1.932   5.916
 8290SOL     OW25768   4.205   2.374   1.874
 8290SOL    HW125769   4.126   2.360   1.815
 8290SOL    HW225770   4.269   2.436   1.830
 8291SOL     OW25771   4.993   5.021   6.222
 8291SOL    HW125772   5.062   5.093   6.225
 8291SOL    HW225773   4.902   5.061   6.229
 8292SOL     OW25774   0.947   3.973   4.304
 8292SOL    HW125775   0.857   3.932   4.321
 8292SOL    HW225776   0.994   3.988   4.391
 8293SOL     OW25777   3.027   5.253   3.825
 8293SOL    HW125778   3.046   5.223   3.731
 8293SOL    HW225779   3.053   5.181   3.889
 8294SOL     OW25780   5.461   3.600   5.877
 8294SOL    HW125781   5.415   3.538   5.813
 8294SOL    HW225782   5.558   3.605   5.855
 8295SOL     OW25783   5.175   4.174   2.175
 8295SOL    HW125784   5.222   4.246   2.226
 8295SOL    HW225785   5.210   4.084   2.203
 8296SOL     OW25786   4.031   6.537   1.870
 8296SOL    HW125787   3.992   6.525   1.779
 8296SOL    HW225788   4.115   6.482   1.878
 8297SOL     OW25789   5.821   4.395   2.889
 8297SOL    HW125790   5.808   4.439   2.977
 8297SOL    HW225791   5.785   4.302   2.892
 8298SOL     OW25792   6.425   0.421   5.878
 8298SOL    HW125793   6.382   0.484   5.943
 8298SOL    HW225794   6.356   0.390   5.812
 8299SOL     OW25795   1.067   3.583   1.298
 8299SOL    HW125796   1.112   3.645   1.233
 8299SOL    HW225797   0.968   3.588   1.285
 8300SOL     OW25798   5.804   4.920   2.811
 8300SOL    HW125799   5.880   4.876   2.859
 8300SOL    HW225800   5.718   4.880   2.843
 8301SOL     OW25801   4.475   6.405   0.502
 8301SOL    HW125802   4.418   6.355   0.436
 8301SOL    HW225803   4.490   6.498   0.468
 8302SOL     OW25804   3.916   6.674   5.463
 8302SOL    HW125805   3.950   6.720   5.381
 8302SOL    HW225806   3.818   6.694   5.474
 8303SOL     OW25807   0.201   6.005   2.837
 8303SOL    HW125808   0.220   6.035   2.931
 8303SOL    HW225809   0.194   6.085   2.778
 8304SOL     OW25810   5.185   3.773   3.572
 8304SOL    HW125811   5.207   3.819   3.486
 8304SOL    HW225812   5.268   3.766   3.628
 8305SOL     OW25813   4.908   6.036   4.593
 8305SOL    HW125814   4.864   6.118   4.556
 8305SOL    HW225815   4.947   5.982   4.518
 8306SOL     OW25816   6.872   0.849   2.462
 8306SOL    HW125817   6.965   0.875   2.437
 8306SOL    HW225818   6.810   0.871   2.387
 8307SOL     OW25819   1.634   3.982   3.043
 8307SOL    HW125820   1.561   3.963   3.108
 8307SOL    HW225821   1.715   3.928   3.067
 8308SOL     OW25822   1.214   5.514   0.874
 8308SOL    HW125823   1.251   5.426   0.843
 8308SOL    HW225824   1.185   5.506   0.970
 8309SOL     OW25825   5.930   4.249   4.407
 8309SOL    HW125826   5.862   4.183   4.440
 8309SOL    HW225827   6.015   4.237   4.457
 8310SOL     OW25828   1.136   6.833   0.563
 8310SOL    HW125829   1.196   6.807   0.639
 8310SOL    HW225830   1.186   6.821   0.477
 8311SOL     OW25831   5.875   0.036   3.137
 8311SOL    HW125832   5.878   0.039   3.237
 8311SOL    HW225833   5.817   6.984   3.107
 8312SOL     OW25834   5.538   1.583   7.023
 8312SOL    HW125835   5.504   1.677   7.017
 8312SOL    HW225836   5.580   1.569   0.089
 8313SOL     OW25837   4.853   2.081   4.928
 8313SOL    HW125838   4.786   2.122   4.989
 8313SOL    HW225839   4.945   2.112   4.953
 8314SOL     OW25840   5.026   6.164   5.195
 8314SOL    HW125841   4.972   6.229   5.248
 8314SOL    HW225842   4.964   6.106   5.141
 8315SOL     OW25843   3.588   3.693   4.945
 8315SOL    HW125844   3.571   3.760   5.017
 8315SOL    HW225845   3.615   3.740   4.861
 8316SOL     OW25846   2.164   2.707   6.355
 8316SOL    HW125847   2.081   2.660   6.384
 8316SOL    HW225848   2.238   2.688   6.420
 8317SOL     OW25849   1.973   1.066   3.570
 8317SOL    HW125850   1.878   1.043   3.592
 8317SOL    HW225851   2.025   0.982   3.556
 8318SOL     OW25852   3.949   0.094   6.921
 8318SOL    HW125853   3.892   0.171   6.894
 8318SOL    HW225854   4.040   0.127   6.946
 8319SOL     OW25855   1.647   6.627   6.623
 8319SOL    HW125856   1.650   6.678   6.536
 8319SOL    HW225857   1.737   6.632   6.667
 8320SOL     OW25858   2.897   3.546   4.679
 8320SOL    HW125859   2.871   3.584   4.590
 8320SOL    HW225860   2.899   3.620   4.747
 8321SOL     OW25861   6.724   6.721   1.114
 8321SOL    HW125862   6.643   6.668   1.140
 8321SOL    HW225863   6.780   6.666   1.051
 8322SOL     OW25864   1.064   6.886   6.538
 8322SOL    HW125865   1.111   6.940   6.608
 8322SOL    HW225866   1.062   6.937   6.453
 8323SOL     OW25867   5.335   4.006   0.661
 8323SOL    HW125868   5.386   3.956   0.731
 8323SOL    HW225869   5.308   4.095   0.696
 8324SOL     OW25870   4.713   6.071   6.402
 8324SOL    HW125871   4.668   6.039   6.486
 8324SOL    HW225872   4.812   6.072   6.416
 8325SOL     OW25873   1.284   5.716   5.949
 8325SOL    HW125874   1.187   5.690   5.942
 8325SOL    HW225875   1.340   5.637   5.926
 8326SOL     OW25876   2.003   3.827   1.716
 8326SOL    HW125877   2.017   3.894   1.788
 8326SOL    HW225878   1.930   3.858   1.654
 8327SOL     OW25879   0.743   6.809   4.646
 8327SOL    HW125880   0.747   6.906   4.623
 8327SOL    HW225881   0.650   6.785   4.673
 8328SOL     OW25882   1.684   6.836   6.962
 8328SOL    HW125883   1.601   6.804   6.916
 8328SOL    HW225884   1.714   6.923   6.923
 8329SOL     OW25885   1.568   2.760   5.245
 8329SOL    HW125886   1.517   2.836   5.286
 8329SOL    HW225887   1.624   2.716   5.314
 8330SOL     OW25888   3.407   1.303   5.999
 8330SOL    HW125889   3.374   1.210   5.990
 8330SOL    HW225890   3.334   1.362   6.034
 8331SOL     OW25891   1.706   2.538   6.630
 8331SOL    HW125892   1.644   2.584   6.567
 8331SOL    HW225893   1.653   2.493   6.702
 8332SOL     OW25894   5.923   5.559   1.695
 8332SOL    HW125895   5.902   5.602   1.607
 8332SOL    HW225896   5.893   5.464   1.693
 8333SOL     OW25897   2.507   4.840   1.509
 8333SOL    HW125898   2.459   4.869   1.592
 8333SOL    HW225899   2.560   4.758   1.528
 8334SOL     OW25900   3.891   2.289   6.102
 8334SOL    HW125901   3.843   2.321   6.183
 8334SOL    HW225902   3.908   2.191   6.110
 8335SOL     OW25903   4.980   3.687   6.263
 8335SOL    HW125904   4.930   3.773   6.252
 8335SOL    HW225905   4.916   3.611   6.267
 8336SOL     OW25906   1.146   3.884   3.595
 8336SOL    HW125907   1.175   3.934   3.513
 8336SOL    HW225908   1.216   3.895   3.666
 8337SOL     OW25909   1.231   1.357   4.594
 8337SOL    HW125910   1.183   1.433   4.550
 8337SOL    HW225911   1.282   1.391   4.673
 8338SOL     OW25912   4.645   5.512   2.607
 8338SOL    HW125913   4.545   5.517   2.610
 8338SOL    HW225914   4.682   5.598   2.573
 8339SOL     OW25915   6.205   6.963   0.615
 8339SOL    HW125916   6.247   0.023   0.579
 8339SOL    HW225917   6.266   6.922   0.683
 8340SOL     OW25918   6.095   2.514   0.320
 8340SOL    HW125919   6.028   2.572   0.272
 8340SOL    HW225920   6.127   2.443   0.258
 8341SOL     OW25921   3.303   1.091   0.544
 8341SOL    HW125922   3.297   0.992   0.530
 8341SOL    HW225923   3.307   1.137   0.455
 8342SOL     OW25924   5.095   0.379   0.197
 8342SOL    HW125925   5.026   0.310   0.173
 8342SOL    HW225926   5.057   0.442   0.265
 8343SOL     OW25927   6.088   3.873   3.532
 8343SOL    HW125928   6.058   3.797   3.589
 8343SOL    HW225929   6.014   3.903   3.473
 8344SOL     OW25930   1.255   4.900   5.231
 8344SOL    HW125931   1.180   4.957   5.197
 8344SOL    HW225932   1.343   4.941   5.205
 8345SOL     OW25933   4.334   0.746   3.473
 8345SOL    HW125934   4.258   0.731   3.409
 8345SOL    HW225935   4.322   0.834   3.518
 8346SOL     OW25936   5.399   3.074   5.047
 8346SOL    HW125937   5.424   3.002   5.112
 8346SOL    HW225938   5.300   3.079   5.039
 8347SOL     OW25939   2.748   0.027   6.422
 8347SOL    HW125940   2.832   0.042   6.474
 8347SOL    HW225941   2.708   0.115   6.396
 8348SOL     OW25942   3.594   6.433   2.054
 8348SOL    HW125943   3.598   6.347   2.003
 8348SOL    HW225944   3.663   6.433   2.126
 8349SOL     OW25945   0.939   6.269   1.931
 8349SOL    HW125946   0.863   6.204   1.924
 8349SOL    HW225947   1.023   6.223   1.903
 8350SOL     OW25948   2.546   0.285   0.508
 8350SOL    HW125949   2.517   0.381   0.505
 8350SOL    HW225950   2.638   0.280   0.547
 8351SOL     OW25951   6.405   3.779   2.635
 8351SOL    HW125952   6.440   3.856   2.688
 8351SOL    HW225953   6.478   3.714   2.617
 8352SOL     OW25954   2.374   5.770   1.335
 8352SOL    HW125955   2.423   5.857   1.326
 8352SOL    HW225956   2.367   5.726   1.245
 8353SOL     OW25957   1.276   4.275   1.961
 8353SOL    HW125958   1.264   4.230   2.049
 8353SOL    HW225959   1.239   4.218   1.888
 8354SOL     OW25960   3.033   0.186   3.339
 8354SOL    HW125961   2.963   0.249   3.372
 8354SOL    HW225962   3.078   0.225   3.258
 8355SOL     OW25963   2.079   5.848   5.943
 8355SOL    HW125964   2.123   5.767   5.981
 8355SOL    HW225965   2.000   5.873   6.000
 8356SOL     OW25966   1.789   5.527   1.128
 8356SOL    HW125967   1.857   5.582   1.079
 8356SOL    HW225968   1.747   5.583   1.199
 8357SOL     OW25969   4.128   6.290   5.961
 8357SOL    HW125970   4.198   6.244   5.906
 8357SOL    HW225971   4.096   6.372   5.913
 8358SOL     OW25972   0.803   2.075   5.080
 8358SOL    HW125973   0.735   2.011   5.117
 8358SOL    HW225974   0.807   2.065   4.981
 8359SOL     OW25975   2.899   2.274   5.592
 8359SOL    HW125976   2.947   2.256   5.679
 8359SOL    HW225977   2.954   2.239   5.516
 8360SOL     OW25978   5.039   0.373   0.990
 8360SOL    HW125979   5.078   0.359   1.081
 8360SOL    HW225980   4.973   0.300   0.971
 8361SOL     OW25981   3.462   0.528   0.054
 8361SOL    HW125982   3.498   0.620   0.070
 8361SOL    HW225983   3.496   0.467   0.126
 8362SOL     OW25984   7.020   3.918   1.824
 8362SOL    HW125985   0.017   3.828   1.786
 8362SOL    HW225986   0.076   3.977   1.813
 8363SOL     OW25987   2.653   2.877   6.672
 8363SOL    HW125988   2.631   2.890   6.769
 8363SOL    HW225989   2.738   2.924   6.651
 8364SOL     OW25990   6.595   3.030   4.640
 8364SOL    HW125991   6.649   3.000   4.561
 8364SOL    HW225992   6.499   3.039   4.613
 8365SOL     OW25993   1.813   2.646   2.585
 8365SOL    HW125994   1.782   2.733   2.548
 8365SOL    HW225995   1.814   2.650   2.685
 8366SOL     OW25996   5.007   5.552   1.859
 8366SOL    HW125997   5.050   5.485   1.799
 8366SOL    HW225998   5.031   5.533   1.954
 8367SOL     OW25999   4.004   4.860   4.333
 8367SOL    HW126000   3.906   4.864   4.351
 8367SOL    HW226001   4.046   4.791   4.392
 8368SOL     OW26002   6.811   6.783   0.516
 8368SOL    HW126003   6.752   6.735   0.581
 8368SOL    HW226004   6.786   6.756   0.423
 8369SOL     OW26005   2.381   0.488   0.208
 8369SOL    HW126006   2.309   0.548   0.244
 8369SOL    HW226007   2.469   0.512   0.249
 8370SOL     OW26008   2.860   3.034   0.747
 8370SOL    HW126009   2.773   3.014   0.702
 8370SOL    HW226010   2.924   3.074   0.680
 8371SOL     OW26011   1.687   4.786   6.294
 8371SOL    HW126012   1.747   4.812   6.218
 8371SOL    HW226013   1.724   4.822   6.380
 8372SOL     OW26014   2.446   5.407   2.401
 8372SOL    HW126015   2.535   5.443   2.429
 8372SOL    HW226016   2.411   5.460   2.324
 8373SOL     OW26017   0.067   1.018   4.695
 8373SOL    HW126018   0.159   1.027   4.734
 8373SOL    HW226019   0.025   1.108   4.690
 8374SOL     OW26020   1.607   0.353   4.365
 8374SOL    HW126021   1.580   0.334   4.270
 8374SOL    HW226022   1.621   0.452   4.376
 8375SOL     OW26023   4.042   1.489   4.362
 8375SOL    HW126024   4.021   1.551   4.437
 8375SOL    HW226025   4.017   1.531   4.275
 8376SOL     OW26026   2.246   0.918   3.196
 8376SOL    HW126027   2.152   0.949   3.181
 8376SOL    HW226028   2.245   0.842   3.262
 8377SOL     OW26029   4.745   5.757   6.782
 8377SOL    HW126030   4.840   5.758   6.750
 8377SOL    HW226031   4.696   5.836   6.743
 8378SOL     OW26032   5.865   5.885   3.599
 8378SOL    HW126033   5.819   5.803   3.564
 8378SOL    HW226034   5.956   5.892   3.558
 8379SOL     OW26035   6.073   1.181   2.104
 8379SOL    HW126036   6.129   1.256   2.140
 8379SOL    HW226037   5.982   1.185   2.145
 8380SOL     OW26038   6.239   5.643   0.419
 8380SOL    HW126039   6.205   5.619   0.510
 8380SOL    HW226040   6.326   5.691   0.427
 8381SOL     OW26041   0.043   1.830   2.058
 8381SOL    HW126042   0.047   1.930   2.057
 8381SOL    HW226043   0.010   1.797   1.969
 8382SOL     OW26044   2.611   0.595   0.637
 8382SOL    HW126045   2.545   0.619   0.708
 8382SOL    HW226046   2.703   0.589   0.677
 8383SOL     OW26047   2.705   6.074   6.245
 8383SOL    HW126048   2.757   6.108   6.168
 8383SOL    HW226049   2.765   6.064   6.325
 8384SOL     OW26050   1.083   2.781   0.594
 8384SOL    HW126051   1.149   2.813   0.662
 8384SOL    HW226052   1.119   2.700   0.547
 8385SOL     OW26053   3.608   4.064   1.152
 8385SOL    HW126054   3.704   4.057   1.179
 8385SOL    HW226055   3.592   4.152   1.107
 8386SOL     OW26056   2.063   5.660   1.475
 8386SOL    HW126057   2.059   5.597   1.552
 8386SOL    HW226058   2.135   5.727   1.491
 8387SOL     OW26059   1.456   1.267   2.408
 8387SOL    HW126060   1.411   1.199   2.466
 8387SOL    HW226061   1.514   1.220   2.341
 8388SOL     OW26062   3.471   0.043   1.403
 8388SOL    HW126063   3.403   0.114   1.380
 8388SOL    HW226064   3.506   0.061   1.495
 8389SOL     OW26065   1.026   2.636   4.251
 8389SOL    HW126066   0.962   2.632   4.327
 8389SOL    HW226067   1.053   2.544   4.225
 8390SOL     OW26068   2.381   0.750   5.809
 8390SOL    HW126069   2.467   0.748   5.757
 8390SOL    HW226070   2.398   0.723   5.903
 8391SOL     OW26071   5.179   5.851   1.645
 8391SOL    HW126072   5.210   5.767   1.599
 8391SOL    HW226073   5.096   5.831   1.698
 8392SOL     OW26074   5.638   6.022   5.288
 8392SOL    HW126075   5.725   5.991   5.324
 8392SOL    HW226076   5.641   6.020   5.188
 8393SOL     OW26077   0.317   6.082   3.072
 8393SOL    HW126078   0.312   6.170   3.118
 8393SOL    HW226079   0.343   6.011   3.138
 8394SOL     OW26080   0.632   1.949   2.968
 8394SOL    HW126081   0.713   1.891   2.980
 8394SOL    HW226082   0.609   1.994   3.054
 8395SOL     OW26083   6.754   5.852   5.264
 8395SOL    HW126084   6.769   5.886   5.357
 8395SOL    HW226085   6.656   5.845   5.246
 8396SOL     OW26086   4.812   3.842   2.498
 8396SOL    HW126087   4.790   3.757   2.450
 8396SOL    HW226088   4.888   3.888   2.453
 8397SOL     OW26089   2.013   6.195   2.741
 8397SOL    HW126090   1.937   6.204   2.677
 8397SOL    HW226091   2.018   6.101   2.774
 8398SOL     OW26092   4.387   1.311   0.358
 8398SOL    HW126093   4.348   1.268   0.277
 8398SOL    HW226094   4.442   1.390   0.331
 8399SOL     OW26095   5.702   6.353   0.293
 8399SOL    HW126096   5.769   6.370   0.221
 8399SOL    HW226097   5.689   6.437   0.346
 8400SOL     OW26098   0.253   0.241   2.687
 8400SOL    HW126099   0.169   0.189   2.699
 8400SOL    HW226100   0.300   0.210   2.604
 8401SOL     OW26101   3.735   4.466   6.440
 8401SOL    HW126102   3.658   4.444   6.379
 8401SOL    HW226103   3.752   4.564   6.437
 8402SOL     OW26104   4.490   1.732   6.871
 8402SOL    HW126105   4.488   1.703   6.776
 8402SOL    HW226106   4.553   1.674   6.923
 8403SOL     OW26107   1.365   1.409   4.814
 8403SOL    HW126108   1.409   1.432   4.901
 8403SOL    HW226109   1.386   1.314   4.790
 8404SOL     OW26110   4.603   5.600   5.694
 8404SOL    HW126111   4.666   5.668   5.731
 8404SOL    HW226112   4.647   5.510   5.694
 8405SOL     OW26113   0.405   2.108   5.839
 8405SOL    HW126114   0.486   2.166   5.828
 8405SOL    HW226115   0.425   2.016   5.807
 8406SOL     OW26116   5.484   2.150   1.725
 8406SOL    HW126117   5.390   2.168   1.754
 8406SOL    HW226118   5.538   2.120   1.804
 8407SOL     OW26119   4.873   3.939   3.369
 8407SOL    HW126120   4.897   3.916   3.275
 8407SOL    HW226121   4.896   3.863   3.429
 8408SOL     OW26122   4.641   2.248   4.098
 8408SOL    HW126123   4.546   2.266   4.073
 8408SOL    HW226124   4.702   2.302   4.040
 8409SOL     OW26125   1.025   1.592   4.070
 8409SOL    HW126126   0.951   1.539   4.030
 8409SOL    HW226127   1.050   1.553   4.159
 8410SOL     OW26128   4.223   6.779   1.488
 8410SOL    HW126129   4.171   6.736   1.415
 8410SOL    HW226130   4.160   6.817   1.556
 8411SOL     OW26131   1.793   4.103   4.331
 8411SOL    HW126132   1.888   4.090   4.360
 8411SOL    HW226133   1.738   4.130   4.410
 8412SOL     OW26134   5.018   2.759   3.055
 8412SOL    HW126135   4.959   2.722   3.126
 8412SOL    HW226136   5.101   2.796   3.096
 8413SOL     OW26137   3.666   4.705   0.746
 8413SOL    HW126138   3.624   4.726   0.834
 8413SOL    HW226139   3.760   4.739   0.746
 8414SOL     OW26140   4.058   6.551   3.204
 8414SOL    HW126141   3.963   6.552   3.172
 8414SOL    HW226142   4.108   6.625   3.160
 8415SOL     OW26143   6.398   4.158   3.170
 8415SOL    HW126144   6.317   4.182   3.117
 8415SOL    HW226145   6.371   4.107   3.251
 8416SOL     OW26146   5.312   3.751   2.394
 8416SOL    HW126147   5.257   3.684   2.444
 8416SOL    HW226148   5.406   3.749   2.428
 8417SOL     OW26149   2.226   6.003   6.140
 8417SOL    HW126150   2.172   5.975   6.060
 8417SOL    HW226151   2.216   5.935   6.213
 8418SOL     OW26152   6.863   5.635   2.800
 8418SOL    HW126153   6.865   5.553   2.743
 8418SOL    HW226154   6.938   5.696   2.774
 8419SOL     OW26155   4.209   0.668   3.052
 8419SOL    HW126156   4.238   0.584   3.006
 8419SOL    HW226157   4.285   0.702   3.109
 8420SOL     OW26158   3.650   0.535   5.778
 8420SOL    HW126159   3.593   0.559   5.857
 8420SOL    HW226160   3.592   0.513   5.700
 8421SOL     OW26161   1.921   6.573   2.125
 8421SOL    HW126162   1.925   6.670   2.102
 8421SOL    HW226163   1.916   6.562   2.224
 8422SOL     OW26164   4.554   6.831   0.890
 8422SOL    HW126165   4.635   6.840   0.947
 8422SOL    HW226166   4.485   6.897   0.920
 8423SOL     OW26167   3.481   4.360   0.776
 8423SOL    HW126168   3.407   4.298   0.749
 8423SOL    HW226169   3.567   4.310   0.781
 8424SOL     OW26170   3.468   1.647   3.221
 8424SOL    HW126171   3.533   1.696   3.279
 8424SOL    HW226172   3.401   1.711   3.183
 8425SOL     OW26173   6.288   5.162   0.969
 8425SOL    HW126174   6.221   5.142   1.040
 8425SOL    HW226175   6.246   5.150   0.879
 8426SOL     OW26176   3.771   3.576   3.227
 8426SOL    HW126177   3.711   3.545   3.301
 8426SOL    HW226178   3.817   3.660   3.255
 8427SOL     OW26179   2.166   3.960   6.363
 8427SOL    HW126180   2.197   4.045   6.405
 8427SOL    HW226181   2.202   3.953   6.269
 8428SOL     OW26182   0.307   3.990   2.066
 8428SOL    HW126183   0.318   4.038   2.153
 8428SOL    HW226184   0.258   3.904   2.080
 8429SOL     OW26185   1.860   5.969   3.502
 8429SOL    HW126186   1.843   6.026   3.582
 8429SOL    HW226187   1.794   5.991   3.431
 8430SOL     OW26188   4.244   4.645   2.630
 8430SOL    HW126189   4.170   4.647   2.697
 8430SOL    HW226190   4.313   4.578   2.659
 8431SOL     OW26191   3.054   4.861   1.481
 8431SOL    HW126192   3.130   4.833   1.539
 8431SOL    HW226193   3.082   4.861   1.385
 8432SOL     OW26194   3.892   6.563   6.418
 8432SOL    HW126195   3.951   6.487   6.390
 8432SOL    HW226196   3.810   6.565   6.362
 8433SOL     OW26197   1.490   2.461   6.079
 8433SOL    HW126198   1.453   2.487   5.990
 8433SOL    HW226199   1.554   2.385   6.068
 8434SOL     OW26200   4.833   6.139   5.573
 8434SOL    HW126201   4.745   6.157   5.617
 8434SOL    HW226202   4.836   6.042   5.546
 8435SOL     OW26203   4.305   2.141   1.779
 8435SOL    HW126204   4.249   2.219   1.805
 8435SOL    HW226205   4.305   2.074   1.854
 8436SOL     OW26206   4.391   4.500   1.741
 8436SOL    HW126207   4.348   4.416   1.776
 8436SOL    HW226208   4.474   4.519   1.795
 8437SOL     OW26209   1.118   1.910   0.659
 8437SOL    HW126210   1.141   1.818   0.626
 8437SOL    HW226211   1.195   1.972   0.640
 8438SOL     OW26212   1.610   4.873   2.593
 8438SOL    HW126213   1.710   4.885   2.588
 8438SOL    HW226214   1.583   4.800   2.529
 8439SOL     OW26215   6.762   5.473   2.442
 8439SOL    HW126216   6.691   5.543   2.448
 8439SOL    HW226217   6.807   5.463   2.530
 8440SOL     OW26218   0.847   1.076   1.783
 8440SOL    HW126219   0.920   1.136   1.814
 8440SOL    HW226220   0.781   1.128   1.729
 8441SOL     OW26221   4.727   5.736   6.100
 8441SOL    HW126222   4.797   5.665   6.090
 8441SOL    HW226223   4.656   5.703   6.164
 8442SOL     OW26224   2.136   4.655   6.667
 8442SOL    HW126225   2.117   4.741   6.620
 8442SOL    HW226226   2.058   4.631   6.725
 8443SOL     OW26227   1.820   0.283   2.913
 8443SOL    HW126228   1.732   0.253   2.951
 8443SOL    HW226229   1.887   0.289   2.987
 8444SOL     OW26230   3.773   6.483   3.453
 8444SOL    HW126231   3.719   6.399   3.465
 8444SOL    HW226232   3.763   6.541   3.534
 8445SOL     OW26233   3.825   4.907   2.778
 8445SOL    HW126234   3.903   4.936   2.833
 8445SOL    HW226235   3.829   4.951   2.688
 8446SOL     OW26236   5.439   4.720   2.572
 8446SOL    HW126237   5.480   4.766   2.650
 8446SOL    HW226238   5.508   4.705   2.502
 8447SOL     OW26239   4.913   1.991   1.964
 8447SOL    HW126240   4.926   2.058   2.037
 8447SOL    HW226241   4.875   2.036   1.884
 8448SOL     OW26242   0.222   3.675   6.725
 8448SOL    HW126243   0.246   3.682   6.628
 8448SOL    HW226244   0.295   3.627   6.774
 8449SOL     OW26245   1.069   2.857   4.694
 8449SOL    HW126246   0.971   2.835   4.696
 8449SOL    HW226247   1.090   2.925   4.764
 8450SOL     OW26248   2.407   6.088   2.761
 8450SOL    HW126249   2.477   6.019   2.775
 8450SOL    HW226250   2.349   6.095   2.842
 8451SOL     OW26251   3.938   2.982   1.404
 8451SOL    HW126252   3.850   2.972   1.358
 8451SOL    HW226253   3.926   2.970   1.502
 8452SOL     OW26254   6.839   0.361   1.014
 8452SOL    HW126255   6.928   0.405   1.003
 8452SOL    HW226256   6.836   0.313   1.101
 8453SOL     OW26257   6.349   4.010   5.982
 8453SOL    HW126258   6.253   4.036   5.998
 8453SOL    HW226259   6.375   3.940   6.048
 8454SOL     OW26260   1.692   0.024   3.864
 8454SOL    HW126261   1.646   0.046   3.950
 8454SOL    HW226262   1.625   0.024   3.789
 8455SOL     OW26263   4.617   1.727   1.198
 8455SOL    HW126264   4.520   1.746   1.182
 8455SOL    HW226265   4.647   1.654   1.137
 8456SOL     OW26266   5.456   5.428   3.350
 8456SOL    HW126267   5.455   5.444   3.448
 8456SOL    HW226268   5.474   5.331   3.332
 8457SOL     OW26269   0.107   6.637   5.936
 8457SOL    HW126270   0.169   6.673   5.867
 8457SOL    HW226271   0.026   6.696   5.943
 8458SOL     OW26272   1.919   1.946   0.402
 8458SOL    HW126273   2.011   1.910   0.386
 8458SOL    HW226274   1.893   1.931   0.497
 8459SOL     OW26275   3.583   5.590   2.458
 8459SOL    HW126276   3.521   5.658   2.419
 8459SOL    HW226277   3.548   5.560   2.547
 8460SOL     OW26278   4.574   1.856   0.362
 8460SOL    HW126279   4.631   1.850   0.444
 8460SOL    HW226280   4.506   1.928   0.373
 8461SOL     OW26281   7.006   3.788   1.337
 8461SOL    HW126282   6.940   3.798   1.262
 8461SOL    HW226283   7.011   3.875   1.388
 8462SOL     OW26284   3.544   4.229   6.299
 8462SOL    HW126285   3.547   4.305   6.234
 8462SOL    HW226286   3.492   4.256   6.380
 8463SOL     OW26287   0.150   1.827   6.973
 8463SOL    HW126288   0.083   1.800   6.905
 8463SOL    HW226289   0.121   1.911   7.018
 8464SOL     OW26290   0.405   2.963   0.058
 8464SOL    HW126291   0.348   3.044   0.047
 8464SOL    HW226292   0.362   2.886   0.010
 8465SOL     OW26293   4.017   2.972   1.080
 8465SOL    HW126294   4.005   2.950   1.177
 8465SOL    HW226295   4.066   2.897   1.035
 8466SOL     OW26296   5.503   0.549   5.145
 8466SOL    HW126297   5.469   0.633   5.104
 8466SOL    HW226298   5.482   0.549   5.243
 8467SOL     OW26299   3.217   1.262   0.908
 8467SOL    HW126300   3.143   1.219   0.856
 8467SOL    HW226301   3.305   1.232   0.870
 8468SOL     OW26302   6.187   3.502   6.911
 8468SOL    HW126303   6.242   3.518   6.993
 8468SOL    HW226304   6.247   3.495   6.832
 8469SOL     OW26305   3.579   2.460   5.559
 8469SOL    HW126306   3.508   2.531   5.567
 8469SOL    HW226307   3.558   2.386   5.623
 8470SOL     OW26308   0.978   4.787   1.110
 8470SOL    HW126309   0.980   4.852   1.034
 8470SOL    HW226310   0.993   4.835   1.196
 8471SOL     OW26311   3.301   1.318   5.340
 8471SOL    HW126312   3.329   1.229   5.376
 8471SOL    HW226313   3.382   1.369   5.309
 8472SOL     OW26314   5.677   1.209   6.248
 8472SOL    HW126315   5.692   1.307   6.264
 8472SOL    HW226316   5.643   1.196   6.155
 8473SOL     OW26317   5.062   4.463   6.679
 8473SOL    HW126318   5.138   4.400   6.662
 8473SOL    HW226319   5.098   4.555   6.694
 8474SOL     OW26320   2.998   3.751   2.185
 8474SOL    HW126321   3.021   3.837   2.140
 8474SOL    HW226322   3.057   3.678   2.149
 8475SOL     OW26323   6.720   3.241   1.680
 8475SOL    HW126324   6.630   3.202   1.699
 8475SOL    HW226325   6.716   3.340   1.690
 8476SOL     OW26326   6.281   0.218   1.694
 8476SOL    HW126327   6.192   0.250   1.726
 8476SOL    HW226328   6.306   0.135   1.744
 8477SOL     OW26329   5.495   6.637   1.332
 8477SOL    HW126330   5.591   6.658   1.312
 8477SOL    HW226331   5.438   6.716   1.309
 8478SOL     OW26332   0.299   6.993   5.223
 8478SOL    HW126333   0.318   6.924   5.152
 8478SOL    HW226334   0.385   0.012   5.252
 8479SOL     OW26335   1.491   2.369   1.444
 8479SOL    HW126336   1.588   2.359   1.465
 8479SOL    HW226337   1.436   2.328   1.517
 8480SOL     OW26338   4.799   3.710   0.094
 8480SOL    HW126339   4.749   3.630   0.059
 8480SOL    HW226340   4.765   3.733   0.185
 8481SOL     OW26341   3.943   2.199   4.025
 8481SOL    HW126342   4.019   2.226   3.965
 8481SOL    HW226343   3.975   2.196   4.120
 8482SOL     OW26344   4.556   0.908   0.148
 8482SOL    HW126345   4.461   0.914   0.178
 8482SOL    HW226346   4.571   0.821   0.100
 8483SOL     OW26347   3.253   5.997   3.600
 8483SOL    HW126348   3.330   5.951   3.644
 8483SOL    HW226349   3.202   6.050   3.667
 8484SOL     OW26350   6.463   5.790   4.636
 8484SOL    HW126351   6.484   5.696   4.611
 8484SOL    HW226352   6.548   5.838   4.660
 8485SOL     OW26353   3.360   2.335   6.890
 8485SOL    HW126354   3.322   2.269   6.954
 8485SOL    HW226355   3.387   2.418   6.940
 8486SOL     OW26356   1.323   1.112   2.568
 8486SOL    HW126357   1.316   1.071   2.658
 8486SOL    HW226358   1.276   1.201   2.568
 8487SOL     OW26359   5.497   1.924   5.797
 8487SOL    HW126360   5.516   1.835   5.754
 8487SOL    HW226361   5.584   1.968   5.821
 8488SOL     OW26362   5.165   5.882   2.203
 8488SOL    HW126363   5.141   5.959   2.263
 8488SOL    HW226364   5.245   5.834   2.241
 8489SOL     OW26365   5.476   1.006   1.473
 8489SOL    HW126366   5.388   0.989   1.519
 8489SOL    HW226367   5.509   0.921   1.433
 8490SOL     OW26368   2.297   6.857   0.026
 8490SOL    HW126369   2.369   6.793   0.055
 8490SOL    HW226370   2.282   6.924   0.098
 8491SOL     OW26371   2.897   6.161   2.353
 8491SOL    HW126372   2.910   6.260   2.344
 8491SOL    HW226373   2.924   6.115   2.268
 8492SOL     OW26374   5.926   4.139   4.698
 8492SOL    HW126375   6.000   4.205   4.685
 8492SOL    HW226376   5.937   4.093   4.785
 8493SOL     OW26377   3.610   1.111   0.337
 8493SOL    HW126378   3.676   1.142   0.406
 8493SOL    HW226379   3.526   1.165   0.346
 8494SOL     OW26380   5.823   5.144   2.004
 8494SOL    HW126381   5.819   5.102   1.914
 8494SOL    HW226382   5.759   5.221   2.009
 8495SOL     OW26383   6.721   5.973   0.492
 8495SOL    HW126384   6.744   6.000   0.399
 8495SOL    HW226385   6.621   5.969   0.502
 8496SOL     OW26386   4.966   1.509   2.041
 8496SOL    HW126387   4.970   1.411   2.027
 8496SOL    HW226388   5.037   1.554   1.987
 8497SOL     OW26389   6.741   1.003   3.930
 8497SOL    HW126390   6.822   1.035   3.980
 8497SOL    HW226391   6.682   0.952   3.992
 8498SOL     OW26392   4.709   6.878   4.421
 8498SOL    HW126393   4.685   6.885   4.325
 8498SOL    HW226394   4.685   6.787   4.455
 8499SOL     OW26395   6.926   5.886   6.974
 8499SOL    HW126396   6.946   5.980   6.944
 8499SOL    HW226397   6.965   5.821   6.909
 8500SOL     OW26398   1.732   0.573   6.010
 8500SOL    HW126399   1.644   0.618   6.027
 8500SOL    HW226400   1.756   0.517   6.089
 8501SOL     OW26401   0.878   1.204   0.446
 8501SOL    HW126402   0.918   1.296   0.440
 8501SOL    HW226403   0.783   1.207   0.414
 8502SOL     OW26404   0.601   2.831   6.656
 8502SOL    HW126405   0.605   2.878   6.745
 8502SOL    HW226406   0.630   2.894   6.584
 8503SOL     OW26407   6.305   6.108   4.213
 8503SOL    HW126408   6.348   6.021   4.236
 8503SOL    HW226409   6.274   6.107   4.118
 8504SOL     OW26410   2.498   5.130   2.467
 8504SOL    HW126411   2.539   5.098   2.381
 8504SOL    HW226412   2.470   5.225   2.457
 8505SOL     OW26413   5.162   3.321   2.632
 8505SOL    HW126414   5.198   3.239   2.588
 8505SOL    HW226415   5.214   3.401   2.603
 8506SOL     OW26416   2.458   0.361   6.994
 8506SOL    HW126417   2.443   0.385   0.066
 8506SOL    HW226418   2.534   0.414   6.957
 8507SOL     OW26419   4.884   6.658   5.719
 8507SOL    HW126420   4.791   6.677   5.751
 8507SOL    HW226421   4.882   6.642   5.620
 8508SOL     OW26422   4.481   1.599   0.347
 8508SOL    HW126423   4.447   1.569   0.258
 8508SOL    HW226424   4.491   1.698   0.346
 8509SOL     OW26425   6.024   0.391   3.474
 8509SOL    HW126426   6.042   0.375   3.376
 8509SOL    HW226427   6.063   0.316   3.527
 8510SOL     OW26428   5.360   2.402   4.237
 8510SOL    HW126429   5.412   2.363   4.313
 8510SOL    HW226430   5.365   2.502   4.240
 8511SOL     OW26431   5.878   2.822   2.115
 8511SOL    HW126432   5.894   2.829   2.213
 8511SOL    HW226433   5.784   2.793   2.097
 8512SOL     OW26434   1.865   0.077   4.418
 8512SOL    HW126435   1.811   0.116   4.492
 8512SOL    HW226436   1.862   0.138   4.339
 8513SOL     OW26437   6.248   6.283   0.337
 8513SOL    HW126438   6.329   6.304   0.391
 8513SOL    HW226439   6.203   6.368   0.309
 8514SOL     OW26440   2.833   6.555   4.039
 8514SOL    HW126441   2.883   6.491   3.981
 8514SOL    HW226442   2.793   6.505   4.116
 8515SOL     OW26443   5.521   1.659   1.449
 8515SOL    HW126444   5.498   1.657   1.351
 8515SOL    HW226445   5.474   1.735   1.492
 8516SOL     OW26446   6.208   2.313   2.473
 8516SOL    HW126447   6.120   2.272   2.448
 8516SOL    HW226448   6.277   2.286   2.406
 8517SOL     OW26449   1.767   2.770   6.327
 8517SOL    HW126450   1.682   2.736   6.288
 8517SOL    HW226451   1.836   2.698   6.326
 8518SOL     OW26452   3.502   5.474   0.229
 8518SOL    HW126453   3.472   5.542   0.161
 8518SOL    HW226454   3.598   5.451   0.214
 8519SOL     OW26455   0.911   5.329   2.047
 8519SOL    HW126456   0.871   5.317   2.139
 8519SOL    HW226457   0.945   5.241   2.014
 8520SOL     OW26458   4.272   0.794   0.174
 8520SOL    HW126459   4.275   0.796   0.074
 8520SOL    HW226460   4.332   0.721   0.207
 8521SOL     OW26461   0.967   5.811   5.789
 8521SOL    HW126462   1.051   5.854   5.822
 8521SOL    HW226463   0.931   5.750   5.860
 8522SOL     OW26464   1.233   6.067   5.005
 8522SOL    HW126465   1.329   6.093   5.004
 8522SOL    HW226466   1.223   5.976   4.963
 8523SOL     OW26467   1.460   6.742   6.818
 8523SOL    HW126468   1.504   6.713   6.733
 8523SOL    HW226469   1.436   6.662   6.873
 8524SOL     OW26470   1.453   2.914   6.203
 8524SOL    HW126471   1.509   2.938   6.282
 8524SOL    HW226472   1.465   2.982   6.132
 8525SOL     OW26473   6.215   3.366   2.883
 8525SOL    HW126474   6.232   3.286   2.826
 8525SOL    HW226475   6.143   3.345   2.950
 8526SOL     OW26476   2.258   2.771   2.651
 8526SOL    HW126477   2.345   2.741   2.691
 8526SOL    HW226478   2.252   2.871   2.657
 8527SOL     OW26479   4.413   0.781   4.759
 8527SOL    HW126480   4.416   0.681   4.756
 8527SOL    HW226481   4.492   0.815   4.811
 8528SOL     OW26482   4.560   2.758   6.080
 8528SOL    HW126483   4.574   2.834   6.015
 8528SOL    HW226484   4.546   2.673   6.029
 8529SOL     OW26485   1.223   5.161   6.809
 8529SOL    HW126486   1.158   5.144   6.735
 8529SOL    HW226487   1.195   5.244   6.859
 8530SOL     OW26488   1.485   3.763   5.062
 8530SOL    HW126489   1.423   3.685   5.056
 8530SOL    HW226490   1.577   3.730   5.085
 8531SOL     OW26491   5.199   4.966   2.364
 8531SOL    HW126492   5.126   4.899   2.353
 8531SOL    HW226493   5.185   5.043   2.301
 8532SOL     OW26494   3.311   4.366   5.649
 8532SOL    HW126495   3.311   4.273   5.614
 8532SOL    HW226496   3.218   4.391   5.679
 8533SOL     OW26497   3.545   0.981   4.841
 8533SOL    HW126498   3.458   1.014   4.879
 8533SOL    HW226499   3.608   1.058   4.830
 8534SOL     OW26500   1.546   3.004   2.687
 8534SOL    HW126501   1.556   2.996   2.588
 8534SOL    HW226502   1.597   3.084   2.719
 8535SOL     OW26503   0.246   2.054   4.420
 8535SOL    HW126504   0.217   1.971   4.373
 8535SOL    HW226505   0.345   2.051   4.436
 8536SOL     OW26506   0.282   1.358   5.747
 8536SOL    HW126507   0.382   1.362   5.751
 8536SOL    HW226508   0.246   1.335   5.837
 8537SOL     OW26509   5.735   0.400   1.988
 8537SOL    HW126510   5.664   0.470   1.987
 8537SOL    HW226511   5.738   0.357   2.078
 8538SOL     OW26512   6.127   0.865   4.794
 8538SOL    HW126513   6.157   0.774   4.822
 8538SOL    HW226514   6.041   0.858   4.743
 8539SOL     OW26515   0.433   2.793   1.588
 8539SOL    HW126516   0.431   2.717   1.524
 8539SOL    HW226517   0.498   2.773   1.662
 8540SOL     OW26518   3.557   0.370   0.264
 8540SOL    HW126519   3.629   0.316   0.221
 8540SOL    HW226520   3.597   0.447   0.312
 8541SOL     OW26521   2.930   0.892   4.506
 8541SOL    HW126522   2.930   0.981   4.551
 8541SOL    HW226523   2.963   0.902   4.412
 8542SOL     OW26524   2.111   4.880   6.474
 8542SOL    HW126525   2.037   4.813   6.461
 8542SOL    HW226526   2.136   4.920   6.386
 8543SOL     OW26527   2.419   1.876   6.007
 8543SOL    HW126528   2.408   1.949   5.939
 8543SOL    HW226529   2.498   1.820   5.983
 8544SOL     OW26530   5.147   4.323   5.085
 8544SOL    HW126531   5.191   4.392   5.028
 8544SOL    HW226532   5.169   4.339   5.181
 8545SOL     OW26533   3.021   0.364   6.000
 8545SOL    HW126534   3.041   0.462   5.986
 8545SOL    HW226535   2.988   0.325   5.914
 8546SOL     OW26536   5.974   0.488   1.899
 8546SOL    HW126537   5.896   0.454   1.951
 8546SOL    HW226538   5.954   0.581   1.867
 8547SOL     OW26539   5.969   6.216   5.994
 8547SOL    HW126540   6.050   6.158   5.994
 8547SOL    HW226541   5.989   6.303   5.949
 8548SOL     OW26542   0.501   2.905   6.007
 8548SOL    HW126543   0.527   2.809   6.004
 8548SOL    HW226544   0.403   2.913   6.024
 8549SOL     OW26545   1.719   1.010   2.955
 8549SOL    HW126546   1.642   0.994   3.017
 8549SOL    HW226547   1.696   0.978   2.864
 8550SOL     OW26548   0.891   4.546   6.700
 8550SOL    HW126549   0.852   4.629   6.742
 8550SOL    HW226550   0.932   4.489   6.771
 8551SOL     OW26551   2.113   1.825   5.656
 8551SOL    HW126552   2.193   1.765   5.659
 8551SOL    HW226553   2.142   1.919   5.676
 8552SOL     OW26554   2.408   1.731   3.259
 8552SOL    HW126555   2.492   1.699   3.304
 8552SOL    HW226556   2.333   1.733   3.325
 8553SOL     OW26557   5.057   2.811   0.620
 8553SOL    HW126558   5.006   2.730   0.591
 8553SOL    HW226559   5.023   2.891   0.571
 8554SOL     OW26560   1.223   0.136   0.428
 8554SOL    HW126561   1.186   0.051   0.391
 8554SOL    HW226562   1.211   0.138   0.527
 8555SOL     OW26563   4.363   1.186   4.330
 8555SOL    HW126564   4.317   1.217   4.413
 8555SOL    HW226565   4.305   1.209   4.251
 8556SOL     OW26566   1.675   6.257   0.446
 8556SOL    HW126567   1.590   6.237   0.495
 8556SOL    HW226568   1.679   6.355   0.425
 8557SOL     OW26569   0.495   0.670   0.095
 8557SOL    HW126570   0.513   0.742   0.162
 8557SOL    HW226571   0.503   0.708   0.003
 8558SOL     OW26572   2.821   4.758   3.496
 8558SOL    HW126573   2.913   4.771   3.533
 8558SOL    HW226574   2.825   4.751   3.397
 8559SOL     OW26575   0.750   5.447   2.632
 8559SOL    HW126576   0.802   5.517   2.582
 8559SOL    HW226577   0.701   5.490   2.707
 8560SOL     OW26578   2.989   4.259   1.695
 8560SOL    HW126579   3.039   4.202   1.759
 8560SOL    HW226580   2.947   4.336   1.744
 8561SOL     OW26581   4.993   6.738   2.381
 8561SOL    HW126582   4.911   6.771   2.333
 8561SOL    HW226583   4.985   6.758   2.478
 8562SOL     OW26584   4.310   0.825   6.945
 8562SOL    HW126585   4.221   0.854   6.909
 8562SOL    HW226586   4.376   0.821   6.870
 8563SOL     OW26587   1.678   5.338   2.375
 8563SOL    HW126588   1.759   5.396   2.386
 8563SOL    HW226589   1.706   5.242   2.365
 8564SOL     OW26590   4.397   0.824   6.666
 8564SOL    HW126591   4.454   0.890   6.616
 8564SOL    HW226592   4.372   0.749   6.606
 8565SOL     OW26593   2.877   5.577   1.532
 8565SOL    HW126594   2.788   5.564   1.488
 8565SOL    HW226595   2.865   5.628   1.617
 8566SOL     OW26596   3.504   0.950   2.802
 8566SOL    HW126597   3.548   1.027   2.757
 8566SOL    HW226598   3.487   0.973   2.898
 8567SOL     OW26599   2.075   2.234   2.030
 8567SOL    HW126600   2.109   2.291   1.955
 8567SOL    HW226601   2.110   2.141   2.020
 8568SOL     OW26602   6.999   1.094   0.081
 8568SOL    HW126603   0.013   1.012   0.038
 8568SOL    HW226604   6.917   1.123   0.032
 8569SOL     OW26605   4.632   2.088   6.449
 8569SOL    HW126606   4.546   2.138   6.439
 8569SOL    HW226607   4.640   2.053   6.543
 8570SOL     OW26608   1.751   3.255   4.147
 8570SOL    HW126609   1.830   3.193   4.149
 8570SOL    HW226610   1.676   3.215   4.200
 8571SOL     OW26611   1.267   0.783   3.457
 8571SOL    HW126612   1.236   0.715   3.390
 8571SOL    HW226613   1.290   0.737   3.542
 8572SOL     OW26614   3.028   3.919   5.664
 8572SOL    HW126615   2.985   3.997   5.618
 8572SOL    HW226616   3.048   3.944   5.759
 8573SOL     OW26617   3.531   6.050   0.663
 8573SOL    HW126618   3.591   5.978   0.697
 8573SOL    HW226619   3.585   6.119   0.616
 8574SOL     OW26620   6.116   6.600   5.615
 8574SOL    HW126621   6.085   6.580   5.522
 8574SOL    HW226622   6.156   6.691   5.618
 8575SOL     OW26623   3.042   6.195   3.062
 8575SOL    HW126624   3.095   6.279   3.077
 8575SOL    HW226625   3.046   6.139   3.145
 8576SOL     OW26626   0.706   4.140   3.567
 8576SOL    HW126627   0.649   4.159   3.647
 8576SOL    HW226628   0.777   4.074   3.592
 8577SOL     OW26629   1.916   1.766   6.758
 8577SOL    HW126630   1.955   1.702   6.824
 8577SOL    HW226631   1.847   1.823   6.803
 8578SOL     OW26632   5.968   6.904   5.553
 8578SOL    HW126633   5.920   6.966   5.491
 8578SOL    HW226634   5.939   6.922   5.647
 8579SOL     OW26635   3.259   5.703   2.539
 8579SOL    HW126636   3.187   5.667   2.481
 8579SOL    HW226637   3.232   5.793   2.576
 8580SOL     OW26638   1.740   0.659   1.179
 8580SOL    HW126639   1.809   0.606   1.229
 8580SOL    HW226640   1.741   0.754   1.211
 8581SOL     OW26641   3.392   4.762   1.092
 8581SOL    HW126642   3.464   4.734   1.156
 8581SOL    HW226643   3.377   4.689   1.026
 8582SOL     OW26644   3.779   4.417   5.464
 8582SOL    HW126645   3.718   4.411   5.543
 8582SOL    HW226646   3.743   4.361   5.390
 8583SOL     OW26647   4.462   0.500   2.924
 8583SOL    HW126648   4.502   0.571   2.867
 8583SOL    HW226649   4.393   0.450   2.872
 8584SOL     OW26650   6.709   1.181   4.307
 8584SOL    HW126651   6.657   1.266   4.309
 8584SOL    HW226652   6.744   1.166   4.214
 8585SOL     OW26653   5.258   1.960   1.881
 8585SOL    HW126654   5.331   1.901   1.847
 8585SOL    HW226655   5.275   1.983   1.977
 8586SOL     OW26656   6.029   5.785   1.051
 8586SOL    HW126657   6.000   5.696   1.085
 8586SOL    HW226658   6.115   5.775   1.000
 8587SOL     OW26659   1.748   1.293   5.933
 8587SOL    HW126660   1.766   1.242   5.849
 8587SOL    HW226661   1.673   1.357   5.918
 8588SOL     OW26662   3.297   1.475   6.683
 8588SOL    HW126663   3.266   1.433   6.768
 8588SOL    HW226664   3.287   1.409   6.608
 8589SOL     OW26665   7.011   3.043   6.154
 8589SOL    HW126666   7.022   3.018   6.250
 8589SOL    HW226667   6.938   3.111   6.145
 8590SOL     OW26668   1.104   1.601   2.571
 8590SOL    HW126669   1.038   1.647   2.631
 8590SOL    HW226670   1.191   1.649   2.574
 8591SOL     OW26671   6.631   5.106   0.057
 8591SOL    HW126672   6.726   5.138   0.057
 8591SOL    HW226673   6.573   5.176   0.098
 8592SOL     OW26674   1.327   1.895   6.422
 8592SOL    HW126675   1.261   1.906   6.348
 8592SOL    HW226676   1.372   1.807   6.414
 8593SOL     OW26677   3.443   0.805   6.414
 8593SOL    HW126678   3.538   0.829   6.434
 8593SOL    HW226679   3.437   0.707   6.397
 8594SOL     OW26680   6.575   2.623   5.756
 8594SOL    HW126681   6.673   2.603   5.753
 8594SOL    HW226682   6.534   2.574   5.833
 8595SOL     OW26683   5.088   6.360   2.542
 8595SOL    HW126684   5.009   6.413   2.510
 8595SOL    HW226685   5.132   6.408   2.618
 8596SOL     OW26686   0.485   2.715   3.536
 8596SOL    HW126687   0.528   2.625   3.531
 8596SOL    HW226688   0.500   2.764   3.450
 8597SOL     OW26689   6.144   3.281   1.007
 8597SOL    HW126690   6.233   3.250   1.041
 8597SOL    HW226691   6.155   3.369   0.961
 8598SOL     OW26692   5.284   0.226   4.392
 8598SOL    HW126693   5.278   0.275   4.305
 8598SOL    HW226694   5.310   0.131   4.374
 8599SOL     OW26695   1.237   2.834   3.776
 8599SOL    HW126696   1.292   2.763   3.820
 8599SOL    HW226697   1.166   2.865   3.840
 8600SOL     OW26698   4.192   3.057   1.415
 8600SOL    HW126699   4.099   3.024   1.404
 8600SOL    HW226700   4.221   3.047   1.510
 8601SOL     OW26701   0.949   0.115   3.226
 8601SOL    HW126702   0.934   0.137   3.129
 8601SOL    HW226703   0.918   0.022   3.244
 8602SOL     OW26704   2.329   6.835   4.338
 8602SOL    HW126705   2.418   6.793   4.316
 8602SOL    HW226706   2.260   6.763   4.345
 8603SOL     OW26707   0.061   0.569   0.855
 8603SOL    HW126708   0.039   0.633   0.929
 8603SOL    HW226709   7.003   0.552   0.800
 8604SOL     OW26710   0.212   4.111   6.172
 8604SOL    HW126711   0.291   4.056   6.145
 8604SOL    HW226712   0.130   4.079   6.125
 8605SOL     OW26713   0.099   5.053   4.088
 8605SOL    HW126714   0.150   5.078   4.006
 8605SOL    HW226715   0.161   5.011   4.155
 8606SOL     OW26716   2.454   2.791   6.900
 8606SOL    HW126717   2.411   2.797   6.990
 8606SOL    HW226718   2.399   2.840   6.833
 8607SOL     OW26719   2.401   4.500   1.530
 8607SOL    HW126720   2.489   4.467   1.497
 8607SOL    HW226721   2.345   4.530   1.453
 8608SOL     OW26722   2.254   4.892   2.790
 8608SOL    HW126723   2.296   4.982   2.799
 8608SOL    HW226724   2.199   4.872   2.871
 8609SOL     OW26725   4.231   1.102   3.843
 8609SOL    HW126726   4.311   1.155   3.813
 8609SOL    HW226727   4.164   1.163   3.885
 8610SOL     OW26728   0.516   6.720   2.880
 8610SOL    HW126729   0.577   6.770   2.819
 8610SOL    HW226730   0.478   6.782   2.948
 8611SOL     OW26731   2.616   1.584   4.123
 8611SOL    HW126732   2.673   1.644   4.180
 8611SOL    HW226733   2.549   1.537   4.181
 8612SOL     OW26734   3.958   3.356   3.200
 8612SOL    HW126735   3.866   3.318   3.191
 8612SOL    HW226736   3.958   3.425   3.273
 8613SOL     OW26737   3.311   2.963   1.181
 8613SOL    HW126738   3.380   2.970   1.253
 8613SOL    HW226739   3.279   2.868   1.175
 8614SOL     OW26740   1.550   2.594   1.890
 8614SOL    HW126741   1.565   2.586   1.988
 8614SOL    HW226742   1.510   2.683   1.870
 8615SOL     OW26743   3.947   1.245   3.729
 8615SOL    HW126744   3.919   1.327   3.780
 8615SOL    HW226745   3.911   1.250   3.636
 8616SOL     OW26746   4.262   4.677   2.354
 8616SOL    HW126747   4.202   4.754   2.329
 8616SOL    HW226748   4.273   4.674   2.453
 8617SOL     OW26749   4.263   0.407   4.205
 8617SOL    HW126750   4.294   0.419   4.299
 8617SOL    HW226751   4.341   0.415   4.143
 8618SOL     OW26752   5.369   3.752   1.464
 8618SOL    HW126753   5.332   3.844   1.454
 8618SOL    HW226754   5.418   3.726   1.381
 8619SOL     OW26755   5.739   4.326   1.128
 8619SOL    HW126756   5.639   4.330   1.127
 8619SOL    HW226757   5.769   4.280   1.212
 8620SOL     OW26758   1.881   0.801   4.479
 8620SOL    HW126759   1.814   0.832   4.411
 8620SOL    HW226760   1.972   0.831   4.451
 8621SOL     OW26761   5.210   2.629   1.834
 8621SOL    HW126762   5.203   2.665   1.741
 8621SOL    HW226763   5.154   2.684   1.896
 8622SOL     OW26764   6.530   5.181   2.918
 8622SOL    HW126765   6.488   5.173   3.008
 8622SOL    HW226766   6.569   5.272   2.907
 8623SOL     OW26767   6.361   2.928   4.925
 8623SOL    HW126768   6.450   2.947   4.967
 8623SOL    HW226769   6.313   2.860   4.980
 8624SOL     OW26770   2.825   3.853   5.913
 8624SOL    HW126771   2.827   3.812   6.004
 8624SOL    HW226772   2.896   3.923   5.906
 8625SOL     OW26773   4.262   1.808   5.494
 8625SOL    HW126774   4.181   1.864   5.474
 8625SOL    HW226775   4.234   1.717   5.525
 8626SOL     OW26776   4.461   4.121   0.404
 8626SOL    HW126777   4.502   4.178   0.333
 8626SOL    HW226778   4.454   4.172   0.489
 8627SOL     OW26779   1.692   0.896   2.709
 8627SOL    HW126780   1.683   0.797   2.704
 8627SOL    HW226781   1.761   0.926   2.642
 8628SOL     OW26782   0.645   6.499   0.483
 8628SOL    HW126783   0.711   6.507   0.559
 8628SOL    HW226784   0.669   6.564   0.412
 8629SOL     OW26785   0.253   0.291   4.527
 8629SOL    HW126786   0.289   0.308   4.619
 8629SOL    HW226787   0.232   0.194   4.518
 8630SOL     OW26788   5.194   3.045   2.480
 8630SOL    HW126789   5.215   3.043   2.382
 8630SOL    HW226790   5.102   3.011   2.495
 8631SOL     OW26791   2.975   5.881   0.007
 8631SOL    HW126792   3.036   5.836   0.074
 8631SOL    HW226793   3.030   5.935   6.967
 8632SOL     OW26794   4.671   4.473   5.318
 8632SOL    HW126795   4.745   4.440   5.377
 8632SOL    HW226796   4.587   4.424   5.341
 8633SOL     OW26797   5.721   3.664   5.861
 8633SOL    HW126798   5.683   3.693   5.949
 8633SOL    HW226799   5.782   3.735   5.825
 8634SOL     OW26800   5.392   4.519   0.972
 8634SOL    HW126801   5.295   4.531   0.990
 8634SOL    HW226802   5.414   4.421   0.969
 8635SOL     OW26803   6.083   2.738   6.615
 8635SOL    HW126804   6.105   2.742   6.712
 8635SOL    HW226805   6.059   2.644   6.590
 8636SOL     OW26806   5.034   6.569   0.971
 8636SOL    HW126807   5.112   6.546   0.911
 8636SOL    HW226808   5.069   6.599   1.060
 8637SOL     OW26809   2.346   1.889   6.401
 8637SOL    HW126810   2.336   1.961   6.333
 8637SOL    HW226811   2.329   1.800   6.359
 8638SOL     OW26812   4.483   2.853   5.427
 8638SOL    HW126813   4.440   2.766   5.403
 8638SOL    HW226814   4.416   2.927   5.417
 8639SOL     OW26815   4.417   3.434   6.452
 8639SOL    HW126816   4.394   3.402   6.361
 8639SOL    HW226817   4.383   3.527   6.465
 8640SOL     OW26818   3.037   3.436   1.565
 8640SOL    HW126819   2.986   3.470   1.486
 8640SOL    HW226820   3.023   3.498   1.643
 8641SOL     OW26821   4.550   6.027   2.706
 8641SOL    HW126822   4.619   6.089   2.668
 8641SOL    HW226823   4.525   5.960   2.638
 8642SOL     OW26824   1.535   6.336   4.397
 8642SOL    HW126825   1.446   6.347   4.353
 8642SOL    HW226826   1.523   6.301   4.489
 8643SOL     OW26827   3.705   6.961   0.945
 8643SOL    HW126828   3.627   6.898   0.941
 8643SOL    HW226829   3.675   0.030   0.922
 8644SOL     OW26830   5.918   1.435   6.655
 8644SOL    HW126831   6.008   1.407   6.622
 8644SOL    HW226832   5.909   1.412   6.752
 8645SOL     OW26833   5.991   4.100   2.136
 8645SOL    HW126834   5.928   4.177   2.144
 8645SOL    HW226835   6.038   4.104   2.048
 8646SOL     OW26836   0.232   1.762   5.836
 8646SOL    HW126837   0.303   1.709   5.882
 8646SOL    HW226838   0.172   1.803   5.904
 8647SOL     OW26839   2.297   4.736   1.938
 8647SOL    HW126840   2.387   4.703   1.910
 8647SOL    HW226841   2.230   4.663   1.926
 8648SOL     OW26842   5.903   5.318   0.880
 8648SOL    HW126843   5.843   5.377   0.826
 8648SOL    HW226844   5.863   5.226   0.885
 8649SOL     OW26845   4.437   6.718   0.678
 8649SOL    HW126846   4.487   6.741   0.594
 8649SOL    HW226847   4.482   6.760   0.756
 8650SOL     OW26848   2.006   6.748   4.035
 8650SOL    HW126849   1.927   6.735   4.095
 8650SOL    HW226850   2.059   6.826   4.068
 8651SOL     OW26851   3.106   1.918   1.080
 8651SOL    HW126852   3.191   1.868   1.061
 8651SOL    HW226853   3.117   2.014   1.053
 8652SOL     OW26854   1.878   4.040   3.622
 8652SOL    HW126855   1.887   4.006   3.716
 8652SOL    HW226856   1.922   4.130   3.615
 8653SOL     OW26857   0.147   1.434   6.058
 8653SOL    HW126858   0.082   1.507   6.080
 8653SOL    HW226859   0.232   1.475   6.025
 8654SOL     OW26860   0.941   4.664   1.661
 8654SOL    HW126861   0.852   4.678   1.618
 8654SOL    HW226862   0.986   4.585   1.620
 8655SOL     OW26863   6.997   0.949   5.342
 8655SOL    HW126864   6.945   0.877   5.388
 8655SOL    HW226865   0.046   0.982   5.402
 8656SOL     OW26866   5.322   0.275   1.349
 8656SOL    HW126867   5.301   0.369   1.322
 8656SOL    HW226868   5.377   0.276   1.432
 8657SOL     OW26869   5.473   0.688   2.493
 8657SOL    HW126870   5.430   0.603   2.523
 8657SOL    HW226871   5.442   0.711   2.401
 8658SOL     OW26872   0.099   4.969   0.661
 8658SOL    HW126873   0.018   4.982   0.719
 8658SOL    HW226874   0.145   5.057   0.648
 8659SOL     OW26875   4.809   1.242   2.210
 8659SOL    HW126876   4.881   1.240   2.141
 8659SOL    HW226877   4.727   1.284   2.172
 8660SOL     OW26878   0.334   3.148   1.335
 8660SOL    HW126879   0.355   3.089   1.257
 8660SOL    HW226880   0.305   3.238   1.303
 8661SOL     OW26881   6.195   3.619   2.814
 8661SOL    HW126882   6.176   3.527   2.849
 8661SOL    HW226883   6.286   3.621   2.774
 8662SOL     OW26884   3.107   5.210   3.068
 8662SOL    HW126885   3.066   5.192   2.978
 8662SOL    HW226886   3.081   5.136   3.131
 8663SOL     OW26887   3.588   5.790   3.314
 8663SOL    HW126888   3.645   5.852   3.367
 8663SOL    HW226889   3.600   5.808   3.217
 8664SOL     OW26890   2.742   5.367   3.000
 8664SOL    HW126891   2.676   5.442   2.995
 8664SOL    HW226892   2.722   5.311   3.080
 8665SOL     OW26893   5.921   3.644   6.193
 8665SOL    HW126894   5.827   3.656   6.163
 8665SOL    HW226895   5.928   3.561   6.248
 8666SOL     OW26896   4.676   7.005   3.248
 8666SOL    HW126897   4.771   7.019   3.275
 8666SOL    HW226898   4.672   6.977   3.152
 8667SOL     OW26899   4.635   1.956   4.154
 8667SOL    HW126900   4.641   2.056   4.151
 8667SOL    HW226901   4.689   1.922   4.231
 8668SOL     OW26902   4.813   3.016   5.045
 8668SOL    HW126903   4.794   2.920   5.025
 8668SOL    HW226904   4.752   3.048   5.117
 8669SOL     OW26905   6.124   6.664   6.368
 8669SOL    HW126906   6.213   6.639   6.329
 8669SOL    HW226907   6.054   6.659   6.296
 8670SOL     OW26908   6.330   4.685   5.823
 8670SOL    HW126909   6.337   4.606   5.762
 8670SOL    HW226910   6.364   4.766   5.776
 8671SOL     OW26911   6.953   2.095   2.792
 8671SOL    HW126912   6.855   2.110   2.807
 8671SOL    HW226913   6.965   2.032   2.716
 8672SOL     OW26914   6.872   1.110   3.678
 8672SOL    HW126915   6.817   1.048   3.734
 8672SOL    HW226916   6.849   1.204   3.702
 8673SOL     OW26917   0.959   1.971   0.932
 8673SOL    HW126918   1.004   1.945   0.846
 8673SOL    HW226919   0.976   2.068   0.950
 8674SOL     OW26920   6.867   4.643   2.738
 8674SOL    HW126921   6.807   4.687   2.671
 8674SOL    HW226922   6.948   4.699   2.752
 8675SOL     OW26923   3.905   2.128   5.556
 8675SOL    HW126924   3.852   2.203   5.516
 8675SOL    HW226925   3.882   2.120   5.653
 8676SOL     OW26926   5.525   1.098   0.836
 8676SOL    HW126927   5.434   1.082   0.798
 8676SOL    HW226928   5.553   1.193   0.816
 8677SOL     OW26929   1.283   6.907   5.557
 8677SOL    HW126930   1.227   6.828   5.584
 8677SOL    HW226931   1.272   6.980   5.624
 8678SOL     OW26932   2.162   0.999   1.085
 8678SOL    HW126933   2.243   0.960   1.042
 8678SOL    HW226934   2.080   0.957   1.047
 8679SOL     OW26935   2.228   1.592   4.638
 8679SOL    HW126936   2.301   1.653   4.671
 8679SOL    HW226937   2.201   1.620   4.546
 8680SOL     OW26938   6.790   1.997   6.187
 8680SOL    HW126939   6.782   2.020   6.090
 8680SOL    HW226940   6.714   2.039   6.238
 8681SOL     OW26941   5.448   5.796   1.085
 8681SOL    HW126942   5.366   5.781   1.030
 8681SOL    HW226943   5.424   5.847   1.168
 8682SOL     OW26944   0.649   0.432   1.146
 8682SOL    HW126945   0.708   0.513   1.141
 8682SOL    HW226946   0.591   0.428   1.064
 8683SOL     OW26947   2.376   4.416   4.806
 8683SOL    HW126948   2.318   4.359   4.864
 8683SOL    HW226949   2.375   4.381   4.712
 8684SOL     OW26950   0.220   3.245   4.667
 8684SOL    HW126951   0.148   3.262   4.735
 8684SOL    HW226952   0.282   3.174   4.701
 8685SOL     OW26953   5.017   2.494   5.466
 8685SOL    HW126954   4.928   2.519   5.505
 8685SOL    HW226955   5.023   2.394   5.461
 8686SOL     OW26956   0.024   5.823   2.750
 8686SOL    HW126957   7.008   5.891   2.688
 8686SOL    HW226958   0.089   5.867   2.812
 8687SOL     OW26959   5.901   3.373   3.656
 8687SOL    HW126960   5.891   3.404   3.751
 8687SOL    HW226961   5.819   3.396   3.604
 8688SOL     OW26962   0.880   4.146   6.553
 8688SOL    HW126963   0.801   4.142   6.492
 8688SOL    HW226964   0.958   4.186   6.505
 8689SOL     OW26965   4.782   4.096   6.695
 8689SOL    HW126966   4.747   4.187   6.674
 8689SOL    HW226967   4.808   4.050   6.610
 8690SOL     OW26968   2.129   2.022   3.458
 8690SOL    HW126969   2.183   1.937   3.453
 8690SOL    HW226970   2.152   2.080   3.380
 8691SOL     OW26971   2.840   2.238   5.156
 8691SOL    HW126972   2.926   2.281   5.183
 8691SOL    HW226973   2.828   2.246   5.057
 8692SOL     OW26974   4.221   1.699   5.799
 8692SOL    HW126975   4.134   1.699   5.750
 8692SOL    HW226976   4.240   1.608   5.834
 8693SOL     OW26977   6.333   0.605   6.020
 8693SOL    HW126978   6.380   0.663   6.086
 8693SOL    HW226979   6.237   0.592   6.048
 8694SOL     OW26980   5.647   3.574   4.101
 8694SOL    HW126981   5.579   3.584   4.028
 8694SOL    HW226982   5.700   3.658   4.109
 8695SOL     OW26983   3.554   4.503   6.176
 8695SOL    HW126984   3.569   4.601   6.168
 8695SOL    HW226985   3.548   4.462   6.085
 8696SOL     OW26986   3.056   5.687   5.878
 8696SOL    HW126987   3.153   5.706   5.895
 8696SOL    HW226988   3.047   5.634   5.794
 8697SOL     OW26989   1.376   3.843   5.999
 8697SOL    HW126990   1.384   3.743   6.004
 8697SOL    HW226991   1.393   3.872   5.905
 8698SOL     OW26992   5.626   5.731   5.001
 8698SOL    HW126993   5.702   5.778   4.955
 8698SOL    HW226994   5.543   5.786   4.992
 8699SOL     OW26995   1.804   3.153   0.082
 8699SOL    HW126996   1.775   3.231   0.026
 8699SOL    HW226997   1.833   3.186   0.171
 8700SOL     OW26998   0.847   0.219   5.120
 8700SOL    HW126999   0.841   0.254   5.214
 8700SOL    HW227000   0.855   0.119   5.122
 8701SOL     OW27001   0.987   1.820   6.995
 8701SOL    HW127002   0.907   1.840   6.937
 8701SOL    HW227003   1.055   1.770   6.941
 8702SOL     OW27004   5.741   4.178   1.392
 8702SOL    HW127005   5.713   4.098   1.339
 8702SOL    HW227006   5.663   4.211   1.445
 8703SOL     OW27007   2.867   4.682   1.371
 8703SOL    HW127008   2.828   4.642   1.454
 8703SOL    HW227009   2.928   4.757   1.396
 8704SOL     OW27010   1.115   2.229   3.755
 8704SOL    HW127011   1.056   2.273   3.687
 8704SOL    HW227012   1.189   2.182   3.709
 8705SOL     OW27013   4.434   2.598   0.049
 8705SOL    HW127014   4.345   2.644   0.054
 8705SOL    HW227015   4.465   2.598   6.977
 8706SOL     OW27016   4.875   3.425   6.247
 8706SOL    HW127017   4.941   3.370   6.299
 8706SOL    HW227018   4.806   3.461   6.309
 8707SOL     OW27019   1.259   1.745   4.258
 8707SOL    HW127020   1.289   1.819   4.318
 8707SOL    HW227021   1.247   1.780   4.165
 8708SOL     OW27022   5.813   2.042   2.162
 8708SOL    HW127023   5.735   1.991   2.126
 8708SOL    HW227024   5.886   2.043   2.094
 8709SOL     OW27025   6.505   0.452   5.519
 8709SOL    HW127026   6.598   0.429   5.547
 8709SOL    HW227027   6.441   0.383   5.554
 8710SOL     OW27028   2.096   1.239   3.937
 8710SOL    HW127029   2.194   1.222   3.925
 8710SOL    HW227030   2.045   1.155   3.921
 8711SOL     OW27031   1.537   0.281   1.670
 8711SOL    HW127032   1.593   0.286   1.753
 8711SOL    HW227033   1.572   0.346   1.603
 8712SOL     OW27034   1.906   2.884   5.766
 8712SOL    HW127035   1.942   2.819   5.699
 8712SOL    HW227036   1.982   2.929   5.813
 8713SOL     OW27037   0.374   4.695   1.620
 8713SOL    HW127038   0.287   4.705   1.572
 8713SOL    HW227039   0.372   4.747   1.705
 8714SOL     OW27040   6.764   6.689   6.899
 8714SOL    HW127041   6.842   6.640   6.862
 8714SOL    HW227042   6.795   6.756   6.966
 8715SOL     OW27043   2.755   2.539   0.615
 8715SOL    HW127044   2.811   2.582   0.544
 8715SOL    HW227045   2.778   2.442   0.621
 8716SOL     OW27046   6.723   6.603   1.601
 8716SOL    HW127047   6.689   6.559   1.518
 8716SOL    HW227048   6.819   6.630   1.587
 8717SOL     OW27049   2.687   4.631   0.447
 8717SOL    HW127050   2.727   4.649   0.537
 8717SOL    HW227051   2.707   4.707   0.386
 8718SOL     OW27052   2.313   4.443   5.951
 8718SOL    HW127053   2.239   4.385   5.919
 8718SOL    HW227054   2.294   4.539   5.928
 8719SOL     OW27055   3.833   1.019   5.591
 8719SOL    HW127056   3.873   1.016   5.683
 8719SOL    HW227057   3.814   1.114   5.567
 8720SOL     OW27058   6.670   4.149   5.007
 8720SOL    HW127059   6.758   4.112   5.038
 8720SOL    HW227060   6.624   4.192   5.084
 8721SOL     OW27061   7.001   6.924   6.413
 8721SOL    HW127062   0.075   6.913   6.433
 8721SOL    HW227063   6.965   7.003   6.463
 8722SOL     OW27064   4.179   0.897   1.707
 8722SOL    HW127065   4.090   0.930   1.739
 8722SOL    HW227066   4.247   0.970   1.715
 8723SOL     OW27067   4.948   6.765   2.678
 8723SOL    HW127068   5.045   6.786   2.667
 8723SOL    HW227069   4.936   6.705   2.757
 8724SOL     OW27070   3.970   0.697   4.919
 8724SOL    HW127071   3.975   0.659   4.827
 8724SOL    HW227072   3.983   0.623   4.986
 8725SOL     OW27073   0.330   6.526   4.368
 8725SOL    HW127074   0.303   6.535   4.272
 8725SOL    HW227075   0.380   6.607   4.396
 8726SOL     OW27076   1.053   1.120   0.663
 8726SOL    HW127077   1.059   1.024   0.634
 8726SOL    HW227078   1.001   1.172   0.595
 8727SOL     OW27079   5.140   5.579   6.209
 8727SOL    HW127080   5.196   5.555   6.130
 8727SOL    HW227081   5.160   5.516   6.285
 8728SOL     OW27082   6.404   1.083   3.110
 8728SOL    HW127083   6.463   1.158   3.138
 8728SOL    HW227084   6.454   0.997   3.117
 8729SOL     OW27085   3.379   5.551   6.590
 8729SOL    HW127086   3.455   5.597   6.636
 8729SOL    HW227087   3.383   5.571   6.492
 8730SOL     OW27088   4.886   5.039   1.758
 8730SOL    HW127089   4.841   4.998   1.678
 8730SOL    HW227090   4.915   4.967   1.820
 8731SOL     OW27091   0.650   2.006   3.621
 8731SOL    HW127092   0.634   1.948   3.541
 8731SOL    HW227093   0.595   2.089   3.613
 8732SOL     OW27094   5.084   5.572   0.797
 8732SOL    HW127095   5.163   5.517   0.771
 8732SOL    HW227096   5.019   5.574   0.721
 8733SOL     OW27097   6.592   4.928   2.160
 8733SOL    HW127098   6.567   4.997   2.092
 8733SOL    HW227099   6.571   4.963   2.251
 8734SOL     OW27100   0.114   3.241   2.022
 8734SOL    HW127101   0.021   3.249   1.986
 8734SOL    HW227102   0.179   3.274   1.953
 8735SOL     OW27103   1.696   3.722   5.919
 8735SOL    HW127104   1.624   3.662   5.882
 8735SOL    HW227105   1.756   3.751   5.845
 8736SOL     OW27106   0.731   5.678   2.096
 8736SOL    HW127107   0.827   5.706   2.092
 8736SOL    HW227108   0.699   5.682   2.191
 8737SOL     OW27109   1.494   5.813   6.665
 8737SOL    HW127110   1.528   5.904   6.643
 8737SOL    HW227111   1.398   5.805   6.636
 8738SOL     OW27112   1.386   3.620   3.594
 8738SOL    HW127113   1.386   3.558   3.673
 8738SOL    HW227114   1.315   3.593   3.530
 8739SOL     OW27115   5.474   4.248   5.171
 8739SOL    HW127116   5.380   4.243   5.202
 8739SOL    HW227117   5.531   4.184   5.224
 8740SOL     OW27118   3.093   1.487   4.131
 8740SOL    HW127119   3.131   1.577   4.153
 8740SOL    HW227120   3.002   1.498   4.092
 8741SOL     OW27121   0.961   6.898   2.675
 8741SOL    HW127122   0.935   6.924   2.582
 8741SOL    HW227123   1.004   6.807   2.674
 8742SOL     OW27124   2.903   1.648   2.729
 8742SOL    HW127125   2.842   1.704   2.785
 8742SOL    HW227126   2.997   1.681   2.740
 8743SOL     OW27127   1.765   0.955   1.471
 8743SOL    HW127128   1.687   0.907   1.510
 8743SOL    HW227129   1.753   1.054   1.486
 8744SOL     OW27130   3.968   4.337   6.493
 8744SOL    HW127131   3.977   4.306   6.588
 8744SOL    HW227132   3.879   4.379   6.479
 8745SOL     OW27133   6.263   1.762   6.510
 8745SOL    HW127134   6.233   1.727   6.421
 8745SOL    HW227135   6.363   1.771   6.510
 8746SOL     OW27136   4.789   5.096   4.438
 8746SOL    HW127137   4.817   5.008   4.400
 8746SOL    HW227138   4.690   5.095   4.453
 8747SOL     OW27139   0.250   0.750   1.774
 8747SOL    HW127140   0.346   0.761   1.800
 8747SOL    HW227141   0.239   0.769   1.676
 8748SOL     OW27142   0.974   2.360   3.544
 8748SOL    HW127143   0.992   2.453   3.512
 8748SOL    HW227144   0.898   2.360   3.609
 8749SOL     OW27145   2.627   1.277   5.365
 8749SOL    HW127146   2.553   1.276   5.432
 8749SOL    HW227147   2.625   1.362   5.313
 8750SOL     OW27148   4.066   2.494   6.062
 8750SOL    HW127149   4.111   2.527   6.145
 8750SOL    HW227150   4.003   2.420   6.085
 8751SOL     OW27151   0.402   5.835   2.078
 8751SOL    HW127152   0.343   5.755   2.086
 8751SOL    HW227153   0.424   5.869   2.170
 8752SOL     OW27154   4.775   3.299   6.604
 8752SOL    HW127155   4.834   3.258   6.673
 8752SOL    HW227156   4.777   3.398   6.612
 8753SOL     OW27157   1.587   2.984   0.406
 8753SOL    HW127158   1.675   2.941   0.427
 8753SOL    HW227159   1.516   2.915   0.404
 8754SOL     OW27160   3.029   5.516   6.614
 8754SOL    HW127161   2.999   5.580   6.685
 8754SOL    HW227162   3.127   5.526   6.599
 8755SOL     OW27163   0.395   2.107   2.641
 8755SOL    HW127164   0.313   2.090   2.696
 8755SOL    HW227165   0.449   2.023   2.636
 8756SOL     OW27166   2.073   2.561   3.515
 8756SOL    HW127167   2.146   2.506   3.474
 8756SOL    HW227168   1.989   2.508   3.518
 8757SOL     OW27169   5.016   6.307   5.682
 8757SOL    HW127170   4.954   6.241   5.639
 8757SOL    HW227171   4.962   6.381   5.722
 8758SOL     OW27172   3.386   6.626   3.887
 8758SOL    HW127173   3.473   6.620   3.937
 8758SOL    HW227174   3.385   6.560   3.813
 8759SOL     OW27175   6.304   1.569   0.301
 8759SOL    HW127176   6.218   1.592   0.256
 8759SOL    HW227177   6.304   1.472   0.327
 8760SOL     OW27178   2.303   2.259   4.470
 8760SOL    HW127179   2.340   2.241   4.379
 8760SOL    HW227180   2.282   2.173   4.516
 8761SOL     OW27181   4.644   0.830   2.486
 8761SOL    HW127182   4.631   0.884   2.569
 8761SOL    HW227183   4.623   0.886   2.406
 8762SOL     OW27184   1.357   5.121   3.208
 8762SOL    HW127185   1.352   5.038   3.263
 8762SOL    HW227186   1.273   5.174   3.221
 8763SOL     OW27187   0.639   1.007   5.826
 8763SOL    HW127188   0.662   0.989   5.730
 8763SOL    HW227189   0.719   1.044   5.873
 8764SOL     OW27190   3.681   4.943   5.742
 8764SOL    HW127191   3.759   4.905   5.692
 8764SOL    HW227192   3.607   4.875   5.745
 8765SOL     OW27193   5.343   6.425   4.872
 8765SOL    HW127194   5.367   6.502   4.931
 8765SOL    HW227195   5.281   6.363   4.921
 8766SOL     OW27196   4.894   4.358   5.715
 8766SOL    HW127197   4.921   4.393   5.805
 8766SOL    HW227198   4.974   4.355   5.656
 8767SOL     OW27199   2.999   0.933   3.659
 8767SOL    HW127200   3.047   0.846   3.644
 8767SOL    HW227201   3.043   1.005   3.605
 8768SOL     OW27202   6.466   2.381   0.351
 8768SOL    HW127203   6.466   2.440   0.431
 8768SOL    HW227204   6.550   2.326   0.350
 8769SOL     OW27205   0.092   1.340   0.611
 8769SOL    HW127206   0.104   1.436   0.586
 8769SOL    HW227207   0.074   1.333   0.709
 8770SOL     OW27208   4.899   3.928   2.065
 8770SOL    HW127209   4.922   3.846   2.014
 8770SOL    HW227210   4.866   3.999   2.002
 8771SOL     OW27211   0.167   3.338   6.689
 8771SOL    HW127212   0.083   3.286   6.708
 8771SOL    HW227213   0.163   3.425   6.739
 8772SOL     OW27214   5.496   0.173   4.074
 8772SOL    HW127215   5.490   0.152   3.976
 8772SOL    HW227216   5.579   0.132   4.112
 8773SOL     OW27217   0.361   1.358   4.192
 8773SOL    HW127218   0.446   1.381   4.239
 8773SOL    HW227219   0.361   1.260   4.171
 8774SOL     OW27220   1.699   0.492   0.716
 8774SOL    HW127221   1.624   0.427   0.724
 8774SOL    HW227222   1.691   0.542   0.630
 8775SOL     OW27223   5.140   1.875   4.377
 8775SOL    HW127224   5.142   1.974   4.359
 8775SOL    HW227225   5.124   1.860   4.474
 8776SOL     OW27226   4.171   3.199   0.112
 8776SOL    HW127227   4.111   3.279   0.103
 8776SOL    HW227228   4.264   3.224   0.086
 8777SOL     OW27229   0.912   1.933   3.425
 8777SOL    HW127230   0.939   1.930   3.522
 8777SOL    HW227231   0.814   1.918   3.418
 8778SOL     OW27232   4.127   4.842   5.951
 8778SOL    HW127233   4.110   4.828   5.853
 8778SOL    HW227234   4.045   4.819   6.003
 8779SOL     OW27235   3.600   5.110   3.281
 8779SOL    HW127236   3.550   5.023   3.285
 8779SOL    HW227237   3.629   5.137   3.372
 8780SOL     OW27238   6.329   5.244   3.080
 8780SOL    HW127239   6.318   5.158   3.031
 8780SOL    HW227240   6.278   5.240   3.166
 8781SOL     OW27241   3.797   5.992   2.240
 8781SOL    HW127242   3.856   6.036   2.173
 8781SOL    HW227243   3.847   5.921   2.288
 8782SOL     OW27244   4.594   0.623   1.775
 8782SOL    HW127245   4.647   0.540   1.757
 8782SOL    HW227246   4.512   0.623   1.719
 8783SOL     OW27247   4.980   3.449   5.067
 8783SOL    HW127248   4.916   3.524   5.048
 8783SOL    HW227249   4.965   3.374   5.002
 8784SOL     OW27250   5.662   6.581   0.859
 8784SOL    HW127251   5.574   6.619   0.831
 8784SOL    HW227252   5.662   6.482   0.843
 8785SOL     OW27253   0.859   5.759   6.040
 8785SOL    HW127254   0.798   5.795   6.111
 8785SOL    HW227255   0.925   5.829   6.014
 8786SOL     OW27256   3.840   1.809   2.277
 8786SOL    HW127257   3.741   1.803   2.286
 8786SOL    HW227258   3.864   1.830   2.182
 8787SOL     OW27259   3.593   0.106   1.672
 8787SOL    HW127260   3.540   0.104   1.757
 8787SOL    HW227261   3.589   0.198   1.632
 8788SOL     OW27262   0.562   0.068   4.615
 8788SOL    HW127263   0.613   0.026   4.540
 8788SOL    HW227264   0.577   0.167   4.615
 8789SOL     OW27265   0.327   2.959   5.015
 8789SOL    HW127266   0.370   2.981   5.102
 8789SOL    HW227267   0.379   2.886   4.970
 8790SOL     OW27268   5.463   2.557   6.632
 8790SOL    HW127269   5.548   2.607   6.616
 8790SOL    HW227270   5.449   2.545   6.730
 8791SOL     OW27271   4.050   5.288   5.966
 8791SOL    HW127272   3.982   5.277   5.893
 8791SOL    HW227273   4.034   5.220   6.037
 8792SOL     OW27274   5.183   5.559   1.127
 8792SOL    HW127275   5.107   5.585   1.187
 8792SOL    HW227276   5.198   5.630   1.059
 8793SOL     OW27277   0.337   4.375   4.581
 8793SOL    HW127278   0.362   4.337   4.670
 8793SOL    HW227279   0.404   4.346   4.512
 8794SOL     OW27280   0.494   0.645   2.082
 8794SOL    HW127281   0.535   0.554   2.077
 8794SOL    HW227282   0.395   0.636   2.083
 8795SOL     OW27283   1.696   5.224   5.247
 8795SOL    HW127284   1.658   5.146   5.197
 8795SOL    HW227285   1.743   5.285   5.183
 8796SOL     OW27286   6.893   3.451   3.486
 8796SOL    HW127287   6.801   3.486   3.503
 8796SOL    HW227288   6.900   3.358   3.522
 8797SOL     OW27289   5.544   6.860   3.923
 8797SOL    HW127290   5.519   6.870   3.826
 8797SOL    HW227291   5.471   6.812   3.971
 8798SOL     OW27292   4.231   6.712   5.897
 8798SOL    HW127293   4.227   6.786   5.964
 8798SOL    HW227294   4.206   6.747   5.806
 8799SOL     OW27295   1.764   5.236   1.944
 8799SOL    HW127296   1.770   5.205   2.039
 8799SOL    HW227297   1.826   5.182   1.887
 8800SOL     OW27298   0.009   6.078   5.438
 8800SOL    HW127299   0.025   5.980   5.425
 8800SOL    HW227300   0.032   6.126   5.353
 8801SOL     OW27301   6.025   2.677   5.296
 8801SOL    HW127302   6.007   2.766   5.338
 8801SOL    HW227303   6.034   2.689   5.197
 8802SOL     OW27304   1.399   6.387   5.639
 8802SOL    HW127305   1.353   6.448   5.704
 8802SOL    HW227306   1.392   6.425   5.547
 8803SOL     OW27307   6.331   0.154   6.362
 8803SOL    HW127308   6.368   0.061   6.367
 8803SOL    HW227309   6.287   0.177   6.448
 8804SOL     OW27310   1.415   5.892   2.163
 8804SOL    HW127311   1.408   5.991   2.174
 8804SOL    HW227312   1.359   5.863   2.085
 8805SOL     OW27313   4.898   5.036   2.486
 8805SOL    HW127314   4.799   5.041   2.500
 8805SOL    HW227315   4.926   4.940   2.484
 8806SOL     OW27316   2.013   6.650   0.308
 8806SOL    HW127317   2.031   6.706   0.389
 8806SOL    HW227318   2.014   6.554   0.334
 8807SOL     OW27319   4.869   2.587   1.379
 8807SOL    HW127320   4.796   2.564   1.315
 8807SOL    HW227321   4.954   2.600   1.328
 8808SOL     OW27322   2.423   2.215   0.909
 8808SOL    HW127323   2.469   2.240   0.994
 8808SOL    HW227324   2.330   2.251   0.909
 8809SOL     OW27325   1.539   3.843   3.520
 8809SOL    HW127326   1.488   3.901   3.457
 8809SOL    HW227327   1.492   3.755   3.531
 8810SOL     OW27328   0.426   0.922   5.960
 8810SOL    HW127329   0.506   0.967   5.921
 8810SOL    HW227330   0.431   0.923   6.059
 8811SOL     OW27331   4.335   6.002   2.320
 8811SOL    HW127332   4.382   6.090   2.331
 8811SOL    HW227333   4.238   6.013   2.344
 8812SOL     OW27334   4.273   1.489   6.735
 8812SOL    HW127335   4.250   1.450   6.646
 8812SOL    HW227336   4.372   1.494   6.745
 8813SOL     OW27337   2.200   4.538   3.406
 8813SOL    HW127338   2.236   4.444   3.408
 8813SOL    HW227339   2.249   4.593   3.474
 8814SOL     OW27340   5.504   6.673   6.625
 8814SOL    HW127341   5.561   6.623   6.560
 8814SOL    HW227342   5.556   6.750   6.663
 8815SOL     OW27343   5.369   0.846   0.643
 8815SOL    HW127344   5.437   0.775   0.662
 8815SOL    HW227345   5.412   0.920   0.591
 8816SOL     OW27346   0.507   6.401   5.373
 8816SOL    HW127347   0.497   6.330   5.304
 8816SOL    HW227348   0.434   6.469   5.361
 8817SOL     OW27349   1.731   2.974   4.434
 8817SOL    HW127350   1.730   2.930   4.524
 8817SOL    HW227351   1.766   3.067   4.443
 8818SOL     OW27352   2.008   6.864   4.506
 8818SOL    HW127353   2.034   6.777   4.465
 8818SOL    HW227354   1.971   6.924   4.436
 8819SOL     OW27355   5.531   4.703   5.924
 8819SOL    HW127356   5.489   4.794   5.919
 8819SOL    HW227357   5.593   4.690   5.847
 8820SOL     OW27358   3.282   0.535   4.603
 8820SOL    HW127359   3.291   0.618   4.547
 8820SOL    HW227360   3.257   0.561   4.696
 8821SOL     OW27361   0.973   4.841   0.251
 8821SOL    HW127362   1.069   4.832   0.224
 8821SOL    HW227363   0.957   4.934   0.285
 8822SOL     OW27364   6.954   6.801   3.957
 8822SOL    HW127365   0.014   6.825   4.006
 8822SOL    HW227366   6.919   6.882   3.909
 8823SOL     OW27367   3.686   1.125   2.995
 8823SOL    HW127368   3.733   1.212   2.978
 8823SOL    HW227369   3.754   1.054   3.013
 8824SOL     OW27370   2.013   1.120   1.589
 8824SOL    HW127371   1.915   1.134   1.575
 8824SOL    HW227372   2.065   1.180   1.529
 8825SOL     OW27373   6.879   6.948   7.000
 8825SOL    HW127374   6.976   6.926   7.010
 8825SOL    HW227375   6.834   6.937   0.065
 8826SOL     OW27376   0.450   3.372   0.601
 8826SOL    HW127377   0.441   3.422   0.687
 8826SOL    HW227378   0.543   3.379   0.567
 8827SOL     OW27379   4.264   0.082   2.319
 8827SOL    HW127380   4.343   0.049   2.371
 8827SOL    HW227381   4.186   0.021   2.333
 8828SOL     OW27382   4.143   3.163   6.227
 8828SOL    HW127383   4.162   3.257   6.257
 8828SOL    HW227384   4.052   3.158   6.187
 8829SOL     OW27385   0.493   1.853   2.320
 8829SOL    HW127386   0.426   1.804   2.264
 8829SOL    HW227387   0.494   1.950   2.294
 8830SOL     OW27388   2.844   1.964   3.645
 8830SOL    HW127389   2.856   1.947   3.548
 8830SOL    HW227390   2.748   1.948   3.670
 8831SOL     OW27391   0.293   2.421   1.712
 8831SOL    HW127392   0.212   2.455   1.760
 8831SOL    HW227393   0.309   2.476   1.629
 8832SOL     OW27394   6.523   0.241   4.217
 8832SOL    HW127395   6.530   0.199   4.126
 8832SOL    HW227396   6.582   0.322   4.220
 8833SOL     OW27397   3.434   2.992   0.656
 8833SOL    HW127398   3.491   3.056   0.707
 8833SOL    HW227399   3.401   2.920   0.717
 8834SOL     OW27400   5.216   3.650   5.547
 8834SOL    HW127401   5.286   3.637   5.477
 8834SOL    HW227402   5.144   3.582   5.536
 8835SOL     OW27403   6.140   1.030   5.359
 8835SOL    HW127404   6.126   0.986   5.270
 8835SOL    HW227405   6.136   1.129   5.349
 8836SOL     OW27406   5.295   1.667   0.199
 8836SOL    HW127407   5.200   1.691   0.178
 8836SOL    HW227408   5.302   1.568   0.210
 8837SOL     OW27409   5.613   6.957   1.514
 8837SOL    HW127410   5.663   6.874   1.539
 8837SOL    HW227411   5.674   0.012   1.517
 8838SOL     OW27412   0.245   4.440   2.879
 8838SOL    HW127413   0.266   4.536   2.898
 8838SOL    HW227414   0.154   4.433   2.838
 8839SOL     OW27415   4.951   5.920   2.945
 8839SOL    HW127416   4.913   5.850   2.885
 8839SOL    HW227417   4.958   5.884   3.038
 8840SOL     OW27418   0.131   1.126   1.492
 8840SOL    HW127419   0.062   1.189   1.456
 8840SOL    HW227420   0.150   1.055   1.424
 8841SOL     OW27421   3.530   1.499   1.841
 8841SOL    HW127422   3.569   1.498   1.933
 8841SOL    HW227423   3.431   1.517   1.847
 8842SOL     OW27424   3.562   3.269   3.950
 8842SOL    HW127425   3.478   3.214   3.958
 8842SOL    HW227426   3.560   3.343   4.016
 8843SOL     OW27427   1.709   4.130   5.520
 8843SOL    HW127428   1.805   4.145   5.496
 8843SOL    HW227429   1.671   4.213   5.560
 8844SOL     OW27430   5.100   1.878   5.150
 8844SOL    HW127431   5.022   1.911   5.202
 8844SOL    HW227432   5.069   1.809   5.084
 8845SOL     OW27433   0.878   4.752   2.058
 8845SOL    HW127434   0.879   4.787   2.152
 8845SOL    HW227435   0.970   4.723   2.032
 8846SOL     OW27436   5.437   4.892   3.159
 8846SOL    HW127437   5.420   4.966   3.094
 8846SOL    HW227438   5.353   4.873   3.211
 8847SOL     OW27439   2.367   2.242   2.975
 8847SOL    HW127440   2.338   2.184   3.052
 8847SOL    HW227441   2.448   2.294   3.002
 8848SOL     OW27442   3.679   1.920   1.394
 8848SOL    HW127443   3.661   2.017   1.375
 8848SOL    HW227444   3.650   1.865   1.316
 8849SOL     OW27445   2.961   5.144   4.473
 8849SOL    HW127446   2.989   5.049   4.479
 8849SOL    HW227447   2.881   5.160   4.530
 8850SOL     OW27448   3.240   1.655   1.047
 8850SOL    HW127449   3.210   1.648   0.952
 8850SOL    HW227450   3.186   1.594   1.105
 8851SOL     OW27451   0.208   5.054   3.355
 8851SOL    HW127452   0.273   4.979   3.351
 8851SOL    HW227453   0.234   5.117   3.428
 8852SOL     OW27454   5.327   2.333   5.937
 8852SOL    HW127455   5.312   2.297   5.845
 8852SOL    HW227456   5.315   2.433   5.936
 8853SOL     OW27457   4.347   0.562   5.450
 8853SOL    HW127458   4.345   0.468   5.483
 8853SOL    HW227459   4.427   0.609   5.487
 8854SOL     OW27460   2.102   1.615   6.066
 8854SOL    HW127461   2.102   1.684   6.138
 8854SOL    HW227462   2.053   1.649   5.986
 8855SOL     OW27463   6.211   5.646   6.754
 8855SOL    HW127464   6.299   5.687   6.728
 8855SOL    HW227465   6.201   5.648   6.853
 8856SOL     OW27466   5.834   1.218   4.973
 8856SOL    HW127467   5.896   1.250   4.902
 8856SOL    HW227468   5.753   1.177   4.931
 8857SOL     OW27469   6.427   2.074   3.999
 8857SOL    HW127470   6.364   2.133   4.049
 8857SOL    HW227471   6.405   2.077   3.901
 8858SOL     OW27472   0.796   3.262   6.249
 8858SOL    HW127473   0.803   3.294   6.155
 8858SOL    HW227474   0.742   3.178   6.252
 8859SOL     OW27475   1.437   5.845   5.592
 8859SOL    HW127476   1.357   5.898   5.617
 8859SOL    HW227477   1.475   5.880   5.507
 8860SOL     OW27478   1.044   2.018   2.918
 8860SOL    HW127479   0.958   2.003   2.870
 8860SOL    HW227480   1.044   1.965   3.004
 8861SOL     OW27481   4.342   3.619   0.222
 8861SOL    HW127482   4.349   3.519   0.229
 8861SOL    HW227483   4.409   3.653   0.157
 8862SOL     OW27484   5.858   1.519   4.299
 8862SOL    HW127485   5.920   1.529   4.377
 8862SOL    HW227486   5.763   1.521   4.331
 8863SOL     OW27487   2.037   5.852   4.934
 8863SOL    HW127488   2.034   5.889   5.027
 8863SOL    HW227489   2.130   5.822   4.913
 8864SOL     OW27490   1.942   2.906   6.521
 8864SOL    HW127491   1.946   2.854   6.606
 8864SOL    HW227492   1.876   2.863   6.459
 8865SOL     OW27493   2.668   2.203   6.007
 8865SOL    HW127494   2.701   2.109   6.016
 8865SOL    HW227495   2.642   2.221   5.913
 8866SOL     OW27496   3.614   6.644   3.633
 8866SOL    HW127497   3.638   6.613   3.725
 8866SOL    HW227498   3.530   6.599   3.604
 8867SOL     OW27499   5.954   2.180   3.590
 8867SOL    HW127500   5.857   2.201   3.585
 8867SOL    HW227501   5.980   2.163   3.685
 8868SOL     OW27502   4.859   4.081   0.320
 8868SOL    HW127503   4.791   4.009   0.337
 8868SOL    HW227504   4.825   4.168   0.355
 8869SOL     OW27505   4.765   2.976   3.359
 8869SOL    HW127506   4.706   2.903   3.394
 8869SOL    HW227507   4.772   2.968   3.260
 8870SOL     OW27508   4.229   1.301   0.855
 8870SOL    HW127509   4.214   1.334   0.762
 8870SOL    HW227510   4.321   1.264   0.863
 8871SOL     OW27511   2.254   1.756   3.493
 8871SOL    HW127512   2.322   1.683   3.491
 8871SOL    HW227513   2.162   1.717   3.491
 8872SOL     OW27514   1.511   3.887   4.504
 8872SOL    HW127515   1.473   3.828   4.433
 8872SOL    HW227516   1.530   3.977   4.465
 8873SOL     OW27517   0.425   5.256   4.367
 8873SOL    HW127518   0.512   5.290   4.332
 8873SOL    HW227519   0.409   5.291   4.459
 8874SOL     OW27520   2.903   0.535   0.827
 8874SOL    HW127521   2.842   0.461   0.856
 8874SOL    HW227522   2.887   0.615   0.886
 8875SOL     OW27523   1.629   2.599   4.120
 8875SOL    HW127524   1.699   2.662   4.154
 8875SOL    HW227525   1.660   2.504   4.133
 8876SOL     OW27526   0.632   0.723   4.924
 8876SOL    HW127527   0.564   0.740   4.852
 8876SOL    HW227528   0.588   0.730   5.013
 8877SOL     OW27529   2.821   0.222   4.718
 8877SOL    HW127530   2.853   0.128   4.732
 8877SOL    HW227531   2.893   0.286   4.748
 8878SOL     OW27532   7.015   4.231   6.817
 8878SOL    HW127533   6.996   4.201   6.723
 8878SOL    HW227534   0.066   4.176   6.855
 8879SOL     OW27535   5.551   6.272   6.878
 8879SOL    HW127536   5.590   6.196   6.825
 8879SOL    HW227537   5.599   6.356   6.854
 8880SOL     OW27538   6.766   4.813   4.292
 8880SOL    HW127539   6.695   4.793   4.359
 8880SOL    HW227540   6.851   4.766   4.318
 8881SOL     OW27541   0.107   1.388   1.546
 8881SOL    HW127542   0.125   1.295   1.577
 8881SOL    HW227543   0.066   1.386   1.455
 8882SOL     OW27544   5.300   1.811   6.776
 8882SOL    HW127545   5.239   1.884   6.746
 8882SOL    HW227546   5.356   1.781   6.698
 8883SOL     OW27547   6.106   0.624   5.585
 8883SOL    HW127548   6.090   0.658   5.678
 8883SOL    HW227549   6.194   0.658   5.552
 8884SOL     OW27550   6.082   0.224   6.290
 8884SOL    HW127551   6.048   0.212   6.197
 8884SOL    HW227552   6.181   0.210   6.292
 8885SOL     OW27553   5.616   3.777   1.845
 8885SOL    HW127554   5.663   3.698   1.885
 8885SOL    HW227555   5.532   3.746   1.800
 8886SOL     OW27556   2.839   6.709   5.884
 8886SOL    HW127557   2.887   6.636   5.836
 8886SOL    HW227558   2.813   6.780   5.819
 8887SOL     OW27559   2.758   0.836   1.203
 8887SOL    HW127560   2.795   0.912   1.257
 8887SOL    HW227561   2.663   0.820   1.231
 8888SOL     OW27562   2.729   1.517   1.819
 8888SOL    HW127563   2.727   1.561   1.729
 8888SOL    HW227564   2.773   1.428   1.811
 8889SOL     OW27565   4.536   0.021   4.546
 8889SOL    HW127566   4.601   6.971   4.527
 8889SOL    HW227567   4.443   7.009   4.540
 8890SOL     OW27568   0.375   5.387   4.603
 8890SOL    HW127569   0.311   5.462   4.619
 8890SOL    HW227570   0.395   5.340   4.689
 8891SOL     OW27571   5.127   2.736   6.363
 8891SOL    HW127572   5.121   2.781   6.453
 8891SOL    HW227573   5.163   2.644   6.375
 8892SOL     OW27574   1.635   0.511   3.108
 8892SOL    HW127575   1.717   0.485   3.057
 8892SOL    HW227576   1.662   0.553   3.195
 8893SOL     OW27577   0.497   1.602   0.718
 8893SOL    HW127578   0.489   1.503   0.723
 8893SOL    HW227579   0.430   1.644   0.778
 8894SOL     OW27580   4.153   2.532   6.356
 8894SOL    HW127581   4.138   2.435   6.375
 8894SOL    HW227582   4.205   2.573   6.431
 8895SOL     OW27583   0.702   6.604   1.962
 8895SOL    HW127584   0.631   6.538   1.940
 8895SOL    HW227585   0.671   6.696   1.940
 8896SOL     OW27586   1.973   4.256   4.827
 8896SOL    HW127587   1.880   4.289   4.810
 8896SOL    HW227588   1.987   4.170   4.777
 8897SOL     OW27589   1.729   1.574   1.603
 8897SOL    HW127590   1.752   1.671   1.606
 8897SOL    HW227591   1.767   1.533   1.520
 8898SOL     OW27592   6.241   3.853   4.252
 8898SOL    HW127593   6.300   3.896   4.183
 8898SOL    HW227594   6.294   3.785   4.303
 8899SOL     OW27595   1.855   4.857   0.699
 8899SOL    HW127596   1.894   4.918   0.630
 8899SOL    HW227597   1.762   4.832   0.672
 8900SOL     OW27598   4.760   2.331   2.826
 8900SOL    HW127599   4.819   2.313   2.748
 8900SOL    HW227600   4.815   2.332   2.910
 8901SOL     OW27601   1.347   0.306   2.546
 8901SOL    HW127602   1.279   0.353   2.490
 8901SOL    HW227603   1.314   0.215   2.569
 8902SOL     OW27604   1.425   5.495   5.957
 8902SOL    HW127605   1.386   5.405   5.939
 8902SOL    HW227606   1.519   5.498   5.920
 8903SOL     OW27607   1.962   1.692   3.753
 8903SOL    HW127608   1.961   1.601   3.796
 8903SOL    HW227609   1.975   1.682   3.654
 8904SOL     OW27610   0.457   6.115   3.669
 8904SOL    HW127611   0.387   6.151   3.607
 8904SOL    HW227612   0.504   6.038   3.627
 8905SOL     OW27613   2.406   3.420   5.474
 8905SOL    HW127614   2.381   3.383   5.563
 8905SOL    HW227615   2.404   3.348   5.406
 8906SOL     OW27616   6.699   6.375   6.073
 8906SOL    HW127617   6.674   6.278   6.067
 8906SOL    HW227618   6.790   6.383   6.114
 8907SOL     OW27619   3.069   2.699   5.416
 8907SOL    HW127620   3.003   2.642   5.367
 8907SOL    HW227621   3.149   2.644   5.440
 8908SOL     OW27622   1.495   1.979   1.534
 8908SOL    HW127623   1.442   2.034   1.600
 8908SOL    HW227624   1.539   1.903   1.582
 8909SOL     OW27625   2.379   0.861   6.633
 8909SOL    HW127626   2.458   0.907   6.592
 8909SOL    HW227627   2.410   0.791   6.697
 8910SOL     OW27628   2.688   3.231   6.739
 8910SOL    HW127629   2.633   3.167   6.792
 8910SOL    HW227630   2.775   3.188   6.715
 8911SOL     OW27631   3.597   2.103   4.642
 8911SOL    HW127632   3.620   2.135   4.550
 8911SOL    HW227633   3.498   2.099   4.652
 8912SOL     OW27634   4.756   1.656   5.896
 8912SOL    HW127635   4.666   1.616   5.876
 8912SOL    HW227636   4.749   1.715   5.976
 8913SOL     OW27637   4.962   4.113   1.555
 8913SOL    HW127638   4.936   4.126   1.459
 8913SOL    HW227639   4.950   4.199   1.605
 8914SOL     OW27640   3.341   1.734   5.049
 8914SOL    HW127641   3.286   1.651   5.035
 8914SOL    HW227642   3.350   1.783   4.962
 8915SOL     OW27643   1.664   3.644   2.664
 8915SOL    HW127644   1.593   3.625   2.596
 8915SOL    HW227645   1.622   3.660   2.753
 8916SOL     OW27646   6.806   4.304   2.932
 8916SOL    HW127647   6.788   4.231   2.998
 8916SOL    HW227648   6.811   4.392   2.980
 8917SOL     OW27649   6.174   5.938   0.002
 8917SOL    HW127650   6.258   5.972   0.044
 8917SOL    HW227651   6.123   6.014   6.986
 8918SOL     OW27652   5.143   5.885   6.221
 8918SOL    HW127653   5.237   5.893   6.255
 8918SOL    HW227654   5.099   5.805   6.261
 8919SOL     OW27655   3.483   5.062   1.437
 8919SOL    HW127656   3.544   5.083   1.360
 8919SOL    HW227657   3.389   5.086   1.412
 8920SOL     OW27658   6.080   5.335   5.632
 8920SOL    HW127659   6.165   5.316   5.681
 8920SOL    HW227660   6.016   5.381   5.694
 8921SOL     OW27661   0.985   0.719   3.788
 8921SOL    HW127662   0.989   0.688   3.693
 8921SOL    HW227663   0.897   0.693   3.828
 8922SOL     OW27664   1.555   4.512   1.119
 8922SOL    HW127665   1.526   4.582   1.053
 8922SOL    HW227666   1.479   4.451   1.138
 8923SOL     OW27667   1.763   4.200   6.556
 8923SOL    HW127668   1.679   4.252   6.570
 8923SOL    HW227669   1.787   4.200   6.459
 8924SOL     OW27670   3.254   5.139   5.160
 8924SOL    HW127671   3.224   5.186   5.243
 8924SOL    HW227672   3.238   5.041   5.169
 8925SOL     OW27673   0.019   0.108   2.454
 8925SOL    HW127674   0.111   0.146   2.449
 8925SOL    HW227675   6.983   0.167   2.509
 8926SOL     OW27676   5.657   2.540   1.557
 8926SOL    HW127677   5.664   2.488   1.642
 8926SOL    HW227678   5.611   2.485   1.488
 8927SOL     OW27679   2.258   2.592   5.010
 8927SOL    HW127680   2.331   2.645   4.968
 8927SOL    HW227681   2.241   2.510   4.955
 8928SOL     OW27682   0.839   0.162   5.899
 8928SOL    HW127683   0.793   0.239   5.944
 8928SOL    HW227684   0.913   0.197   5.842
 8929SOL     OW27685   0.212   3.624   3.781
 8929SOL    HW127686   0.260   3.579   3.856
 8929SOL    HW227687   0.138   3.681   3.818
 8930SOL     OW27688   1.385   4.958   4.577
 8930SOL    HW127689   1.286   4.965   4.563
 8930SOL    HW227690   1.413   4.863   4.566
 8931SOL     OW27691   4.531   1.549   1.576
 8931SOL    HW127692   4.572   1.500   1.653
 8931SOL    HW227693   4.603   1.576   1.512
 8932SOL     OW27694   6.346   0.520   6.448
 8932SOL    HW127695   6.392   0.554   6.530
 8932SOL    HW227696   6.412   0.473   6.390
 8933SOL     OW27697   1.800   0.244   4.810
 8933SOL    HW127698   1.800   0.190   4.895
 8933SOL    HW227699   1.773   0.338   4.830
 8934SOL     OW27700   3.317   5.562   2.937
 8934SOL    HW127701   3.222   5.558   2.907
 8934SOL    HW227702   3.333   5.493   3.008
 8935SOL     OW27703   4.288   2.363   2.637
 8935SOL    HW127704   4.358   2.390   2.570
 8935SOL    HW227705   4.236   2.286   2.600
 8936SOL     OW27706   0.486   4.992   1.538
 8936SOL    HW127707   0.452   5.072   1.488
 8936SOL    HW227708   0.572   5.016   1.583
 8937SOL     OW27709   6.917   6.589   3.765
 8937SOL    HW127710   6.875   6.507   3.803
 8937SOL    HW227711   6.911   6.664   3.831
 8938SOL     OW27712   6.653   1.375   0.628
 8938SOL    HW127713   6.668   1.335   0.537
 8938SOL    HW227714   6.663   1.303   0.697
 8939SOL     OW27715   0.197   2.605   3.898
 8939SOL    HW127716   0.284   2.563   3.924
 8939SOL    HW227717   0.213   2.678   3.832
 8940SOL     OW27718   6.658   3.096   1.138
 8940SOL    HW127719   6.603   3.014   1.123
 8940SOL    HW227720   6.696   3.095   1.230
 8941SOL     OW27721   5.239   2.221   1.785
 8941SOL    HW127722   5.169   2.291   1.800
 8941SOL    HW227723   5.214   2.138   1.835
 8942SOL     OW27724   6.221   4.535   3.743
 8942SOL    HW127725   6.144   4.478   3.772
 8942SOL    HW227726   6.277   4.559   3.823
 8943SOL     OW27727   5.014   3.583   6.933
 8943SOL    HW127728   4.933   3.593   6.991
 8943SOL    HW227729   5.095   3.571   6.991
 8944SOL     OW27730   4.814   5.572   3.936
 8944SOL    HW127731   4.748   5.634   3.894
 8944SOL    HW227732   4.784   5.549   4.028
 8945SOL     OW27733   5.791   4.344   5.307
 8945SOL    HW127734   5.864   4.355   5.375
 8945SOL    HW227735   5.757   4.250   5.310
 8946SOL     OW27736   5.388   1.044   4.318
 8946SOL    HW127737   5.442   1.114   4.364
 8946SOL    HW227738   5.406   0.955   4.359
 8947SOL     OW27739   1.792   5.285   5.981
 8947SOL    HW127740   1.745   5.204   6.016
 8947SOL    HW227741   1.856   5.258   5.910
 8948SOL     OW27742   6.611   0.962   3.542
 8948SOL    HW127743   6.607   1.007   3.631
 8948SOL    HW227744   6.606   1.030   3.469
 8949SOL     OW27745   3.094   6.197   0.016
 8949SOL    HW127746   3.068   6.156   0.104
 8949SOL    HW227747   3.016   6.195   6.977
 8950SOL     OW27748   4.934   4.194   1.242
 8950SOL    HW127749   4.836   4.212   1.232
 8950SOL    HW227750   4.965   4.138   1.165
 8951SOL     OW27751   1.667   1.547   4.584
 8951SOL    HW127752   1.572   1.574   4.604
 8951SOL    HW227753   1.722   1.553   4.668
 8952SOL     OW27754   2.160   4.805   3.894
 8952SOL    HW127755   2.169   4.705   3.889
 8952SOL    HW227756   2.246   4.845   3.925
 8953SOL     OW27757   1.463   5.273   1.964
 8953SOL    HW127758   1.546   5.243   1.917
 8953SOL    HW227759   1.383   5.243   1.912
 8954SOL     OW27760   1.263   5.090   4.815
 8954SOL    HW127761   1.309   5.044   4.740
 8954SOL    HW227762   1.315   5.171   4.842
 8955SOL     OW27763   5.517   2.564   3.611
 8955SOL    HW127764   5.577   2.551   3.532
 8955SOL    HW227765   5.560   2.627   3.676
 8956SOL     OW27766   1.163   5.685   5.581
 8956SOL    HW127767   1.114   5.765   5.616
 8956SOL    HW227768   1.255   5.683   5.621
 8957SOL     OW27769   0.907   5.557   2.387
 8957SOL    HW127770   0.843   5.506   2.329
 8957SOL    HW227771   0.999   5.520   2.376
 8958SOL     OW27772   1.618   4.083   5.139
 8958SOL    HW127773   1.708   4.040   5.139
 8958SOL    HW227774   1.559   4.036   5.073
 8959SOL     OW27775   0.105   3.137   2.518
 8959SOL    HW127776   0.201   3.154   2.538
 8959SOL    HW227777   0.049   3.201   2.571
 8960SOL     OW27778   5.851   4.219   4.116
 8960SOL    HW127779   5.753   4.229   4.137
 8960SOL    HW227780   5.905   4.246   4.196
 8961SOL     OW27781   3.254   6.684   5.097
 8961SOL    HW127782   3.263   6.636   5.184
 8961SOL    HW227783   3.308   6.637   5.027
 8962SOL     OW27784   0.686   5.710   1.572
 8962SOL    HW127785   0.662   5.727   1.476
 8962SOL    HW227786   0.608   5.669   1.619
 8963SOL     OW27787   3.353   5.840   4.539
 8963SOL    HW127788   3.292   5.897   4.483
 8963SOL    HW227789   3.353   5.747   4.503
 8964SOL     OW27790   0.070   2.986   4.456
 8964SOL    HW127791   0.025   2.921   4.395
 8964SOL    HW227792   0.035   3.078   4.439
 8965SOL     OW27793   4.500   5.494   0.298
 8965SOL    HW127794   4.564   5.437   0.247
 8965SOL    HW227795   4.547   5.575   0.332
 8966SOL     OW27796   5.174   5.326   6.592
 8966SOL    HW127797   5.232   5.316   6.512
 8966SOL    HW227798   5.226   5.371   6.666
 8967SOL     OW27799   3.183   0.158   3.099
 8967SOL    HW127800   3.155   0.187   3.008
 8967SOL    HW227801   3.144   0.069   3.120
 8968SOL     OW27802   3.538   4.966   2.146
 8968SOL    HW127803   3.536   4.876   2.102
 8968SOL    HW227804   3.544   4.954   2.245
 8969SOL     OW27805   6.950   1.072   3.264
 8969SOL    HW127806   6.958   1.117   3.175
 8969SOL    HW227807   6.997   1.125   3.333
 8970SOL     OW27808   1.656   0.876   5.912
 8970SOL    HW127809   1.708   0.947   5.960
 8970SOL    HW227810   1.710   0.842   5.835
 8971SOL     OW27811   4.414   5.588   0.558
 8971SOL    HW127812   4.364   5.591   0.644
 8971SOL    HW227813   4.478   5.511   0.559
 8972SOL     OW27814   6.404   4.415   0.810
 8972SOL    HW127815   6.443   4.323   0.803
 8972SOL    HW227816   6.460   4.478   0.757
 8973SOL     OW27817   0.445   2.444   1.954
 8973SOL    HW127818   0.519   2.378   1.943
 8973SOL    HW227819   0.386   2.441   1.873
 8974SOL     OW27820   2.012   4.295   4.275
 8974SOL    HW127821   1.926   4.246   4.257
 8974SOL    HW227822   2.039   4.344   4.192
 8975SOL     OW27823   0.540   7.010   6.378
 8975SOL    HW127824   0.629   7.010   6.333
 8975SOL    HW227825   0.468   0.010   6.312
 8976SOL     OW27826   6.556   6.671   1.992
 8976SOL    HW127827   6.631   6.725   1.954
 8976SOL    HW227828   6.526   6.711   2.078
 8977SOL     OW27829   0.302   5.005   5.903
 8977SOL    HW127830   0.375   5.072   5.888
 8977SOL    HW227831   0.325   4.947   5.981
 8978SOL     OW27832   5.508   5.510   5.677
 8978SOL    HW127833   5.597   5.466   5.690
 8978SOL    HW227834   5.516   5.585   5.612
 8979SOL     OW27835   1.055   5.264   5.698
 8979SOL    HW127836   1.095   5.222   5.779
 8979SOL    HW227837   1.119   5.330   5.660
 8980SOL     OW27838   3.571   0.677   4.912
 8980SOL    HW127839   3.591   0.774   4.926
 8980SOL    HW227840   3.478   0.657   4.943
 8981SOL     OW27841   4.016   3.030   6.839
 8981SOL    HW127842   4.008   2.954   6.904
 8981SOL    HW227843   3.944   3.097   6.857
 8982SOL     OW27844   0.738   1.219   1.277
 8982SOL    HW127845   0.640   1.226   1.257
 8982SOL    HW227846   0.783   1.304   1.252
 8983SOL     OW27847   1.105   6.665   2.673
 8983SOL    HW127848   1.127   6.618   2.587
 8983SOL    HW227849   1.128   6.606   2.750
 8984SOL     OW27850   5.983   0.228   4.105
 8984SOL    HW127851   5.934   0.221   4.019
 8984SOL    HW227852   6.043   0.149   4.116
 8985SOL     OW27853   4.481   2.832   0.905
 8985SOL    HW127854   4.503   2.783   0.989
 8985SOL    HW227855   4.511   2.778   0.826
 8986SOL     OW27856   0.433   5.176   0.688
 8986SOL    HW127857   0.431   5.213   0.595
 8986SOL    HW227858   0.408   5.249   0.753
 8987SOL     OW27859   2.249   0.110   1.274
 8987SOL    HW127860   2.188   0.095   1.196
 8987SOL    HW227861   2.247   0.207   1.299
 8988SOL     OW27862   0.805   5.458   1.595
 8988SOL    HW127863   0.782   5.548   1.631
 8988SOL    HW227864   0.849   5.403   1.666
 8989SOL     OW27865   5.277   1.598   2.020
 8989SOL    HW127866   5.258   1.647   2.106
 8989SOL    HW227867   5.246   1.654   1.943
 8990SOL     OW27868   3.680   0.669   1.882
 8990SOL    HW127869   3.691   0.588   1.825
 8990SOL    HW227870   3.702   0.646   1.977
 8991SOL     OW27871   2.193   2.591   0.438
 8991SOL    HW127872   2.242   2.563   0.521
 8991SOL    HW227873   2.191   2.515   0.374
 8992SOL     OW27874   0.516   3.409   0.219
 8992SOL    HW127875   0.535   3.347   0.143
 8992SOL    HW227876   0.529   3.360   0.306
 8993SOL     OW27877   5.636   3.297   3.837
 8993SOL    HW127878   5.640   3.335   3.929
 8993SOL    HW227879   5.597   3.205   3.841
 8994SOL     OW27880   0.686   5.016   3.213
 8994SOL    HW127881   0.748   4.938   3.212
 8994SOL    HW227882   0.688   5.061   3.124
 8995SOL     OW27883   1.802   3.755   4.565
 8995SOL    HW127884   1.703   3.755   4.579
 8995SOL    HW227885   1.836   3.662   4.556
 8996SOL     OW27886   0.113   3.891   2.749
 8996SOL    HW127887   0.200   3.917   2.707
 8996SOL    HW227888   0.131   3.827   2.824
 8997SOL     OW27889   4.537   1.685   5.394
 8997SOL    HW127890   4.440   1.672   5.370
 8997SOL    HW227891   4.590   1.700   5.310
 8998SOL     OW27892   1.708   2.152   5.530
 8998SOL    HW127893   1.657   2.221   5.581
 8998SOL    HW227894   1.645   2.099   5.473
 8999SOL     OW27895   6.156   1.139   4.443
 8999SOL    HW127896   6.211   1.200   4.386
 8999SOL    HW227897   6.062   1.137   4.409
 9000SOL     OW27898   2.950   4.159   0.402
 9000SOL    HW127899   2.876   4.224   0.418
 9000SOL    HW227900   3.036   4.208   0.390
 9001SOL     OW27901   1.644   5.263   3.956
 9001SOL    HW127902   1.580   5.300   4.023
 9001SOL    HW227903   1.728   5.317   3.956
 9002SOL     OW27904   5.728   4.519   6.060
 9002SOL    HW127905   5.639   4.550   6.028
 9002SOL    HW227906   5.739   4.543   6.156
 9003SOL     OW27907   5.653   2.825   6.917
 9003SOL    HW127908   5.728   2.885   6.946
 9003SOL    HW227909   5.637   2.756   6.988
 9004SOL     OW27910   4.492   6.445   1.147
 9004SOL    HW127911   4.542   6.396   1.075
 9004SOL    HW227912   4.434   6.515   1.106
 9005SOL     OW27913   5.039   1.918   3.293
 9005SOL    HW127914   4.973   1.869   3.236
 9005SOL    HW227915   5.091   1.982   3.236
 9006SOL     OW27916   1.108   5.369   1.320
 9006SOL    HW127917   1.202   5.401   1.324
 9006SOL    HW227918   1.054   5.431   1.264
 9007SOL     OW27919   2.855   6.825   4.020
 9007SOL    HW127920   2.942   6.835   3.971
 9007SOL    HW227921   2.849   6.732   4.057
 9008SOL     OW27922   7.022   4.536   2.493
 9008SOL    HW127923   6.977   4.448   2.475
 9008SOL    HW227924   0.028   4.540   2.589
 9009SOL     OW27925   2.956   6.295   0.422
 9009SOL    HW127926   2.982   6.233   0.347
 9009SOL    HW227927   2.969   6.249   0.509
 9010SOL     OW27928   0.959   6.024   5.206
 9010SOL    HW127929   1.012   6.099   5.165
 9010SOL    HW227930   0.956   5.947   5.141
 9011SOL     OW27931   4.741   1.875   0.604
 9011SOL    HW127932   4.710   1.843   0.693
 9011SOL    HW227933   4.836   1.846   0.589
 9012SOL     OW27934   0.225   4.908   1.508
 9012SOL    HW127935   0.323   4.927   1.511
 9012SOL    HW227936   0.178   4.969   1.571
 9013SOL     OW27937   6.452   5.834   3.326
 9013SOL    HW127938   6.489   5.926   3.342
 9013SOL    HW227939   6.473   5.776   3.404
 9014SOL     OW27940   2.503   1.176   0.865
 9014SOL    HW127941   2.494   1.191   0.964
 9014SOL    HW227942   2.600   1.175   0.841
 9015SOL     OW27943   0.242   0.923   6.323
 9015SOL    HW127944   0.204   0.863   6.254
 9015SOL    HW227945   0.225   0.885   6.414
 9016SOL     OW27946   6.180   5.932   6.468
 9016SOL    HW127947   6.138   5.870   6.401
 9016SOL    HW227948   6.262   5.889   6.506
 9017SOL     OW27949   6.433   2.416   3.613
 9017SOL    HW127950   6.487   2.335   3.590
 9017SOL    HW227951   6.369   2.394   3.686
 9018SOL     OW27952   3.735   2.297   5.430
 9018SOL    HW127953   3.676   2.363   5.475
 9018SOL    HW227954   3.679   2.228   5.383
 9019SOL     OW27955   2.238   0.235   0.278
 9019SOL    HW127956   2.282   0.205   0.362
 9019SOL    HW227957   2.284   0.318   0.245
 9020SOL     OW27958   0.912   4.484   3.027
 9020SOL    HW127959   0.987   4.457   2.967
 9020SOL    HW227960   0.849   4.407   3.038
 9021SOL     OW27961   6.624   5.500   5.293
 9021SOL    HW127962   6.642   5.571   5.361
 9021SOL    HW227963   6.525   5.495   5.276
 9022SOL     OW27964   2.958   0.933   0.085
 9022SOL    HW127965   2.926   0.986   0.006
 9022SOL    HW227966   2.879   0.895   0.134
 9023SOL     OW27967   3.800   3.324   3.482
 9023SOL    HW127968   3.745   3.403   3.509
 9023SOL    HW227969   3.741   3.256   3.438
 9024SOL     OW27970   1.949   6.561   6.480
 9024SOL    HW127971   1.963   6.635   6.415
 9024SOL    HW227972   1.915   6.598   6.567
 9025SOL     OW27973   5.660   5.192   1.272
 9025SOL    HW127974   5.753   5.217   1.244
 9025SOL    HW227975   5.638   5.239   1.358
 9026SOL     OW27976   3.371   2.880   4.934
 9026SOL    HW127977   3.429   2.819   4.988
 9026SOL    HW227978   3.291   2.906   4.987
 9027SOL     OW27979   2.748   2.324   3.699
 9027SOL    HW127980   2.697   2.360   3.621
 9027SOL    HW227981   2.708   2.358   3.784
 9028SOL     OW27982   3.038   4.778   5.209
 9028SOL    HW127983   2.986   4.786   5.294
 9028SOL    HW227984   3.022   4.688   5.169
 9029SOL     OW27985   5.007   6.654   3.430
 9029SOL    HW127986   4.930   6.596   3.455
 9029SOL    HW227987   4.990   6.696   3.341
 9030SOL     OW27988   2.476   0.742   2.399
 9030SOL    HW127989   2.567   0.739   2.440
 9030SOL    HW227990   2.467   0.824   2.343
 9031SOL     OW27991   2.492   5.901   6.306
 9031SOL    HW127992   2.425   5.902   6.232
 9031SOL    HW227993   2.563   5.969   6.288
 9032SOL     OW27994   2.419   1.812   1.597
 9032SOL    HW127995   2.432   1.886   1.663
 9032SOL    HW227996   2.506   1.765   1.583
 9033SOL     OW27997   1.807   3.571   2.897
 9033SOL    HW127998   1.870   3.494   2.909
 9033SOL    HW227999   1.809   3.600   2.802
 9034SOL     OW28000   3.309   6.747   5.605
 9034SOL    HW128001   3.214   6.767   5.580
 9034SOL    HW228002   3.332   6.654   5.576
 9035SOL     OW28003   0.104   1.239   4.376
 9035SOL    HW128004   0.183   1.198   4.331
 9035SOL    HW228005   0.101   1.337   4.356
 9036SOL     OW28006   0.747   2.793   5.658
 9036SOL    HW128007   0.799   2.787   5.743
 9036SOL    HW228008   0.808   2.818   5.583
 9037SOL     OW28009   2.234   4.465   6.330
 9037SOL    HW128010   2.178   4.548   6.331
 9037SOL    HW228011   2.187   4.393   6.381
 9038SOL     OW28012   4.637   6.471   5.582
 9038SOL    HW128013   4.567   6.422   5.530
 9038SOL    HW228014   4.705   6.510   5.520
 9039SOL     OW28015   1.789   5.776   5.054
 9039SOL    HW128016   1.819   5.688   5.091
 9039SOL    HW228017   1.865   5.820   5.007
 9040SOL     OW28018   1.742   1.563   2.653
 9040SOL    HW128019   1.810   1.553   2.581
 9040SOL    HW228020   1.672   1.492   2.643
 9041SOL     OW28021   1.380   3.259   0.941
 9041SOL    HW128022   1.430   3.177   0.969
 9041SOL    HW228023   1.335   3.299   1.022
 9042SOL     OW28024   2.594   4.765   3.207
 9042SOL    HW128025   2.590   4.691   3.275
 9042SOL    HW228026   2.553   4.733   3.121
 9043SOL     OW28027   0.619   2.302   5.840
 9043SOL    HW128028   0.609   2.385   5.787
 9043SOL    HW228029   0.690   2.315   5.910
 9044SOL     OW28030   6.196   0.423   1.213
 9044SOL    HW128031   6.200   0.408   1.312
 9044SOL    HW228032   6.226   0.339   1.166
 9045SOL     OW28033   2.774   6.850   3.326
 9045SOL    HW128034   2.752   6.771   3.269
 9045SOL    HW228035   2.854   6.829   3.382
 9046SOL     OW28036   3.465   4.182   4.919
 9046SOL    HW128037   3.380   4.138   4.890
 9046SOL    HW228038   3.534   4.172   4.848
 9047SOL     OW28039   0.974   4.612   4.462
 9047SOL    HW128040   0.899   4.603   4.396
 9047SOL    HW228041   0.938   4.641   4.550
 9048SOL     OW28042   0.465   3.369   4.533
 9048SOL    HW128043   0.409   3.318   4.598
 9048SOL    HW228044   0.409   3.437   4.486
 9049SOL     OW28045   5.485   6.312   6.280
 9049SOL    HW128046   5.480   6.298   6.379
 9049SOL    HW228047   5.580   6.322   6.252
 9050SOL     OW28048   0.090   4.844   6.447
 9050SOL    HW128049   0.002   4.803   6.473
 9050SOL    HW228050   0.155   4.772   6.425
 9051SOL     OW28051   5.642   6.224   6.566
 9051SOL    HW128052   5.543   6.206   6.567
 9051SOL    HW228053   5.686   6.164   6.500
 9052SOL     OW28054   2.259   5.152   4.406
 9052SOL    HW128055   2.349   5.194   4.412
 9052SOL    HW228056   2.268   5.053   4.412
 9053SOL     OW28057   2.645   2.422   3.920
 9053SOL    HW128058   2.626   2.411   4.018
 9053SOL    HW228059   2.660   2.519   3.900
 9054SOL     OW28060   2.270   0.377   1.300
 9054SOL    HW128061   2.281   0.361   1.398
 9054SOL    HW228062   2.276   0.475   1.281
 9055SOL     OW28063   0.532   2.484   3.927
 9055SOL    HW128064   0.499   2.448   4.015
 9055SOL    HW228065   0.499   2.577   3.915
 9056SOL     OW28066   5.398   0.269   3.059
 9056SOL    HW128067   5.377   0.177   3.092
 9056SOL    HW228068   5.481   0.302   3.104
 9057SOL     OW28069   6.032   6.149   6.358
 9057SOL    HW128070   6.092   6.222   6.326
 9057SOL    HW228071   6.084   6.083   6.411
 9058SOL     OW28072   1.840   2.927   4.988
 9058SOL    HW128073   1.930   2.890   5.011
 9058SOL    HW228074   1.775   2.851   4.976
 9059SOL     OW28075   6.346   2.045   3.082
 9059SOL    HW128076   6.430   2.099   3.069
 9059SOL    HW228077   6.355   1.988   3.164
 9060SOL     OW28078   0.507   3.327   1.701
 9060SOL    HW128079   0.529   3.232   1.678
 9060SOL    HW228080   0.507   3.382   1.618
 9061SOL     OW28081   5.379   5.407   1.696
 9061SOL    HW128082   5.398   5.505   1.710
 9061SOL    HW228083   5.298   5.397   1.638
 9062SOL     OW28084   0.668   4.830   3.556
 9062SOL    HW128085   0.611   4.907   3.584
 9062SOL    HW228086   0.617   4.745   3.567
 9063SOL     OW28087   3.217   0.556   2.245
 9063SOL    HW128088   3.243   0.639   2.195
 9063SOL    HW228089   3.120   0.538   2.231
 9064SOL     OW28090   0.618   4.237   3.314
 9064SOL    HW128091   0.685   4.255   3.242
 9064SOL    HW228092   0.663   4.242   3.403
 9065SOL     OW28093   2.494   5.571   4.960
 9065SOL    HW128094   2.571   5.510   4.941
 9065SOL    HW228095   2.411   5.516   4.977
 9066SOL     OW28096   5.026   4.971   5.761
 9066SOL    HW128097   5.099   5.034   5.735
 9066SOL    HW228098   5.042   4.939   5.855
 9067SOL     OW28099   6.521   0.531   4.918
 9067SOL    HW128100   6.545   0.605   4.855
 9067SOL    HW228101   6.488   0.452   4.866
 9068SOL     OW28102   4.935   6.978   4.522
 9068SOL    HW128103   5.010   6.913   4.520
 9068SOL    HW228104   4.864   6.950   4.457
 9069SOL     OW28105   4.560   1.998   1.978
 9069SOL    HW128106   4.577   2.087   1.933
 9069SOL    HW228107   4.535   2.014   2.073
 9070SOL     OW28108   1.464   1.769   5.746
 9070SOL    HW128109   1.561   1.760   5.721
 9070SOL    HW228110   1.409   1.784   5.664
 9071SOL     OW28111   5.075   1.194   5.713
 9071SOL    HW128112   5.141   1.204   5.787
 9071SOL    HW228113   5.043   1.284   5.684
 9072SOL     OW28114   5.527   0.311   2.490
 9072SOL    HW128115   5.440   0.314   2.541
 9072SOL    HW228116   5.602   0.334   2.552
 9073SOL     OW28117   3.856   0.976   6.800
 9073SOL    HW128118   3.764   0.939   6.805
 9073SOL    HW228119   3.857   1.055   6.738
 9074SOL     OW28120   1.352   0.078   1.304
 9074SOL    HW128121   1.381   0.054   1.396
 9074SOL    HW228122   1.408   0.153   1.270
 9075SOL     OW28123   6.948   0.865   1.455
 9075SOL    HW128124   6.874   0.804   1.428
 9075SOL    HW228125   6.941   0.886   1.553
 9076SOL     OW28126   6.346   0.310   2.240
 9076SOL    HW128127   6.289   0.391   2.226
 9076SOL    HW228128   6.301   0.230   2.201
 9077SOL     OW28129   5.996   1.282   6.056
 9077SOL    HW128130   6.043   1.317   5.975
 9077SOL    HW228131   5.898   1.301   6.050
 9078SOL     OW28132   5.322   5.549   6.977
 9078SOL    HW128133   5.324   5.643   7.010
 9078SOL    HW228134   5.411   5.526   6.937
 9079SOL     OW28135   1.415   0.399   5.948
 9079SOL    HW128136   1.428   0.498   5.950
 9079SOL    HW228137   1.325   0.376   5.986
 9080SOL     OW28138   6.640   3.849   0.935
 9080SOL    HW128139   6.558   3.800   0.905
 9080SOL    HW228140   6.646   3.936   0.886
 9081SOL     OW28141   3.952   2.189   1.038
 9081SOL    HW128142   3.961   2.136   1.123
 9081SOL    HW228143   4.000   2.276   1.048
 9082SOL     OW28144   3.245   6.215   5.950
 9082SOL    HW128145   3.149   6.243   5.952
 9082SOL    HW228146   3.304   6.295   5.962
 9083SOL     OW28147   4.699   5.045   6.274
 9083SOL    HW128148   4.710   4.949   6.300
 9083SOL    HW228149   4.680   5.100   6.355
 9084SOL     OW28150   0.565   2.963   5.527
 9084SOL    HW128151   0.613   2.883   5.563
 9084SOL    HW228152   0.616   3.046   5.550
 9085SOL     OW28153   3.144   5.301   0.290
 9085SOL    HW128154   3.208   5.227   0.265
 9085SOL    HW228155   3.145   5.371   0.219
 9086SOL     OW28156   0.211   4.658   0.390
 9086SOL    HW128157   0.285   4.725   0.391
 9086SOL    HW228158   0.230   4.587   0.459
 9087SOL     OW28159   6.202   1.763   1.846
 9087SOL    HW128160   6.116   1.810   1.862
 9087SOL    HW228161   6.214   1.749   1.748
 9088SOL     OW28162   6.256   0.798   1.851
 9088SOL    HW128163   6.172   0.756   1.885
 9088SOL    HW228164   6.266   0.889   1.892
 9089SOL     OW28165   4.783   5.503   3.480
 9089SOL    HW128166   4.702   5.507   3.539
 9089SOL    HW228167   4.829   5.415   3.492
 9090SOL     OW28168   6.080   6.261   4.837
 9090SOL    HW128169   6.002   6.259   4.774
 9090SOL    HW228170   6.053   6.305   4.922
 9091SOL     OW28171   3.423   2.253   0.384
 9091SOL    HW128172   3.508   2.265   0.333
 9091SOL    HW228173   3.380   2.167   0.357
 9092SOL     OW28174   1.150   6.689   5.642
 9092SOL    HW128175   1.119   6.626   5.713
 9092SOL    HW228176   1.149   6.644   5.553
 9093SOL     OW28177   1.917   5.317   0.436
 9093SOL    HW128178   1.836   5.341   0.490
 9093SOL    HW228179   1.923   5.377   0.356
 9094SOL     OW28180   6.923   5.694   2.416
 9094SOL    HW128181   6.864   5.639   2.356
 9094SOL    HW228182   6.971   5.634   2.480
 9095SOL     OW28183   4.682   3.521   6.428
 9095SOL    HW128184   4.600   3.464   6.442
 9095SOL    HW228185   4.656   3.604   6.379
 9096SOL     OW28186   5.892   2.955   2.729
 9096SOL    HW128187   5.830   2.972   2.652
 9096SOL    HW228188   5.843   2.904   2.800
 9097SOL     OW28189   0.222   4.123   6.920
 9097SOL    HW128190   0.312   4.131   6.877
 9097SOL    HW228191   0.191   4.029   6.915
 9098SOL     OW28192   3.944   3.844   2.119
 9098SOL    HW128193   4.017   3.857   2.052
 9098SOL    HW228194   3.864   3.804   2.075
 9099SOL     OW28195   2.737   3.477   0.580
 9099SOL    HW128196   2.832   3.510   0.576
 9099SOL    HW228197   2.676   3.550   0.549
 9100SOL     OW28198   0.782   3.579   1.279
 9100SOL    HW128199   0.706   3.640   1.258
 9100SOL    HW228200   0.754   3.484   1.269
 9101SOL     OW28201   1.503   2.540   2.704
 9101SOL    HW128202   1.511   2.513   2.800
 9101SOL    HW228203   1.575   2.495   2.651
 9102SOL     OW28204   3.781   5.330   2.030
 9102SOL    HW128205   3.807   5.244   2.074
 9102SOL    HW228206   3.860   5.390   2.023
 9103SOL     OW28207   0.307   4.192   0.839
 9103SOL    HW128208   0.395   4.196   0.793
 9103SOL    HW228209   0.240   4.149   0.779
 9104SOL     OW28210   4.388   6.003   1.804
 9104SOL    HW128211   4.382   6.069   1.879
 9104SOL    HW228212   4.302   5.952   1.797
 9105SOL     OW28213   1.684   0.400   6.559
 9105SOL    HW128214   1.628   0.334   6.510
 9105SOL    HW228215   1.635   0.487   6.567
 9106SOL     OW28216   5.741   4.799   0.239
 9106SOL    HW128217   5.792   4.735   0.182
 9106SOL    HW228218   5.734   4.762   0.332
 9107SOL     OW28219   3.832   6.846   6.985
 9107SOL    HW128220   3.871   6.925   6.939
 9107SOL    HW228221   3.904   6.797   0.011
 9108SOL     OW28222   5.059   4.383   5.325
 9108SOL    HW128223   5.000   4.457   5.295
 9108SOL    HW228224   5.078   4.393   5.423
 9109SOL     OW28225   2.479   2.106   3.384
 9109SOL    HW128226   2.481   2.040   3.459
 9109SOL    HW228227   2.386   2.112   3.348
 9110SOL     OW28228   1.786   5.289   3.479
 9110SOL    HW128229   1.721   5.326   3.412
 9110SOL    HW228230   1.846   5.362   3.511
 9111SOL     OW28231   3.481   4.132   1.394
 9111SOL    HW128232   3.538   4.092   1.323
 9111SOL    HW228233   3.401   4.175   1.353
 9112SOL     OW28234   0.661   3.466   3.700
 9112SOL    HW128235   0.647   3.562   3.721
 9112SOL    HW228236   0.573   3.421   3.687
 9113SOL     OW28237   5.341   0.954   0.176
 9113SOL    HW128238   5.374   0.994   0.090
 9113SOL    HW228239   5.301   0.864   0.159
 9114SOL     OW28240   2.422   4.425   2.057
 9114SOL    HW128241   2.502   4.467   2.014
 9114SOL    HW228242   2.439   4.415   2.155
 9115SOL     OW28243   0.955   4.937   4.249
 9115SOL    HW128244   0.895   4.874   4.198
 9115SOL    HW228245   1.041   4.948   4.199
 9116SOL     OW28246   6.933   1.663   6.427
 9116SOL    HW128247   7.017   1.704   6.390
 9116SOL    HW228248   6.906   1.713   6.509
 9117SOL     OW28249   6.606   3.187   6.186
 9117SOL    HW128250   6.542   3.262   6.204
 9117SOL    HW228251   6.589   3.150   6.095
 9118SOL     OW28252   6.305   0.042   1.241
 9118SOL    HW128253   6.214   0.002   1.240
 9118SOL    HW228254   6.332   0.062   1.335
 9119SOL     OW28255   5.330   1.087   2.463
 9119SOL    HW128256   5.335   1.074   2.562
 9119SOL    HW228257   5.390   1.021   2.418
 9120SOL     OW28258   5.546   2.301   6.069
 9120SOL    HW128259   5.546   2.311   6.168
 9120SOL    HW228260   5.452   2.303   6.035
 9121SOL     OW28261   0.795   3.161   5.349
 9121SOL    HW128262   0.842   3.079   5.382
 9121SOL    HW228263   0.808   3.235   5.415
 9122SOL     OW28264   1.625   2.624   2.149
 9122SOL    HW128265   1.713   2.607   2.194
 9122SOL    HW228266   1.551   2.584   2.203
 9123SOL     OW28267   3.385   6.183   5.274
 9123SOL    HW128268   3.415   6.182   5.178
 9123SOL    HW228269   3.465   6.185   5.334
 9124SOL     OW28270   6.063   5.510   5.428
 9124SOL    HW128271   6.133   5.532   5.360
 9124SOL    HW228272   6.094   5.432   5.483
 9125SOL     OW28273   4.601   4.357   3.605
 9125SOL    HW128274   4.566   4.264   3.590
 9125SOL    HW228275   4.629   4.367   3.700
 9126SOL     OW28276   6.235   1.388   2.209
 9126SOL    HW128277   6.242   1.354   2.303
 9126SOL    HW228278   6.299   1.464   2.197
 9127SOL     OW28279   5.882   6.963   5.854
 9127SOL    HW128280   5.958   6.907   5.888
 9127SOL    HW228281   5.908   0.036   5.857
 9128SOL     OW28282   4.320   1.600   5.016
 9128SOL    HW128283   4.307   1.509   4.978
 9128SOL    HW228284   4.306   1.596   5.115
 9129SOL     OW28285   1.970   3.546   0.254
 9129SOL    HW128286   2.027   3.557   0.172
 9129SOL    HW228287   1.972   3.450   0.282
 9130SOL     OW28288   6.931   4.195   6.533
 9130SOL    HW128289   6.972   4.283   6.555
 9130SOL    HW228290   7.002   4.124   6.536
 9131SOL     OW28291   0.355   3.770   4.927
 9131SOL    HW128292   0.364   3.866   4.953
 9131SOL    HW228293   0.411   3.714   4.987
 9132SOL     OW28294   6.921   3.994   3.789
 9132SOL    HW128295   6.953   4.088   3.805
 9132SOL    HW228296   6.929   3.972   3.692
 9133SOL     OW28297   2.782   4.806   0.941
 9133SOL    HW128298   2.815   4.885   0.890
 9133SOL    HW228299   2.772   4.728   0.879
 9134SOL     OW28300   3.305   6.781   0.680
 9134SOL    HW128301   3.307   6.681   0.687
 9134SOL    HW228302   3.375   6.820   0.739
 9135SOL     OW28303   0.308   0.128   2.426
 9135SOL    HW128304   0.354   0.043   2.454
 9135SOL    HW228305   0.376   0.196   2.401
 9136SOL     OW28306   4.757   4.966   5.815
 9136SOL    HW128307   4.765   4.905   5.894
 9136SOL    HW228308   4.848   4.989   5.781
 9137SOL     OW28309   6.012   1.343   1.118
 9137SOL    HW128310   6.074   1.420   1.099
 9137SOL    HW228311   6.061   1.257   1.108
 9138SOL     OW28312   6.756   5.015   5.754
 9138SOL    HW128313   6.811   5.077   5.697
 9138SOL    HW228314   6.741   4.930   5.704
 9139SOL     OW28315   2.521   1.400   4.828
 9139SOL    HW128316   2.611   1.376   4.863
 9139SOL    HW228317   2.481   1.471   4.886
 9140SOL     OW28318   6.470   2.448   2.523
 9140SOL    HW128319   6.375   2.437   2.551
 9140SOL    HW228320   6.474   2.490   2.432
 9141SOL     OW28321   5.661   6.562   6.414
 9141SOL    HW128322   5.658   6.633   6.343
 9141SOL    HW228323   5.748   6.513   6.408
 9142SOL     OW28324   0.351   2.753   5.336
 9142SOL    HW128325   0.324   2.848   5.344
 9142SOL    HW228326   0.451   2.746   5.342
 9143SOL     OW28327   4.455   3.952   0.034
 9143SOL    HW128328   4.521   4.023   0.009
 9143SOL    HW228329   4.362   3.988   0.021
 9144SOL     OW28330   2.148   5.376   6.131
 9144SOL    HW128331   2.119   5.378   6.226
 9144SOL    HW228332   2.194   5.462   6.108
 9145SOL     OW28333   0.362   5.014   1.127
 9145SOL    HW128334   0.308   4.969   1.197
 9145SOL    HW228335   0.399   4.946   1.064
 9146SOL     OW28336   5.102   1.439   1.458
 9146SOL    HW128337   5.200   1.437   1.482
 9146SOL    HW228338   5.069   1.346   1.446
 9147SOL     OW28339   5.789   6.838   4.538
 9147SOL    HW128340   5.875   6.834   4.590
 9147SOL    HW228341   5.716   6.798   4.593
 9148SOL     OW28342   5.850   6.768   1.508
 9148SOL    HW128343   5.887   6.849   1.555
 9148SOL    HW228344   5.882   6.685   1.553
 9149SOL     OW28345   5.116   2.510   4.479
 9149SOL    HW128346   5.198   2.566   4.465
 9149SOL    HW228347   5.079   2.484   4.389
 9150SOL     OW28348   3.799   5.887   3.707
 9150SOL    HW128349   3.815   5.925   3.616
 9150SOL    HW228350   3.782   5.788   3.699
 9151SOL     OW28351   1.189   4.157   2.962
 9151SOL    HW128352   1.123   4.208   2.907
 9151SOL    HW228353   1.181   4.059   2.942
 9152SOL     OW28354   2.258   5.539   4.316
 9152SOL    HW128355   2.271   5.613   4.381
 9152SOL    HW228356   2.347   5.512   4.278
 9153SOL     OW28357   1.651   3.232   0.524
 9153SOL    HW128358   1.645   3.151   0.465
 9153SOL    HW228359   1.567   3.240   0.578
 9154SOL     OW28360   2.729   4.947   6.540
 9154SOL    HW128361   2.813   4.909   6.578
 9154SOL    HW228362   2.655   4.938   6.608
 9155SOL     OW28363   1.788   3.730   0.439
 9155SOL    HW128364   1.753   3.686   0.522
 9155SOL    HW228365   1.779   3.667   0.362
 9156SOL     OW28366   3.042   2.789   1.363
 9156SOL    HW128367   3.055   2.882   1.327
 9156SOL    HW228368   3.131   2.749   1.383
 9157SOL     OW28369   6.077   5.004   5.661
 9157SOL    HW128370   6.124   5.086   5.694
 9157SOL    HW228371   6.045   4.950   5.739
 9158SOL     OW28372   6.190   3.492   4.790
 9158SOL    HW128373   6.138   3.412   4.819
 9158SOL    HW228374   6.128   3.566   4.768
 9159SOL     OW28375   0.848   6.309   3.827
 9159SOL    HW128376   0.772   6.348   3.879
 9159SOL    HW228377   0.828   6.213   3.807
 9160SOL     OW28378   6.653   0.601   5.284
 9160SOL    HW128379   6.598   0.651   5.217
 9160SOL    HW228380   6.597   0.530   5.327
 9161SOL     OW28381   4.889   4.331   4.181
 9161SOL    HW128382   4.886   4.242   4.137
 9161SOL    HW228383   4.828   4.331   4.261
 9162SOL     OW28384   4.688   1.807   3.494
 9162SOL    HW128385   4.741   1.890   3.507
 9162SOL    HW228386   4.691   1.779   3.398
 9163SOL     OW28387   1.852   3.364   3.737
 9163SOL    HW128388   1.843   3.272   3.701
 9163SOL    HW228389   1.838   3.430   3.663
 9164SOL     OW28390   2.887   1.110   6.932
 9164SOL    HW128391   2.823   1.135   6.859
 9164SOL    HW228392   2.884   1.179   7.004
 9165SOL     OW28393   6.314   1.589   6.042
 9165SOL    HW128394   6.295   1.668   5.985
 9165SOL    HW228395   6.396   1.543   6.009
 9166SOL     OW28396   4.847   5.833   1.073
 9166SOL    HW128397   4.846   5.738   1.040
 9166SOL    HW228398   4.773   5.884   1.029
 9167SOL     OW28399   1.579   3.518   6.591
 9167SOL    HW128400   1.586   3.578   6.511
 9167SOL    HW228401   1.581   3.574   6.674
 9168SOL     OW28402   1.084   6.547   5.430
 9168SOL    HW128403   1.106   6.584   5.339
 9168SOL    HW228404   1.083   6.448   5.427
 9169SOL     OW28405   0.264   1.439   5.148
 9169SOL    HW128406   0.204   1.373   5.194
 9169SOL    HW228407   0.292   1.402   5.060
 9170SOL     OW28408   0.522   4.982   0.021
 9170SOL    HW128409   0.516   4.897   0.073
 9170SOL    HW228410   0.579   4.967   6.963
 9171SOL     OW28411   3.292   5.590   0.359
 9171SOL    HW128412   3.207   5.571   0.310
 9171SOL    HW228413   3.368   5.547   0.311
 9172SOL     OW28414   3.192   0.929   5.311
 9172SOL    HW128415   3.147   0.957   5.226
 9172SOL    HW228416   3.191   0.829   5.317
 9173SOL     OW28417   6.097   4.271   4.968
 9173SOL    HW128418   6.103   4.272   5.068
 9173SOL    HW228419   6.011   4.314   4.940
 9174SOL     OW28420   6.308   4.453   1.125
 9174SOL    HW128421   6.325   4.466   1.028
 9174SOL    HW228422   6.359   4.521   1.177
 9175SOL     OW28423   1.851   6.795   4.712
 9175SOL    HW128424   1.757   6.778   4.682
 9175SOL    HW228425   1.904   6.834   4.637
 9176SOL     OW28426   2.580   0.591   5.414
 9176SOL    HW128427   2.568   0.528   5.490
 9176SOL    HW228428   2.502   0.653   5.409
 9177SOL     OW28429   1.476   5.280   4.566
 9177SOL    HW128430   1.496   5.193   4.521
 9177SOL    HW228431   1.557   5.340   4.559
 9178SOL     OW28432   1.913   5.600   0.632
 9178SOL    HW128433   1.965   5.519   0.607
 9178SOL    HW228434   1.976   5.676   0.650
 9179SOL     OW28435   3.466   5.884   3.713
 9179SOL    HW128436   3.537   5.814   3.707
 9179SOL    HW228437   3.435   5.893   3.808
 9180SOL     OW28438   5.785   2.061   3.207
 9180SOL    HW128439   5.794   2.136   3.142
 9180SOL    HW228440   5.693   2.063   3.247
 9181SOL     OW28441   4.040   2.139   3.537
 9181SOL    HW128442   3.949   2.163   3.502
 9181SOL    HW228443   4.049   2.171   3.631
 9182SOL     OW28444   2.181   6.834   2.230
 9182SOL    HW128445   2.234   6.749   2.220
 9182SOL    HW228446   2.234   6.910   2.194
 9183SOL     OW28447   4.960   6.344   0.268
 9183SOL    HW128448   4.975   6.264   0.325
 9183SOL    HW228449   4.870   6.339   0.225
 9184SOL     OW28450   4.868   1.372   0.159
 9184SOL    HW128451   4.852   1.274   0.146
 9184SOL    HW228452   4.888   1.389   0.255
 9185SOL     OW28453   4.567   6.535   4.807
 9185SOL    HW128454   4.470   6.546   4.788
 9185SOL    HW228455   4.593   6.439   4.792
 9186SOL     OW28456   5.999   0.607   4.128
 9186SOL    HW128457   5.946   0.632   4.209
 9186SOL    HW228458   6.035   0.515   4.139
 9187SOL     OW28459   2.507   0.927   1.380
 9187SOL    HW128460   2.568   0.957   1.454
 9187SOL    HW228461   2.424   0.982   1.380
 9188SOL     OW28462   2.286   6.692   1.951
 9188SOL    HW128463   2.207   6.705   1.892
 9188SOL    HW228464   2.256   6.674   2.045
 9189SOL     OW28465   5.686   6.059   1.642
 9189SOL    HW128466   5.688   5.986   1.710
 9189SOL    HW228467   5.765   6.050   1.581
 9190SOL     OW28468   1.722   4.893   0.094
 9190SOL    HW128469   1.795   4.842   0.139
 9190SOL    HW228470   1.722   4.987   0.127
 9191SOL     OW28471   5.797   0.582   5.951
 9191SOL    HW128472   5.706   0.547   5.927
 9191SOL    HW228473   5.789   0.644   6.029
 9192SOL     OW28474   0.491   4.066   5.720
 9192SOL    HW128475   0.407   4.023   5.686
 9192SOL    HW228476   0.554   3.995   5.752
 9193SOL     OW28477   4.793   4.942   0.537
 9193SOL    HW128478   4.856   4.869   0.566
 9193SOL    HW228479   4.699   4.910   0.545
 9194SOL     OW28480   2.881   0.816   3.103
 9194SOL    HW128481   2.916   0.768   3.022
 9194SOL    HW228482   2.942   0.800   3.180
 9195SOL     OW28483   1.681   2.314   4.155
 9195SOL    HW128484   1.778   2.322   4.175
 9195SOL    HW228485   1.668   2.258   4.072
 9196SOL     OW28486   3.857   0.520   4.175
 9196SOL    HW128487   3.858   0.459   4.096
 9196SOL    HW228488   3.932   0.497   4.236
 9197SOL     OW28489   1.580   4.946   1.939
 9197SOL    HW128490   1.562   4.957   2.037
 9197SOL    HW228491   1.629   4.860   1.925
 9198SOL     OW28492   6.782   4.982   6.034
 9198SOL    HW128493   6.792   4.890   6.070
 9198SOL    HW228494   6.777   4.978   5.934
 9199SOL     OW28495   1.080   3.700   6.235
 9199SOL    HW128496   1.172   3.662   6.224
 9199SOL    HW228497   1.039   3.664   6.319
 9200SOL     OW28498   3.237   0.123   0.560
 9200SOL    HW128499   3.299   0.129   0.638
 9200SOL    HW228500   3.225   0.214   0.520
 9201SOL     OW28501   0.763   2.936   0.375
 9201SOL    HW128502   0.672   2.968   0.352
 9201SOL    HW228503   0.761   2.890   0.464
 9202SOL     OW28504   1.878   6.623   3.120
 9202SOL    HW128505   1.924   6.630   3.032
 9202SOL    HW228506   1.943   6.587   3.188
 9203SOL     OW28507   0.612   5.384   6.545
 9203SOL    HW128508   0.591   5.452   6.476
 9203SOL    HW228509   0.613   5.427   6.636
 9204SOL     OW28510   3.958   2.634   6.695
 9204SOL    HW128511   3.951   2.631   6.595
 9204SOL    HW228512   4.039   2.583   6.724
 9205SOL     OW28513   5.718   4.570   2.685
 9205SOL    HW128514   5.794   4.622   2.645
 9205SOL    HW228515   5.751   4.518   2.763
 9206SOL     OW28516   4.094   5.377   1.908
 9206SOL    HW128517   4.021   5.415   1.851
 9206SOL    HW228518   4.061   5.296   1.956
 9207SOL     OW28519   4.335   4.986   6.697
 9207SOL    HW128520   4.348   5.066   6.637
 9207SOL    HW228521   4.269   4.924   6.656
 9208SOL     OW28522   5.938   4.041   3.910
 9208SOL    HW128523   5.931   4.117   3.975
 9208SOL    HW228524   5.905   4.070   3.821
 9209SOL     OW28525   3.135   1.016   0.285
 9209SOL    HW128526   3.229   0.982   0.286
 9209SOL    HW228527   3.100   1.013   0.191
 9210SOL     OW28528   6.916   1.186   3.008
 9210SOL    HW128529   6.961   1.246   2.942
 9210SOL    HW228530   6.820   1.210   3.015
 9211SOL     OW28531   6.294   3.164   4.486
 9211SOL    HW128532   6.259   3.132   4.574
 9211SOL    HW228533   6.356   3.095   4.448
 9212SOL     OW28534   4.352   5.364   4.012
 9212SOL    HW128535   4.257   5.333   4.021
 9212SOL    HW228536   4.354   5.463   4.001
 9213SOL     OW28537   5.558   3.233   5.933
 9213SOL    HW128538   5.637   3.174   5.918
 9213SOL    HW228539   5.477   3.192   5.890
 9214SOL     OW28540   0.035   5.770   5.851
 9214SOL    HW128541   0.071   5.715   5.775
 9214SOL    HW228542   0.101   5.842   5.873
 9215SOL     OW28543   1.427   2.455   6.750
 9215SOL    HW128544   1.406   2.538   6.699
 9215SOL    HW228545   1.400   2.375   6.696
 9216SOL     OW28546   2.866   0.321   2.881
 9216SOL    HW128547   2.909   0.368   2.804
 9216SOL    HW228548   2.812   0.386   2.934
 9217SOL     OW28549   0.399   0.490   6.059
 9217SOL    HW128550   0.467   0.561   6.038
 9217SOL    HW228551   0.411   0.414   5.996
 9218SOL     OW28552   3.732   6.496   0.486
 9218SOL    HW128553   3.718   6.571   0.551
 9218SOL    HW228554   3.715   6.530   0.393
 9219SOL     OW28555   7.018   2.822   0.205
 9219SOL    HW128556   0.066   2.889   0.226
 9219SOL    HW228557   0.025   2.731   0.232
 9220SOL     OW28558   2.414   6.907   1.233
 9220SOL    HW128559   2.447   6.911   1.139
 9220SOL    HW228560   2.345   6.978   1.248
 9221SOL     OW28561   3.030   0.628   4.221
 9221SOL    HW128562   2.985   0.567   4.156
 9221SOL    HW228563   3.092   0.689   4.171
 9222SOL     OW28564   2.413   6.724   6.600
 9222SOL    HW128565   2.394   6.696   6.695
 9222SOL    HW228566   2.328   6.752   6.556
 9223SOL     OW28567   1.680   1.800   4.429
 9223SOL    HW128568   1.690   1.710   4.469
 9223SOL    HW228569   1.667   1.792   4.330
 9224SOL     OW28570   2.905   5.335   5.205
 9224SOL    HW128571   2.831   5.384   5.251
 9224SOL    HW228572   2.914   5.244   5.245
 9225SOL     OW28573   3.822   6.936   5.771
 9225SOL    HW128574   3.877   7.018   5.756
 9225SOL    HW228575   3.792   6.932   5.867
 9226SOL     OW28576   5.824   0.087   1.921
 9226SOL    HW128577   5.860   7.017   1.925
 9226SOL    HW228578   5.760   0.101   1.997
 9227SOL     OW28579   0.917   5.296   1.770
 9227SOL    HW128580   0.846   5.276   1.838
 9227SOL    HW228581   0.991   5.346   1.814
 9228SOL     OW28582   1.474   0.246   6.459
 9228SOL    HW128583   1.525   0.172   6.413
 9228SOL    HW228584   1.404   0.281   6.397
 9229SOL     OW28585   1.611   5.530   4.605
 9229SOL    HW128586   1.513   5.547   4.610
 9229SOL    HW228587   1.645   5.505   4.696
 9230SOL     OW28588   6.115   0.683   3.129
 9230SOL    HW128589   6.139   0.669   3.226
 9230SOL    HW228590   6.141   0.776   3.103
 9231SOL     OW28591   1.455   4.723   4.445
 9231SOL    HW128592   1.369   4.709   4.396
 9231SOL    HW228593   1.529   4.741   4.380
 9232SOL     OW28594   2.998   5.627   1.082
 9232SOL    HW128595   2.901   5.612   1.101
 9232SOL    HW228596   3.014   5.625   0.984
 9233SOL     OW28597   5.243   5.660   1.467
 9233SOL    HW128598   5.315   5.604   1.425
 9233SOL    HW228599   5.155   5.635   1.428
 9234SOL     OW28600   3.514   5.087   4.465
 9234SOL    HW128601   3.470   5.153   4.404
 9234SOL    HW228602   3.445   5.028   4.506
 9235SOL     OW28603   1.319   2.397   3.836
 9235SOL    HW128604   1.235   2.363   3.793
 9235SOL    HW228605   1.387   2.324   3.839
 9236SOL     OW28606   2.630   4.241   5.731
 9236SOL    HW128607   2.701   4.297   5.689
 9236SOL    HW228608   2.660   4.212   5.822
 9237SOL     OW28609   1.970   4.995   5.061
 9237SOL    HW128610   1.997   4.956   5.149
 9237SOL    HW228611   1.908   4.932   5.014
 9238SOL     OW28612   4.505   1.689   6.352
 9238SOL    HW128613   4.563   1.736   6.285
 9238SOL    HW228614   4.417   1.667   6.310
 9239SOL     OW28615   0.380   3.714   1.543
 9239SOL    HW128616   0.374   3.813   1.530
 9239SOL    HW228617   0.402   3.695   1.639
 9240SOL     OW28618   5.724   1.752   0.776
 9240SOL    HW128619   5.719   1.726   0.873
 9240SOL    HW228620   5.808   1.716   0.736
 9241SOL     OW28621   0.327   6.047   6.381
 9241SOL    HW128622   0.250   6.003   6.428
 9241SOL    HW228623   0.334   6.011   6.288
 9242SOL     OW28624   6.560   5.760   0.889
 9242SOL    HW128625   6.629   5.732   0.822
 9242SOL    HW228626   6.578   5.714   0.976
 9243SOL     OW28627   5.883   6.236   2.605
 9243SOL    HW128628   5.854   6.276   2.517
 9243SOL    HW228629   5.938   6.302   2.655
 9244SOL     OW28630   4.825   5.773   5.802
 9244SOL    HW128631   4.908   5.757   5.855
 9244SOL    HW228632   4.774   5.850   5.842
 9245SOL     OW28633   1.438   5.527   3.099
 9245SOL    HW128634   1.414   5.611   3.050
 9245SOL    HW228635   1.470   5.458   3.034
 9246SOL     OW28636   6.803   4.551   3.045
 9246SOL    HW128637   6.709   4.582   3.036
 9246SOL    HW228638   6.865   4.626   3.026
 9247SOL     OW28639   0.845   6.876   3.182
 9247SOL    HW128640   0.832   6.848   3.277
 9247SOL    HW228641   0.877   6.799   3.128
 9248SOL     OW28642   1.940   2.594   6.463
 9248SOL    HW128643   1.897   2.609   6.552
 9248SOL    HW228644   1.903   2.511   6.422
 9249SOL     OW28645   5.625   3.001   6.229
 9249SOL    HW128646   5.545   3.049   6.193
 9249SOL    HW228647   5.603   2.959   6.317
 9250SOL     OW28648   5.238   3.420   5.069
 9250SOL    HW128649   5.139   3.433   5.077
 9250SOL    HW228650   5.263   3.414   4.972
 9251SOL     OW28651   3.510   2.089   3.198
 9251SOL    HW128652   3.600   2.128   3.179
 9251SOL    HW228653   3.449   2.107   3.120
 9252SOL     OW28654   6.382   0.023   4.303
 9252SOL    HW128655   6.348   0.032   4.396
 9252SOL    HW228656   6.439   0.102   4.281
 9253SOL     OW28657   4.616   5.911   5.931
 9253SOL    HW128658   4.516   5.904   5.925
 9253SOL    HW228659   4.650   5.841   5.994
 9254SOL     OW28660   6.228   4.425   1.596
 9254SOL    HW128661   6.272   4.492   1.656
 9254SOL    HW228662   6.205   4.469   1.509
 9255SOL     OW28663   5.382   2.914   0.301
 9255SOL    HW128664   5.325   2.900   0.382
 9255SOL    HW228665   5.401   2.826   0.258
 9256SOL     OW28666   4.053   4.940   2.901
 9256SOL    HW128667   4.072   5.007   2.973
 9256SOL    HW228668   4.104   4.856   2.920
 9257SOL     OW28669   0.597   3.865   2.658
 9257SOL    HW128670   0.642   3.818   2.734
 9257SOL    HW228671   0.665   3.912   2.602
 9258SOL     OW28672   4.080   3.294   3.700
 9258SOL    HW128673   4.102   3.274   3.605
 9258SOL    HW228674   4.056   3.209   3.747
 9259SOL     OW28675   1.934   2.437   1.145
 9259SOL    HW128676   1.891   2.474   1.063
 9259SOL    HW228677   1.903   2.343   1.160
 9260SOL     OW28678   5.498   1.442   5.536
 9260SOL    HW128679   5.417   1.446   5.595
 9260SOL    HW228680   5.469   1.444   5.440
 9261SOL     OW28681   4.973   0.169   6.200
 9261SOL    HW128682   4.912   0.195   6.125
 9261SOL    HW228683   5.066   0.159   6.164
 9262SOL     OW28684   6.453   2.941   5.719
 9262SOL    HW128685   6.551   2.954   5.731
 9262SOL    HW228686   6.415   3.014   5.663
 9263SOL     OW28687   6.441   4.149   0.827
 9263SOL    HW128688   6.447   4.138   0.927
 9263SOL    HW228689   6.353   4.116   0.795
 9264SOL     OW28690   5.698   3.801   0.359
 9264SOL    HW128691   5.627   3.730   0.357
 9264SOL    HW228692   5.655   3.890   0.374
 9265SOL     OW28693   3.198   1.394   0.619
 9265SOL    HW128694   3.176   1.298   0.636
 9265SOL    HW228695   3.297   1.404   0.610
 9266SOL     OW28696   1.932   5.855   2.116
 9266SOL    HW128697   1.967   5.881   2.025
 9266SOL    HW228698   1.907   5.758   2.115
 9267SOL     OW28699   6.790   3.834   5.548
 9267SOL    HW128700   6.805   3.829   5.450
 9267SOL    HW228701   6.791   3.742   5.587
 9268SOL     OW28702   0.950   6.025   1.580
 9268SOL    HW128703   0.941   5.961   1.656
 9268SOL    HW228704   0.917   6.115   1.609
 9269SOL     OW28705   3.365   2.857   6.651
 9269SOL    HW128706   3.337   2.902   6.736
 9269SOL    HW228707   3.284   2.830   6.599
 9270SOL     OW28708   4.701   6.885   5.476
 9270SOL    HW128709   4.779   6.937   5.512
 9270SOL    HW228710   4.634   6.871   5.548
 9271SOL     OW28711   1.453   5.677   0.495
 9271SOL    HW128712   1.552   5.679   0.484
 9271SOL    HW228713   1.427   5.608   0.562
 9272SOL     OW28714   3.180   4.836   5.713
 9272SOL    HW128715   3.087   4.804   5.730
 9272SOL    HW228716   3.232   4.833   5.799
 9273SOL     OW28717   5.044   5.993   3.838
 9273SOL    HW128718   5.000   6.010   3.926
 9273SOL    HW228719   5.083   5.901   3.838
 9274SOL     OW28720   6.464   2.573   0.138
 9274SOL    HW128721   6.455   2.497   0.202
 9274SOL    HW228722   6.385   2.633   0.146
 9275SOL     OW28723   0.621   1.809   6.884
 9275SOL    HW128724   0.699   1.843   6.830
 9275SOL    HW228725   0.558   1.884   6.903
 9276SOL     OW28726   2.865   4.756   3.956
 9276SOL    HW128727   2.869   4.681   4.022
 9276SOL    HW228728   2.770   4.777   3.934
 9277SOL     OW28729   3.837   3.836   6.732
 9277SOL    HW128730   3.746   3.795   6.732
 9277SOL    HW228731   3.831   3.932   6.707
 9278SOL     OW28732   1.893   1.041   3.915
 9278SOL    HW128733   1.808   1.049   3.863
 9278SOL    HW228734   1.875   1.058   4.012
 9279SOL     OW28735   4.636   0.639   1.384
 9279SOL    HW128736   4.576   0.619   1.307
 9279SOL    HW228737   4.630   0.737   1.406
 9280SOL     OW28738   1.776   0.295   3.393
 9280SOL    HW128739   1.842   0.225   3.419
 9280SOL    HW228740   1.779   0.309   3.294
 9281SOL     OW28741   3.382   3.754   1.027
 9281SOL    HW128742   3.325   3.834   1.008
 9281SOL    HW228743   3.342   3.701   1.102
 9282SOL     OW28744   4.328   2.071   4.347
 9282SOL    HW128745   4.250   2.044   4.403
 9282SOL    HW228746   4.412   2.067   4.401
 9283SOL     OW28747   5.837   1.037   2.671
 9283SOL    HW128748   5.901   1.032   2.747
 9283SOL    HW228749   5.796   0.947   2.656
 9284SOL     OW28750   3.663   5.240   7.002
 9284SOL    HW128751   3.598   5.170   0.010
 9284SOL    HW228752   3.685   5.301   0.055
 9285SOL     OW28753   5.183   3.258   7.021
 9285SOL    HW128754   5.200   3.342   6.970
 9285SOL    HW228755   5.105   3.272   0.059
 9286SOL     OW28756   5.372   0.347   5.663
 9286SOL    HW128757   5.440   0.302   5.721
 9286SOL    HW228758   5.284   0.302   5.674
 9287SOL     OW28759   3.028   5.935   0.616
 9287SOL    HW128760   3.079   6.003   0.667
 9287SOL    HW228761   2.938   5.973   0.591
 9288SOL     OW28762   2.715   1.367   5.699
 9288SOL    HW128763   2.734   1.396   5.605
 9288SOL    HW228764   2.801   1.363   5.751
 9289SOL     OW28765   3.563   1.705   2.298
 9289SOL    HW128766   3.576   1.671   2.391
 9289SOL    HW228767   3.466   1.724   2.282
 9290SOL     OW28768   4.602   2.018   4.514
 9290SOL    HW128769   4.686   1.987   4.471
 9290SOL    HW228770   4.547   1.939   4.541
 9291SOL     OW28771   2.239   0.241   5.201
 9291SOL    HW128772   2.144   0.230   5.170
 9291SOL    HW228773   2.284   0.312   5.147
 9292SOL     OW28774   6.494   3.473   5.950
 9292SOL    HW128775   6.479   3.564   5.912
 9292SOL    HW228776   6.504   3.478   6.049
 9293SOL     OW28777   6.421   4.201   1.088
 9293SOL    HW128778   6.491   4.227   1.155
 9293SOL    HW228779   6.338   4.253   1.105
 9294SOL     OW28780   3.578   6.319   5.770
 9294SOL    HW128781   3.632   6.351   5.692
 9294SOL    HW228782   3.546   6.398   5.824
 9295SOL     OW28783   4.978   2.167   3.704
 9295SOL    HW128784   5.077   2.179   3.695
 9295SOL    HW228785   4.959   2.113   3.786
 9296SOL     OW28786   0.127   6.153   6.702
 9296SOL    HW128787   0.097   6.104   6.620
 9296SOL    HW228788   0.198   6.220   6.676
 9297SOL     OW28789   0.239   0.709   1.175
 9297SOL    HW128790   0.286   0.722   1.087
 9297SOL    HW228791   0.262   0.620   1.212
 9298SOL     OW28792   2.063   6.282   5.657
 9298SOL    HW128793   2.156   6.266   5.689
 9298SOL    HW228794   2.014   6.195   5.651
 9299SOL     OW28795   0.814   2.930   4.540
 9299SOL    HW128796   0.845   3.024   4.528
 9299SOL    HW228797   0.716   2.930   4.562
 9300SOL     OW28798   0.109   4.918   4.574
 9300SOL    HW128799   0.104   5.018   4.565
 9300SOL    HW228800   0.200   4.887   4.549
 9301SOL     OW28801   4.459   4.734   3.648
 9301SOL    HW128802   4.505   4.684   3.576
 9301SOL    HW228803   4.526   4.765   3.716
 9302SOL     OW28804   2.199   3.039   4.379
 9302SOL    HW128805   2.158   3.028   4.470
 9302SOL    HW228806   2.135   3.087   4.319
 9303SOL     OW28807   3.749   6.231   0.948
 9303SOL    HW128808   3.758   6.299   0.875
 9303SOL    HW228809   3.735   6.140   0.908
 9304SOL     OW28810   4.274   4.230   1.072
 9304SOL    HW128811   4.339   4.302   1.047
 9304SOL    HW228812   4.279   4.213   1.170
 9305SOL     OW28813   3.931   1.646   1.976
 9305SOL    HW128814   3.982   1.682   1.898
 9305SOL    HW228815   3.834   1.637   1.951
 9306SOL     OW28816   0.263   4.624   4.667
 9306SOL    HW128817   0.305   4.536   4.643
 9306SOL    HW228818   0.268   4.686   4.589
 9307SOL     OW28819   1.387   3.356   1.434
 9307SOL    HW128820   1.300   3.404   1.444
 9307SOL    HW228821   1.387   3.305   1.348
 9308SOL     OW28822   0.943   4.005   1.220
 9308SOL    HW128823   1.001   3.987   1.141
 9308SOL    HW228824   0.975   3.950   1.298
 9309SOL     OW28825   3.581   5.062   5.374
 9309SOL    HW128826   3.617   5.146   5.336
 9309SOL    HW228827   3.625   4.983   5.330
 9310SOL     OW28828   4.532   5.845   6.327
 9310SOL    HW128829   4.450   5.866   6.274
 9310SOL    HW228830   4.603   5.913   6.307
 9311SOL     OW28831   5.987   4.690   1.788
 9311SOL    HW128832   6.012   4.601   1.826
 9311SOL    HW228833   6.060   4.756   1.806
 9312SOL     OW28834   1.493   3.824   1.546
 9312SOL    HW128835   1.431   3.901   1.533
 9312SOL    HW228836   1.467   3.748   1.486
 9313SOL     OW28837   0.365   0.768   0.940
 9313SOL    HW128838   0.314   0.783   0.855
 9313SOL    HW228839   0.450   0.820   0.936
 9314SOL     OW28840   3.861   5.493   6.186
 9314SOL    HW128841   3.846   5.581   6.141
 9314SOL    HW228842   3.859   5.420   6.119
 9315SOL     OW28843   6.367   0.747   5.221
 9315SOL    HW128844   6.291   0.807   5.196
 9315SOL    HW228845   6.453   0.788   5.191
 9316SOL     OW28846   4.112   5.566   5.635
 9316SOL    HW128847   4.069   5.476   5.627
 9316SOL    HW228848   4.128   5.604   5.544
 9317SOL     OW28849   6.440   5.728   3.070
 9317SOL    HW128850   6.496   5.645   3.067
 9317SOL    HW228851   6.450   5.771   3.160
 9318SOL     OW28852   6.757   1.291   4.774
 9318SOL    HW128853   6.812   1.280   4.691
 9318SOL    HW228854   6.683   1.223   4.773
 9319SOL     OW28855   0.592   2.542   5.716
 9319SOL    HW128856   0.492   2.543   5.720
 9319SOL    HW228857   0.625   2.632   5.686
 9320SOL     OW28858   4.499   2.009   6.904
 9320SOL    HW128859   4.565   2.028   6.831
 9320SOL    HW228860   4.492   1.911   6.918
 9321SOL     OW28861   6.119   6.971   2.620
 9321SOL    HW128862   6.107   7.015   2.531
 9321SOL    HW228863   6.064   7.019   2.689
 9322SOL     OW28864   6.894   6.307   6.251
 9322SOL    HW128865   6.973   6.338   6.305
 9322SOL    HW228866   6.828   6.263   6.312
 9323SOL     OW28867   2.147   0.070   5.808
 9323SOL    HW128868   2.195   0.092   5.723
 9323SOL    HW228869   2.059   0.118   5.809
 9324SOL     OW28870   1.641   4.970   0.533
 9324SOL    HW128871   1.660   5.041   0.602
 9324SOL    HW228872   1.645   5.011   0.442
 9325SOL     OW28873   5.290   1.449   0.517
 9325SOL    HW128874   5.275   1.511   0.594
 9325SOL    HW228875   5.266   1.356   0.544
 9326SOL     OW28876   2.556   0.054   1.018
 9326SOL    HW128877   2.650   0.023   1.032
 9326SOL    HW228878   2.545   0.145   1.057
 9327SOL     OW28879   4.807   6.518   2.544
 9327SOL    HW128880   4.846   6.562   2.625
 9327SOL    HW228881   4.709   6.505   2.557
 9328SOL     OW28882   4.102   1.269   6.004
 9328SOL    HW128883   4.180   1.224   6.048
 9328SOL    HW228884   4.101   1.247   5.906
 9329SOL     OW28885   6.901   3.910   2.294
 9329SOL    HW128886   6.913   3.892   2.392
 9329SOL    HW228887   6.972   3.973   2.263
 9330SOL     OW28888   0.188   6.319   0.357
 9330SOL    HW128889   0.273   6.367   0.338
 9330SOL    HW228890   0.186   6.290   0.453
 9331SOL     OW28891   1.075   1.189   5.961
 9331SOL    HW128892   1.078   1.249   6.041
 9331SOL    HW228893   1.117   1.101   5.985
 9332SOL     OW28894   3.686   3.951   2.793
 9332SOL    HW128895   3.731   3.863   2.809
 9332SOL    HW228896   3.648   3.985   2.879
 9333SOL     OW28897   4.788   3.651   1.484
 9333SOL    HW128898   4.770   3.743   1.521
 9333SOL    HW228899   4.702   3.604   1.467
 9334SOL     OW28900   4.078   6.939   3.763
 9334SOL    HW128901   4.118   6.944   3.855
 9334SOL    HW228902   3.990   6.893   3.768
 9335SOL     OW28903   1.301   0.813   6.146
 9335SOL    HW128904   1.372   0.882   6.132
 9335SOL    HW228905   1.220   0.837   6.093
 9336SOL     OW28906   3.769   5.850   6.675
 9336SOL    HW128907   3.753   5.894   6.587
 9336SOL    HW228908   3.810   5.916   6.738
 9337SOL     OW28909   5.314   0.771   3.416
 9337SOL    HW128910   5.406   0.773   3.377
 9337SOL    HW228911   5.264   0.852   3.386
 9338SOL     OW28912   4.451   0.895   2.024
 9338SOL    HW128913   4.503   0.811   2.042
 9338SOL    HW228914   4.460   0.920   1.928
 9339SOL     OW28915   5.422   6.795   0.549
 9339SOL    HW128916   5.508   6.845   0.552
 9339SOL    HW228917   5.417   6.740   0.466
 9340SOL     OW28918   4.978   3.723   5.232
 9340SOL    HW128919   4.886   3.694   5.204
 9340SOL    HW228920   5.042   3.647   5.220
 9341SOL     OW28921   0.628   5.921   6.389
 9341SOL    HW128922   0.584   5.997   6.437
 9341SOL    HW228923   0.649   5.848   6.454
 9342SOL     OW28924   2.018   0.743   4.085
 9342SOL    HW128925   2.067   0.718   4.001
 9342SOL    HW228926   1.927   0.777   4.061
 9343SOL     OW28927   6.343   4.516   3.121
 9343SOL    HW128928   6.381   4.457   3.193
 9343SOL    HW228929   6.298   4.460   3.052
 9344SOL     OW28930   4.606   5.654   1.632
 9344SOL    HW128931   4.615   5.694   1.724
 9344SOL    HW228932   4.653   5.712   1.566
 9345SOL     OW28933   6.159   3.695   1.640
 9345SOL    HW128934   6.254   3.726   1.636
 9345SOL    HW228935   6.155   3.611   1.695
 9346SOL     OW28936   6.202   1.154   1.067
 9346SOL    HW128937   6.284   1.180   1.119
 9346SOL    HW228938   6.229   1.112   0.981
 9347SOL     OW28939   1.647   5.405   0.890
 9347SOL    HW128940   1.730   5.455   0.866
 9347SOL    HW228941   1.653   5.374   0.985
 9348SOL     OW28942   4.153   5.532   1.565
 9348SOL    HW128943   4.100   5.448   1.581
 9348SOL    HW228944   4.091   5.610   1.562
 9349SOL     OW28945   0.842   0.238   2.481
 9349SOL    HW128946   0.826   0.146   2.447
 9349SOL    HW228947   0.814   0.305   2.411
 9350SOL     OW28948   0.913   2.935   5.469
 9350SOL    HW128949   0.960   2.941   5.557
 9350SOL    HW228950   0.980   2.913   5.398
 9351SOL     OW28951   3.261   1.140   6.304
 9351SOL    HW128952   3.235   1.171   6.213
 9351SOL    HW228953   3.360   1.134   6.311
 9352SOL     OW28954   2.572   3.370   0.321
 9352SOL    HW128955   2.595   3.287   0.371
 9352SOL    HW228956   2.546   3.443   0.385
 9353SOL     OW28957   0.624   5.219   1.921
 9353SOL    HW128958   0.692   5.169   1.974
 9353SOL    HW228959   0.566   5.155   1.871
 9354SOL     OW28960   6.723   2.392   6.349
 9354SOL    HW128961   6.800   2.362   6.406
 9354SOL    HW228962   6.745   2.377   6.252
 9355SOL     OW28963   0.890   2.552   4.910
 9355SOL    HW128964   0.824   2.567   4.836
 9355SOL    HW228965   0.945   2.471   4.890
 9356SOL     OW28966   3.729   6.888   1.382
 9356SOL    HW128967   3.631   6.907   1.381
 9356SOL    HW228968   3.758   6.867   1.475
 9357SOL     OW28969   0.968   2.895   6.467
 9357SOL    HW128970   0.878   2.882   6.426
 9357SOL    HW228971   0.993   2.813   6.519
 9358SOL     OW28972   0.325   4.371   2.612
 9358SOL    HW128973   0.296   4.390   2.706
 9358SOL    HW228974   0.353   4.457   2.568
 9359SOL     OW28975   1.827   5.368   6.245
 9359SOL    HW128976   1.834   5.334   6.151
 9359SOL    HW228977   1.870   5.458   6.250
 9360SOL     OW28978   1.569   6.070   6.584
 9360SOL    HW128979   1.565   6.087   6.485
 9360SOL    HW228980   1.488   6.108   6.627
 9361SOL     OW28981   2.084   5.776   3.481
 9361SOL    HW128982   2.101   5.747   3.386
 9361SOL    HW228983   1.997   5.826   3.485
 9362SOL     OW28984   1.878   1.619   2.061
 9362SOL    HW128985   1.841   1.534   2.022
 9362SOL    HW228986   1.838   1.634   2.151
 9363SOL     OW28987   3.400   5.191   1.847
 9363SOL    HW128988   3.433   5.223   1.936
 9363SOL    HW228989   3.302   5.170   1.853
 9364SOL     OW28990   2.558   2.914   1.702
 9364SOL    HW128991   2.510   2.840   1.749
 9364SOL    HW228992   2.506   2.999   1.712
 9365SOL     OW28993   2.691   2.060   4.266
 9365SOL    HW128994   2.627   2.091   4.337
 9365SOL    HW228995   2.780   2.103   4.281
 9366SOL     OW28996   3.371   5.890   0.264
 9366SOL    HW128997   3.347   5.930   0.352
 9366SOL    HW228998   3.469   5.902   0.247
 9367SOL     OW28999   5.452   0.694   1.124
 9367SOL    HW129000   5.363   0.730   1.096
 9367SOL    HW229001   5.516   0.700   1.047
 9368SOL     OW29002   3.750   0.078   2.456
 9368SOL    HW129003   3.653   0.055   2.460
 9368SOL    HW229004   3.765   0.152   2.391
 9369SOL     OW29005   0.434   5.682   4.822
 9369SOL    HW129006   0.501   5.616   4.789
 9369SOL    HW229007   0.346   5.637   4.835
 9370SOL     OW29008   4.339   1.431   3.982
 9370SOL    HW129009   4.329   1.527   3.954
 9370SOL    HW229010   4.404   1.385   3.922
 9371SOL     OW29011   3.551   5.176   1.180
 9371SOL    HW129012   3.561   5.275   1.189
 9371SOL    HW229013   3.493   5.155   1.101
 9372SOL     OW29014   4.683   6.982   1.375
 9372SOL    HW129015   4.614   0.015   1.421
 9372SOL    HW229016   4.638   6.920   1.310
 9373SOL     OW29017   6.224   2.753   0.598
 9373SOL    HW129018   6.172   2.793   0.674
 9373SOL    HW229019   6.211   2.654   0.597
 9374SOL     OW29020   0.713   4.388   5.538
 9374SOL    HW129021   0.640   4.324   5.514
 9374SOL    HW229022   0.683   4.446   5.613
 9375SOL     OW29023   0.082   2.084   0.113
 9375SOL    HW129024   0.015   2.156   0.095
 9375SOL    HW229025   0.172   2.113   0.079
 9376SOL     OW29026   2.177   3.702   2.057
 9376SOL    HW129027   2.205   3.616   2.015
 9376SOL    HW229028   2.215   3.709   2.149
 9377SOL     OW29029   1.928   5.138   2.151
 9377SOL    HW129030   1.872   5.122   2.233
 9377SOL    HW229031   1.958   5.050   2.113
 9378SOL     OW29032   3.485   0.640   3.689
 9378SOL    HW129033   3.503   0.624   3.786
 9378SOL    HW229034   3.478   0.552   3.642
 9379SOL     OW29035   4.478   6.723   4.547
 9379SOL    HW129036   4.382   6.732   4.570
 9379SOL    HW229037   4.488   6.672   4.462
 9380SOL     OW29038   3.691   5.397   5.950
 9380SOL    HW129039   3.644   5.485   5.944
 9380SOL    HW229040   3.631   5.331   5.994
 9381SOL     OW29041   4.811   1.909   4.378
 9381SOL    HW129042   4.840   1.814   4.390
 9381SOL    HW229043   4.884   1.970   4.406
 9382SOL     OW29044   3.240   0.718   4.077
 9382SOL    HW129045   3.312   0.787   4.068
 9382SOL    HW229046   3.276   0.628   4.051
 9383SOL     OW29047   4.974   4.172   3.478
 9383SOL    HW129048   5.056   4.185   3.422
 9383SOL    HW229049   4.923   4.093   3.445
 9384SOL     OW29050   1.657   6.859   2.153
 9384SOL    HW129051   1.599   6.794   2.105
 9384SOL    HW229052   1.626   6.871   2.247
 9385SOL     OW29053   3.891   1.490   3.858
 9385SOL    HW129054   3.801   1.520   3.824
 9385SOL    HW229055   3.878   1.424   3.931
 9386SOL     OW29056   4.012   5.863   5.219
 9386SOL    HW129057   3.925   5.897   5.184
 9386SOL    HW229058   3.999   5.772   5.258
 9387SOL     OW29059   4.039   2.029   0.091
 9387SOL    HW129060   3.999   2.042   7.023
 9387SOL    HW229061   4.104   1.952   0.087
 9388SOL     OW29062   1.947   6.891   3.807
 9388SOL    HW129063   1.867   6.951   3.801
 9388SOL    HW229064   1.938   6.832   3.887
 9389SOL     OW29065   3.433   5.108   2.616
 9389SOL    HW129066   3.511   5.082   2.559
 9389SOL    HW229067   3.445   5.202   2.648
 9390SOL     OW29068   5.364   4.826   5.329
 9390SOL    HW129069   5.442   4.817   5.390
 9390SOL    HW229070   5.303   4.747   5.339
 9391SOL     OW29071   1.127   6.784   4.714
 9391SOL    HW129072   1.130   6.762   4.811
 9391SOL    HW229073   1.053   6.732   4.671
 9392SOL     OW29074   5.239   4.162   3.342
 9392SOL    HW129075   5.203   4.124   3.257
 9392SOL    HW229076   5.322   4.112   3.368
 9393SOL     OW29077   3.060   6.108   6.373
 9393SOL    HW129078   3.029   6.175   6.305
 9393SOL    HW229079   2.980   6.068   6.419
 9394SOL     OW29080   5.588   0.441   1.190
 9394SOL    HW129081   5.515   0.506   1.169
 9394SOL    HW229082   5.558   0.348   1.168
 9395SOL     OW29083   2.885   1.422   0.973
 9395SOL    HW129084   2.801   1.471   0.997
 9395SOL    HW229085   2.889   1.410   0.874
 9396SOL     OW29086   1.824   5.972   6.494
 9396SOL    HW129087   1.859   5.883   6.524
 9396SOL    HW229088   1.744   5.996   6.548
 9397SOL     OW29089   3.788   0.209   6.212
 9397SOL    HW129090   3.761   0.199   6.308
 9397SOL    HW229091   3.888   0.207   6.206
 9398SOL     OW29092   6.710   1.390   6.379
 9398SOL    HW129093   6.713   1.471   6.320
 9398SOL    HW229094   6.792   1.387   6.436
 9399SOL     OW29095   1.702   2.966   3.848
 9399SOL    HW129096   1.756   3.048   3.868
 9399SOL    HW229097   1.744   2.886   3.890
 9400SOL     OW29098   5.363   1.426   0.889
 9400SOL    HW129099   5.294   1.353   0.894
 9400SOL    HW229100   5.370   1.471   0.977
 9401SOL     OW29101   0.848   2.401   2.836
 9401SOL    HW129102   0.833   2.439   2.928
 9401SOL    HW229103   0.771   2.342   2.812
 9402SOL     OW29104   1.683   5.696   2.971
 9402SOL    HW129105   1.742   5.705   3.051
 9402SOL    HW229106   1.668   5.599   2.952
 9403SOL     OW29107   6.833   1.707   2.139
 9403SOL    HW129108   6.791   1.781   2.191
 9403SOL    HW229109   6.866   1.742   2.052
 9404SOL     OW29110   2.016   3.281   0.788
 9404SOL    HW129111   2.004   3.212   0.717
 9404SOL    HW229112   1.937   3.280   0.849
 9405SOL     OW29113   0.254   4.613   4.954
 9405SOL    HW129114   0.248   4.628   4.855
 9405SOL    HW229115   0.310   4.533   4.973
 9406SOL     OW29116   0.312   2.927   6.459
 9406SOL    HW129117   0.293   2.846   6.404
 9406SOL    HW229118   0.301   2.905   6.556
 9407SOL     OW29119   2.318   5.234   4.897
 9407SOL    HW129120   2.263   5.316   4.913
 9407SOL    HW229121   2.258   5.158   4.870
 9408SOL     OW29122   6.744   3.836   5.253
 9408SOL    HW129123   6.644   3.838   5.252
 9408SOL    HW229124   6.779   3.864   5.163
 9409SOL     OW29125   6.517   5.158   2.014
 9409SOL    HW129126   6.536   5.256   2.025
 9409SOL    HW229127   6.470   5.143   1.927
 9410SOL     OW29128   4.341   0.537   2.159
 9410SOL    HW129129   4.389   0.598   2.221
 9410SOL    HW229130   4.265   0.586   2.115
 9411SOL     OW29131   4.032   3.211   3.424
 9411SOL    HW129132   4.082   3.224   3.339
 9411SOL    HW229133   3.965   3.284   3.436
 9412SOL     OW29134   0.272   1.011   1.267
 9412SOL    HW129135   0.195   1.071   1.244
 9412SOL    HW229136   0.274   0.935   1.202
 9413SOL     OW29137   4.247   4.939   3.960
 9413SOL    HW129138   4.345   4.931   3.945
 9413SOL    HW229139   4.219   4.877   4.033
 9414SOL     OW29140   2.234   2.360   5.338
 9414SOL    HW129141   2.170   2.289   5.368
 9414SOL    HW229142   2.189   2.449   5.339
 9415SOL     OW29143   3.806   0.465   2.555
 9415SOL    HW129144   3.795   0.541   2.619
 9415SOL    HW229145   3.900   0.462   2.522
 9416SOL     OW29146   0.158   6.344   6.361
 9416SOL    HW129147   0.166   6.417   6.429
 9416SOL    HW229148   0.207   6.263   6.394
 9417SOL     OW29149   2.838   6.385   0.938
 9417SOL    HW129150   2.887   6.419   1.018
 9417SOL    HW229151   2.784   6.459   0.898
 9418SOL     OW29152   3.068   1.968   4.375
 9418SOL    HW129153   3.147   2.025   4.352
 9418SOL    HW229154   3.057   1.964   4.474
 9419SOL     OW29155   3.212   2.167   0.025
 9419SOL    HW129156   3.153   2.149   0.105
 9419SOL    HW229157   3.246   2.080   7.013
 9420SOL     OW29158   5.740   3.304   0.153
 9420SOL    HW129159   5.667   3.256   0.202
 9420SOL    HW229160   5.790   3.239   0.096
 9421SOL     OW29161   3.899   6.287   5.676
 9421SOL    HW129162   3.977   6.227   5.656
 9421SOL    HW229163   3.841   6.245   5.745
 9422SOL     OW29164   2.679   5.782   4.494
 9422SOL    HW129165   2.766   5.733   4.499
 9422SOL    HW229166   2.666   5.817   4.401
 9423SOL     OW29167   3.840   5.948   3.450
 9423SOL    HW129168   3.832   6.015   3.376
 9423SOL    HW229169   3.921   5.891   3.434
 9424SOL     OW29170   5.198   0.856   4.572
 9424SOL    HW129171   5.133   0.869   4.497
 9424SOL    HW229172   5.209   0.758   4.589
 9425SOL     OW29173   6.717   4.857   0.423
 9425SOL    HW129174   6.654   4.912   0.478
 9425SOL    HW229175   6.811   4.874   0.453
 9426SOL     OW29176   0.462   1.657   6.366
 9426SOL    HW129177   0.546   1.673   6.314
 9426SOL    HW229178   0.416   1.575   6.333
 9427SOL     OW29179   3.482   6.024   2.867
 9427SOL    HW129180   3.382   6.031   2.866
 9427SOL    HW229181   3.509   5.929   2.854
 9428SOL     OW29182   6.639   0.312   6.741
 9428SOL    HW129183   6.673   0.349   6.654
 9428SOL    HW229184   6.566   0.247   6.723
 9429SOL     OW29185   1.232   2.309   4.205
 9429SOL    HW129186   1.207   2.253   4.126
 9429SOL    HW229187   1.162   2.299   4.276
 9430SOL     OW29188   0.382   2.132   4.125
 9430SOL    HW129189   0.438   2.129   4.042
 9430SOL    HW229190   0.413   2.062   4.189
 9431SOL     OW29191   6.901   4.572   6.784
 9431SOL    HW129192   6.841   4.492   6.791
 9431SOL    HW229193   6.848   4.651   6.753
 9432SOL     OW29194   6.683   1.754   3.574
 9432SOL    HW129195   6.668   1.800   3.662
 9432SOL    HW229196   6.676   1.821   3.500
 9433SOL     OW29197   3.649   6.388   2.977
 9433SOL    HW129198   3.689   6.313   2.923
 9433SOL    HW229199   3.608   6.350   3.060
 9434SOL     OW29200   5.070   5.702   3.962
 9434SOL    HW129201   5.129   5.621   3.960
 9434SOL    HW229202   4.979   5.678   3.929
 9435SOL     OW29203   0.558   2.668   1.805
 9435SOL    HW129204   0.531   2.751   1.853
 9435SOL    HW229205   0.522   2.588   1.853
 9436SOL     OW29206   0.722   0.905   3.146
 9436SOL    HW129207   0.675   0.951   3.071
 9436SOL    HW229208   0.698   0.808   3.145
 9437SOL     OW29209   0.034   5.139   4.410
 9437SOL    HW129210   7.008   5.221   4.439
 9437SOL    HW229211   0.113   5.166   4.355
 9438SOL     OW29212   2.450   6.483   1.871
 9438SOL    HW129213   2.416   6.390   1.864
 9438SOL    HW229214   2.377   6.543   1.904
 9439SOL     OW29215   0.618   2.970   6.908
 9439SOL    HW129216   0.692   3.022   6.949
 9439SOL    HW229217   0.536   2.977   6.965
 9440SOL     OW29218   3.079   4.890   3.583
 9440SOL    HW129219   3.081   4.990   3.589
 9440SOL    HW229220   3.140   4.861   3.510
 9441SOL     OW29221   6.845   5.848   4.200
 9441SOL    HW129222   6.787   5.829   4.279
 9441SOL    HW229223   6.941   5.838   4.225
 9442SOL     OW29224   4.627   3.744   0.567
 9442SOL    HW129225   4.670   3.656   0.547
 9442SOL    HW229226   4.552   3.730   0.632
 9443SOL     OW29227   2.286   4.625   2.624
 9443SOL    HW129228   2.277   4.663   2.532
 9443SOL    HW229229   2.289   4.699   2.691
 9444SOL     OW29230   1.798   4.009   0.509
 9444SOL    HW129231   1.843   4.005   0.599
 9444SOL    HW229232   1.794   3.917   0.470
 9445SOL     OW29233   0.762   1.180   3.808
 9445SOL    HW129234   0.764   1.114   3.884
 9445SOL    HW229235   0.755   1.130   3.721
 9446SOL     OW29236   6.520   5.254   3.457
 9446SOL    HW129237   6.470   5.172   3.428
 9446SOL    HW229238   6.592   5.227   3.521
 9447SOL     OW29239   5.457   5.241   2.671
 9447SOL    HW129240   5.387   5.172   2.657
 9447SOL    HW229241   5.415   5.327   2.700
 9448SOL     OW29242   5.874   0.363   5.768
 9448SOL    HW129243   5.825   0.440   5.807
 9448SOL    HW229244   5.914   0.390   5.680
 9449SOL     OW29245   6.139   6.685   1.453
 9449SOL    HW129246   6.191   6.606   1.419
 9449SOL    HW229247   6.125   6.750   1.378
 9450SOL     OW29248   1.747   5.967   4.277
 9450SOL    HW129249   1.671   5.917   4.318
 9450SOL    HW229250   1.815   5.987   4.346
 9451SOL     OW29251   3.528   5.755   6.726
 9451SOL    HW129252   3.519   5.712   6.815
 9451SOL    HW229253   3.624   5.779   6.709
 9452SOL     OW29254   0.083   4.212   1.062
 9452SOL    HW129255   0.053   4.303   1.032
 9452SOL    HW229256   0.162   4.183   1.008
 9453SOL     OW29257   3.908   5.301   3.355
 9453SOL    HW129258   3.914   5.318   3.257
 9453SOL    HW229259   3.924   5.203   3.372
 9454SOL     OW29260   4.547   4.549   0.812
 9454SOL    HW129261   4.542   4.643   0.778
 9454SOL    HW229262   4.637   4.511   0.791
 9455SOL     OW29263   2.764   2.280   2.187
 9455SOL    HW129264   2.773   2.185   2.216
 9455SOL    HW229265   2.818   2.296   2.104
 9456SOL     OW29266   5.735   2.600   2.506
 9456SOL    HW129267   5.777   2.545   2.434
 9456SOL    HW229268   5.648   2.637   2.474
 9457SOL     OW29269   1.048   4.729   3.885
 9457SOL    HW129270   1.028   4.822   3.854
 9457SOL    HW229271   0.975   4.667   3.855
 9458SOL     OW29272   6.710   4.112   0.394
 9458SOL    HW129273   6.666   4.024   0.382
 9458SOL    HW229274   6.778   4.126   0.322
 9459SOL     OW29275   5.243   4.765   4.771
 9459SOL    HW129276   5.255   4.840   4.707
 9459SOL    HW229277   5.284   4.789   4.859
 9460SOL     OW29278   1.118   2.363   2.823
 9460SOL    HW129279   1.118   2.318   2.913
 9460SOL    HW229280   1.025   2.367   2.788
 9461SOL     OW29281   1.820   2.239   1.766
 9461SOL    HW129282   1.855   2.164   1.821
 9461SOL    HW229283   1.800   2.317   1.824
 9462SOL     OW29284   2.110   1.784   4.453
 9462SOL    HW129285   2.071   1.846   4.520
 9462SOL    HW229286   2.143   1.836   4.374
 9463SOL     OW29287   5.654   6.355   0.627
 9463SOL    HW129288   5.726   6.299   0.667
 9463SOL    HW229289   5.568   6.337   0.675
 9464SOL     OW29290   0.485   1.098   1.985
 9464SOL    HW129291   0.439   1.159   1.920
 9464SOL    HW229292   0.461   1.003   1.965
 9465SOL     OW29293   0.171   4.140   1.592
 9465SOL    HW129294   0.252   4.092   1.560
 9465SOL    HW229295   0.089   4.091   1.563
 9466SOL     OW29296   3.884   5.099   6.960
 9466SOL    HW129297   3.804   5.155   6.978
 9466SOL    HW229298   3.950   5.151   6.905
 9467SOL     OW29299   2.160   3.497   0.807
 9467SOL    HW129300   2.170   3.516   0.905
 9467SOL    HW229301   2.107   3.413   0.794
 9468SOL     OW29302   6.500   3.189   0.703
 9468SOL    HW129303   6.402   3.172   0.698
 9468SOL    HW229304   6.520   3.245   0.783
 9469SOL     OW29305   0.187   6.305   0.612
 9469SOL    HW129306   0.152   6.222   0.656
 9469SOL    HW229307   0.282   6.319   0.637
 9470SOL     OW29308   4.692   4.015   0.543
 9470SOL    HW129309   4.685   3.915   0.548
 9470SOL    HW229310   4.608   4.053   0.504
 9471SOL     OW29311   5.999   2.145   5.039
 9471SOL    HW129312   6.080   2.118   5.090
 9471SOL    HW229313   6.017   2.231   4.991
 9472SOL     OW29314   1.484   3.898   6.414
 9472SOL    HW129315   1.553   3.912   6.485
 9472SOL    HW229316   1.393   3.895   6.455
 9473SOL     OW29317   2.742   4.371   0.353
 9473SOL    HW129318   2.707   4.460   0.383
 9473SOL    HW229319   2.668   4.304   0.353
 9474SOL     OW29320   5.649   3.546   1.588
 9474SOL    HW129321   5.612   3.495   1.666
 9474SOL    HW229322   5.668   3.640   1.615
 9475SOL     OW29323   4.746   3.712   5.887
 9475SOL    HW129324   4.699   3.788   5.932
 9475SOL    HW229325   4.803   3.664   5.953
 9476SOL     OW29326   3.550   4.037   6.085
 9476SOL    HW129327   3.576   4.086   6.168
 9476SOL    HW229328   3.611   3.959   6.073
 9477SOL     OW29329   2.077   4.100   1.593
 9477SOL    HW129330   2.087   4.006   1.625
 9477SOL    HW229331   1.983   4.130   1.607
 9478SOL     OW29332   5.304   2.617   0.408
 9478SOL    HW129333   5.285   2.555   0.484
 9478SOL    HW229334   5.379   2.580   0.353
 9479SOL     OW29335   4.193   0.754   2.052
 9479SOL    HW129336   4.284   0.794   2.055
 9479SOL    HW229337   4.134   0.809   1.993
 9480SOL     OW29338   6.317   6.769   6.897
 9480SOL    HW129339   6.313   6.815   6.986
 9480SOL    HW229340   6.368   6.683   6.906
 9481SOL     OW29341   4.451   1.924   3.116
 9481SOL    HW129342   4.357   1.894   3.100
 9481SOL    HW229343   4.461   2.019   3.085
 9482SOL     OW29344   5.862   0.883   1.019
 9482SOL    HW129345   5.892   0.955   0.957
 9482SOL    HW229346   5.805   0.923   1.091
 9483SOL     OW29347   0.548   0.521   0.707
 9483SOL    HW129348   0.604   0.539   0.627
 9483SOL    HW229349   0.454   0.550   0.689
 9484SOL     OW29350   2.984   5.914   4.473
 9484SOL    HW129351   2.955   5.950   4.562
 9484SOL    HW229352   2.956   5.818   4.465
 9485SOL     OW29353   6.626   1.750   6.920
 9485SOL    HW129354   6.643   1.812   6.996
 9485SOL    HW229355   6.654   1.794   6.835
 9486SOL     OW29356   4.503   5.665   0.026
 9486SOL    HW129357   4.564   5.588   0.046
 9486SOL    HW229358   4.436   5.674   0.100
 9487SOL     OW29359   3.117   3.293   4.231
 9487SOL    HW129360   3.114   3.383   4.187
 9487SOL    HW229361   3.194   3.241   4.195
 9488SOL     OW29362   1.693   1.437   0.805
 9488SOL    HW129363   1.702   1.534   0.825
 9488SOL    HW229364   1.597   1.415   0.787
 9489SOL     OW29365   5.123   4.024   0.318
 9489SOL    HW129366   5.027   4.051   0.323
 9489SOL    HW229367   5.137   3.961   0.242
 9490SOL     OW29368   6.036   4.115   3.665
 9490SOL    HW129369   6.047   4.204   3.620
 9490SOL    HW229370   6.075   4.044   3.606
 9491SOL     OW29371   4.865   6.831   3.627
 9491SOL    HW129372   4.765   6.821   3.628
 9491SOL    HW229373   4.904   6.771   3.558
 9492SOL     OW29374   4.881   3.079   4.561
 9492SOL    HW129375   4.973   3.089   4.524
 9492SOL    HW229376   4.847   3.168   4.591
 9493SOL     OW29377   4.259   6.617   3.709
 9493SOL    HW129378   4.264   6.521   3.738
 9493SOL    HW229379   4.276   6.623   3.611
 9494SOL     OW29380   5.272   2.762   2.095
 9494SOL    HW129381   5.350   2.700   2.107
 9494SOL    HW229382   5.288   2.819   2.015
 9495SOL     OW29383   0.719   0.765   2.465
 9495SOL    HW129384   0.701   0.772   2.366
 9495SOL    HW229385   0.674   0.840   2.512
 9496SOL     OW29386   3.950   1.965   2.444
 9496SOL    HW129387   3.914   1.887   2.393
 9496SOL    HW229388   3.875   2.023   2.475
 9497SOL     OW29389   5.951   5.020   4.636
 9497SOL    HW129390   6.021   4.960   4.674
 9497SOL    HW229391   5.862   4.994   4.673
 9498SOL     OW29392   6.779   5.115   4.512
 9498SOL    HW129393   6.830   5.029   4.503
 9498SOL    HW229394   6.719   5.127   4.433
 9499SOL     OW29395   5.900   5.593   5.634
 9499SOL    HW129396   5.853   5.512   5.671
 9499SOL    HW229397   5.958   5.566   5.557
 9500SOL     OW29398   4.297   0.179   0.796
 9500SOL    HW129399   4.252   0.268   0.786
 9500SOL    HW229400   4.393   0.187   0.770
 9501SOL     OW29401   1.499   1.834   4.808
 9501SOL    HW129402   1.525   1.771   4.881
 9501SOL    HW229403   1.581   1.881   4.775
 9502SOL     OW29404   5.695   4.687   5.672
 9502SOL    HW129405   5.653   4.703   5.582
 9502SOL    HW229406   5.726   4.592   5.677
 9503SOL     OW29407   0.470   2.064   6.967
 9503SOL    HW129408   0.434   2.010   0.020
 9503SOL    HW229409   0.403   2.133   6.941
 9504SOL     OW29410   6.160   5.068   1.431
 9504SOL    HW129411   6.121   5.052   1.340
 9504SOL    HW229412   6.089   5.055   1.500
 9505SOL     OW29413   4.478   4.794   5.255
 9505SOL    HW129414   4.521   4.797   5.346
 9505SOL    HW229415   4.393   4.847   5.257
 9506SOL     OW29416   3.300   2.308   1.362
 9506SOL    HW129417   3.235   2.367   1.314
 9506SOL    HW229418   3.257   2.220   1.383
 9507SOL     OW29419   6.171   0.062   1.991
 9507SOL    HW129420   6.116   0.047   2.074
 9507SOL    HW229421   6.114   0.107   1.922
 9508SOL     OW29422   4.720   1.354   3.170
 9508SOL    HW129423   4.778   1.414   3.225
 9508SOL    HW229424   4.637   1.403   3.144
 9509SOL     OW29425   6.579   0.422   2.886
 9509SOL    HW129426   6.659   0.430   2.946
 9509SOL    HW229427   6.609   0.410   2.792
 9510SOL     OW29428   0.323   2.788   3.748
 9510SOL    HW129429   0.307   2.886   3.735
 9510SOL    HW229430   0.365   2.750   3.666
 9511SOL     OW29431   1.432   1.215   0.485
 9511SOL    HW129432   1.472   1.300   0.450
 9511SOL    HW229433   1.365   1.236   0.556
 9512SOL     OW29434   6.474   2.884   1.191
 9512SOL    HW129435   6.397   2.843   1.142
 9512SOL    HW229436   6.521   2.814   1.245
 9513SOL     OW29437   3.867   4.873   6.659
 9513SOL    HW129438   3.833   4.872   6.753
 9513SOL    HW229439   3.808   4.816   6.602
 9514SOL     OW29440   3.150   3.127   6.599
 9514SOL    HW129441   3.214   3.203   6.611
 9514SOL    HW229442   3.183   3.047   6.649
 9515SOL     OW29443   2.623   4.869   3.875
 9515SOL    HW129444   2.657   4.948   3.925
 9515SOL    HW229445   2.565   4.899   3.800
 9516SOL     OW29446   6.621   3.847   0.382
 9516SOL    HW129447   6.564   3.766   0.365
 9516SOL    HW229448   6.692   3.823   0.448
 9517SOL     OW29449   0.756   4.189   1.152
 9517SOL    HW129450   0.828   4.126   1.181
 9517SOL    HW229451   0.784   4.283   1.169
 9518SOL     OW29452   2.557   1.454   0.391
 9518SOL    HW129453   2.641   1.480   0.343
 9518SOL    HW229454   2.568   1.363   0.431
 9519SOL     OW29455   1.064   2.928   5.202
 9519SOL    HW129456   0.984   2.868   5.200
 9519SOL    HW229457   1.147   2.873   5.203
 9520SOL     OW29458   2.387   0.382   3.068
 9520SOL    HW129459   2.394   0.477   3.037
 9520SOL    HW229460   2.402   0.320   2.991
 9521SOL     OW29461   5.586   5.596   4.118
 9521SOL    HW129462   5.601   5.548   4.031
 9521SOL    HW229463   5.604   5.534   4.194
 9522SOL     OW29464   3.358   6.003   1.354
 9522SOL    HW129465   3.331   6.015   1.450
 9522SOL    HW229466   3.454   5.977   1.349
 9523SOL     OW29467   3.483   4.939   4.844
 9523SOL    HW129468   3.433   5.023   4.868
 9523SOL    HW229469   3.417   4.867   4.821
 9524SOL     OW29470   3.750   3.459   1.071
 9524SOL    HW129471   3.802   3.509   1.141
 9524SOL    HW229472   3.768   3.361   1.081
 9525SOL     OW29473   1.955   0.749   5.824
 9525SOL    HW129474   1.900   0.696   5.890
 9525SOL    HW229475   2.034   0.787   5.871
 9526SOL     OW29476   4.712   6.141   3.127
 9526SOL    HW129477   4.693   6.068   3.062
 9526SOL    HW229478   4.759   6.103   3.207
 9527SOL     OW29479   1.197   1.136   2.057
 9527SOL    HW129480   1.276   1.125   1.996
 9527SOL    HW229481   1.159   1.045   2.078
 9528SOL     OW29482   6.604   0.523   2.079
 9528SOL    HW129483   6.550   0.455   2.129
 9528SOL    HW229484   6.549   0.561   2.005
 9529SOL     OW29485   0.738   2.853   6.311
 9529SOL    HW129486   0.770   2.836   6.217
 9529SOL    HW229487   0.716   2.951   6.320
 9530SOL     OW29488   1.585   2.358   3.375
 9530SOL    HW129489   1.618   2.369   3.282
 9530SOL    HW229490   1.526   2.436   3.399
 9531SOL     OW29491   3.323   6.820   3.156
 9531SOL    HW129492   3.346   6.728   3.189
 9531SOL    HW229493   3.406   6.865   3.123
 9532SOL     OW29494   1.949   0.148   1.295
 9532SOL    HW129495   1.921   0.080   1.228
 9532SOL    HW229496   2.009   0.216   1.251
 9533SOL     OW29497   1.440   1.046   5.772
 9533SOL    HW129498   1.454   0.948   5.789
 9533SOL    HW229499   1.487   1.072   5.688
 9534SOL     OW29500   5.214   2.104   4.716
 9534SOL    HW129501   5.224   2.195   4.675
 9534SOL    HW229502   5.170   2.113   4.805
 9535SOL     OW29503   2.242   1.316   5.348
 9535SOL    HW129504   2.280   1.230   5.382
 9535SOL    HW229505   2.237   1.312   5.248
 9536SOL     OW29506   1.704   5.436   5.509
 9536SOL    HW129507   1.733   5.391   5.425
 9536SOL    HW229508   1.662   5.524   5.486
 9537SOL     OW29509   3.228   0.332   1.856
 9537SOL    HW129510   3.236   0.323   1.955
 9537SOL    HW229511   3.262   0.421   1.827
 9538SOL     OW29512   6.816   2.292   4.612
 9538SOL    HW129513   6.786   2.235   4.689
 9538SOL    HW229514   6.808   2.388   4.637
 9539SOL     OW29515   0.739   5.782   0.174
 9539SOL    HW129516   0.746   5.865   0.119
 9539SOL    HW229517   0.770   5.801   0.267
 9540SOL     OW29518   4.270   5.066   4.482
 9540SOL    HW129519   4.176   5.045   4.457
 9540SOL    HW229520   4.298   5.151   4.438
 9541SOL     OW29521   2.114   2.846   4.184
 9541SOL    HW129522   2.025   2.815   4.220
 9541SOL    HW229523   2.158   2.905   4.252
 9542SOL     OW29524   5.064   3.387   4.605
 9542SOL    HW129525   5.004   3.453   4.650
 9542SOL    HW229526   5.090   3.316   4.670
 9543SOL     OW29527   4.857   1.141   3.263
 9543SOL    HW129528   4.935   1.174   3.315
 9543SOL    HW229529   4.788   1.213   3.256
 9544SOL     OW29530   5.052   1.150   2.500
 9544SOL    HW129531   5.151   1.140   2.512
 9544SOL    HW229532   5.009   1.060   2.502
 9545SOL     OW29533   6.886   0.875   3.461
 9545SOL    HW129534   6.803   0.919   3.494
 9545SOL    HW229535   6.932   0.934   3.395
 9546SOL     OW29536   2.717   5.387   0.166
 9546SOL    HW129537   2.662   5.315   0.124
 9546SOL    HW229538   2.657   5.455   0.208
 9547SOL     OW29539   0.824   6.403   4.531
 9547SOL    HW129540   0.891   6.341   4.491
 9547SOL    HW229541   0.848   6.421   4.627
 9548SOL     OW29542   4.995   5.968   4.152
 9548SOL    HW129543   5.086   5.978   4.112
 9548SOL    HW229544   5.003   5.951   4.250
 9549SOL     OW29545   2.480   6.223   0.654
 9549SOL    HW129546   2.571   6.252   0.682
 9549SOL    HW229547   2.421   6.214   0.734
 9550SOL     OW29548   1.348   2.062   0.591
 9550SOL    HW129549   1.398   2.075   0.505
 9550SOL    HW229550   1.326   2.150   0.631
 9551SOL     OW29551   0.844   6.742   4.886
 9551SOL    HW129552   0.766   6.703   4.935
 9551SOL    HW229553   0.815   6.768   4.794
 9552SOL     OW29554   1.935   5.966   3.068
 9552SOL    HW129555   1.863   5.977   2.999
 9552SOL    HW229556   1.914   6.024   3.147
 9553SOL     OW29557   6.134   4.357   5.709
 9553SOL    HW129558   6.219   4.397   5.677
 9553SOL    HW229559   6.123   4.375   5.807
 9554SOL     OW29560   2.376   1.419   2.196
 9554SOL    HW129561   2.404   1.464   2.111
 9554SOL    HW229562   2.358   1.322   2.178
 9555SOL     OW29563   0.033   2.466   0.764
 9555SOL    HW129564   6.980   2.528   0.748
 9555SOL    HW229565   0.027   2.429   0.857
 9556SOL     OW29566   2.368   1.481   1.479
 9556SOL    HW129567   2.321   1.537   1.548
 9556SOL    HW229568   2.425   1.539   1.422
 9557SOL     OW29569   5.433   6.995   2.333
 9557SOL    HW129570   5.393   0.060   2.307
 9557SOL    HW229571   5.487   7.007   2.416
 9558SOL     OW29572   6.516   4.840   2.791
 9558SOL    HW129573   6.580   4.803   2.723
 9558SOL    HW229574   6.533   4.796   2.880
 9559SOL     OW29575   6.432   3.347   1.704
 9559SOL    HW129576   6.472   3.287   1.774
 9559SOL    HW229577   6.347   3.386   1.738
 9560SOL     OW29578   3.050   1.413   3.587
 9560SOL    HW129579   3.030   1.459   3.674
 9560SOL    HW229580   3.138   1.445   3.553
 9561SOL     OW29581   4.170   6.556   0.704
 9561SOL    HW129582   4.171   6.560   0.804
 9561SOL    HW229583   4.263   6.569   0.669
 9562SOL     OW29584   4.805   4.859   2.763
 9562SOL    HW129585   4.744   4.938   2.773
 9562SOL    HW229586   4.786   4.813   2.677
 9563SOL     OW29587   6.661   5.958   6.954
 9563SOL    HW129588   6.642   5.957   0.028
 9563SOL    HW229589   6.754   5.923   6.937
 9564SOL     OW29590   2.990   6.655   0.031
 9564SOL    HW129591   3.006   6.695   0.121
 9564SOL    HW229592   2.912   6.592   0.037
 9565SOL     OW29593   3.776   5.728   4.861
 9565SOL    HW129594   3.682   5.719   4.895
 9565SOL    HW229595   3.781   5.693   4.767
 9566SOL     OW29596   2.740   4.332   5.335
 9566SOL    HW129597   2.746   4.232   5.332
 9566SOL    HW229598   2.814   4.371   5.280
 9567SOL     OW29599   6.103   5.731   5.896
 9567SOL    HW129600   6.014   5.746   5.939
 9567SOL    HW229601   6.117   5.634   5.880
 9568SOL     OW29602   5.018   3.617   6.676
 9568SOL    HW129603   4.946   3.677   6.643
 9568SOL    HW229604   5.027   3.627   6.775
 9569SOL     OW29605   6.286   0.763   0.275
 9569SOL    HW129606   6.274   0.724   0.184
 9569SOL    HW229607   6.351   0.708   0.327
 9570SOL     OW29608   1.263   1.061   0.278
 9570SOL    HW129609   1.321   1.106   0.347
 9570SOL    HW229610   1.320   1.008   0.217
 9571SOL     OW29611   2.041   3.886   0.028
 9571SOL    HW129612   2.037   3.848   0.121
 9571SOL    HW229613   1.951   3.920   0.002
 9572SOL     OW29614   1.375   3.959   1.863
 9572SOL    HW129615   1.416   3.872   1.836
 9572SOL    HW229616   1.303   3.984   1.798
 9573SOL     OW29617   2.165   1.826   0.394
 9573SOL    HW129618   2.233   1.753   0.385
 9573SOL    HW229619   2.212   1.913   0.406
 9574SOL     OW29620   2.812   2.932   5.878
 9574SOL    HW129621   2.737   2.871   5.905
 9574SOL    HW229622   2.880   2.881   5.826
 9575SOL     OW29623   5.333   0.484   2.604
 9575SOL    HW129624   5.400   0.477   2.678
 9575SOL    HW229625   5.241   0.487   2.642
 9576SOL     OW29626   3.013   1.060   5.119
 9576SOL    HW129627   2.961   1.106   5.191
 9576SOL    HW229628   2.950   1.018   5.054
 9577SOL     OW29629   0.632   6.259   2.991
 9577SOL    HW129630   0.658   6.335   2.931
 9577SOL    HW229631   0.593   6.185   2.936
 9578SOL     OW29632   6.025   2.614   2.122
 9578SOL    HW129633   5.971   2.697   2.109
 9578SOL    HW229634   5.977   2.553   2.186
 9579SOL     OW29635   0.861   6.443   2.526
 9579SOL    HW129636   0.939   6.388   2.557
 9579SOL    HW229637   0.811   6.393   2.456
 9580SOL     OW29638   4.321   3.451   5.722
 9580SOL    HW129639   4.417   3.456   5.693
 9580SOL    HW229640   4.264   3.500   5.656
 9581SOL     OW29641   0.792   4.334   6.012
 9581SOL    HW129642   0.801   4.422   5.966
 9581SOL    HW229643   0.815   4.261   5.947
 9582SOL     OW29644   4.187   4.763   4.510
 9582SOL    HW129645   4.249   4.782   4.434
 9582SOL    HW229646   4.240   4.750   4.594
 9583SOL     OW29647   2.135   4.650   2.310
 9583SOL    HW129648   2.111   4.722   2.245
 9583SOL    HW229649   2.096   4.672   2.400
 9584SOL     OW29650   6.307   5.712   6.262
 9584SOL    HW129651   6.305   5.612   6.266
 9584SOL    HW229652   6.341   5.749   6.348
 9585SOL     OW29653   5.968   0.545   4.496
 9585SOL    HW129654   5.987   0.471   4.431
 9585SOL    HW229655   6.042   0.549   4.563
 9586SOL     OW29656   5.674   3.387   3.009
 9586SOL    HW129657   5.616   3.359   2.933
 9586SOL    HW229658   5.697   3.307   3.064
 9587SOL     OW29659   5.275   0.091   2.669
 9587SOL    HW129660   5.265   7.019   2.639
 9587SOL    HW229661   5.213   0.149   2.617
 9588SOL     OW29662   0.908   0.597   1.647
 9588SOL    HW129663   0.848   0.646   1.711
 9588SOL    HW229664   0.997   0.582   1.690
 9589SOL     OW29665   2.927   1.220   6.556
 9589SOL    HW129666   2.850   1.256   6.608
 9589SOL    HW229667   2.893   1.160   6.483
 9590SOL     OW29668   6.980   4.263   3.767
 9590SOL    HW129669   6.944   4.345   3.811
 9590SOL    HW229670   6.933   4.249   3.680
 9591SOL     OW29671   1.410   5.269   1.324
 9591SOL    HW129672   1.420   5.186   1.268
 9591SOL    HW229673   1.358   5.247   1.406
 9592SOL     OW29674   4.723   5.402   1.716
 9592SOL    HW129675   4.792   5.412   1.788
 9592SOL    HW229676   4.677   5.489   1.702
 9593SOL     OW29677   6.849   2.814   4.554
 9593SOL    HW129678   6.919   2.842   4.621
 9593SOL    HW229679   6.894   2.792   4.467
 9594SOL     OW29680   6.260   0.379   2.763
 9594SOL    HW129681   6.303   0.302   2.717
 9594SOL    HW229682   6.179   0.408   2.711
 9595SOL     OW29683   1.304   5.745   4.175
 9595SOL    HW129684   1.292   5.842   4.152
 9595SOL    HW229685   1.378   5.707   4.120
 9596SOL     OW29686   5.788   6.124   5.037
 9596SOL    HW129687   5.816   6.034   5.003
 9596SOL    HW229688   5.693   6.142   5.009
 9597SOL     OW29689   2.011   3.875   1.257
 9597SOL    HW129690   2.053   3.966   1.264
 9597SOL    HW229691   1.957   3.858   1.339
 9598SOL     OW29692   0.017   5.672   6.116
 9598SOL    HW129693   0.009   5.704   6.021
 9598SOL    HW229694   0.092   5.606   6.122
 9599SOL     OW29695   4.694   1.384   5.574
 9599SOL    HW129696   4.666   1.477   5.600
 9599SOL    HW229697   4.771   1.355   5.630
 9600SOL     OW29698   1.309   0.241   6.702
 9600SOL    HW129699   1.290   0.333   6.735
 9600SOL    HW229700   1.387   0.242   6.640
 9601SOL     OW29701   0.140   5.380   5.466
 9601SOL    HW129702   0.050   5.340   5.451
 9601SOL    HW229703   0.194   5.372   5.382
 9602SOL     OW29704   1.546   5.382   0.379
 9602SOL    HW129705   1.592   5.412   0.296
 9602SOL    HW229706   1.527   5.461   0.438
 9603SOL     OW29707   1.871   6.090   4.525
 9603SOL    HW129708   1.796   6.147   4.557
 9603SOL    HW229709   1.924   6.056   4.602
 9604SOL     OW29710   6.088   1.469   0.031
 9604SOL    HW129711   6.031   1.471   6.972
 9604SOL    HW229712   6.096   1.375   0.064
 9605SOL     OW29713   2.121   6.107   6.659
 9605SOL    HW129714   2.140   6.183   6.721
 9605SOL    HW229715   2.073   6.034   6.709
 9606SOL     OW29716   6.403   6.346   4.064
 9606SOL    HW129717   6.467   6.270   4.075
 9606SOL    HW229718   6.431   6.402   3.985
 9607SOL     OW29719   1.316   1.913   1.896
 9607SOL    HW129720   1.286   1.917   1.991
 9607SOL    HW229721   1.361   1.998   1.872
 9608SOL     OW29722   0.782   6.966   2.425
 9608SOL    HW129723   0.722   7.003   2.353
 9608SOL    HW229724   0.797   6.869   2.408
 9609SOL     OW29725   1.215   3.958   4.763
 9609SOL    HW129726   1.191   4.010   4.844
 9609SOL    HW229727   1.307   3.920   4.774
 9610SOL     OW29728   2.408   1.659   6.192
 9610SOL    HW129729   2.499   1.684   6.225
 9610SOL    HW229730   2.382   1.721   6.118
 9611SOL     OW29731   6.350   0.266   0.991
 9611SOL    HW129732   6.442   0.274   0.952
 9611SOL    HW229733   6.345   0.184   1.048
 9612SOL     OW29734   5.527   2.766   1.800
 9612SOL    HW129735   5.558   2.791   1.709
 9612SOL    HW229736   5.488   2.674   1.798
 9613SOL     OW29737   6.181   6.380   5.348
 9613SOL    HW129738   6.240   6.459   5.332
 9613SOL    HW229739   6.114   6.373   5.274
 9614SOL     OW29740   3.952   3.565   2.536
 9614SOL    HW129741   3.996   3.654   2.532
 9614SOL    HW229742   4.009   3.502   2.590
 9615SOL     OW29743   1.406   5.766   2.949
 9615SOL    HW129744   1.385   5.717   2.865
 9615SOL    HW229745   1.413   5.864   2.930
 9616SOL     OW29746   3.433   3.586   0.570
 9616SOL    HW129747   3.352   3.614   0.621
 9616SOL    HW229748   3.487   3.667   0.545
 9617SOL     OW29749   0.489   3.791   3.910
 9617SOL    HW129750   0.571   3.792   3.853
 9617SOL    HW229751   0.444   3.880   3.904
 9618SOL     OW29752   4.290   6.415   6.868
 9618SOL    HW129753   4.271   6.493   6.927
 9618SOL    HW229754   4.368   6.435   6.809
 9619SOL     OW29755   2.620   6.787   0.181
 9619SOL    HW129756   2.665   6.751   0.263
 9619SOL    HW229757   2.595   6.883   0.196
 9620SOL     OW29758   3.006   1.183   6.111
 9620SOL    HW129759   2.940   1.150   6.178
 9620SOL    HW229760   3.040   1.273   6.138
 9621SOL     OW29761   0.816   0.669   1.204
 9621SOL    HW129762   0.767   0.755   1.219
 9621SOL    HW229763   0.903   0.688   1.158
 9622SOL     OW29764   6.021   0.282   6.020
 9622SOL    HW129765   6.040   0.378   6.042
 9622SOL    HW229766   5.980   0.276   5.929
 9623SOL     OW29767   4.119   6.371   6.322
 9623SOL    HW129768   4.139   6.293   6.382
 9623SOL    HW229769   4.178   6.367   6.241
 9624SOL     OW29770   3.714   4.999   4.700
 9624SOL    HW129771   3.719   5.063   4.623
 9624SOL    HW229772   3.623   5.004   4.742
 9625SOL     OW29773   4.947   4.405   5.998
 9625SOL    HW129774   4.973   4.452   6.082
 9625SOL    HW229775   4.848   4.386   6.000
 9626SOL     OW29776   2.217   4.009   5.819
 9626SOL    HW129777   2.230   3.993   5.721
 9626SOL    HW229778   2.289   3.963   5.870
 9627SOL     OW29779   0.952   5.491   0.438
 9627SOL    HW129780   1.050   5.495   0.418
 9627SOL    HW229781   0.929   5.558   0.508
 9628SOL     OW29782   5.632   2.799   6.645
 9628SOL    HW129783   5.719   2.815   6.598
 9628SOL    HW229784   5.638   2.835   6.738
 9629SOL     OW29785   0.386   5.595   3.674
 9629SOL    HW129786   0.474   5.548   3.680
 9629SOL    HW229787   0.351   5.610   3.766
 9630SOL     OW29788   6.506   5.717   6.798
 9630SOL    HW129789   6.486   5.675   6.887
 9630SOL    HW229790   6.583   5.780   6.808
 9631SOL     OW29791   4.190   0.778   0.512
 9631SOL    HW129792   4.204   0.759   0.609
 9631SOL    HW229793   4.142   0.702   0.469
 9632SOL     OW29794   3.678   6.245   1.751
 9632SOL    HW129795   3.775   6.265   1.736
 9632SOL    HW229796   3.663   6.218   1.846
 9633SOL     OW29797   3.127   3.079   2.601
 9633SOL    HW129798   3.170   3.149   2.658
 9633SOL    HW229799   3.170   3.078   2.510
 9634SOL     OW29800   5.228   4.504   2.557
 9634SOL    HW129801   5.289   4.582   2.566
 9634SOL    HW229802   5.143   4.522   2.606
 9635SOL     OW29803   0.875   3.947   3.659
 9635SOL    HW129804   0.867   3.941   3.759
 9635SOL    HW229805   0.949   3.888   3.628
 9636SOL     OW29806   4.761   2.474   4.867
 9636SOL    HW129807   4.703   2.492   4.787
 9636SOL    HW229808   4.718   2.404   4.924
 9637SOL     OW29809   2.641   3.211   0.567
 9637SOL    HW129810   2.543   3.228   0.562
 9637SOL    HW229811   2.687   3.294   0.599
 9638SOL     OW29812   0.068   4.478   5.590
 9638SOL    HW129813   0.061   4.570   5.630
 9638SOL    HW229814   0.142   4.477   5.523
 9639SOL     OW29815   3.935   1.718   2.576
 9639SOL    HW129816   3.892   1.808   2.583
 9639SOL    HW229817   3.918   1.666   2.659
 9640SOL     OW29818   3.556   0.668   2.794
 9640SOL    HW129819   3.530   0.764   2.781
 9640SOL    HW229820   3.644   0.663   2.840
 9641SOL     OW29821   6.225   4.288   2.700
 9641SOL    HW129822   6.199   4.234   2.621
 9641SOL    HW229823   6.310   4.336   2.681
 9642SOL     OW29824   1.809   0.399   3.784
 9642SOL    HW129825   1.868   0.335   3.734
 9642SOL    HW229826   1.864   0.449   3.851
 9643SOL     OW29827   5.362   4.414   4.091
 9643SOL    HW129828   5.300   4.465   4.152
 9643SOL    HW229829   5.404   4.339   4.142
 9644SOL     OW29830   1.342   5.605   4.668
 9644SOL    HW129831   1.330   5.671   4.743
 9644SOL    HW229832   1.302   5.517   4.694
 9645SOL     OW29833   1.054   5.932   0.215
 9645SOL    HW129834   1.015   6.024   0.209
 9645SOL    HW229835   1.136   5.935   0.272
 9646SOL     OW29836   3.759   6.190   5.904
 9646SOL    HW129837   3.673   6.228   5.869
 9646SOL    HW229838   3.798   6.254   5.971
 9647SOL     OW29839   6.112   6.889   3.407
 9647SOL    HW129840   6.067   6.840   3.333
 9647SOL    HW229841   6.210   6.876   3.401
 9648SOL     OW29842   4.732   2.377   0.994
 9648SOL    HW129843   4.788   2.448   0.952
 9648SOL    HW229844   4.748   2.290   0.948
 9649SOL     OW29845   1.964   4.642   0.055
 9649SOL    HW129846   1.997   4.724   0.010
 9649SOL    HW229847   2.010   4.562   0.017
 9650SOL     OW29848   6.916   4.874   4.745
 9650SOL    HW129849   6.941   4.856   4.840
 9650SOL    HW229850   6.999   4.884   4.690
 9651SOL     OW29851   3.772   1.217   0.509
 9651SOL    HW129852   3.867   1.232   0.481
 9651SOL    HW229853   3.760   1.249   0.604
 9652SOL     OW29854   0.019   3.799   0.382
 9652SOL    HW129855   0.034   3.814   0.480
 9652SOL    HW229856   0.053   3.878   0.331
 9653SOL     OW29857   4.418   3.762   6.104
 9653SOL    HW129858   4.349   3.745   6.174
 9653SOL    HW229859   4.438   3.677   6.055
 9654SOL     OW29860   3.625   3.530   3.480
 9654SOL    HW129861   3.604   3.556   3.574
 9654SOL    HW229862   3.542   3.500   3.434
 9655SOL     OW29863   4.217   1.393   1.792
 9655SOL    HW129864   4.277   1.447   1.851
 9655SOL    HW229865   4.181   1.451   1.719
 9656SOL     OW29866   5.654   3.922   1.271
 9656SOL    HW129867   5.672   3.910   1.173
 9656SOL    HW229868   5.560   3.955   1.283
 9657SOL     OW29869   5.470   3.402   3.455
 9657SOL    HW129870   5.495   3.469   3.385
 9657SOL    HW229871   5.535   3.327   3.454
 9658SOL     OW29872   5.116   2.053   2.360
 9658SOL    HW129873   5.026   2.096   2.353
 9658SOL    HW229874   5.106   1.960   2.397
 9659SOL     OW29875   3.037   3.206   0.600
 9659SOL    HW129876   3.048   3.301   0.630
 9659SOL    HW229877   3.127   3.161   0.601
 9660SOL     OW29878   0.321   5.860   1.335
 9660SOL    HW129879   0.260   5.809   1.276
 9660SOL    HW229880   0.312   5.958   1.317
 9661SOL     OW29881   5.251   4.777   0.726
 9661SOL    HW129882   5.299   4.805   0.809
 9661SOL    HW229883   5.190   4.851   0.697
 9662SOL     OW29884   5.081   4.225   6.284
 9662SOL    HW129885   5.112   4.320   6.284
 9662SOL    HW229886   5.095   4.185   6.194
 9663SOL     OW29887   0.919   4.910   3.503
 9663SOL    HW129888   0.830   4.873   3.529
 9663SOL    HW229889   0.927   5.005   3.533
 9664SOL     OW29890   5.299   3.784   3.244
 9664SOL    HW129891   5.282   3.826   3.154
 9664SOL    HW229892   5.388   3.738   3.244
 9665SOL     OW29893   5.416   5.870   6.262
 9665SOL    HW129894   5.443   5.823   6.347
 9665SOL    HW229895   5.468   5.954   6.252
 9666SOL     OW29896   5.724   3.504   0.547
 9666SOL    HW129897   5.753   3.409   0.538
 9666SOL    HW229898   5.672   3.530   0.466
 9667SOL     OW29899   5.500   5.833   0.177
 9667SOL    HW129900   5.569   5.896   0.140
 9667SOL    HW229901   5.513   5.825   0.276
 9668SOL     OW29902   0.362   0.077   5.555
 9668SOL    HW129903   0.406   7.012   5.537
 9668SOL    HW229904   0.287   0.064   5.619
 9669SOL     OW29905   3.427   0.017   0.255
 9669SOL    HW129906   3.384   6.979   0.189
 9669SOL    HW229907   3.371   0.099   0.266
 9670SOL     OW29908   0.323   0.357   6.273
 9670SOL    HW129909   0.372   0.418   6.211
 9670SOL    HW229910   0.389   0.311   6.332
 9671SOL     OW29911   1.320   5.251   5.895
 9671SOL    HW129912   1.307   5.204   5.983
 9671SOL    HW229913   1.360   5.187   5.829
 9672SOL     OW29914   0.006   3.432   4.769
 9672SOL    HW129915   0.073   3.494   4.727
 9672SOL    HW229916   6.957   3.485   4.813
 9673SOL     OW29917   2.418   4.138   1.072
 9673SOL    HW129918   2.477   4.084   1.131
 9673SOL    HW229919   2.333   4.088   1.056
 9674SOL     OW29920   2.995   6.391   3.879
 9674SOL    HW129921   2.991   6.326   3.803
 9674SOL    HW229922   3.086   6.386   3.921
 9675SOL     OW29923   4.733   3.880   1.593
 9675SOL    HW129924   4.731   3.979   1.606
 9675SOL    HW229925   4.784   3.838   1.669
 9676SOL     OW29926   1.468   3.012   5.695
 9676SOL    HW129927   1.557   3.055   5.680
 9676SOL    HW229928   1.395   3.074   5.667
 9677SOL     OW29929   6.725   5.372   0.710
 9677SOL    HW129930   6.712   5.273   0.709
 9677SOL    HW229931   6.638   5.418   0.694
 9678SOL     OW29932   3.678   3.433   4.941
 9678SOL    HW129933   3.616   3.357   4.964
 9678SOL    HW229934   3.638   3.519   4.974
 9679SOL     OW29935   1.680   1.202   5.029
 9679SOL    HW129936   1.754   1.198   5.096
 9679SOL    HW229937   1.667   1.111   4.989
 9680SOL     OW29938   4.159   5.816   3.087
 9680SOL    HW129939   4.149   5.868   3.172
 9680SOL    HW229940   4.217   5.867   3.023
 9681SOL     OW29941   1.730   1.826   2.599
 9681SOL    HW129942   1.725   1.728   2.615
 9681SOL    HW229943   1.816   1.862   2.637
 9682SOL     OW29944   5.152   5.692   5.155
 9682SOL    HW129945   5.136   5.686   5.056
 9682SOL    HW229946   5.157   5.601   5.194
 9683SOL     OW29947   2.900   6.406   1.550
 9683SOL    HW129948   2.818   6.460   1.566
 9683SOL    HW229949   2.969   6.461   1.504
 9684SOL     OW29950   1.138   4.064   5.745
 9684SOL    HW129951   1.161   4.153   5.704
 9684SOL    HW229952   1.091   4.079   5.832
 9685SOL     OW29953   3.784   4.871   1.564
 9685SOL    HW129954   3.715   4.812   1.522
 9685SOL    HW229955   3.770   4.966   1.533
 9686SOL     OW29956   0.003   2.024   5.673
 9686SOL    HW129957   6.969   1.954   5.630
 9686SOL    HW229958   0.095   1.989   5.686
 9687SOL     OW29959   6.217   0.540   2.500
 9687SOL    HW129960   6.144   0.608   2.490
 9687SOL    HW229961   6.266   0.532   2.413
 9688SOL     OW29962   0.958   4.432   1.443
 9688SOL    HW129963   0.868   4.450   1.480
 9688SOL    HW229964   0.951   4.416   1.344
 9689SOL     OW29965   1.120   6.492   1.026
 9689SOL    HW129966   1.112   6.418   0.959
 9689SOL    HW229967   1.082   6.461   1.114
 9690SOL     OW29968   5.529   5.514   5.199
 9690SOL    HW129969   5.568   5.563   5.278
 9690SOL    HW229970   5.485   5.580   5.138
 9691SOL     OW29971   3.401   3.333   1.730
 9691SOL    HW129972   3.488   3.326   1.780
 9691SOL    HW229973   3.418   3.368   1.638
 9692SOL     OW29974   4.563   5.362   0.542
 9692SOL    HW129975   4.586   5.366   0.445
 9692SOL    HW229976   4.647   5.352   0.596
 9693SOL     OW29977   5.192   4.111   4.034
 9693SOL    HW129978   5.157   4.159   3.953
 9693SOL    HW229979   5.291   4.122   4.040
 9694SOL     OW29980   3.285   6.138   2.040
 9694SOL    HW129981   3.314   6.099   2.127
 9694SOL    HW229982   3.211   6.204   2.056
 9695SOL     OW29983   0.182   2.346   3.618
 9695SOL    HW129984   0.140   2.357   3.708
 9695SOL    HW229985   0.269   2.298   3.627
 9696SOL     OW29986   5.598   1.913   2.643
 9696SOL    HW129987   5.686   1.960   2.628
 9696SOL    HW229988   5.569   1.927   2.738
 9697SOL     OW29989   0.109   6.154   0.119
 9697SOL    HW129990   0.155   6.066   0.122
 9697SOL    HW229991   0.138   6.209   0.198
 9698SOL     OW29992   5.708   3.682   0.034
 9698SOL    HW129993   5.744   3.615   6.992
 9698SOL    HW229994   5.766   3.764   0.031
 9699SOL     OW29995   0.948   4.971   0.536
 9699SOL    HW129996   0.953   5.030   0.456
 9699SOL    HW229997   0.882   5.008   0.601
 9700SOL     OW29998   5.714   6.446   4.795
 9700SOL    HW129999   5.749   6.354   4.775
 9700SOL    HW230000   5.684   6.449   4.891
 9701SOL     OW30001   4.757   2.991   6.239
 9701SOL    HW130002   4.704   2.945   6.168
 9701SOL    HW230003   4.699   3.059   6.285
 9702SOL     OW30004   3.492   3.091   1.367
 9702SOL    HW130005   3.528   3.183   1.381
 9702SOL    HW230006   3.393   3.096   1.355
 9703SOL     OW30007   6.123   3.944   5.188
 9703SOL    HW130008   6.172   3.961   5.102
 9703SOL    HW230009   6.082   3.853   5.185
 9704SOL     OW30010   2.139   4.387   2.709
 9704SOL    HW130011   2.196   4.308   2.732
 9704SOL    HW230012   2.198   4.465   2.686
 9705SOL     OW30013   5.945   4.182   5.758
 9705SOL    HW130014   5.876   4.203   5.827
 9705SOL    HW230015   5.993   4.266   5.733
 9706SOL     OW30016   1.566   2.085   2.048
 9706SOL    HW130017   1.531   2.018   2.113
 9706SOL    HW230018   1.600   2.165   2.098
 9707SOL     OW30019   6.277   4.608   2.487
 9707SOL    HW130020   6.340   4.570   2.554
 9707SOL    HW230021   6.315   4.598   2.395
 9708SOL     OW30022   2.148   0.686   1.616
 9708SOL    HW130023   2.058   0.723   1.636
 9708SOL    HW230024   2.208   0.759   1.584
 9709SOL     OW30025   5.452   2.346   2.084
 9709SOL    HW130026   5.392   2.267   2.092
 9709SOL    HW230027   5.547   2.316   2.094
 9710SOL     OW30028   6.142   5.349   4.842
 9710SOL    HW130029   6.201   5.429   4.855
 9710SOL    HW230030   6.115   5.343   4.746
 9711SOL     OW30031   4.109   6.628   6.944
 9711SOL    HW130032   4.041   6.601   7.012
 9711SOL    HW230033   4.073   6.612   6.852
 9712SOL     OW30034   6.024   2.277   0.557
 9712SOL    HW130035   5.994   2.182   0.567
 9712SOL    HW230036   6.007   2.308   0.463
 9713SOL     OW30037   1.725   6.363   3.776
 9713SOL    HW130038   1.662   6.440   3.767
 9713SOL    HW230039   1.701   6.292   3.709
 9714SOL     OW30040   3.081   4.860   4.938
 9714SOL    HW130041   3.002   4.810   4.903
 9714SOL    HW230042   3.077   4.864   5.038
 9715SOL     OW30043   6.059   4.216   0.535
 9715SOL    HW130044   6.137   4.160   0.562
 9715SOL    HW230045   5.975   4.161   0.541
 9716SOL     OW30046   2.710   5.046   0.018
 9716SOL    HW130047   2.755   4.962   0.049
 9716SOL    HW230048   2.770   5.094   6.976
 9717SOL     OW30049   4.233   1.075   5.805
 9717SOL    HW130050   4.320   1.114   5.835
 9717SOL    HW230051   4.250   1.007   5.734
 9718SOL     OW30052   3.467   1.536   0.276
 9718SOL    HW130053   3.555   1.571   0.307
 9718SOL    HW230054   3.459   1.439   0.299
 9719SOL     OW30055   4.576   6.437   5.066
 9719SOL    HW130056   4.602   6.342   5.053
 9719SOL    HW230057   4.596   6.489   4.983
 9720SOL     OW30058   1.802   4.242   2.963
 9720SOL    HW130059   1.855   4.189   2.897
 9720SOL    HW230060   1.723   4.188   2.993
 9721SOL     OW30061   1.034   2.285   0.601
 9721SOL    HW130062   1.132   2.299   0.611
 9721SOL    HW230063   0.986   2.371   0.621
 9722SOL     OW30064   3.856   2.899   5.045
 9722SOL    HW130065   3.870   2.817   4.989
 9722SOL    HW230066   3.780   2.884   5.108
 9723SOL     OW30067   6.219   5.231   4.396
 9723SOL    HW130068   6.279   5.236   4.476
 9723SOL    HW230069   6.242   5.149   4.343
 9724SOL     OW30070   0.805   5.882   0.432
 9724SOL    HW130071   0.897   5.868   0.470
 9724SOL    HW230072   0.784   5.980   0.433
 9725SOL     OW30073   3.175   5.237   5.412
 9725SOL    HW130074   3.090   5.223   5.462
 9725SOL    HW230075   3.240   5.164   5.435
 9726SOL     OW30076   5.889   1.116   4.355
 9726SOL    HW130077   5.842   1.059   4.422
 9726SOL    HW230078   5.832   1.123   4.272
 9727SOL     OW30079   0.974   1.245   0.031
 9727SOL    HW130080   1.013   1.190   6.981
 9727SOL    HW230081   0.979   1.194   0.117
 9728SOL     OW30082   5.235   0.246   6.101
 9728SOL    HW130083   5.257   0.343   6.091
 9728SOL    HW230084   5.310   0.199   6.148
 9729SOL     OW30085   0.409   4.889   3.304
 9729SOL    HW130086   0.402   4.791   3.319
 9729SOL    HW230087   0.504   4.913   3.285
 9730SOL     OW30088   0.554   4.490   3.141
 9730SOL    HW130089   0.477   4.426   3.149
 9730SOL    HW230090   0.611   4.484   3.223
 9731SOL     OW30091   5.129   3.872   2.784
 9731SOL    HW130092   5.147   3.903   2.691
 9731SOL    HW230093   5.036   3.898   2.810
 9732SOL     OW30094   1.429   3.097   2.402
 9732SOL    HW130095   1.340   3.072   2.440
 9732SOL    HW230096   1.440   3.196   2.405
 9733SOL     OW30097   6.561   5.263   2.569
 9733SOL    HW130098   6.636   5.328   2.558
 9733SOL    HW230099   6.481   5.297   2.519
 9734SOL     OW30100   6.097   0.000   6.718
 9734SOL    HW130101   6.155   6.944   6.698
 9734SOL    HW230102   6.144   0.084   6.689
 9735SOL     OW30103   1.149   1.790   2.152
 9735SOL    HW130104   1.063   1.741   2.167
 9735SOL    HW230105   1.149   1.875   2.204
 9736SOL     OW30106   4.612   2.473   5.210
 9736SOL    HW130107   4.564   2.547   5.164
 9736SOL    HW230108   4.682   2.510   5.271
 9737SOL     OW30109   6.175   2.098   2.669
 9737SOL    HW130110   6.106   2.030   2.644
 9737SOL    HW230111   6.192   2.158   2.592
 9738SOL     OW30112   1.912   5.883   1.342
 9738SOL    HW130113   1.937   5.793   1.377
 9738SOL    HW230114   1.880   5.940   1.418
 9739SOL     OW30115   5.295   0.107   0.260
 9739SOL    HW130116   5.337   0.133   0.173
 9739SOL    HW230117   5.309   0.180   0.327
 9740SOL     OW30118   6.897   0.345   2.927
 9740SOL    HW130119   6.908   0.357   2.828
 9740SOL    HW230120   6.875   0.433   2.969
 9741SOL     OW30121   3.170   1.133   4.688
 9741SOL    HW130122   3.085   1.091   4.719
 9741SOL    HW230123   3.235   1.061   4.663
 9742SOL     OW30124   4.238   1.898   6.004
 9742SOL    HW130125   4.158   1.952   5.980
 9742SOL    HW230126   4.251   1.825   5.938
 9743SOL     OW30127   6.123   3.069   3.593
 9743SOL    HW130128   6.155   3.162   3.615
 9743SOL    HW230129   6.122   3.014   3.676
 9744SOL     OW30130   1.716   6.947   3.458
 9744SOL    HW130131   1.799   6.901   3.489
 9744SOL    HW230132   1.706   6.934   3.359
 9745SOL     OW30133   6.369   1.019   5.798
 9745SOL    HW130134   6.285   1.047   5.751
 9745SOL    HW230135   6.424   0.962   5.737
 9746SOL     OW30136   4.917   5.572   6.047
 9746SOL    HW130137   5.006   5.574   6.093
 9746SOL    HW230138   4.923   5.515   5.964
 9747SOL     OW30139   2.460   2.513   2.286
 9747SOL    HW130140   2.447   2.422   2.324
 9747SOL    HW230141   2.521   2.508   2.206
 9748SOL     OW30142   1.195   0.639   2.959
 9748SOL    HW130143   1.124   0.612   2.893
 9748SOL    HW230144   1.179   0.593   3.046
 9749SOL     OW30145   7.015   1.851   2.644
 9749SOL    HW130146   0.055   1.794   2.697
 9749SOL    HW230147   0.026   1.860   2.551
 9750SOL     OW30148   6.356   4.625   3.986
 9750SOL    HW130149   6.397   4.697   4.043
 9750SOL    HW230150   6.423   4.594   3.918
 9751SOL     OW30151   2.409   1.157   1.728
 9751SOL    HW130152   2.472   1.093   1.771
 9751SOL    HW230153   2.449   1.193   1.644
 9752SOL     OW30154   4.012   3.242   0.531
 9752SOL    HW130155   3.960   3.298   0.466
 9752SOL    HW230156   3.950   3.205   0.600
 9753SOL     OW30157   6.278   6.248   5.558
 9753SOL    HW130158   6.264   6.286   5.467
 9753SOL    HW230159   6.190   6.226   5.599
 9754SOL     OW30160   3.890   0.338   1.577
 9754SOL    HW130161   3.853   0.330   1.485
 9754SOL    HW230162   3.964   0.405   1.577
 9755SOL     OW30163   3.368   3.985   5.864
 9755SOL    HW130164   3.440   4.025   5.920
 9755SOL    HW230165   3.382   3.886   5.856
 9756SOL     OW30166   5.834   0.967   6.636
 9756SOL    HW130167   5.912   1.016   6.675
 9756SOL    HW230168   5.866   0.903   6.567
 9757SOL     OW30169   4.819   4.121   3.987
 9757SOL    HW130170   4.752   4.190   3.959
 9757SOL    HW230171   4.851   4.072   3.906
 9758SOL     OW30172   2.099   0.416   0.544
 9758SOL    HW130173   2.163   0.398   0.619
 9758SOL    HW230174   2.033   0.340   0.539
 9759SOL     OW30175   1.535   1.799   0.582
 9759SOL    HW130176   1.486   1.886   0.586
 9759SOL    HW230177   1.568   1.784   0.488
 9760SOL     OW30178   4.801   2.092   0.396
 9760SOL    HW130179   4.748   2.046   0.467
 9760SOL    HW230180   4.741   2.115   0.320
 9761SOL     OW30181   1.768   1.239   1.528
 9761SOL    HW130182   1.778   1.311   1.459
 9761SOL    HW230183   1.691   1.260   1.588
 9762SOL     OW30184   2.995   1.901   5.646
 9762SOL    HW130185   2.919   1.916   5.582
 9762SOL    HW230186   3.021   1.988   5.688
 9763SOL     OW30187   6.368   1.268   1.626
 9763SOL    HW130188   6.433   1.262   1.702
 9763SOL    HW230189   6.291   1.208   1.644
 9764SOL     OW30190   5.402   1.830   2.469
 9764SOL    HW130191   5.421   1.734   2.452
 9764SOL    HW230192   5.460   1.863   2.544
 9765SOL     OW30193   6.871   1.462   2.026
 9765SOL    HW130194   6.874   1.551   2.072
 9765SOL    HW230195   6.870   1.477   1.927
 9766SOL     OW30196   1.944   0.802   3.803
 9766SOL    HW130197   1.954   0.885   3.858
 9766SOL    HW230198   1.993   0.813   3.717
 9767SOL     OW30199   2.127   2.990   5.924
 9767SOL    HW130200   2.126   3.082   5.962
 9767SOL    HW230201   2.109   2.923   5.996
 9768SOL     OW30202   5.812   2.435   1.020
 9768SOL    HW130203   5.872   2.464   1.095
 9768SOL    HW230204   5.794   2.337   1.027
 9769SOL     OW30205   2.969   1.741   4.897
 9769SOL    HW130206   2.963   1.707   4.803
 9769SOL    HW230207   2.913   1.824   4.906
 9770SOL     OW30208   3.346   2.185   6.452
 9770SOL    HW130209   3.301   2.101   6.481
 9770SOL    HW230210   3.305   2.263   6.499
 9771SOL     OW30211   2.413   6.174   2.345
 9771SOL    HW130212   2.462   6.222   2.418
 9771SOL    HW230213   2.320   6.152   2.375
 9772SOL     OW30214   1.237   6.058   1.537
 9772SOL    HW130215   1.137   6.059   1.540
 9772SOL    HW230216   1.269   5.964   1.545
 9773SOL     OW30217   5.297   5.254   1.921
 9773SOL    HW130218   5.371   5.199   1.960
 9773SOL    HW230219   5.334   5.320   1.857
 9774SOL     OW30220   0.425   5.682   4.254
 9774SOL    HW130221   0.522   5.670   4.232
 9774SOL    HW230222   0.385   5.748   4.190
 9775SOL     OW30223   2.527   0.970   3.660
 9775SOL    HW130224   2.617   0.968   3.704
 9775SOL    HW230225   2.458   0.999   3.726
 9776SOL     OW30226   1.666   5.657   6.495
 9776SOL    HW130227   1.611   5.710   6.559
 9776SOL    HW230228   1.643   5.560   6.504
 9777SOL     OW30229   5.543   0.017   6.444
 9777SOL    HW130230   5.600   6.962   6.467
 9777SOL    HW230231   5.525   0.071   6.526
 9778SOL     OW30232   0.618   2.027   4.432
 9778SOL    HW130233   0.655   2.113   4.395
 9778SOL    HW230234   0.553   2.048   4.505
 9779SOL     OW30235   0.940   1.828   3.678
 9779SOL    HW130236   0.949   1.856   3.774
 9779SOL    HW230237   0.874   1.754   3.671
 9780SOL     OW30238   1.822   1.729   1.052
 9780SOL    HW130239   1.776   1.763   0.969
 9780SOL    HW230240   1.753   1.706   1.121
 9781SOL     OW30241   1.271   3.479   3.395
 9781SOL    HW130242   1.256   3.397   3.341
 9781SOL    HW230243   1.252   3.560   3.339
 9782SOL     OW30244   0.665   2.321   0.732
 9782SOL    HW130245   0.654   2.363   0.823
 9782SOL    HW230246   0.663   2.222   0.740
 9783SOL     OW30247   3.539   1.328   3.567
 9783SOL    HW130248   3.530   1.254   3.633
 9783SOL    HW230249   3.633   1.331   3.533
 9784SOL     OW30250   2.694   1.976   0.368
 9784SOL    HW130251   2.775   1.981   0.426
 9784SOL    HW230252   2.722   1.955   0.274
 9785SOL     OW30253   0.240   2.407   4.519
 9785SOL    HW130254   0.303   2.436   4.447
 9785SOL    HW230255   0.268   2.448   4.606
 9786SOL     OW30256   2.268   4.552   0.895
 9786SOL    HW130257   2.181   4.536   0.943
 9786SOL    HW230258   2.272   4.494   0.814
 9787SOL     OW30259   3.504   3.087   2.555
 9787SOL    HW130260   3.457   3.003   2.527
 9787SOL    HW230261   3.442   3.165   2.543
 9788SOL     OW30262   0.585   5.837   1.853
 9788SOL    HW130263   0.563   5.860   1.948
 9788SOL    HW230264   0.519   5.770   1.819
 9789SOL     OW30265   3.172   6.838   6.624
 9789SOL    HW130266   3.221   6.911   6.577
 9789SOL    HW230267   3.204   6.831   6.719
 9790SOL     OW30268   6.905   3.506   4.355
 9790SOL    HW130269   6.959   3.552   4.284
 9790SOL    HW230270   6.877   3.572   4.424
 9791SOL     OW30271   0.779   6.379   0.893
 9791SOL    HW130272   0.749   6.443   0.822
 9791SOL    HW230273   0.878   6.369   0.889
 9792SOL     OW30274   3.652   5.408   1.024
 9792SOL    HW130275   3.717   5.448   1.089
 9792SOL    HW230276   3.703   5.361   0.951
 9793SOL     OW30277   4.724   1.295   2.474
 9793SOL    HW130278   4.674   1.381   2.459
 9793SOL    HW230279   4.784   1.277   2.396
 9794SOL     OW30280   4.819   4.652   4.717
 9794SOL    HW130281   4.752   4.719   4.687
 9794SOL    HW230282   4.773   4.565   4.738
 9795SOL     OW30283   0.931   2.991   3.581
 9795SOL    HW130284   0.947   2.951   3.671
 9795SOL    HW230285   0.866   3.066   3.589
 9796SOL     OW30286   3.436   4.166   3.493
 9796SOL    HW130287   3.409   4.261   3.475
 9796SOL    HW230288   3.535   4.157   3.482
 9797SOL     OW30289   2.890   6.353   6.498
 9797SOL    HW130290   2.884   6.321   6.404
 9797SOL    HW230291   2.813   6.414   6.518
 9798SOL     OW30292   1.386   2.685   1.466
 9798SOL    HW130293   1.461   2.651   1.410
 9798SOL    HW230294   1.298   2.658   1.426
 9799SOL     OW30295   2.841   5.955   6.485
 9799SOL    HW130296   2.818   5.943   6.582
 9799SOL    HW230297   2.884   5.871   6.451
 9800SOL     OW30298   5.371   2.893   4.111
 9800SOL    HW130299   5.340   2.848   4.027
 9800SOL    HW230300   5.294   2.941   4.153
 9801SOL     OW30301   6.000   4.970   5.941
 9801SOL    HW130302   5.934   4.896   5.929
 9801SOL    HW230303   6.065   4.945   6.013
 9802SOL     OW30304   4.254   5.133   1.398
 9802SOL    HW130305   4.329   5.191   1.365
 9802SOL    HW230306   4.171   5.154   1.346
 9803SOL     OW30307   1.242   3.882   6.557
 9803SOL    HW130308   1.162   3.888   6.497
 9803SOL    HW230309   1.257   3.971   6.600
 9804SOL     OW30310   6.490   5.458   3.028
 9804SOL    HW130311   6.477   5.500   2.938
 9804SOL    HW230312   6.409   5.405   3.052
 9805SOL     OW30313   0.430   6.687   3.742
 9805SOL    HW130314   0.431   6.674   3.643
 9805SOL    HW230315   0.362   6.626   3.783
 9806SOL     OW30316   3.797   2.681   5.854
 9806SOL    HW130317   3.761   2.716   5.767
 9806SOL    HW230318   3.896   2.667   5.846
 9807SOL     OW30319   2.891   3.385   2.390
 9807SOL    HW130320   2.796   3.402   2.363
 9807SOL    HW230321   2.927   3.307   2.339
 9808SOL     OW30322   4.742   6.430   3.903
 9808SOL    HW130323   4.823   6.486   3.890
 9808SOL    HW230324   4.661   6.488   3.904
 9809SOL     OW30325   0.202   2.766   0.642
 9809SOL    HW130326   0.252   2.843   0.682
 9809SOL    HW230327   0.104   2.785   0.645
 9810SOL     OW30328   2.300   1.626   5.657
 9810SOL    HW130329   2.350   1.613   5.572
 9810SOL    HW230330   2.355   1.595   5.734
 9811SOL     OW30331   6.850   3.890   4.298
 9811SOL    HW130332   6.832   3.936   4.385
 9811SOL    HW230333   6.867   3.958   4.227
 9812SOL     OW30334   2.636   6.560   4.408
 9812SOL    HW130335   2.657   6.593   4.500
 9812SOL    HW230336   2.635   6.637   4.344
 9813SOL     OW30337   5.272   2.119   0.677
 9813SOL    HW130338   5.284   2.025   0.646
 9813SOL    HW230339   5.176   2.134   0.702
 9814SOL     OW30340   5.775   1.817   0.021
 9814SOL    HW130341   5.704   1.841   6.979
 9814SOL    HW230342   5.772   1.879   0.099
 9815SOL     OW30343   4.870   2.845   4.740
 9815SOL    HW130344   4.855   2.890   4.653
 9815SOL    HW230345   4.867   2.913   4.814
 9816SOL     OW30346   1.307   0.491   0.600
 9816SOL    HW130347   1.391   0.441   0.620
 9816SOL    HW230348   1.231   0.450   0.650
 9817SOL     OW30349   0.523   0.268   3.382
 9817SOL    HW130350   0.443   0.328   3.375
 9817SOL    HW230351   0.579   0.278   3.300
 9818SOL     OW30352   6.009   1.818   4.788
 9818SOL    HW130353   6.097   1.859   4.812
 9818SOL    HW230354   5.951   1.888   4.745
 9819SOL     OW30355   3.782   1.594   3.485
 9819SOL    HW130356   3.761   1.683   3.446
 9819SOL    HW230357   3.736   1.523   3.432
 9820SOL     OW30358   3.361   4.089   5.584
 9820SOL    HW130359   3.313   4.009   5.549
 9820SOL    HW230360   3.388   4.073   5.679
 9821SOL     OW30361   5.579   5.798   6.912
 9821SOL    HW130362   5.579   5.796   7.012
 9821SOL    HW230363   5.502   5.854   6.880
 9822SOL     OW30364   0.437   6.936   3.070
 9822SOL    HW130365   0.509   7.003   3.055
 9822SOL    HW230366   0.351   6.983   3.093
 9823SOL     OW30367   3.567   0.645   2.414
 9823SOL    HW130368   3.509   0.726   2.424
 9823SOL    HW230369   3.566   0.593   2.499
 9824SOL     OW30370   0.804   3.911   5.318
 9824SOL    HW130371   0.904   3.913   5.316
 9824SOL    HW230372   0.773   3.888   5.411
 9825SOL     OW30373   3.818   4.849   5.528
 9825SOL    HW130374   3.839   4.921   5.462
 9825SOL    HW230375   3.722   4.823   5.520
 9826SOL     OW30376   4.344   5.910   5.947
 9826SOL    HW130377   4.327   5.911   6.045
 9826SOL    HW230378   4.278   5.850   5.902
 9827SOL     OW30379   1.704   4.151   4.608
 9827SOL    HW130380   1.670   4.225   4.666
 9827SOL    HW230381   1.745   4.080   4.665
 9828SOL     OW30382   3.618   2.892   6.374
 9828SOL    HW130383   3.652   2.893   6.468
 9828SOL    HW230384   3.561   2.972   6.358
 9829SOL     OW30385   3.323   6.296   0.482
 9829SOL    HW130386   3.309   6.202   0.450
 9829SOL    HW230387   3.322   6.359   0.404
 9830SOL     OW30388   6.034   1.763   1.076
 9830SOL    HW130389   6.109   1.796   1.019
 9830SOL    HW230390   6.066   1.752   1.170
 9831SOL     OW30391   0.967   6.150   1.233
 9831SOL    HW130392   1.041   6.131   1.297
 9831SOL    HW230393   0.944   6.247   1.236
 9832SOL     OW30394   4.401   5.009   2.882
 9832SOL    HW130395   4.486   5.041   2.840
 9832SOL    HW230396   4.347   4.959   2.814
 9833SOL     OW30397   3.337   3.232   4.892
 9833SOL    HW130398   3.285   3.278   4.964
 9833SOL    HW230399   3.407   3.174   4.934
 9834SOL     OW30400   2.399   3.664   5.571
 9834SOL    HW130401   2.424   3.572   5.539
 9834SOL    HW230402   2.443   3.733   5.513
 9835SOL     OW30403   4.634   1.883   3.900
 9835SOL    HW130404   4.636   1.920   3.993
 9835SOL    HW230405   4.578   1.942   3.842
 9836SOL     OW30406   5.535   3.591   3.280
 9836SOL    HW130407   5.480   3.526   3.228
 9836SOL    HW230408   5.572   3.661   3.218
 9837SOL     OW30409   1.946   0.108   3.495
 9837SOL    HW130410   2.033   0.086   3.451
 9837SOL    HW230411   1.876   0.043   3.464
 9838SOL     OW30412   0.988   6.508   5.784
 9838SOL    HW130413   0.936   6.467   5.710
 9838SOL    HW230414   0.942   6.491   5.871
 9839SOL     OW30415   0.038   1.718   2.337
 9839SOL    HW130416   0.011   1.721   2.241
 9839SOL    HW230417   7.021   1.638   2.381
 9840SOL     OW30418   0.291   0.181   0.591
 9840SOL    HW130419   0.311   0.178   0.493
 9840SOL    HW230420   0.257   0.272   0.616
 9841SOL     OW30421   1.488   4.158   4.423
 9841SOL    HW130422   1.555   4.163   4.497
 9841SOL    HW230423   1.442   4.246   4.415
 9842SOL     OW30424   3.889   3.019   3.561
 9842SOL    HW130425   3.898   3.036   3.660
 9842SOL    HW230426   3.951   3.079   3.511
 9843SOL     OW30427   6.508   2.385   1.213
 9843SOL    HW130428   6.542   2.348   1.299
 9843SOL    HW230429   6.511   2.314   1.143
 9844SOL     OW30430   4.119   6.987   3.015
 9844SOL    HW130431   4.186   0.020   2.966
 9844SOL    HW230432   4.034   6.984   2.963
 9845SOL     OW30433   2.405   1.649   4.979
 9845SOL    HW130434   2.347   1.697   5.045
 9845SOL    HW230435   2.401   1.697   4.891
 9846SOL     OW30436   3.055   3.829   3.628
 9846SOL    HW130437   3.049   3.741   3.580
 9846SOL    HW230438   3.126   3.823   3.699
 9847SOL     OW30439   2.750   3.027   6.191
 9847SOL    HW130440   2.696   3.042   6.108
 9847SOL    HW230441   2.698   3.058   6.271
 9848SOL     OW30442   4.135   2.359   6.702
 9848SOL    HW130443   4.186   2.277   6.728
 9848SOL    HW230444   4.084   2.340   6.618
 9849SOL     OW30445   5.947   0.364   6.494
 9849SOL    HW130446   5.982   0.290   6.436
 9849SOL    HW230447   5.974   0.452   6.454
 9850SOL     OW30448   4.701   5.963   2.214
 9850SOL    HW130449   4.666   5.869   2.217
 9850SOL    HW230450   4.762   5.978   2.292
 9851SOL     OW30451   4.460   2.080   5.070
 9851SOL    HW130452   4.371   2.061   5.111
 9851SOL    HW230453   4.458   2.054   4.974
 9852SOL     OW30454   4.447   1.522   3.155
 9852SOL    HW130455   4.507   1.601   3.166
 9852SOL    HW230456   4.365   1.534   3.210
 9853SOL     OW30457   4.872   3.912   2.853
 9853SOL    HW130458   4.872   3.912   2.953
 9853SOL    HW230459   4.780   3.929   2.820
 9854SOL     OW30460   6.338   5.072   5.255
 9854SOL    HW130461   6.253   5.118   5.281
 9854SOL    HW230462   6.399   5.136   5.209
 9855SOL     OW30463   0.617   4.100   1.354
 9855SOL    HW130464   0.579   4.188   1.382
 9855SOL    HW230465   0.687   4.114   1.284
 9856SOL     OW30466   4.082   4.742   6.889
 9856SOL    HW130467   4.108   4.765   6.795
 9856SOL    HW230468   4.105   4.817   6.950
 9857SOL     OW30469   5.276   1.795   2.947
 9857SOL    HW130470   5.187   1.752   2.929
 9857SOL    HW230471   5.348   1.726   2.940
 9858SOL     OW30472   5.200   0.730   1.651
 9858SOL    HW130473   5.195   0.784   1.567
 9858SOL    HW230474   5.153   0.643   1.637
 9859SOL     OW30475   6.475   6.926   1.492
 9859SOL    HW130476   6.556   6.973   1.458
 9859SOL    HW230477   6.463   6.840   1.442
 9860SOL     OW30478   0.700   1.210   1.596
 9860SOL    HW130479   0.607   1.246   1.600
 9860SOL    HW230480   0.721   1.182   1.503
 9861SOL     OW30481   3.716   6.451   4.872
 9861SOL    HW130482   3.665   6.534   4.847
 9861SOL    HW230483   3.748   6.459   4.966
 9862SOL     OW30484   2.505   3.632   0.471
 9862SOL    HW130485   2.479   3.635   0.568
 9862SOL    HW230486   2.426   3.656   0.415
 9863SOL     OW30487   2.899   6.911   2.713
 9863SOL    HW130488   2.822   6.954   2.666
 9863SOL    HW230489   2.946   6.849   2.650
 9864SOL     OW30490   4.145   6.091   3.564
 9864SOL    HW130491   4.068   6.146   3.595
 9864SOL    HW230492   4.133   6.068   3.468
 9865SOL     OW30493   0.806   1.015   3.589
 9865SOL    HW130494   0.870   0.939   3.599
 9865SOL    HW230495   0.831   1.070   3.510
 9866SOL     OW30496   5.062   4.410   4.742
 9866SOL    HW130497   5.052   4.459   4.829
 9866SOL    HW230498   5.125   4.460   4.682
 9867SOL     OW30499   4.360   0.848   1.022
 9867SOL    HW130500   4.375   0.913   1.096
 9867SOL    HW230501   4.439   0.788   1.013
 9868SOL     OW30502   1.582   4.840   5.877
 9868SOL    HW130503   1.619   4.757   5.835
 9868SOL    HW230504   1.518   4.815   5.950
 9869SOL     OW30505   2.120   3.557   3.069
 9869SOL    HW130506   2.188   3.483   3.063
 9869SOL    HW230507   2.086   3.563   3.163
 9870SOL     OW30508   4.101   5.478   2.422
 9870SOL    HW130509   4.140   5.539   2.491
 9870SOL    HW230510   4.175   5.423   2.382
 9871SOL     OW30511   0.835   6.522   6.011
 9871SOL    HW130512   0.870   6.446   6.065
 9871SOL    HW230513   0.740   6.504   5.985
 9872SOL     OW30514   2.516   5.066   3.004
 9872SOL    HW130515   2.498   5.041   2.909
 9872SOL    HW230516   2.456   5.014   3.064
 9873SOL     OW30517   2.101   2.444   1.384
 9873SOL    HW130518   2.190   2.466   1.344
 9873SOL    HW230519   2.029   2.456   1.316
 9874SOL     OW30520   0.723   2.282   4.311
 9874SOL    HW130521   0.651   2.337   4.268
 9874SOL    HW230522   0.807   2.335   4.315
 9875SOL     OW30523   0.227   0.041   2.149
 9875SOL    HW130524   0.261   0.074   2.236
 9875SOL    HW230525   0.267   6.975   2.129
 9876SOL     OW30526   0.115   0.489   2.586
 9876SOL    HW130527   0.161   0.427   2.649
 9876SOL    HW230528   0.100   0.577   2.632
 9877SOL     OW30529   1.592   5.914   2.499
 9877SOL    HW130530   1.636   5.915   2.409
 9877SOL    HW230531   1.662   5.923   2.570
 9878SOL     OW30532   2.370   5.211   5.220
 9878SOL    HW130533   2.408   5.121   5.201
 9878SOL    HW230534   2.272   5.211   5.200
 9879SOL     OW30535   5.705   5.358   4.662
 9879SOL    HW130536   5.787   5.306   4.687
 9879SOL    HW230537   5.635   5.295   4.629
 9880SOL     OW30538   1.737   2.675   5.481
 9880SOL    HW130539   1.741   2.595   5.542
 9880SOL    HW230540   1.699   2.753   5.532
 9881SOL     OW30541   2.167   2.207   4.989
 9881SOL    HW130542   2.248   2.245   4.944
 9881SOL    HW230543   2.123   2.278   5.043
 9882SOL     OW30544   1.334   2.053   3.651
 9882SOL    HW130545   1.414   2.076   3.595
 9882SOL    HW230546   1.309   1.958   3.636
 9883SOL     OW30547   0.745   6.116   0.819
 9883SOL    HW130548   0.781   6.208   0.834
 9883SOL    HW230549   0.651   6.112   0.853
 9884SOL     OW30550   3.806   1.494   3.028
 9884SOL    HW130551   3.862   1.517   2.948
 9884SOL    HW230552   3.710   1.488   3.000
 9885SOL     OW30553   0.329   3.373   5.308
 9885SOL    HW130554   0.280   3.440   5.252
 9885SOL    HW230555   0.397   3.326   5.251
 9886SOL     OW30556   0.646   4.575   2.170
 9886SOL    HW130557   0.686   4.504   2.227
 9886SOL    HW230558   0.660   4.554   2.074
 9887SOL     OW30559   3.674   1.399   6.035
 9887SOL    HW130560   3.742   1.337   6.073
 9887SOL    HW230561   3.582   1.362   6.050
 9888SOL     OW30562   0.250   4.601   0.858
 9888SOL    HW130563   0.197   4.526   0.818
 9888SOL    HW230564   0.253   4.678   0.794
 9889SOL     OW30565   6.549   5.007   0.897
 9889SOL    HW130566   6.616   5.067   0.941
 9889SOL    HW230567   6.457   5.038   0.921
 9890SOL     OW30568   1.826   2.290   0.082
 9890SOL    HW130569   1.923   2.276   0.062
 9890SOL    HW230570   1.779   2.323   0.001
 9891SOL     OW30571   5.390   2.745   1.048
 9891SOL    HW130572   5.461   2.677   1.067
 9891SOL    HW230573   5.376   2.802   1.130
 9892SOL     OW30574   6.512   5.717   0.489
 9892SOL    HW130575   6.521   5.814   0.510
 9892SOL    HW230576   6.575   5.692   0.415
 9893SOL     OW30577   1.489   0.353   0.766
 9893SOL    HW130578   1.402   0.393   0.796
 9893SOL    HW230579   1.479   0.253   0.762
 9894SOL     OW30580   1.868   1.907   1.321
 9894SOL    HW130581   1.869   1.882   1.225
 9894SOL    HW230582   1.811   1.988   1.334
 9895SOL     OW30583   5.436   3.475   5.650
 9895SOL    HW130584   5.520   3.423   5.638
 9895SOL    HW230585   5.364   3.437   5.592
 9896SOL     OW30586   6.044   6.941   6.110
 9896SOL    HW130587   6.011   6.956   6.203
 9896SOL    HW230588   6.111   7.012   6.087
 9897SOL     OW30589   5.788   5.475   3.277
 9897SOL    HW130590   5.844   5.471   3.194
 9897SOL    HW230591   5.769   5.382   3.309
 9898SOL     OW30592   2.260   5.615   6.128
 9898SOL    HW130593   2.324   5.676   6.081
 9898SOL    HW230594   2.226   5.659   6.211
 9899SOL     OW30595   0.271   5.609   0.338
 9899SOL    HW130596   0.211   5.612   0.258
 9899SOL    HW230597   0.237   5.672   0.408
 9900SOL     OW30598   1.809   3.848   3.442
 9900SOL    HW130599   1.710   3.845   3.452
 9900SOL    HW230600   1.848   3.912   3.509
 9901SOL     OW30601   2.988   1.689   5.849
 9901SOL    HW130602   2.890   1.687   5.869
 9901SOL    HW230603   3.005   1.748   5.770
 9902SOL     OW30604   2.994   5.072   0.038
 9902SOL    HW130605   2.933   5.127   0.096
 9902SOL    HW230606   3.033   5.131   6.990
 9903SOL     OW30607   4.840   0.860   1.771
 9903SOL    HW130608   4.929   0.886   1.808
 9903SOL    HW230609   4.833   0.760   1.769
 9904SOL     OW30610   0.958   3.084   6.710
 9904SOL    HW130611   0.984   2.990   6.731
 9904SOL    HW230612   0.907   3.086   6.624
 9905SOL     OW30613   2.962   0.497   6.827
 9905SOL    HW130614   3.022   0.514   6.905
 9905SOL    HW230615   3.009   0.438   6.761
 9906SOL     OW30616   2.938   3.387   2.019
 9906SOL    HW130617   3.018   3.335   1.990
 9906SOL    HW230618   2.955   3.426   2.110
 9907SOL     OW30619   6.562   1.038   0.345
 9907SOL    HW130620   6.610   0.986   0.274
 9907SOL    HW230621   6.607   1.127   0.358
 9908SOL     OW30622   5.647   1.714   3.830
 9908SOL    HW130623   5.554   1.680   3.813
 9908SOL    HW230624   5.708   1.637   3.849
 9909SOL     OW30625   3.670   0.379   3.964
 9909SOL    HW130626   3.649   0.475   3.980
 9909SOL    HW230627   3.684   0.364   3.866
 9910SOL     OW30628   0.788   3.772   2.822
 9910SOL    HW130629   0.794   3.675   2.848
 9910SOL    HW230630   0.869   3.797   2.768
 9911SOL     OW30631   3.459   6.515   2.299
 9911SOL    HW130632   3.434   6.494   2.204
 9911SOL    HW230633   3.551   6.556   2.300
 9912SOL     OW30634   3.665   1.778   1.888
 9912SOL    HW130635   3.663   1.754   1.791
 9912SOL    HW230636   3.633   1.700   1.943
 9913SOL     OW30637   6.356   4.413   0.428
 9913SOL    HW130638   6.426   4.476   0.462
 9913SOL    HW230639   6.363   4.326   0.477
 9914SOL     OW30640   5.441   2.437   5.095
 9914SOL    HW130641   5.427   2.452   5.194
 9914SOL    HW230642   5.484   2.348   5.080
 9915SOL     OW30643   5.509   0.796   3.748
 9915SOL    HW130644   5.567   0.743   3.687
 9915SOL    HW230645   5.446   0.734   3.796
 9916SOL     OW30646   1.979   3.015   3.212
 9916SOL    HW130647   2.000   2.995   3.116
 9916SOL    HW230648   1.999   3.111   3.231
 9917SOL     OW30649   5.891   3.900   0.127
 9917SOL    HW130650   5.828   3.976   0.143
 9917SOL    HW230651   5.929   3.869   0.214
 9918SOL     OW30652   3.253   1.784   3.102
 9918SOL    HW130653   3.223   1.841   3.026
 9918SOL    HW230654   3.221   1.824   3.189
 9919SOL     OW30655   6.080   5.074   1.161
 9919SOL    HW130656   6.017   5.151   1.170
 9919SOL    HW230657   6.028   4.991   1.140
 9920SOL     OW30658   4.720   1.815   1.853
 9920SOL    HW130659   4.789   1.860   1.911
 9920SOL    HW230660   4.634   1.865   1.860
 9921SOL     OW30661   4.863   6.298   6.671
 9921SOL    HW130662   4.885   6.202   6.654
 9921SOL    HW230663   4.941   6.355   6.645
 9922SOL     OW30664   2.002   4.581   1.074
 9922SOL    HW130665   1.987   4.678   1.055
 9922SOL    HW230666   1.918   4.541   1.110
 9923SOL     OW30667   5.054   4.808   0.116
 9923SOL    HW130668   5.070   4.788   0.212
 9923SOL    HW230669   5.128   4.770   0.060
 9924SOL     OW30670   6.501   2.409   5.108
 9924SOL    HW130671   6.551   2.448   5.185
 9924SOL    HW230672   6.404   2.432   5.116
 9925SOL     OW30673   6.832   3.230   3.642
 9925SOL    HW130674   6.759   3.171   3.607
 9925SOL    HW230675   6.919   3.180   3.639
 9926SOL     OW30676   3.315   3.150   0.481
 9926SOL    HW130677   3.391   3.214   0.472
 9926SOL    HW230678   3.337   3.082   0.551
 9927SOL     OW30679   0.096   0.304   1.344
 9927SOL    HW130680   0.170   0.264   1.399
 9927SOL    HW230681   0.130   0.325   1.252
 9928SOL     OW30682   4.980   6.447   1.834
 9928SOL    HW130683   5.041   6.418   1.908
 9928SOL    HW230684   5.005   6.398   1.751
 9929SOL     OW30685   2.620   5.288   4.971
 9929SOL    HW130686   2.526   5.256   4.980
 9929SOL    HW230687   2.683   5.213   4.993
 9930SOL     OW30688   6.281   6.857   4.798
 9930SOL    HW130689   6.331   6.910   4.868
 9930SOL    HW230690   6.325   6.768   4.787
 9931SOL     OW30691   0.853   4.727   4.700
 9931SOL    HW130692   0.780   4.660   4.703
 9931SOL    HW230693   0.900   4.730   4.788
 9932SOL     OW30694   2.049   5.071   6.657
 9932SOL    HW130695   2.040   5.145   6.590
 9932SOL    HW230696   2.091   4.991   6.614
 9933SOL     OW30697   1.082   5.160   3.242
 9933SOL    HW130698   1.006   5.099   3.263
 9933SOL    HW230699   1.054   5.255   3.256
 9934SOL     OW30700   5.988   1.340   5.452
 9934SOL    HW130701   5.965   1.323   5.356
 9934SOL    HW230702   5.904   1.344   5.506
 9935SOL     OW30703   3.354   6.851   0.060
 9935SOL    HW130704   3.425   6.870   7.016
 9935SOL    HW230705   3.264   6.853   0.016
 9936SOL     OW30706   0.026   5.172   6.151
 9936SOL    HW130707   0.024   5.167   6.051
 9936SOL    HW230708   0.070   5.089   6.187
 9937SOL     OW30709   6.530   1.722   6.501
 9937SOL    HW130710   6.607   1.739   6.563
 9937SOL    HW230711   6.556   1.746   6.408
 9938SOL     OW30712   6.952   5.006   2.957
 9938SOL    HW130713   6.979   5.102   2.950
 9938SOL    HW230714   7.020   4.948   2.911
 9939SOL     OW30715   3.924   2.083   0.356
 9939SOL    HW130716   3.866   2.018   0.404
 9939SOL    HW230717   3.963   2.040   0.275
 9940SOL     OW30718   0.963   0.940   1.110
 9940SOL    HW130719   1.017   1.024   1.121
 9940SOL    HW230720   0.876   0.951   1.157
 9941SOL     OW30721   3.096   3.564   5.070
 9941SOL    HW130722   3.088   3.606   5.160
 9941SOL    HW230723   3.177   3.599   5.023
 9942SOL     OW30724   2.409   5.130   2.724
 9942SOL    HW130725   2.354   5.213   2.720
 9942SOL    HW230726   2.465   5.123   2.641
 9943SOL     OW30727   6.723   5.978   5.529
 9943SOL    HW130728   6.663   6.031   5.588
 9943SOL    HW230729   6.797   6.036   5.495
 9944SOL     OW30730   2.191   5.133   6.000
 9944SOL    HW130731   2.139   5.100   5.921
 9944SOL    HW230732   2.156   5.222   6.029
 9945SOL     OW30733   6.212   5.545   0.028
 9945SOL    HW130734   6.206   5.454   0.069
 9945SOL    HW230735   6.288   5.596   0.069
 9946SOL     OW30736   4.827   0.912   4.792
 9946SOL    HW130737   4.826   0.882   4.697
 9946SOL    HW230738   4.822   1.012   4.795
 9947SOL     OW30739   1.333   3.768   5.328
 9947SOL    HW130740   1.380   3.781   5.241
 9947SOL    HW230741   1.384   3.813   5.401
 9948SOL     OW30742   5.755   4.551   4.246
 9948SOL    HW130743   5.787   4.544   4.151
 9948SOL    HW230744   5.806   4.487   4.303
 9949SOL     OW30745   5.269   5.195   3.583
 9949SOL    HW130746   5.211   5.268   3.617
 9949SOL    HW230747   5.341   5.234   3.526
 9950SOL     OW30748   5.809   5.705   5.357
 9950SOL    HW130749   5.849   5.796   5.372
 9950SOL    HW230750   5.864   5.637   5.405
 9951SOL     OW30751   5.847   1.566   4.740
 9951SOL    HW130752   5.824   1.604   4.651
 9951SOL    HW230753   5.860   1.641   4.806
 9952SOL     OW30754   0.123   3.751   0.863
 9952SOL    HW130755   0.101   3.657   0.891
 9952SOL    HW230756   0.182   3.793   0.931
 9953SOL     OW30757   6.114   2.604   4.081
 9953SOL    HW130758   6.069   2.688   4.112
 9953SOL    HW230759   6.090   2.529   4.143
 9954SOL     OW30760   5.808   6.548   5.991
 9954SOL    HW130761   5.783   6.544   5.894
 9954SOL    HW230762   5.863   6.629   6.008
 9955SOL     OW30763   6.148   3.206   5.454
 9955SOL    HW130764   6.133   3.143   5.378
 9955SOL    HW230765   6.116   3.297   5.429
 9956SOL     OW30766   2.107   6.888   1.402
 9956SOL    HW130767   2.144   6.906   1.494
 9956SOL    HW230768   2.113   6.972   1.347
 9957SOL     OW30769   5.819   5.449   2.637
 9957SOL    HW130770   5.873   5.433   2.554
 9957SOL    HW230771   5.805   5.547   2.649
 9958SOL     OW30772   3.043   5.674   0.496
 9958SOL    HW130773   3.134   5.646   0.527
 9958SOL    HW230774   3.024   5.767   0.526
 9959SOL     OW30775   4.205   3.671   5.569
 9959SOL    HW130776   4.159   3.739   5.625
 9959SOL    HW230777   4.246   3.716   5.490
 9960SOL     OW30778   6.859   0.054   2.226
 9960SOL    HW130779   6.913   0.097   2.299
 9960SOL    HW230780   6.920   0.016   2.157
 9961SOL     OW30781   2.078   6.034   3.815
 9961SOL    HW130782   2.125   6.080   3.890
 9961SOL    HW230783   2.145   5.989   3.756
 9962SOL     OW30784   6.772   6.824   2.818
 9962SOL    HW130785   6.864   6.839   2.854
 9962SOL    HW230786   6.778   6.790   2.724
 9963SOL     OW30787   3.149   2.972   6.810
 9963SOL    HW130788   3.057   2.932   6.815
 9963SOL    HW230789   3.183   2.987   6.903
 9964SOL     OW30790   4.351   5.371   4.983
 9964SOL    HW130791   4.295   5.331   4.910
 9964SOL    HW230792   4.421   5.430   4.942
 9965SOL     OW30793   3.567   6.863   6.931
 9965SOL    HW130794   3.569   6.914   6.845
 9965SOL    HW230795   3.660   6.849   6.964
 9966SOL     OW30796   1.658   4.862   1.519
 9966SOL    HW130797   1.645   4.944   1.575
 9966SOL    HW230798   1.607   4.873   1.433
 9967SOL     OW30799   0.184   5.670   2.307
 9967SOL    HW130800   0.100   5.724   2.317
 9967SOL    HW230801   0.191   5.636   2.213
 9968SOL     OW30802   3.616   3.963   1.584
 9968SOL    HW130803   3.531   3.989   1.537
 9968SOL    HW230804   3.655   3.883   1.538
 9969SOL     OW30805   1.659   3.565   2.193
 9969SOL    HW130806   1.743   3.579   2.142
 9969SOL    HW230807   1.582   3.603   2.142
 9970SOL     OW30808   5.041   4.264   2.711
 9970SOL    HW130809   4.995   4.256   2.622
 9970SOL    HW230810   5.140   4.274   2.696
 9971SOL     OW30811   2.076   4.923   1.310
 9971SOL    HW130812   2.172   4.923   1.283
 9971SOL    HW230813   2.019   4.899   1.231
 9972SOL     OW30814   5.519   5.062   1.073
 9972SOL    HW130815   5.459   4.985   1.094
 9972SOL    HW230816   5.568   5.089   1.155
 9973SOL     OW30817   5.700   1.771   3.008
 9973SOL    HW130818   5.635   1.757   3.083
 9973SOL    HW230819   5.694   1.694   2.944
 9974SOL     OW30820   0.817   2.411   2.326
 9974SOL    HW130821   0.800   2.327   2.377
 9974SOL    HW230822   0.732   2.443   2.284
 9975SOL     OW30823   6.214   3.152   0.692
 9975SOL    HW130824   6.172   3.233   0.652
 9975SOL    HW230825   6.182   3.142   0.787
 9976SOL     OW30826   0.956   5.748   5.125
 9976SOL    HW130827   1.037   5.717   5.175
 9976SOL    HW230828   0.874   5.723   5.175
 9977SOL     OW30829   6.292   5.795   5.427
 9977SOL    HW130830   6.223   5.826   5.492
 9977SOL    HW230831   6.273   5.834   5.337
 9978SOL     OW30832   1.197   2.726   4.921
 9978SOL    HW130833   1.176   2.797   4.989
 9978SOL    HW230834   1.129   2.729   4.847
 9979SOL     OW30835   6.390   4.686   5.414
 9979SOL    HW130836   6.370   4.764   5.474
 9979SOL    HW230837   6.365   4.709   5.320
 9980SOL     OW30838   2.699   6.874   6.945
 9980SOL    HW130839   2.667   6.838   0.010
 9980SOL    HW230840   2.718   6.798   6.883
 9981SOL     OW30841   2.471   1.855   2.986
 9981SOL    HW130842   2.456   1.777   3.046
 9981SOL    HW230843   2.527   1.923   3.033
 9982SOL     OW30844   6.414   5.757   4.010
 9982SOL    HW130845   6.423   5.842   3.957
 9982SOL    HW230846   6.370   5.688   3.953
 9983SOL     OW30847   0.171   1.910   3.344
 9983SOL    HW130848   0.267   1.935   3.353
 9983SOL    HW230849   0.154   1.826   3.394
 9984SOL     OW30850   2.656   1.778   6.615
 9984SOL    HW130851   2.644   1.857   6.555
 9984SOL    HW230852   2.643   1.807   6.710
 9985SOL     OW30853   2.190   0.606   0.354
 9985SOL    HW130854   2.104   0.624   0.306
 9985SOL    HW230855   2.175   0.542   0.429
 9986SOL     OW30856   6.381   3.746   5.531
 9986SOL    HW130857   6.300   3.793   5.566
 9986SOL    HW230858   6.429   3.805   5.467
 9987SOL     OW30859   5.864   3.395   5.481
 9987SOL    HW130860   5.917   3.480   5.490
 9987SOL    HW230861   5.820   3.393   5.391
 9988SOL     OW30862   0.221   5.906   4.592
 9988SOL    HW130863   0.181   5.815   4.589
 9988SOL    HW230864   0.296   5.912   4.526
 9989SOL     OW30865   6.631   3.087   3.548
 9989SOL    HW130866   6.565   3.157   3.519
 9989SOL    HW230867   6.653   3.029   3.470
 9990SOL     OW30868   1.709   5.689   3.658
 9990SOL    HW130869   1.689   5.630   3.580
 9990SOL    HW230870   1.655   5.773   3.651
 9991SOL     OW30871   3.017   2.241   4.741
 9991SOL    HW130872   3.086   2.201   4.679
 9991SOL    HW230873   3.055   2.246   4.833
 9992SOL     OW30874   5.766   5.032   6.905
 9992SOL    HW130875   5.794   5.001   6.996
 9992SOL    HW230876   5.708   5.113   6.914
 9993SOL     OW30877   2.850   1.188   1.088
 9993SOL    HW130878   2.895   1.263   1.040
 9993SOL    HW230879   2.831   1.114   1.023
 9994SOL     OW30880   5.975   4.426   3.146
 9994SOL    HW130881   5.880   4.455   3.137
 9994SOL    HW230882   5.979   4.343   3.203
 9995SOL     OW30883   4.600   1.109   3.607
 9995SOL    HW130884   4.556   1.186   3.563
 9995SOL    HW230885   4.647   1.053   3.539
 9996SOL     OW30886   2.799   3.858   6.779
 9996SOL    HW130887   2.719   3.825   6.729
 9996SOL    HW230888   2.880   3.809   6.749
 9997SOL     OW30889   2.708   1.515   6.014
 9997SOL    HW130890   2.674   1.428   6.049
 9997SOL    HW230891   2.772   1.497   5.939
 9998SOL     OW30892   5.630   5.266   5.144
 9998SOL    HW130893   5.729   5.264   5.135
 9998SOL    HW230894   5.599   5.361   5.146
 9999SOL     OW30895   6.471   2.853   6.005
 9999SOL    HW130896   6.414   2.914   6.060
 9999SOL    HW230897   6.465   2.879   5.908
10000SOL     OW30898   6.695   3.507   0.167
10000SOL    HW130899   6.629   3.434   0.149
10000SOL    HW230900   6.713   3.513   0.265
10001SOL     OW30901   4.754   6.953   2.593
10001SOL    HW130902   4.774   0.024   2.566
10001SOL    HW230903   4.839   6.907   2.618
10002SOL     OW30904   1.691   6.438   2.050
10002SOL    HW130905   1.672   6.385   2.133
10002SOL    HW230906   1.783   6.477   2.057
10003SOL     OW30907   3.310   2.175   3.997
10003SOL    HW130908   3.327   2.081   3.968
10003SOL    HW230909   3.391   2.231   3.981
10004SOL     OW30910   6.747   2.926   4.851
10004SOL    HW130911   6.695   2.861   4.907
10004SOL    HW230912   6.699   2.942   4.765
10005SOL     OW30913   5.762   0.624   3.817
10005SOL    HW130914   5.682   0.566   3.834
10005SOL    HW230915   5.759   0.657   3.723
10006SOL     OW30916   4.544   6.740   4.100
10006SOL    HW130917   4.644   6.739   4.088
10006SOL    HW230918   4.502   6.776   4.017
10007SOL     OW30919   0.055   3.746   5.022
10007SOL    HW130920   0.059   3.764   5.120
10007SOL    HW230921   0.147   3.747   4.984
10008SOL     OW30922   3.721   1.235   4.611
10008SOL    HW130923   3.658   1.174   4.564
10008SOL    HW230924   3.728   1.208   4.707
10009SOL     OW30925   1.795   3.916   1.893
10009SOL    HW130926   1.774   3.904   1.990
10009SOL    HW230927   1.812   3.827   1.851
10010SOL     OW30928   2.183   0.912   6.822
10010SOL    HW130929   2.222   0.860   6.898
10010SOL    HW230930   2.248   0.913   6.745
10011SOL     OW30931   6.353   0.699   5.487
10011SOL    HW130932   6.367   0.712   5.389
10011SOL    HW230933   6.409   0.622   5.518
10012SOL     OW30934   6.354   0.625   2.910
10012SOL    HW130935   6.283   0.559   2.884
10012SOL    HW230936   6.443   0.580   2.908
10013SOL     OW30937   0.193   0.969   2.873
10013SOL    HW130938   0.195   0.908   2.794
10013SOL    HW230939   0.236   1.056   2.848
10014SOL     OW30940   0.681   4.416   6.477
10014SOL    HW130941   0.727   4.452   6.557
10014SOL    HW230942   0.685   4.316   6.478
10015SOL     OW30943   2.281   5.397   0.767
10015SOL    HW130944   2.360   5.457   0.761
10015SOL    HW230945   2.312   5.301   0.764
10016SOL     OW30946   1.882   1.274   6.364
10016SOL    HW130947   1.879   1.344   6.293
10016SOL    HW230948   1.976   1.241   6.373
10017SOL     OW30949   2.813   2.217   4.541
10017SOL    HW130950   2.732   2.270   4.566
10017SOL    HW230951   2.883   2.228   4.611
10018SOL     OW30952   5.494   0.200   6.641
10018SOL    HW130953   5.413   0.249   6.610
10018SOL    HW230954   5.515   0.226   6.735
10019SOL     OW30955   1.094   1.498   3.169
10019SOL    HW130956   1.190   1.470   3.158
10019SOL    HW230957   1.072   1.568   3.101
10020SOL     OW30958   1.181   3.140   1.469
10020SOL    HW130959   1.129   3.210   1.420
10020SOL    HW230960   1.245   3.184   1.532
10021SOL     OW30961   0.027   3.873   0.640
10021SOL    HW130962   0.064   3.845   0.729
10021SOL    HW230963   6.954   3.849   0.635
10022SOL     OW30964   2.251   1.278   6.256
10022SOL    HW130965   2.260   1.371   6.294
10022SOL    HW230966   2.255   1.282   6.156
10023SOL     OW30967   6.352   4.150   0.492
10023SOL    HW130968   6.446   4.151   0.457
10023SOL    HW230969   6.346   4.088   0.570
10024SOL     OW30970   1.203   5.918   3.776
10024SOL    HW130971   1.280   5.957   3.827
10024SOL    HW230972   1.212   5.942   3.679
10025SOL     OW30973   1.938   0.554   1.347
10025SOL    HW130974   1.951   0.510   1.436
10025SOL    HW230975   2.025   0.595   1.318
10026SOL     OW30976   5.707   0.512   3.407
10026SOL    HW130977   5.706   0.480   3.312
10026SOL    HW230978   5.739   0.438   3.467
10027SOL     OW30979   5.394   3.340   4.426
10027SOL    HW130980   5.396   3.394   4.510
10027SOL    HW230981   5.486   3.336   4.387
10028SOL     OW30982   1.750   0.959   0.715
10028SOL    HW130983   1.720   1.024   0.786
10028SOL    HW230984   1.815   1.005   0.654
10029SOL     OW30985   5.432   1.824   3.458
10029SOL    HW130986   5.345   1.799   3.501
10029SOL    HW230987   5.481   1.888   3.517
10030SOL     OW30988   2.064   0.775   3.548
10030SOL    HW130989   2.004   0.723   3.487
10030SOL    HW230990   2.156   0.778   3.509
10031SOL     OW30991   5.193   4.508   3.889
10031SOL    HW130992   5.148   4.430   3.846
10031SOL    HW230993   5.246   4.476   3.968
10032SOL     OW30994   2.468   1.956   5.295
10032SOL    HW130995   2.536   2.027   5.314
10032SOL    HW230996   2.377   1.995   5.300
10033SOL     OW30997   6.056   3.087   4.331
10033SOL    HW130998   6.095   3.086   4.239
10033SOL    HW230999   6.128   3.105   4.398
10034SOL     OW31000   3.676   0.418   4.894
10034SOL    HW131001   3.591   0.370   4.870
10034SOL    HW231002   3.655   0.512   4.919
10035SOL     OW31003   6.611   5.019   1.686
10035SOL    HW131004   6.653   5.013   1.595
10035SOL    HW231005   6.669   5.074   1.746
10036SOL     OW31006   6.690   1.963   0.068
10036SOL    HW131007   6.740   1.989   7.009
10036SOL    HW231008   6.593   1.983   0.054
10037SOL     OW31009   6.923   0.678   6.147
10037SOL    HW131010   6.845   0.679   6.208
10037SOL    HW231011   6.989   0.609   6.178
10038SOL     OW31012   6.492   6.980   1.063
10038SOL    HW131013   6.582   7.022   1.072
10038SOL    HW231014   6.439   6.996   1.146
10039SOL     OW31015   2.741   0.386   3.332
10039SOL    HW131016   2.651   0.347   3.312
10039SOL    HW231017   2.737   0.485   3.325
10040SOL     OW31018   6.296   3.778   0.531
10040SOL    HW131019   6.294   3.809   0.436
10040SOL    HW231020   6.298   3.678   0.534
10041SOL     OW31021   3.463   6.476   0.019
10041SOL    HW131022   3.411   6.517   0.095
10041SOL    HW231023   3.531   6.412   0.055
10042SOL     OW31024   6.596   2.135   3.073
10042SOL    HW131025   6.643   2.137   2.985
10042SOL    HW231026   6.627   2.056   3.126
10043SOL     OW31027   0.032   1.867   5.994
10043SOL    HW131028   0.072   1.880   6.085
10043SOL    HW231029   6.979   1.931   5.981
10044SOL     OW31030   2.495   2.496   5.852
10044SOL    HW131031   2.471   2.494   5.949
10044SOL    HW231032   2.416   2.468   5.798
10045SOL     OW31033   4.357   0.967   0.761
10045SOL    HW131034   4.274   0.944   0.813
10045SOL    HW231035   4.428   0.901   0.781
10046SOL     OW31036   0.647   4.907   1.187
10046SOL    HW131037   0.734   4.863   1.163
10046SOL    HW231038   0.572   4.848   1.157
10047SOL     OW31039   0.594   3.096   6.334
10047SOL    HW131040   0.502   3.084   6.298
10047SOL    HW231041   0.590   3.145   6.422
10048SOL     OW31042   6.223   6.728   2.695
10048SOL    HW131043   6.185   6.809   2.650
10048SOL    HW231044   6.322   6.736   2.701
10049SOL     OW31045   0.171   1.930   5.298
10049SOL    HW131046   0.187   1.921   5.396
10049SOL    HW231047   0.191   1.843   5.253
10050SOL     OW31048   5.456   3.344   5.194
10050SOL    HW131049   5.369   3.371   5.154
10050SOL    HW231050   5.524   3.329   5.122
10051SOL     OW31051   0.718   3.825   4.317
10051SOL    HW131052   0.676   3.870   4.238
10051SOL    HW231053   0.694   3.728   4.317
10052SOL     OW31054   1.124   0.260   3.447
10052SOL    HW131055   1.157   0.204   3.371
10052SOL    HW231056   1.112   0.202   3.528
10053SOL     OW31057   4.844   5.384   4.741
10053SOL    HW131058   4.870   5.336   4.825
10053SOL    HW231059   4.866   5.481   4.751
10054SOL     OW31060   5.128   3.917   4.560
10054SOL    HW131061   5.146   3.994   4.621
10054SOL    HW231062   5.170   3.935   4.471
10055SOL     OW31063   6.771   1.745   6.671
10055SOL    HW131064   6.746   1.648   6.669
10055SOL    HW231065   6.861   1.756   6.713
10056SOL     OW31066   5.115   3.065   2.972
10056SOL    HW131067   5.130   3.017   3.058
10056SOL    HW231068   5.058   3.010   2.911
10057SOL     OW31069   5.351   4.595   6.110
10057SOL    HW131070   5.404   4.515   6.140
10057SOL    HW231071   5.380   4.623   6.019
10058SOL     OW31072   6.086   3.236   4.853
10058SOL    HW131073   5.998   3.189   4.844
10058SOL    HW231074   6.098   3.266   4.948
10059SOL     OW31075   0.110   1.416   6.547
10059SOL    HW131076   0.112   1.413   6.447
10059SOL    HW231077   0.178   1.481   6.580
10060SOL     OW31078   2.354   2.005   2.779
10060SOL    HW131079   2.393   1.937   2.842
10060SOL    HW231080   2.349   2.093   2.825
10061SOL     OW31081   3.626   0.548   3.137
10061SOL    HW131082   3.668   0.482   3.075
10061SOL    HW231083   3.528   0.532   3.142
10062SOL     OW31084   0.158   0.106   4.252
10062SOL    HW131085   0.065   0.091   4.219
10062SOL    HW231086   0.160   0.097   4.352
10063SOL     OW31087   1.738   3.215   4.959
10063SOL    HW131088   1.673   3.175   4.894
10063SOL    HW231089   1.819   3.157   4.967
10064SOL     OW31090   2.802   6.473   0.150
10064SOL    HW131091   2.882   6.457   0.207
10064SOL    HW231092   2.734   6.525   0.201
10065SOL     OW31093   0.831   1.210   2.242
10065SOL    HW131094   0.816   1.301   2.204
10065SOL    HW231095   0.804   1.140   2.175
10066SOL     OW31096   6.578   3.203   4.865
10066SOL    HW131097   6.577   3.146   4.783
10066SOL    HW231098   6.581   3.300   4.838
10067SOL     OW31099   6.482   2.093   5.029
10067SOL    HW131100   6.480   2.193   5.039
10067SOL    HW231101   6.429   2.067   4.948
10068SOL     OW31102   2.364   2.325   2.629
10068SOL    HW131103   2.264   2.323   2.631
10068SOL    HW231104   2.397   2.302   2.538
10069SOL     OW31105   3.244   5.309   1.130
10069SOL    HW131106   3.211   5.306   1.036
10069SOL    HW231107   3.280   5.219   1.155
10070SOL     OW31108   3.579   5.668   5.425
10070SOL    HW131109   3.499   5.722   5.401
10070SOL    HW231110   3.642   5.665   5.348
10071SOL     OW31111   6.453   0.010   3.500
10071SOL    HW131112   6.423   6.945   3.464
10071SOL    HW231113   6.540   7.021   3.548
10072SOL     OW31114   6.896   2.362   2.508
10072SOL    HW131115   6.975   2.302   2.496
10072SOL    HW231116   6.928   2.454   2.532
10073SOL     OW31117   6.485   3.786   4.547
10073SOL    HW131118   6.565   3.737   4.582
10073SOL    HW231119   6.453   3.741   4.463
10074SOL     OW31120   1.477   4.862   0.722
10074SOL    HW131121   1.532   4.891   0.643
10074SOL    HW231122   1.398   4.923   0.730
10075SOL     OW31123   1.933   3.273   1.807
10075SOL    HW131124   1.975   3.304   1.892
10075SOL    HW231125   1.962   3.331   1.731
10076SOL     OW31126   5.286   5.523   3.936
10076SOL    HW131127   5.276   5.548   4.032
10076SOL    HW231128   5.375   5.481   3.921
10077SOL     OW31129   6.289   2.919   6.531
10077SOL    HW131130   6.322   2.875   6.448
10077SOL    HW231131   6.211   2.868   6.568
10078SOL     OW31132   6.637   6.720   5.317
10078SOL    HW131133   6.733   6.693   5.324
10078SOL    HW231134   6.615   6.786   5.390
10079SOL     OW31135   4.506   2.455   2.837
10079SOL    HW131136   4.598   2.418   2.838
10079SOL    HW231137   4.451   2.406   2.768
10080SOL     OW31138   5.451   0.104   6.219
10080SOL    HW131139   5.462   0.049   6.136
10080SOL    HW231140   5.489   0.055   6.297
10081SOL     OW31141   2.461   3.055   0.756
10081SOL    HW131142   2.499   2.964   0.747
10081SOL    HW231143   2.420   3.065   0.847
10082SOL     OW31144   1.174   4.102   1.710
10082SOL    HW131145   1.215   4.069   1.625
10082SOL    HW231146   1.090   4.152   1.689
10083SOL     OW31147   3.555   5.452   3.438
10083SOL    HW131148   3.476   5.510   3.460
10083SOL    HW231149   3.603   5.490   3.359
10084SOL     OW31150   1.216   0.678   4.865
10084SOL    HW131151   1.130   0.730   4.858
10084SOL    HW231152   1.195   0.583   4.886
10085SOL     OW31153   4.735   7.016   0.578
10085SOL    HW131154   4.823   7.009   0.625
10085SOL    HW231155   4.749   7.010   0.479
10086SOL     OW31156   6.974   6.428   2.151
10086SOL    HW131157   6.903   6.359   2.164
10086SOL    HW231158   7.003   6.427   2.055
10087SOL     OW31159   1.564   6.365   4.783
10087SOL    HW131160   1.662   6.384   4.788
10087SOL    HW231161   1.544   6.282   4.837
10088SOL     OW31162   0.297   2.663   0.318
10088SOL    HW131163   0.279   2.755   0.354
10088SOL    HW231164   0.269   2.595   0.386
10089SOL     OW31165   3.909   1.528   2.270
10089SOL    HW131166   3.952   1.549   2.182
10089SOL    HW231167   3.852   1.605   2.299
10090SOL     OW31168   2.233   6.258   1.701
10090SOL    HW131169   2.204   6.234   1.793
10090SOL    HW231170   2.275   6.179   1.657
10091SOL     OW31171   6.025   4.452   5.447
10091SOL    HW131172   6.042   4.441   5.545
10091SOL    HW231173   6.037   4.549   5.423
10092SOL     OW31174   0.445   2.095   4.639
10092SOL    HW131175   0.346   2.095   4.659
10092SOL    HW231176   0.494   2.059   4.718
10093SOL     OW31177   5.526   4.193   5.654
10093SOL    HW131178   5.491   4.183   5.747
10093SOL    HW231179   5.540   4.102   5.614
10094SOL     OW31180   3.249   0.767   0.839
10094SOL    HW131181   3.343   0.783   0.870
10094SOL    HW231182   3.195   0.731   0.915
10095SOL     OW31183   5.063   2.815   5.149
10095SOL    HW131184   5.066   2.728   5.197
10095SOL    HW231185   4.969   2.833   5.118
10096SOL     OW31186   5.412   1.315   3.142
10096SOL    HW131187   5.327   1.302   3.091
10096SOL    HW231188   5.485   1.343   3.079
10097SOL     OW31189   0.994   2.041   0.137
10097SOL    HW131190   0.902   2.041   0.176
10097SOL    HW231191   1.006   1.961   0.079
10098SOL     OW31192   3.629   6.269   3.948
10098SOL    HW131193   3.597   6.260   3.854
10098SOL    HW231194   3.681   6.188   3.974
10099SOL     OW31195   6.910   4.835   1.122
10099SOL    HW131196   6.825   4.862   1.168
10099SOL    HW231197   6.924   4.736   1.134
10100SOL     OW31198   4.563   5.238   4.142
10100SOL    HW131199   4.613   5.186   4.073
10100SOL    HW231200   4.477   5.270   4.104
10101SOL     OW31201   1.154   2.013   1.603
10101SOL    HW131202   1.127   1.918   1.619
10101SOL    HW231203   1.186   2.054   1.689
10102SOL     OW31204   6.328   6.585   1.862
10102SOL    HW131205   6.347   6.507   1.801
10102SOL    HW231206   6.414   6.614   1.905
10103SOL     OW31207   6.584   6.077   6.713
10103SOL    HW131208   6.593   6.020   6.795
10103SOL    HW231209   6.597   6.173   6.738
10104SOL     OW31210   2.063   0.393   4.719
10104SOL    HW131211   2.025   0.431   4.635
10104SOL    HW231212   2.031   0.299   4.731
10105SOL     OW31213   2.721   0.606   6.240
10105SOL    HW131214   2.633   0.652   6.247
10105SOL    HW231215   2.736   0.578   6.145
10106SOL     OW31216   5.171   5.971   1.383
10106SOL    HW131217   5.194   5.981   1.480
10106SOL    HW231218   5.089   5.914   1.375
10107SOL     OW31219   5.224   4.665   6.988
10107SOL    HW131220   5.253   4.608   0.042
10107SOL    HW231221   5.265   4.631   6.904
10108SOL     OW31222   2.251   2.752   0.077
10108SOL    HW131223   2.270   2.668   0.128
10108SOL    HW231224   2.164   2.742   0.028
10109SOL     OW31225   1.375   2.068   1.137
10109SOL    HW131226   1.360   2.166   1.140
10109SOL    HW231227   1.321   2.024   1.210
10110SOL     OW31228   4.778   6.178   2.629
10110SOL    HW131229   4.828   6.239   2.567
10110SOL    HW231230   4.828   6.169   2.715
10111SOL     OW31231   1.782   1.442   1.876
10111SOL    HW131232   1.856   1.380   1.849
10111SOL    HW231233   1.756   1.499   1.798
10112SOL     OW31234   0.028   2.004   3.630
10112SOL    HW131235   6.996   2.043   3.556
10112SOL    HW231236   0.072   1.920   3.597
10113SOL     OW31237   6.454   0.766   6.186
10113SOL    HW131238   6.421   0.846   6.236
10113SOL    HW231239   6.528   0.793   6.125
10114SOL     OW31240   4.993   1.843   2.166
10114SOL    HW131241   4.902   1.827   2.203
10114SOL    HW231242   4.986   1.897   2.082
10115SOL     OW31243   3.513   2.611   5.944
10115SOL    HW131244   3.467   2.699   5.943
10115SOL    HW231245   3.610   2.623   5.925
10116SOL     OW31246   6.224   0.616   4.896
10116SOL    HW131247   6.306   0.630   4.952
10116SOL    HW231248   6.152   0.575   4.952
10117SOL     OW31249   6.043   4.364   3.850
10117SOL    HW131250   6.078   4.372   3.943
10117SOL    HW231251   6.007   4.272   3.835
10118SOL     OW31252   3.986   5.341   4.628
10118SOL    HW131253   3.943   5.430   4.645
10118SOL    HW231254   4.067   5.354   4.571
10119SOL     OW31255   6.905   5.300   5.401
10119SOL    HW131256   6.864   5.391   5.406
10119SOL    HW231257   6.841   5.233   5.439
10120SOL     OW31258   2.179   3.097   2.464
10120SOL    HW131259   2.147   3.017   2.413
10120SOL    HW231260   2.137   3.180   2.426
10121SOL     OW31261   6.675   4.077   0.746
10121SOL    HW131262   6.575   4.087   0.741
10121SOL    HW231263   6.718   4.144   0.685
10122SOL     OW31264   1.149   0.452   3.674
10122SOL    HW131265   1.070   0.427   3.731
10122SOL    HW231266   1.124   0.447   3.578
10123SOL     OW31267   6.124   5.406   6.733
10123SOL    HW131268   6.142   5.503   6.722
10123SOL    HW231269   6.026   5.389   6.723
10124SOL     OW31270   1.085   4.940   3.056
10124SOL    HW131271   1.086   5.011   3.127
10124SOL    HW231272   1.082   4.850   3.099
10125SOL     OW31273   1.340   1.332   5.992
10125SOL    HW131274   1.280   1.303   6.067
10125SOL    HW231275   1.346   1.259   5.924
10126SOL     OW31276   6.291   0.382   6.790
10126SOL    HW131277   6.310   0.471   6.830
10126SOL    HW231278   6.363   0.318   6.817
10127SOL     OW31279   2.024   5.501   5.842
10127SOL    HW131280   2.076   5.450   5.911
10127SOL    HW231281   2.014   5.445   5.760
10128SOL     OW31282   2.793   1.532   6.645
10128SOL    HW131283   2.880   1.564   6.607
10128SOL    HW231284   2.730   1.610   6.653
10129SOL     OW31285   5.743   1.122   4.083
10129SOL    HW131286   5.676   1.196   4.084
10129SOL    HW231287   5.695   1.034   4.087
10130SOL     OW31288   0.962   1.911   2.498
10130SOL    HW131289   0.920   1.974   2.433
10130SOL    HW231290   1.059   1.931   2.506
10131SOL     OW31291   1.610   6.631   4.624
10131SOL    HW131292   1.612   6.531   4.636
10131SOL    HW231293   1.581   6.652   4.531
10132SOL     OW31294   6.791   1.100   1.813
10132SOL    HW131295   6.840   1.131   1.894
10132SOL    HW231296   6.835   1.018   1.776
10133SOL     OW31297   5.915   6.720   0.492
10133SOL    HW131298   5.915   6.786   0.566
10133SOL    HW231299   5.918   6.768   0.404
10134SOL     OW31300   5.902   6.810   1.918
10134SOL    HW131301   5.972   6.775   1.856
10134SOL    HW231302   5.899   6.755   2.001
10135SOL     OW31303   6.363   0.201   2.963
10135SOL    HW131304   6.335   0.297   2.958
10135SOL    HW231305   6.438   0.185   2.899
10136SOL     OW31306   5.696   1.655   2.708
10136SOL    HW131307   5.673   1.749   2.685
10136SOL    HW231308   5.754   1.615   2.637
10137SOL     OW31309   6.498   5.267   5.471
10137SOL    HW131310   6.497   5.341   5.539
10137SOL    HW231311   6.447   5.297   5.390
10138SOL     OW31312   0.342   1.475   0.190
10138SOL    HW131313   0.313   1.556   0.240
10138SOL    HW231314   0.358   1.498   0.094
10139SOL     OW31315   3.715   2.736   6.183
10139SOL    HW131316   3.796   2.766   6.134
10139SOL    HW231317   3.681   2.811   6.240
10140SOL     OW31318   0.360   6.735   5.703
10140SOL    HW131319   0.345   6.780   5.615
10140SOL    HW231320   0.422   6.658   5.691
10141SOL     OW31321   1.892   2.568   4.470
10141SOL    HW131322   1.968   2.520   4.426
10141SOL    HW231323   1.879   2.532   4.562
10142SOL     OW31324   4.511   6.399   4.461
10142SOL    HW131325   4.472   6.380   4.371
10142SOL    HW231326   4.595   6.452   4.451
10143SOL     OW31327   5.346   3.283   6.627
10143SOL    HW131328   5.339   3.186   6.650
10143SOL    HW231329   5.330   3.296   6.529
10144SOL     OW31330   3.731   6.972   6.023
10144SOL    HW131331   3.753   6.897   6.085
10144SOL    HW231332   3.746   0.036   6.070
10145SOL     OW31333   5.486   5.761   6.525
10145SOL    HW131334   5.515   5.666   6.536
10145SOL    HW231335   5.559   5.822   6.555
10146SOL     OW31336   6.993   2.533   4.200
10146SOL    HW131337   6.938   2.505   4.121
10146SOL    HW231338   0.035   2.461   4.223
10147SOL     OW31339   4.908   5.302   6.141
10147SOL    HW131340   4.881   5.392   6.104
10147SOL    HW231341   4.880   5.296   6.237
10148SOL     OW31342   1.159   4.585   0.688
10148SOL    HW131343   1.103   4.639   0.624
10148SOL    HW231344   1.226   4.532   0.637
10149SOL     OW31345   3.378   4.611   0.174
10149SOL    HW131346   3.455   4.655   0.127
10149SOL    HW231347   3.299   4.672   0.174
10150SOL     OW31348   4.115   4.429   0.517
10150SOL    HW131349   4.086   4.399   0.608
10150SOL    HW231350   4.151   4.350   0.466
10151SOL     OW31351   5.475   6.952   5.986
10151SOL    HW131352   5.524   6.966   5.900
10151SOL    HW231353   5.499   6.863   6.025
10152SOL     OW31354   4.249   6.597   2.889
10152SOL    HW131355   4.346   6.622   2.888
10152SOL    HW231356   4.201   6.652   2.958
10153SOL     OW31357   4.592   4.365   3.056
10153SOL    HW131358   4.663   4.421   3.099
10153SOL    HW231359   4.630   4.276   3.030
10154SOL     OW31360   4.996   5.324   5.245
10154SOL    HW131361   4.979   5.249   5.309
10154SOL    HW231362   5.093   5.349   5.248
10155SOL     OW31363   4.065   1.423   4.797
10155SOL    HW131364   4.039   1.336   4.755
10155SOL    HW231365   4.157   1.415   4.834
10156SOL     OW31366   5.044   1.820   6.950
10156SOL    HW131367   5.058   1.908   6.905
10156SOL    HW231368   5.034   1.835   0.025
10157SOL     OW31369   0.542   3.169   0.802
10157SOL    HW131370   0.457   3.214   0.774
10157SOL    HW231371   0.619   3.209   0.752
10158SOL     OW31372   6.129   4.876   0.935
10158SOL    HW131373   6.167   4.808   0.872
10158SOL    HW231374   6.122   4.964   0.889
10159SOL     OW31375   3.185   3.392   2.595
10159SOL    HW131376   3.122   3.437   2.532
10159SOL    HW231377   3.191   3.446   2.679
10160SOL     OW31378   0.981   4.677   2.729
10160SOL    HW131379   1.019   4.615   2.798
10160SOL    HW231380   1.056   4.725   2.684
10161SOL     OW31381   5.302   3.084   5.575
10161SOL    HW131382   5.207   3.055   5.586
10161SOL    HW231383   5.306   3.155   5.504
10162SOL     OW31384   1.634   2.770   2.818
10162SOL    HW131385   1.565   2.702   2.794
10162SOL    HW231386   1.609   2.858   2.779
10163SOL     OW31387   1.536   5.967   5.351
10163SOL    HW131388   1.601   5.971   5.276
10163SOL    HW231389   1.443   5.958   5.315
10164SOL     OW31390   1.332   2.430   3.156
10164SOL    HW131391   1.316   2.496   3.229
10164SOL    HW231392   1.246   2.385   3.132
10165SOL     OW31393   6.902   3.209   4.402
10165SOL    HW131394   6.860   3.204   4.493
10165SOL    HW231395   6.896   3.303   4.368
10166SOL     OW31396   2.449   0.545   1.632
10166SOL    HW131397   2.363   0.493   1.629
10166SOL    HW231398   2.431   0.636   1.670
10167SOL     OW31399   2.392   0.367   6.736
10167SOL    HW131400   2.453   0.288   6.723
10167SOL    HW231401   2.360   0.369   6.830
10168SOL     OW31402   6.960   0.936   6.689
10168SOL    HW131403   6.903   1.017   6.674
10168SOL    HW231404   6.941   0.869   6.617
10169SOL     OW31405   6.163   2.826   3.771
10169SOL    HW131406   6.259   2.833   3.799
10169SOL    HW231407   6.158   2.778   3.683
10170SOL     OW31408   5.769   5.565   6.417
10170SOL    HW131409   5.687   5.559   6.361
10170SOL    HW231410   5.843   5.605   6.362
10171SOL     OW31411   2.033   3.560   5.776
10171SOL    HW131412   2.026   3.582   5.678
10171SOL    HW231413   2.039   3.645   5.828
10172SOL     OW31414   6.342   6.955   3.011
10172SOL    HW131415   6.311   0.024   2.993
10172SOL    HW231416   6.264   6.893   3.017
10173SOL     OW31417   2.981   3.899   5.147
10173SOL    HW131418   2.971   3.999   5.146
10173SOL    HW231419   3.078   3.876   5.156
10174SOL     OW31420   4.065   5.727   3.530
10174SOL    HW131421   4.120   5.794   3.579
10174SOL    HW231422   4.069   5.639   3.578
10175SOL     OW31423   0.159   1.406   3.623
10175SOL    HW131424   0.096   1.457   3.682
10175SOL    HW231425   0.243   1.388   3.673
10176SOL     OW31426   6.546   1.770   6.201
10176SOL    HW131427   6.602   1.851   6.187
10176SOL    HW231428   6.467   1.773   6.139
10177SOL     OW31429   2.318   0.774   3.462
10177SOL    HW131430   2.377   0.840   3.508
10177SOL    HW231431   2.364   0.686   3.456
10178SOL     OW31432   2.108   2.318   0.734
10178SOL    HW131433   2.133   2.331   0.830
10178SOL    HW231434   2.012   2.342   0.721
10179SOL     OW31435   6.925   4.560   1.239
10179SOL    HW131436   6.832   4.541   1.206
10179SOL    HW231437   6.991   4.526   1.172
10180SOL     OW31438   4.190   0.467   5.775
10180SOL    HW131439   4.239   0.554   5.765
10180SOL    HW231440   4.115   0.463   5.710
10181SOL     OW31441   6.508   3.096   1.848
10181SOL    HW131442   6.542   3.089   1.942
10181SOL    HW231443   6.525   3.010   1.799
10182SOL     OW31444   5.746   1.963   0.256
10182SOL    HW131445   5.646   1.958   0.253
10182SOL    HW231446   5.775   2.059   0.253
10183SOL     OW31447   5.854   1.837   6.660
10183SOL    HW131448   5.946   1.839   6.699
10183SOL    HW231449   5.794   1.788   6.723
10184SOL     OW31450   5.698   2.597   5.995
10184SOL    HW131451   5.617   2.640   6.036
10184SOL    HW231452   5.668   2.529   5.928
10185SOL     OW31453   3.883   5.541   1.808
10185SOL    HW131454   3.809   5.511   1.748
10185SOL    HW231455   3.851   5.618   1.864
10186SOL     OW31456   3.803   3.394   5.873
10186SOL    HW131457   3.710   3.376   5.903
10186SOL    HW231458   3.801   3.449   5.789
10187SOL     OW31459   2.011   4.929   5.818
10187SOL    HW131460   1.942   4.869   5.776
10187SOL    HW231461   2.028   4.900   5.912
10188SOL     OW31462   3.174   0.539   6.434
10188SOL    HW131463   3.213   0.584   6.514
10188SOL    HW231464   3.084   0.578   6.415
10189SOL     OW31465   1.007   2.158   6.593
10189SOL    HW131466   0.968   2.135   6.504
10189SOL    HW231467   1.088   2.102   6.609
10190SOL     OW31468   3.508   5.312   2.348
10190SOL    HW131469   3.440   5.382   2.370
10190SOL    HW231470   3.553   5.336   2.262
10191SOL     OW31471   5.995   5.881   6.676
10191SOL    HW131472   6.027   5.953   6.615
10191SOL    HW231473   6.068   5.816   6.693
10192SOL     OW31474   1.677   1.791   4.142
10192SOL    HW131475   1.627   1.746   4.069
10192SOL    HW231476   1.775   1.793   4.120
10193SOL     OW31477   3.358   3.735   3.547
10193SOL    HW131478   3.366   3.791   3.464
10193SOL    HW231479   3.401   3.783   3.624
10194SOL     OW31480   3.099   0.158   2.821
10194SOL    HW131481   3.113   0.162   2.723
10194SOL    HW231482   3.007   0.189   2.843
10195SOL     OW31483   4.040   6.098   2.013
10195SOL    HW131484   4.028   6.000   2.030
10195SOL    HW231485   4.137   6.122   2.023
10196SOL     OW31486   5.970   1.760   3.708
10196SOL    HW131487   5.985   1.669   3.670
10196SOL    HW231488   5.909   1.812   3.647
10197SOL     OW31489   6.025   0.231   1.797
10197SOL    HW131490   6.022   0.328   1.824
10197SOL    HW231491   5.934   0.191   1.808
10198SOL     OW31492   2.672   0.013   0.699
10198SOL    HW131493   2.737   0.020   0.774
10198SOL    HW231494   2.607   0.089   0.703
10199SOL     OW31495   1.504   1.479   0.446
10199SOL    HW131496   1.512   1.548   0.374
10199SOL    HW231497   1.445   1.514   0.519
10200SOL     OW31498   5.013   4.610   4.472
10200SOL    HW131499   4.971   4.639   4.558
10200SOL    HW231500   5.111   4.598   4.484
10201SOL     OW31501   1.661   4.459   2.702
10201SOL    HW131502   1.694   4.401   2.627
10201SOL    HW231503   1.738   4.500   2.749
10202SOL     OW31504   1.456   3.626   2.473
10202SOL    HW131505   1.436   3.702   2.411
10202SOL    HW231506   1.374   3.602   2.524
10203SOL     OW31507   1.998   3.171   2.666
10203SOL    HW131508   2.085   3.138   2.629
10203SOL    HW231509   1.924   3.145   2.604
10204SOL     OW31510   3.147   4.485   5.393
10204SOL    HW131511   3.244   4.476   5.368
10204SOL    HW231512   3.090   4.462   5.314
10205SOL     OW31513   4.751   1.962   2.887
10205SOL    HW131514   4.652   1.947   2.879
10205SOL    HW231515   4.768   2.060   2.893
10206SOL     OW31516   5.192   0.045   6.381
10206SOL    HW131517   5.123   0.012   6.317
10206SOL    HW231518   5.283   0.016   6.350
10207SOL     OW31519   4.101   0.844   2.855
10207SOL    HW131520   4.114   0.777   2.929
10207SOL    HW231521   4.058   0.927   2.892
10208SOL     OW31522   6.159   4.279   5.249
10208SOL    HW131523   6.123   4.347   5.311
10208SOL    HW231524   6.169   4.192   5.296
10209SOL     OW31525   5.914   6.977   6.378
10209SOL    HW131526   5.987   0.005   6.424
10209SOL    HW231527   5.839   6.961   6.443
10210SOL     OW31528   4.995   6.222   2.218
10210SOL    HW131529   5.024   6.167   2.296
10210SOL    HW231530   4.956   6.308   2.250
10211SOL     OW31531   3.974   5.559   5.295
10211SOL    HW131532   4.059   5.587   5.340
10211SOL    HW231533   3.987   5.472   5.249
10212SOL     OW31534   0.006   0.618   5.601
10212SOL    HW131535   0.081   0.554   5.583
10212SOL    HW231536   7.007   0.615   5.699
10213SOL     OW31537   6.345   1.558   2.874
10213SOL    HW131538   6.354   1.459   2.873
10213SOL    HW231539   6.422   1.599   2.826
10214SOL     OW31540   0.170   1.092   1.793
10214SOL    HW131541   0.150   1.003   1.835
10214SOL    HW231542   0.148   1.090   1.696
10215SOL     OW31543   3.534   3.589   6.608
10215SOL    HW131544   3.468   3.621   6.540
10215SOL    HW231545   3.485   3.549   6.686
10216SOL     OW31546   4.983   0.400   1.326
10216SOL    HW131547   4.932   0.315   1.337
10216SOL    HW231548   4.970   0.458   1.407
10217SOL     OW31549   2.237   2.006   4.599
10217SOL    HW131550   2.145   1.989   4.635
10217SOL    HW231551   2.301   2.018   4.674
10218SOL     OW31552   2.357   1.465   0.722
10218SOL    HW131553   2.424   1.538   0.704
10218SOL    HW231554   2.403   1.377   0.721
10219SOL     OW31555   0.905   3.336   1.018
10219SOL    HW131556   0.954   3.254   0.987
10219SOL    HW231557   0.933   3.415   0.963
10220SOL     OW31558   4.727   2.168   0.850
10220SOL    HW131559   4.787   2.088   0.853
10220SOL    HW231560   4.632   2.138   0.839
10221SOL     OW31561   2.788   6.983   5.059
10221SOL    HW131562   2.820   6.998   4.965
10221SOL    HW231563   2.820   6.894   5.091
10222SOL     OW31564   1.975   5.551   5.294
10222SOL    HW131565   2.004   5.457   5.312
10222SOL    HW231566   1.985   5.605   5.378
10223SOL     OW31567   0.914   4.894   6.991
10223SOL    HW131568   1.004   4.938   6.994
10223SOL    HW231569   0.901   4.836   0.048
10224SOL     OW31570   1.631   0.126   4.130
10224SOL    HW131571   1.596   0.068   4.203
10224SOL    HW231572   1.719   0.164   4.157
10225SOL     OW31573   6.418   5.534   4.610
10225SOL    HW131574   6.471   5.449   4.608
10225SOL    HW231575   6.357   5.536   4.531
10226SOL     OW31576   1.916   1.639   0.156
10226SOL    HW131577   1.941   1.571   0.225
10226SOL    HW231578   1.856   1.596   0.087
10227SOL     OW31579   5.516   4.737   0.108
10227SOL    HW131580   5.600   4.747   0.161
10227SOL    HW231581   5.509   4.642   0.075
10228SOL     OW31582   0.916   5.226   2.879
10228SOL    HW131583   0.904   5.283   2.798
10228SOL    HW231584   0.932   5.284   2.959
10229SOL     OW31585   1.671   0.248   2.685
10229SOL    HW131586   1.739   0.290   2.745
10229SOL    HW231587   1.643   0.315   2.615
10230SOL     OW31588   6.426   0.811   3.875
10230SOL    HW131589   6.406   0.876   3.948
10230SOL    HW231590   6.442   0.861   3.789
10231SOL     OW31591   5.588   6.715   4.707
10231SOL    HW131592   5.494   6.692   4.680
10231SOL    HW231593   5.633   6.634   4.744
10232SOL     OW31594   3.070   2.040   5.153
10232SOL    HW131595   2.976   2.016   5.173
10232SOL    HW231596   3.076   2.137   5.132
10233SOL     OW31597   5.036   1.563   5.439
10233SOL    HW131598   5.084   1.645   5.408
10233SOL    HW231599   5.071   1.537   5.530
10234SOL     OW31600   5.068   7.020   1.698
10234SOL    HW131601   5.071   6.929   1.656
10234SOL    HW231602   5.144   0.005   1.763
10235SOL     OW31603   5.657   0.991   6.898
10235SOL    HW131604   5.711   0.944   6.968
10235SOL    HW231605   5.704   0.984   6.810
10236SOL     OW31606   2.535   5.067   2.188
10236SOL    HW131607   2.595   5.005   2.136
10236SOL    HW231608   2.571   5.160   2.181
10237SOL     OW31609   5.799   3.375   2.419
10237SOL    HW131610   5.851   3.345   2.340
10237SOL    HW231611   5.816   3.314   2.496
10238SOL     OW31612   4.522   5.010   4.574
10238SOL    HW131613   4.442   5.055   4.534
10238SOL    HW231614   4.563   4.949   4.506
10239SOL     OW31615   0.317   3.572   4.400
10239SOL    HW131616   0.282   3.493   4.349
10239SOL    HW231617   0.241   3.633   4.422
10240SOL     OW31618   0.361   4.054   3.983
10240SOL    HW131619   0.341   4.037   4.080
10240SOL    HW231620   0.294   4.118   3.946
10241SOL     OW31621   1.900   0.893   1.999
10241SOL    HW131622   1.910   0.983   2.040
10241SOL    HW231623   1.982   0.839   2.016
10242SOL     OW31624   6.947   0.270   6.266
10242SOL    HW131625   6.867   0.211   6.254
10242SOL    HW231626   0.001   0.215   6.298
10243SOL     OW31627   1.230   5.877   1.163
10243SOL    HW131628   1.159   5.891   1.232
10243SOL    HW231629   1.320   5.881   1.207
10244SOL     OW31630   2.037   5.895   6.861
10244SOL    HW131631   2.130   5.863   6.841
10244SOL    HW231632   2.033   5.935   6.952
10245SOL     OW31633   2.568   2.209   6.245
10245SOL    HW131634   2.622   2.210   6.161
10245SOL    HW231635   2.483   2.159   6.230
10246SOL     OW31636   3.208   4.090   4.846
10246SOL    HW131637   3.143   4.024   4.810
10246SOL    HW231638   3.164   4.146   4.916
10247SOL     OW31639   0.212   4.001   5.679
10247SOL    HW131640   0.218   4.101   5.678
10247SOL    HW231641   0.117   3.973   5.691
10248SOL     OW31642   3.701   0.407   1.773
10248SOL    HW131643   3.699   0.350   1.855
10248SOL    HW231644   3.770   0.372   1.710
10249SOL     OW31645   5.324   1.061   5.689
10249SOL    HW131646   5.423   1.059   5.676
10249SOL    HW231647   5.288   1.147   5.655
10250SOL     OW31648   6.678   1.667   0.378
10250SOL    HW131649   6.685   1.609   0.297
10250SOL    HW231650   6.756   1.652   0.438
10251SOL     OW31651   2.562   3.746   6.652
10251SOL    HW131652   2.546   3.681   6.578
10251SOL    HW231653   2.480   3.801   6.667
10252SOL     OW31654   6.151   5.888   1.686
10252SOL    HW131655   6.176   5.826   1.760
10252SOL    HW231656   6.233   5.916   1.636
10253SOL     OW31657   4.398   5.448   6.667
10253SOL    HW131658   4.349   5.510   6.607
10253SOL    HW231659   4.334   5.383   6.708
10254SOL     OW31660   2.209   2.055   5.222
10254SOL    HW131661   2.202   2.098   5.133
10254SOL    HW231662   2.141   2.094   5.284
10255SOL     OW31663   2.847   6.128   2.626
10255SOL    HW131664   2.831   6.041   2.673
10255SOL    HW231665   2.846   6.114   2.527
10256SOL     OW31666   5.799   0.194   6.650
10256SOL    HW131667   5.862   0.236   6.585
10256SOL    HW231668   5.813   0.235   6.741
10257SOL     OW31669   1.443   5.422   5.605
10257SOL    HW131670   1.462   5.420   5.703
10257SOL    HW231671   1.526   5.449   5.556
10258SOL     OW31672   3.652   6.846   3.207
10258SOL    HW131673   3.620   6.783   3.136
10258SOL    HW231674   3.728   6.803   3.257
10259SOL     OW31675   0.120   3.566   3.525
10259SOL    HW131676   0.138   3.611   3.613
10259SOL    HW231677   0.030   3.523   3.527
10260SOL     OW31678   1.084   6.887   2.110
10260SOL    HW131679   1.066   6.974   2.064
10260SOL    HW231680   1.156   6.899   2.178
10261SOL     OW31681   0.940   5.575   1.924
10261SOL    HW131682   0.989   5.642   1.980
10261SOL    HW231683   0.932   5.489   1.975
10262SOL     OW31684   2.564   4.609   4.771
10262SOL    HW131685   2.547   4.512   4.793
10262SOL    HW231686   2.580   4.619   4.673
10263SOL     OW31687   5.923   1.649   6.146
10263SOL    HW131688   5.963   1.736   6.176
10263SOL    HW231689   5.835   1.666   6.103
10264SOL     OW31690   6.727   0.421   6.094
10264SOL    HW131691   6.767   0.459   6.010
10264SOL    HW231692   6.750   0.324   6.100
10265SOL     OW31693   3.598   1.621   2.561
10265SOL    HW131694   3.541   1.541   2.581
10265SOL    HW231695   3.678   1.620   2.621
10266SOL     OW31696   3.031   3.942   6.402
10266SOL    HW131697   2.939   3.925   6.369
10266SOL    HW231698   3.075   4.012   6.345
10267SOL     OW31699   0.358   1.882   6.707
10267SOL    HW131700   0.379   1.952   6.775
10267SOL    HW231701   0.372   1.919   6.615
10268SOL     OW31702   5.124   6.103   1.744
10268SOL    HW131703   5.101   6.082   1.839
10268SOL    HW231704   5.157   6.020   1.699
10269SOL     OW31705   2.801   2.615   6.641
10269SOL    HW131706   2.822   2.567   6.726
10269SOL    HW231707   2.749   2.698   6.662
10270SOL     OW31708   1.733   5.776   0.564
10270SOL    HW131709   1.721   5.825   0.650
10270SOL    HW231710   1.810   5.712   0.572
10271SOL     OW31711   4.396   4.516   1.461
10271SOL    HW131712   4.373   4.430   1.416
10271SOL    HW231713   4.406   4.500   1.559
10272SOL     OW31714   0.658   0.994   5.509
10272SOL    HW131715   0.671   1.092   5.495
10272SOL    HW231716   0.562   0.976   5.530
10273SOL     OW31717   3.799   5.433   4.959
10273SOL    HW131718   3.703   5.411   4.979
10273SOL    HW231719   3.804   5.527   4.924
10274SOL     OW31720   0.939   4.779   5.288
10274SOL    HW131721   0.958   4.684   5.267
10274SOL    HW231722   1.018   4.835   5.265
10275SOL     OW31723   0.698   6.476   2.856
10275SOL    HW131724   0.666   6.565   2.887
10275SOL    HW231725   0.705   6.475   2.756
10276SOL     OW31726   6.403   5.584   5.903
10276SOL    HW131727   6.332   5.515   5.919
10276SOL    HW231728   6.372   5.673   5.936
10277SOL     OW31729   2.973   6.297   4.489
10277SOL    HW131730   2.951   6.379   4.541
10277SOL    HW231731   3.051   6.251   4.530
10278SOL     OW31732   6.069   0.549   6.136
10278SOL    HW131733   5.986   0.596   6.107
10278SOL    HW231734   6.086   0.567   6.233
10279SOL     OW31735   3.493   0.125   4.326
10279SOL    HW131736   3.438   0.205   4.349
10279SOL    HW231737   3.580   0.155   4.287
10280SOL     OW31738   1.538   4.246   0.119
10280SOL    HW131739   1.572   4.225   0.027
10280SOL    HW231740   1.614   4.242   0.184
10281SOL     OW31741   4.539   0.372   3.512
10281SOL    HW131742   4.626   0.411   3.483
10281SOL    HW231743   4.516   0.407   3.603
10282SOL     OW31744   1.044   1.929   4.268
10282SOL    HW131745   1.107   1.881   4.208
10282SOL    HW231746   1.008   2.010   4.220
10283SOL     OW31747   1.018   3.351   0.633
10283SOL    HW131748   1.021   3.449   0.613
10283SOL    HW231749   1.073   3.302   0.567
10284SOL     OW31750   5.571   3.031   5.488
10284SOL    HW131751   5.607   2.940   5.465
10284SOL    HW231752   5.481   3.021   5.531
10285SOL     OW31753   5.670   0.378   0.590
10285SOL    HW131754   5.739   0.305   0.598
10285SOL    HW231755   5.716   0.466   0.587
10286SOL     OW31756   3.853   0.338   3.306
10286SOL    HW131757   3.790   0.408   3.340
10286SOL    HW231758   3.802   0.257   3.278
10287SOL     OW31759   2.088   6.731   1.758
10287SOL    HW131760   2.124   6.656   1.703
10287SOL    HW231761   1.996   6.755   1.725
10288SOL     OW31762   6.217   6.206   3.299
10288SOL    HW131763   6.315   6.203   3.318
10288SOL    HW231764   6.169   6.154   3.369
10289SOL     OW31765   3.288   1.290   1.783
10289SOL    HW131766   3.346   1.243   1.850
10289SOL    HW231767   3.344   1.353   1.729
10290SOL     OW31768   3.903   3.108   2.690
10290SOL    HW131769   3.961   3.107   2.772
10290SOL    HW231770   3.810   3.135   2.715
10291SOL     OW31771   3.260   0.638   4.901
10291SOL    HW131772   3.180   0.597   4.944
10291SOL    HW231773   3.247   0.737   4.896
10292SOL     OW31774   0.865   1.005   4.496
10292SOL    HW131775   0.961   1.034   4.499
10292SOL    HW231776   0.860   0.909   4.470
10293SOL     OW31777   2.737   6.340   3.430
10293SOL    HW131778   2.725   6.271   3.501
10293SOL    HW231779   2.669   6.412   3.441
10294SOL     OW31780   5.320   1.285   3.393
10294SOL    HW131781   5.392   1.249   3.453
10294SOL    HW231782   5.357   1.294   3.300
10295SOL     OW31783   0.593   5.784   6.136
10295SOL    HW131784   0.500   5.817   6.118
10295SOL    HW231785   0.615   5.795   6.233
10296SOL     OW31786   6.910   3.377   0.401
10296SOL    HW131787   6.890   3.280   0.385
10296SOL    HW231788   6.902   3.397   0.498
10297SOL     OW31789   1.128   4.969   4.574
10297SOL    HW131790   1.081   4.925   4.497
10297SOL    HW231791   1.060   4.994   4.643
10298SOL     OW31792   4.686   4.353   3.880
10298SOL    HW131793   4.634   4.393   3.956
10298SOL    HW231794   4.773   4.402   3.870
10299SOL     OW31795   4.626   4.941   3.225
10299SOL    HW131796   4.611   4.843   3.211
10299SOL    HW231797   4.538   4.988   3.231
10300SOL     OW31798   0.960   4.218   2.826
10300SOL    HW131799   0.869   4.189   2.856
10300SOL    HW231800   1.004   4.144   2.775
10301SOL     OW31801   6.037   1.232   1.840
10301SOL    HW131802   6.067   1.208   1.933
10301SOL    HW231803   6.061   1.158   1.777
10302SOL     OW31804   1.452   5.695   2.616
10302SOL    HW131805   1.476   5.600   2.600
10302SOL    HW231806   1.485   5.752   2.540
10303SOL     OW31807   3.968   3.900   1.233
10303SOL    HW131808   3.946   3.938   1.143
10303SOL    HW231809   3.963   3.973   1.301
10304SOL     OW31810   0.070   6.861   2.315
10304SOL    HW131811   0.151   6.856   2.258
10304SOL    HW231812   0.069   6.948   2.364
10305SOL     OW31813   1.065   5.624   0.687
10305SOL    HW131814   1.114   5.583   0.765
10305SOL    HW231815   0.966   5.619   0.703
10306SOL     OW31816   4.068   6.096   0.866
10306SOL    HW131817   3.982   6.103   0.915
10306SOL    HW231818   4.050   6.095   0.767
10307SOL     OW31819   1.584   1.182   6.421
10307SOL    HW131820   1.657   1.137   6.370
10307SOL    HW231821   1.605   1.279   6.433
10308SOL     OW31822   2.932   5.961   3.394
10308SOL    HW131823   2.913   6.015   3.476
10308SOL    HW231824   2.852   5.905   3.372
10309SOL     OW31825   6.828   6.488   2.855
10309SOL    HW131826   6.865   6.581   2.855
10309SOL    HW231827   6.874   6.434   2.784
10310SOL     OW31828   3.954   3.862   3.132
10310SOL    HW131829   3.879   3.925   3.113
10310SOL    HW231830   3.976   3.811   3.049
10311SOL     OW31831   0.120   5.622   0.102
10311SOL    HW131832   0.190   5.559   0.069
10311SOL    HW231833   0.102   5.692   0.033
10312SOL     OW31834   2.447   4.515   0.444
10312SOL    HW131835   2.512   4.591   0.436
10312SOL    HW231836   2.477   4.452   0.515
10313SOL     OW31837   5.495   0.031   2.840
10313SOL    HW131838   5.460   7.022   2.928
10313SOL    HW231839   5.419   0.058   2.782
10314SOL     OW31840   6.379   6.865   0.835
10314SOL    HW131841   6.417   6.919   0.910
10314SOL    HW231842   6.443   6.793   0.809
10315SOL     OW31843   6.428   5.173   4.570
10315SOL    HW131844   6.432   5.118   4.654
10315SOL    HW231845   6.496   5.140   4.505
10316SOL     OW31846   0.705   3.752   3.731
10316SOL    HW131847   0.784   3.807   3.704
10316SOL    HW231848   0.629   3.769   3.668
10317SOL     OW31849   4.139   5.441   0.019
10317SOL    HW131850   4.042   5.460   0.007
10317SOL    HW231851   4.176   5.400   6.958
10318SOL     OW31852   5.722   5.401   2.041
10318SOL    HW131853   5.696   5.472   1.977
10318SOL    HW231854   5.796   5.435   2.100
10319SOL     OW31855   5.743   6.110   3.393
10319SOL    HW131856   5.711   6.201   3.420
10319SOL    HW231857   5.765   6.056   3.475
10320SOL     OW31858   6.678   0.084   1.394
10320SOL    HW131859   6.743   0.044   1.330
10320SOL    HW231860   6.656   0.177   1.366
10321SOL     OW31861   4.210   5.621   4.040
10321SOL    HW131862   4.115   5.619   4.008
10321SOL    HW231863   4.212   5.654   4.135
10322SOL     OW31864   6.239   4.011   0.705
10322SOL    HW131865   6.201   3.944   0.640
10322SOL    HW231866   6.210   3.988   0.797
10323SOL     OW31867   5.173   2.942   5.866
10323SOL    HW131868   5.082   2.911   5.894
10323SOL    HW231869   5.193   2.911   5.773
10324SOL     OW31870   3.622   2.948   3.567
10324SOL    HW131871   3.693   2.994   3.514
10324SOL    HW231872   3.656   2.927   3.659
10325SOL     OW31873   0.595   2.822   2.548
10325SOL    HW131874   0.585   2.728   2.514
10325SOL    HW231875   0.554   2.885   2.483
10326SOL     OW31876   5.441   1.844   0.691
10326SOL    HW131877   5.430   1.907   0.767
10326SOL    HW231878   5.538   1.822   0.681
10327SOL     OW31879   0.263   0.971   3.155
10327SOL    HW131880   0.318   0.889   3.170
10327SOL    HW231881   0.228   0.970   3.061
10328SOL     OW31882   5.878   3.043   2.324
10328SOL    HW131883   5.892   3.120   2.263
10328SOL    HW231884   5.794   2.995   2.299
10329SOL     OW31885   3.298   6.922   2.371
10329SOL    HW131886   3.341   6.959   2.289
10329SOL    HW231887   3.264   6.830   2.352
10330SOL     OW31888   4.286   5.121   2.020
10330SOL    HW131889   4.201   5.136   2.070
10330SOL    HW231890   4.297   5.023   2.003
10331SOL     OW31891   5.857   0.722   3.046
10331SOL    HW131892   5.934   0.681   3.094
10331SOL    HW231893   5.874   0.819   3.033
10332SOL     OW31894   6.828   2.348   6.098
10332SOL    HW131895   6.903   2.298   6.055
10332SOL    HW231896   6.840   2.446   6.084
10333SOL     OW31897   5.281   5.117   4.345
10333SOL    HW131898   5.260   5.179   4.270
10333SOL    HW231899   5.372   5.079   4.332
10334SOL     OW31900   2.293   4.875   4.355
10334SOL    HW131901   2.386   4.870   4.392
10334SOL    HW231902   2.253   4.784   4.353
10335SOL     OW31903   1.650   5.353   1.456
10335SOL    HW131904   1.565   5.336   1.406
10335SOL    HW231905   1.630   5.396   1.544
10336SOL     OW31906   4.061   6.050   2.384
10336SOL    HW131907   4.011   6.131   2.351
10336SOL    HW231908   4.023   6.021   2.472
10337SOL     OW31909   0.429   4.230   4.854
10337SOL    HW131910   0.505   4.181   4.897
10337SOL    HW231911   0.400   4.304   4.914
10338SOL     OW31912   2.792   6.041   3.112
10338SOL    HW131913   2.710   6.073   3.159
10338SOL    HW231914   2.853   6.119   3.095
10339SOL     OW31915   2.558   6.295   1.390
10339SOL    HW131916   2.596   6.341   1.309
10339SOL    HW231917   2.582   6.347   1.472
10340SOL     OW31918   1.721   6.629   0.616
10340SOL    HW131919   1.717   6.729   0.614
10340SOL    HW231920   1.773   6.600   0.696
10341SOL     OW31921   2.077   1.651   2.696
10341SOL    HW131922   2.084   1.596   2.780
10341SOL    HW231923   2.036   1.596   2.624
10342SOL     OW31924   2.642   6.735   4.637
10342SOL    HW131925   2.617   6.822   4.594
10342SOL    HW231926   2.738   6.737   4.665
10343SOL     OW31927   2.056   3.440   5.420
10343SOL    HW131928   2.059   3.371   5.492
10343SOL    HW231929   2.093   3.402   5.335
10344SOL     OW31930   3.746   4.091   5.022
10344SOL    HW131931   3.649   4.074   5.008
10344SOL    HW231932   3.793   4.005   5.039
10345SOL     OW31933   2.281   1.537   6.413
10345SOL    HW131934   2.330   1.576   6.334
10345SOL    HW231935   2.182   1.542   6.396
10346SOL     OW31936   5.096   6.061   0.285
10346SOL    HW131937   5.148   6.127   0.339
10346SOL    HW231938   5.158   6.011   0.225
10347SOL     OW31939   5.787   1.329   1.824
10347SOL    HW131940   5.719   1.289   1.762
10347SOL    HW231941   5.872   1.277   1.816
10348SOL     OW31942   0.266   6.842   5.461
10348SOL    HW131943   0.279   6.911   5.390
10348SOL    HW231944   0.277   6.751   5.420
10349SOL     OW31945   0.226   1.858   1.241
10349SOL    HW131946   0.192   1.865   1.335
10349SOL    HW231947   0.270   1.944   1.214
10350SOL     OW31948   2.583   5.231   4.441
10350SOL    HW131949   2.670   5.219   4.488
10350SOL    HW231950   2.514   5.264   4.506
10351SOL     OW31951   5.541   4.479   4.736
10351SOL    HW131952   5.614   4.421   4.701
10351SOL    HW231953   5.464   4.478   4.672
10352SOL     OW31954   5.813   2.244   0.141
10352SOL    HW131955   5.900   2.194   0.147
10352SOL    HW231956   5.798   2.273   0.047
10353SOL     OW31957   6.400   2.715   3.991
10353SOL    HW131958   6.309   2.674   4.002
10353SOL    HW231959   6.468   2.659   4.038
10354SOL     OW31960   0.289   3.219   0.427
10354SOL    HW131961   0.199   3.193   0.462
10354SOL    HW231962   0.338   3.271   0.497
10355SOL     OW31963   0.882   0.842   0.866
10355SOL    HW131964   0.856   0.915   0.802
10355SOL    HW231965   0.907   0.883   0.954
10356SOL     OW31966   6.446   4.074   6.461
10356SOL    HW131967   6.532   4.023   6.461
10356SOL    HW231968   6.437   4.123   6.548
10357SOL     OW31969   1.207   2.807   6.297
10357SOL    HW131970   1.283   2.862   6.262
10357SOL    HW231971   1.148   2.864   6.354
10358SOL     OW31972   0.769   2.848   2.036
10358SOL    HW131973   0.816   2.891   1.958
10358SOL    HW231974   0.672   2.837   2.015
10359SOL     OW31975   5.993   2.008   2.502
10359SOL    HW131976   6.001   1.915   2.466
10359SOL    HW231977   5.922   2.011   2.572
10360SOL     OW31978   5.848   4.310   2.248
10360SOL    HW131979   5.841   4.251   2.329
10360SOL    HW231980   5.909   4.386   2.268
10361SOL     OW31981   0.546   1.543   1.791
10361SOL    HW131982   0.471   1.567   1.729
10361SOL    HW231983   0.517   1.471   1.853
10362SOL     OW31984   1.208   4.841   2.380
10362SOL    HW131985   1.212   4.902   2.301
10362SOL    HW231986   1.238   4.890   2.462
10363SOL     OW31987   5.040   4.452   0.375
10363SOL    HW131988   4.950   4.420   0.405
10363SOL    HW231989   5.035   4.480   0.279
10364SOL     OW31990   6.056   4.494   2.364
10364SOL    HW131991   5.991   4.559   2.323
10364SOL    HW231992   6.117   4.543   2.426
10365SOL     OW31993   6.459   5.995   0.532
10365SOL    HW131994   6.361   5.990   0.512
10365SOL    HW231995   6.490   6.089   0.525
10366SOL     OW31996   2.589   6.240   3.181
10366SOL    HW131997   2.605   6.300   3.103
10366SOL    HW231998   2.636   6.276   3.261
10367SOL     OW31999   6.290   1.781   0.942
10367SOL    HW132000   6.384   1.751   0.926
10367SOL    HW232001   6.273   1.866   0.893
10368SOL     OW32002   1.508   5.787   1.910
10368SOL    HW132003   1.567   5.857   1.868
10368SOL    HW232004   1.560   5.737   1.979
10369SOL     OW32005   3.591   0.039   5.714
10369SOL    HW132006   3.611   0.019   5.618
10369SOL    HW232007   3.657   7.014   5.772
10370SOL     OW32008   0.427   0.901   5.016
10370SOL    HW132009   0.415   0.866   5.109
10370SOL    HW232010   0.429   0.824   4.951
10371SOL     OW32011   3.381   5.600   3.641
10371SOL    HW132012   3.338   5.672   3.586
10371SOL    HW232013   3.346   5.604   3.734
10372SOL     OW32014   2.690   6.438   1.782
10372SOL    HW132015   2.596   6.467   1.801
10372SOL    HW232016   2.696   6.339   1.785
10373SOL     OW32017   0.874   1.990   5.621
10373SOL    HW132018   0.855   2.080   5.659
10373SOL    HW232019   0.973   1.972   5.626
10374SOL     OW32020   3.177   6.834   4.846
10374SOL    HW132021   3.192   6.879   4.758
10374SOL    HW232022   3.226   6.747   4.848
10375SOL     OW32023   2.853   3.654   0.318
10375SOL    HW132024   2.852   3.751   0.295
10375SOL    HW232025   2.813   3.601   0.243
10376SOL     OW32026   1.843   4.787   2.785
10376SOL    HW132027   1.780   4.722   2.826
10376SOL    HW232028   1.856   4.865   2.847
10377SOL     OW32029   1.227   0.934   2.994
10377SOL    HW132030   1.215   0.835   2.993
10377SOL    HW232031   1.285   0.961   2.918
10378SOL     OW32032   6.909   4.323   5.006
10378SOL    HW132033   6.889   4.412   4.964
10378SOL    HW232034   6.824   4.273   5.020
10379SOL     OW32035   1.974   6.148   4.788
10379SOL    HW132036   1.934   6.239   4.775
10379SOL    HW232037   1.950   6.113   4.878
10380SOL     OW32038   1.800   2.742   4.282
10380SOL    HW132039   1.831   2.680   4.354
10380SOL    HW232040   1.790   2.834   4.319
10381SOL     OW32041   4.318   4.811   1.703
10381SOL    HW132042   4.317   4.713   1.681
10381SOL    HW232043   4.298   4.823   1.800
10382SOL     OW32044   3.417   5.348   1.608
10382SOL    HW132045   3.372   5.301   1.533
10382SOL    HW232046   3.423   5.286   1.687
10383SOL     OW32047   2.156   4.571   0.423
10383SOL    HW132048   2.095   4.580   0.502
10383SOL    HW232049   2.233   4.512   0.447
10384SOL     OW32050   5.437   6.675   1.602
10384SOL    HW132051   5.458   6.656   1.506
10384SOL    HW232052   5.465   6.597   1.658
10385SOL     OW32053   4.131   4.828   6.622
10385SOL    HW132054   4.033   4.847   6.627
10385SOL    HW232055   4.146   4.743   6.571
10386SOL     OW32056   0.082   0.862   6.990
10386SOL    HW132057   0.087   0.863   6.890
10386SOL    HW232058   0.044   0.775   7.021
10387SOL     OW32059   4.920   3.003   2.484
10387SOL    HW132060   4.909   2.981   2.387
10387SOL    HW232061   4.914   3.102   2.496
10388SOL     OW32062   2.817   0.570   5.765
10388SOL    HW132063   2.854   0.506   5.698
10388SOL    HW232064   2.892   0.610   5.818
10389SOL     OW32065   0.764   3.202   0.651
10389SOL    HW132066   0.835   3.135   0.628
10389SOL    HW232067   0.789   3.291   0.612
10390SOL     OW32068   3.168   2.472   1.150
10390SOL    HW132069   3.193   2.427   1.064
10390SOL    HW232070   3.080   2.518   1.140
10391SOL     OW32071   6.501   6.640   4.169
10391SOL    HW132072   6.468   6.581   4.243
10391SOL    HW232073   6.598   6.621   4.152
10392SOL     OW32074   6.588   5.124   4.302
10392SOL    HW132075   6.516   5.070   4.258
10392SOL    HW232076   6.636   5.178   4.232
10393SOL     OW32077   1.985   3.958   3.870
10393SOL    HW132078   1.924   3.923   3.942
10393SOL    HW232079   2.063   3.896   3.860
10394SOL     OW32080   3.190   6.072   4.398
10394SOL    HW132081   3.255   6.032   4.333
10394SOL    HW232082   3.126   6.002   4.429
10395SOL     OW32083   6.902   6.968   0.704
10395SOL    HW132084   6.874   6.898   0.638
10395SOL    HW232085   6.823   6.999   0.756
10396SOL     OW32086   2.818   1.716   4.285
10396SOL    HW132087   2.892   1.772   4.248
10396SOL    HW232088   2.857   1.638   4.334
10397SOL     OW32089   3.049   2.121   2.650
10397SOL    HW132090   3.028   2.100   2.554
10397SOL    HW232091   2.964   2.142   2.698
10398SOL     OW32092   0.190   3.149   1.652
10398SOL    HW132093   0.285   3.144   1.681
10398SOL    HW232094   0.136   3.082   1.704
10399SOL     OW32095   6.425   2.730   1.966
10399SOL    HW132096   6.411   2.759   2.061
10399SOL    HW232097   6.517   2.693   1.957
10400SOL     OW32098   4.236   0.066   0.547
10400SOL    HW132099   4.190   7.004   0.519
10400SOL    HW232100   4.247   0.066   0.646
10401SOL     OW32101   6.653   0.903   4.155
10401SOL    HW132102   6.558   0.933   4.147
10401SOL    HW232103   6.656   0.809   4.189
10402SOL     OW32104   6.095   2.787   4.555
10402SOL    HW132105   6.088   2.788   4.455
10402SOL    HW232106   6.146   2.868   4.585
10403SOL     OW32107   3.076   0.736   3.347
10403SOL    HW132108   3.162   0.777   3.315
10403SOL    HW232109   3.096   0.666   3.416
10404SOL     OW32110   6.409   6.934   5.996
10404SOL    HW132111   6.376   0.005   5.989
10404SOL    HW232112   6.494   6.925   5.943
10405SOL     OW32113   0.980   1.437   5.624
10405SOL    HW132114   0.932   1.413   5.709
10405SOL    HW232115   0.994   1.536   5.621
10406SOL     OW32116   3.300   4.884   1.897
10406SOL    HW132117   3.391   4.862   1.931
10406SOL    HW232118   3.278   4.825   1.820
10407SOL     OW32119   3.170   5.859   6.406
10407SOL    HW132120   3.266   5.869   6.430
10407SOL    HW232121   3.130   5.949   6.388
10408SOL     OW32122   5.052   1.018   0.419
10408SOL    HW132123   5.104   1.078   0.357
10408SOL    HW232124   5.028   0.934   0.371
10409SOL     OW32125   6.608   4.862   0.173
10409SOL    HW132126   6.662   4.864   0.257
10409SOL    HW232127   6.634   4.940   0.115
10410SOL     OW32128   5.477   1.253   0.163
10410SOL    HW132129   5.482   1.219   0.069
10410SOL    HW232130   5.406   1.323   0.169
10411SOL     OW32131   3.034   5.702   2.949
10411SOL    HW132132   3.125   5.736   2.971
10411SOL    HW232133   3.019   5.614   2.993
10412SOL     OW32134   6.133   1.132   0.600
10412SOL    HW132135   6.192   1.088   0.532
10412SOL    HW232136   6.089   1.212   0.560
10413SOL     OW32137   6.932   2.294   1.447
10413SOL    HW132138   6.938   2.219   1.381
10413SOL    HW232139   6.985   2.372   1.414
10414SOL     OW32140   4.571   3.760   5.520
10414SOL    HW132141   4.591   3.688   5.586
10414SOL    HW232142   4.491   3.734   5.466
10415SOL     OW32143   0.671   5.529   6.061
10415SOL    HW132144   0.665   5.628   6.076
10415SOL    HW232145   0.746   5.510   5.997
10416SOL     OW32146   5.705   1.458   3.260
10416SOL    HW132147   5.699   1.544   3.310
10416SOL    HW232148   5.615   1.414   3.259
10417SOL     OW32149   3.296   4.979   4.597
10417SOL    HW132150   3.262   5.016   4.684
10417SOL    HW232151   3.227   4.918   4.558
10418SOL     OW32152   0.046   4.732   5.672
10418SOL    HW132153   0.017   4.804   5.609
10418SOL    HW232154   0.006   4.749   5.762
10419SOL     OW32155   1.432   0.736   6.922
10419SOL    HW132156   1.367   0.674   6.878
10419SOL    HW232157   1.484   0.784   6.852
10420SOL     OW32158   6.837   2.998   2.218
10420SOL    HW132159   6.794   3.011   2.307
10420SOL    HW232160   6.927   3.042   2.218
10421SOL     OW32161   0.956   1.641   3.376
10421SOL    HW132162   0.975   1.737   3.392
10421SOL    HW232163   1.005   1.610   3.295
10422SOL     OW32164   6.606   2.407   5.395
10422SOL    HW132165   6.661   2.332   5.357
10422SOL    HW232166   6.667   2.478   5.429
10423SOL     OW32167   4.991   5.258   4.527
10423SOL    HW132168   4.953   5.307   4.606
10423SOL    HW232169   4.927   5.187   4.498
10424SOL     OW32170   5.740   2.633   0.083
10424SOL    HW132171   5.762   2.577   0.002
10424SOL    HW232172   5.823   2.678   0.116
10425SOL     OW32173   1.978   6.810   2.019
10425SOL    HW132174   2.021   6.786   1.932
10425SOL    HW232175   2.049   6.825   2.088
10426SOL     OW32176   0.148   4.105   0.653
10426SOL    HW132177   0.127   4.012   0.622
10426SOL    HW232178   0.068   4.163   0.638
10427SOL     OW32179   4.659   1.519   0.534
10427SOL    HW132180   4.623   1.566   0.454
10427SOL    HW232181   4.626   1.425   0.536
10428SOL     OW32182   3.335   1.326   4.773
10428SOL    HW132183   3.274   1.260   4.730
10428SOL    HW232184   3.326   1.415   4.727
10429SOL     OW32185   6.851   5.784   1.314
10429SOL    HW132186   6.935   5.800   1.366
10429SOL    HW232187   6.873   5.773   1.217
10430SOL     OW32188   4.520   0.245   4.001
10430SOL    HW132189   4.579   0.256   4.081
10430SOL    HW232190   4.482   0.333   3.976
10431SOL     OW32191   3.365   0.226   5.641
10431SOL    HW132192   3.315   0.246   5.726
10431SOL    HW232193   3.431   0.153   5.658
10432SOL     OW32194   6.383   1.004   4.146
10432SOL    HW132195   6.383   1.096   4.185
10432SOL    HW232196   6.293   0.962   4.158
10433SOL     OW32197   1.541   6.137   1.455
10433SOL    HW132198   1.608   6.209   1.471
10433SOL    HW232199   1.483   6.127   1.536
10434SOL     OW32200   3.220   6.940   2.923
10434SOL    HW132201   3.205   6.926   3.021
10434SOL    HW232202   3.156   7.009   2.889
10435SOL     OW32203   6.132   0.006   5.031
10435SOL    HW132204   6.052   6.996   5.080
10435SOL    HW232205   6.103   0.059   4.951
10436SOL     OW32206   0.590   4.782   4.440
10436SOL    HW132207   0.583   4.712   4.511
10436SOL    HW232208   0.652   4.751   4.368
10437SOL     OW32209   6.318   5.223   5.673
10437SOL    HW132210   6.372   5.219   5.589
10437SOL    HW232211   6.377   5.207   5.752
10438SOL     OW32212   5.343   6.541   0.136
10438SOL    HW132213   5.378   6.448   0.145
10438SOL    HW232214   5.398   6.603   0.192
10439SOL     OW32215   2.936   1.421   5.854
10439SOL    HW132216   3.006   1.352   5.875
10439SOL    HW232217   2.981   1.508   5.834
10440SOL     OW32218   0.106   6.366   0.950
10440SOL    HW132219   0.200   6.339   0.969
10440SOL    HW232220   0.105   6.434   0.877
10441SOL     OW32221   5.026   1.582   6.839
10441SOL    HW132222   5.028   1.667   6.890
10441SOL    HW232223   5.061   1.507   6.896
10442SOL     OW32224   3.346   5.051   5.501
10442SOL    HW132225   3.437   5.024   5.470
10442SOL    HW232226   3.316   4.990   5.574
10443SOL     OW32227   5.441   3.635   4.702
10443SOL    HW132228   5.345   3.662   4.710
10443SOL    HW232229   5.456   3.548   4.749
10444SOL     OW32230   3.893   5.129   4.493
10444SOL    HW132231   3.927   5.213   4.535
10444SOL    HW232232   3.925   5.050   4.546
10445SOL     OW32233   0.812   4.787   4.082
10445SOL    HW132234   0.883   4.724   4.051
10445SOL    HW232235   0.723   4.752   4.055
10446SOL     OW32236   1.030   4.806   6.755
10446SOL    HW132237   1.128   4.790   6.766
10446SOL    HW232238   0.988   4.823   6.844
10447SOL     OW32239   0.320   1.322   1.830
10447SOL    HW132240   0.254   1.251   1.803
10447SOL    HW232241   0.274   1.394   1.881
10448SOL     OW32242   4.286   3.605   1.033
10448SOL    HW132243   4.189   3.607   1.055
10448SOL    HW232244   4.305   3.531   0.968
10449SOL     OW32245   2.616   5.160   3.973
10449SOL    HW132246   2.642   5.191   4.065
10449SOL    HW232247   2.680   5.198   3.906
10450SOL     OW32248   0.449   2.274   6.442
10450SOL    HW132249   0.445   2.282   6.343
10450SOL    HW232250   0.543   2.255   6.470
10451SOL     OW32251   2.473   4.471   2.772
10451SOL    HW132252   2.425   4.521   2.700
10451SOL    HW232253   2.425   4.385   2.791
10452SOL     OW32254   0.122   3.206   3.270
10452SOL    HW132255   0.152   3.240   3.181
10452SOL    HW232256   0.022   3.203   3.272
10453SOL     OW32257   5.592   5.803   1.502
10453SOL    HW132258   5.569   5.824   1.597
10453SOL    HW232259   5.536   5.859   1.441
10454SOL     OW32260   5.554   3.185   1.566
10454SOL    HW132261   5.555   3.232   1.478
10454SOL    HW232262   5.583   3.090   1.554
10455SOL     OW32263   0.520   5.304   3.551
10455SOL    HW132264   0.562   5.317   3.461
10455SOL    HW232265   0.577   5.347   3.621
10456SOL     OW32266   3.105   6.113   1.022
10456SOL    HW132267   3.121   6.142   1.117
10456SOL    HW232268   3.186   6.132   0.968
10457SOL     OW32269   3.571   3.619   3.788
10457SOL    HW132270   3.637   3.554   3.825
10457SOL    HW232271   3.543   3.683   3.860
10458SOL     OW32272   0.264   6.814   0.020
10458SOL    HW132273   0.189   6.792   0.082
10458SOL    HW232274   0.336   6.862   0.070
10459SOL     OW32275   5.905   5.493   2.233
10459SOL    HW132276   5.996   5.534   2.228
10459SOL    HW232277   5.909   5.409   2.287
10460SOL     OW32278   2.470   5.995   1.871
10460SOL    HW132279   2.419   5.943   1.940
10460SOL    HW232280   2.535   6.056   1.917
10461SOL     OW32281   1.750   6.451   6.310
10461SOL    HW132282   1.693   6.511   6.254
10461SOL    HW232283   1.815   6.506   6.362
10462SOL     OW32284   6.302   0.665   1.431
10462SOL    HW132285   6.380   0.726   1.437
10462SOL    HW232286   6.222   0.715   1.398
10463SOL     OW32287   3.056   4.125   6.153
10463SOL    HW132288   2.958   4.116   6.137
10463SOL    HW232289   3.072   4.201   6.216
10464SOL     OW32290   4.353   7.002   0.984
10464SOL    HW132291   4.295   6.979   1.062
10464SOL    HW232292   4.318   0.060   0.939
10465SOL     OW32293   0.780   6.965   6.266
10465SOL    HW132294   0.820   0.025   6.228
10465SOL    HW232295   0.819   6.885   6.222
10466SOL     OW32296   4.848   5.646   4.812
10466SOL    HW132297   4.849   5.737   4.771
10466SOL    HW232298   4.893   5.650   4.901
10467SOL     OW32299   1.637   1.735   5.326
10467SOL    HW132300   1.714   1.706   5.268
10467SOL    HW232301   1.552   1.729   5.275
10468SOL     OW32302   3.681   6.468   4.128
10468SOL    HW132303   3.655   6.384   4.080
10468SOL    HW232304   3.753   6.448   4.195
10469SOL     OW32305   2.226   3.831   0.845
10469SOL    HW132306   2.213   3.790   0.754
10469SOL    HW232307   2.308   3.793   0.887
10470SOL     OW32308   2.366   1.949   4.368
10470SOL    HW132309   2.300   1.963   4.442
10470SOL    HW232310   2.358   2.022   4.301
10471SOL     OW32311   2.347   4.120   1.660
10471SOL    HW132312   2.365   4.126   1.758
10471SOL    HW232313   2.249   4.109   1.644
10472SOL     OW32314   4.069   6.932   2.406
10472SOL    HW132315   4.004   6.892   2.341
10472SOL    HW232316   4.023   6.956   2.491
10473SOL     OW32317   6.006   6.422   0.467
10473SOL    HW132318   5.980   6.518   0.459
10473SOL    HW232319   6.100   6.416   0.499
10474SOL     OW32320   4.049   0.977   4.469
10474SOL    HW132321   3.994   0.894   4.484
10474SOL    HW232322   4.131   0.973   4.526
10475SOL     OW32323   4.103   6.188   1.200
10475SOL    HW132324   4.036   6.261   1.210
10475SOL    HW232325   4.193   6.227   1.185
10476SOL     OW32326   6.498   5.394   6.825
10476SOL    HW132327   6.550   5.322   6.779
10476SOL    HW232328   6.408   5.358   6.852
10477SOL     OW32329   5.334   3.368   4.819
10477SOL    HW132330   5.430   3.341   4.825
10477SOL    HW232331   5.276   3.286   4.819
10478SOL     OW32332   0.773   6.823   0.178
10478SOL    HW132333   0.801   6.746   0.236
10478SOL    HW232334   0.854   6.875   0.151
10479SOL     OW32335   1.553   3.327   2.092
10479SOL    HW132336   1.456   3.346   2.101
10479SOL    HW232337   1.605   3.397   2.142
10480SOL     OW32338   5.447   6.487   1.801
10480SOL    HW132339   5.357   6.522   1.829
10480SOL    HW232340   5.515   6.511   1.870
10481SOL     OW32341   2.714   1.135   5.142
10481SOL    HW132342   2.661   1.054   5.117
10481SOL    HW232343   2.670   1.182   5.219
10482SOL     OW32344   0.776   6.143   4.998
10482SOL    HW132345   0.812   6.073   4.936
10482SOL    HW232346   0.718   6.101   5.068
10483SOL     OW32347   6.340   5.876   0.255
10483SOL    HW132348   6.275   5.905   0.184
10483SOL    HW232349   6.319   5.922   0.341
10484SOL     OW32350   0.186   0.786   1.495
10484SOL    HW132351   0.106   0.833   1.456
10484SOL    HW232352   0.263   0.795   1.431
10485SOL     OW32353   2.947   3.761   3.163
10485SOL    HW132354   2.999   3.817   3.099
10485SOL    HW232355   2.923   3.674   3.120
10486SOL     OW32356   6.816   6.991   5.587
10486SOL    HW132357   6.877   0.010   5.519
10486SOL    HW232358   6.830   6.892   5.587
10487SOL     OW32359   4.706   1.508   1.961
10487SOL    HW132360   4.680   1.576   1.892
10487SOL    HW232361   4.803   1.519   1.984
10488SOL     OW32362   0.524   1.843   5.704
10488SOL    HW132363   0.467   1.799   5.634
10488SOL    HW232364   0.616   1.859   5.667
10489SOL     OW32365   6.036   4.985   3.659
10489SOL    HW132366   6.069   4.912   3.718
10489SOL    HW232367   5.941   4.968   3.633
10490SOL     OW32368   6.177   0.383   0.796
10490SOL    HW132369   6.092   0.385   0.849
10490SOL    HW232370   6.252   0.349   0.854
10491SOL     OW32371   1.484   3.591   6.832
10491SOL    HW132372   1.497   3.684   6.867
10491SOL    HW232373   1.386   3.568   6.835
10492SOL     OW32374   5.012   0.529   0.452
10492SOL    HW132375   4.917   0.511   0.478
10492SOL    HW232376   5.048   0.607   0.504
10493SOL     OW32377   4.603   5.638   1.329
10493SOL    HW132378   4.596   5.738   1.331
10493SOL    HW232379   4.512   5.598   1.322
10494SOL     OW32380   0.518   4.584   6.005
10494SOL    HW132381   0.453   4.529   5.953
10494SOL    HW232382   0.605   4.589   5.955
10495SOL     OW32383   0.600   6.449   5.930
10495SOL    HW132384   0.528   6.395   5.974
10495SOL    HW232385   0.574   6.469   5.836
10496SOL     OW32386   6.414   3.491   5.430
10496SOL    HW132387   6.425   3.576   5.483
10496SOL    HW232388   6.464   3.417   5.475
10497SOL     OW32389   2.676   0.273   1.562
10497SOL    HW132390   2.603   0.257   1.628
10497SOL    HW232391   2.659   0.358   1.512
10498SOL     OW32392   4.691   5.725   0.744
10498SOL    HW132393   4.709   5.639   0.695
10498SOL    HW232394   4.635   5.706   0.825
10499SOL     OW32395   5.494   5.318   2.203
10499SOL    HW132396   5.564   5.360   2.146
10499SOL    HW232397   5.470   5.228   2.166
10500SOL     OW32398   5.675   4.089   5.329
10500SOL    HW132399   5.768   4.056   5.347
10500SOL    HW232400   5.615   4.012   5.311
10501SOL     OW32401   2.590   5.795   2.424
10501SOL    HW132402   2.627   5.711   2.386
10501SOL    HW232403   2.587   5.865   2.353
10502SOL     OW32404   2.949   3.546   2.743
10502SOL    HW132405   2.982   3.587   2.658
10502SOL    HW232406   2.938   3.448   2.732
10503SOL     OW32407   6.762   3.406   6.329
10503SOL    HW132408   6.683   3.392   6.269
10503SOL    HW232409   6.792   3.317   6.364
10504SOL     OW32410   2.023   2.803   6.087
10504SOL    HW132411   1.961   2.726   6.072
10504SOL    HW232412   2.061   2.797   6.179
10505SOL     OW32413   5.658   6.337   1.739
10505SOL    HW132414   5.661   6.240   1.714
10505SOL    HW232415   5.566   6.360   1.772
10506SOL     OW32416   1.051   2.792   6.783
10506SOL    HW132417   1.109   2.871   6.802
10506SOL    HW232418   1.008   2.761   6.868
10507SOL     OW32419   2.345   4.843   0.007
10507SOL    HW132420   2.352   4.746   0.028
10507SOL    HW232421   2.368   4.896   0.089
10508SOL     OW32422   1.027   5.024   5.164
10508SOL    HW132423   1.005   5.043   5.068
10508SOL    HW232424   0.943   5.020   5.218
10509SOL     OW32425   4.867   3.438   3.699
10509SOL    HW132426   4.959   3.444   3.661
10509SOL    HW232427   4.868   3.471   3.794
10510SOL     OW32428   4.667   5.675   4.556
10510SOL    HW132429   4.670   5.603   4.487
10510SOL    HW232430   4.760   5.705   4.577
10511SOL     OW32431   3.066   1.770   1.973
10511SOL    HW132432   3.109   1.860   1.983
10511SOL    HW232433   2.968   1.782   1.957
10512SOL     OW32434   4.304   0.978   5.131
10512SOL    HW132435   4.256   1.047   5.185
10512SOL    HW232436   4.246   0.946   5.056
10513SOL     OW32437   5.299   3.304   1.610
10513SOL    HW132438   5.293   3.367   1.533
10513SOL    HW232439   5.394   3.277   1.624
10514SOL     OW32440   0.837   3.130   1.809
10514SOL    HW132441   0.924   3.083   1.798
10514SOL    HW232442   0.774   3.101   1.737
10515SOL     OW32443   2.137   3.343   4.905
10515SOL    HW132444   2.061   3.361   4.844
10515SOL    HW232445   2.223   3.369   4.860
10516SOL     OW32446   3.803   2.773   0.198
10516SOL    HW132447   3.708   2.755   0.224
10516SOL    HW232448   3.837   2.852   0.248
10517SOL     OW32449   0.929   3.316   3.184
10517SOL    HW132450   0.895   3.383   3.250
10517SOL    HW232451   0.852   3.275   3.136
10518SOL     OW32452   0.760   5.289   2.279
10518SOL    HW132453   0.802   5.199   2.268
10518SOL    HW232454   0.710   5.291   2.366
10519SOL     OW32455   2.365   6.423   1.026
10519SOL    HW132456   2.450   6.371   1.025
10519SOL    HW232457   2.314   6.403   1.109
10520SOL     OW32458   6.971   1.083   6.148
10520SOL    HW132459   6.987   1.012   6.080
10520SOL    HW232460   6.965   1.172   6.104
10521SOL     OW32461   5.956   3.600   1.083
10521SOL    HW132462   5.929   3.530   1.149
10521SOL    HW232463   6.031   3.654   1.121
10522SOL     OW32464   5.387   2.310   2.838
10522SOL    HW132465   5.411   2.373   2.764
10522SOL    HW232466   5.324   2.240   2.804
10523SOL     OW32467   0.220   4.266   3.854
10523SOL    HW132468   0.128   4.231   3.832
10523SOL    HW232469   0.212   4.358   3.892
10524SOL     OW32470   6.500   6.471   3.830
10524SOL    HW132471   6.448   6.446   3.749
10524SOL    HW232472   6.494   6.570   3.845
10525SOL     OW32473   4.651   1.345   4.970
10525SOL    HW132474   4.622   1.440   4.965
10525SOL    HW232475   4.574   1.285   4.950
10526SOL     OW32476   0.856   5.256   0.492
10526SOL    HW132477   0.831   5.233   0.586
10526SOL    HW232478   0.891   5.350   0.488
10527SOL     OW32479   0.850   0.939   4.941
10527SOL    HW132480   0.808   0.854   4.911
10527SOL    HW232481   0.903   0.979   4.865
10528SOL     OW32482   1.033   5.011   6.587
10528SOL    HW132483   0.944   5.049   6.563
10528SOL    HW232484   1.021   4.928   6.641
10529SOL     OW32485   1.585   6.251   6.332
10529SOL    HW132486   1.644   6.332   6.326
10529SOL    HW232487   1.612   6.185   6.263
10530SOL     OW32488   1.215   6.839   0.099
10530SOL    HW132489   1.247   6.797   0.184
10530SOL    HW232490   1.200   6.768   0.030
10531SOL     OW32491   2.927   2.747   5.704
10531SOL    HW132492   2.886   2.660   5.732
10531SOL    HW232493   2.957   2.740   5.608
10532SOL     OW32494   6.024   6.129   6.876
10532SOL    HW132495   5.977   6.092   6.796
10532SOL    HW232496   5.959   6.140   6.951
10533SOL     OW32497   3.334   5.681   3.338
10533SOL    HW132498   3.429   5.681   3.305
10533SOL    HW232499   3.308   5.774   3.365
10534SOL     OW32500   0.984   5.865   2.541
10534SOL    HW132501   0.894   5.907   2.552
10534SOL    HW232502   0.999   5.799   2.615
10535SOL     OW32503   2.887   1.281   3.002
10535SOL    HW132504   2.869   1.378   3.017
10535SOL    HW232505   2.801   1.230   3.007
10536SOL     OW32506   4.906   1.337   4.297
10536SOL    HW132507   4.995   1.291   4.288
10536SOL    HW232508   4.876   1.369   4.208
10537SOL     OW32509   4.813   6.922   2.973
10537SOL    HW132510   4.878   6.974   2.917
10537SOL    HW232511   4.721   6.930   2.934
10538SOL     OW32512   6.461   3.241   2.376
10538SOL    HW132513   6.484   3.236   2.279
10538SOL    HW232514   6.370   3.202   2.391
10539SOL     OW32515   6.234   6.535   2.881
10539SOL    HW132516   6.217   6.443   2.846
10539SOL    HW232517   6.237   6.599   2.804
10540SOL     OW32518   2.416   3.880   5.941
10540SOL    HW132519   2.457   3.800   5.898
10540SOL    HW232520   2.448   3.887   6.035
10541SOL     OW32521   2.904   3.178   5.163
10541SOL    HW132522   2.942   3.095   5.204
10541SOL    HW232523   2.804   3.174   5.167
10542SOL     OW32524   6.281   6.896   4.539
10542SOL    HW132525   6.286   6.908   4.638
10542SOL    HW232526   6.201   6.841   4.516
10543SOL     OW32527   0.165   3.147   5.716
10543SOL    HW132528   0.229   3.077   5.684
10543SOL    HW232529   0.192   3.176   5.808
10544SOL     OW32530   1.281   1.368   3.741
10544SOL    HW132531   1.214   1.425   3.692
10544SOL    HW232532   1.243   1.276   3.754
10545SOL     OW32533   2.613   2.367   3.010
10545SOL    HW132534   2.690   2.309   3.036
10545SOL    HW232535   2.622   2.393   2.913
10546SOL     OW32536   3.255   0.027   1.005
10546SOL    HW132537   3.226   0.039   1.100
10546SOL    HW232538   3.218   0.101   0.949
10547SOL     OW32539   4.396   6.728   5.135
10547SOL    HW132540   4.478   6.785   5.139
10547SOL    HW232541   4.334   6.764   5.065
10548SOL     OW32542   1.193   4.710   4.345
10548SOL    HW132543   1.114   4.668   4.389
10548SOL    HW232544   1.162   4.765   4.267
10549SOL     OW32545   0.373   1.250   0.949
10549SOL    HW132546   0.327   1.323   0.900
10549SOL    HW232547   0.340   1.161   0.916
10550SOL     OW32548   3.613   6.056   3.125
10550SOL    HW132549   3.538   6.067   3.190
10550SOL    HW232550   3.576   6.036   3.035
10551SOL     OW32551   3.505   2.085   5.977
10551SOL    HW132552   3.428   2.073   6.039
10551SOL    HW232553   3.493   2.168   5.924
10552SOL     OW32554   3.593   0.769   4.475
10552SOL    HW132555   3.645   0.762   4.560
10552SOL    HW232556   3.656   0.772   4.397
10553SOL     OW32557   0.458   5.068   0.270
10553SOL    HW132558   0.488   5.066   0.175
10553SOL    HW232559   0.501   5.144   0.318
10554SOL     OW32560   6.314   5.065   2.661
10554SOL    HW132561   6.262   4.981   2.646
10554SOL    HW232562   6.251   5.137   2.692
10555SOL     OW32563   3.322   2.456   0.260
10555SOL    HW132564   3.387   2.395   0.303
10555SOL    HW232565   3.343   2.464   0.162
10556SOL     OW32566   1.925   1.889   3.061
10556SOL    HW132567   2.023   1.890   3.043
10556SOL    HW232568   1.876   1.914   2.977
10557SOL     OW32569   2.135   3.927   3.566
10557SOL    HW132570   2.149   3.900   3.471
10557SOL    HW232571   2.060   3.993   3.571
10558SOL     OW32572   2.728   5.509   5.611
10558SOL    HW132573   2.814   5.458   5.620
10558SOL    HW232574   2.725   5.581   5.681
10559SOL     OW32575   3.748   0.164   6.480
10559SOL    HW132576   3.832   0.203   6.518
10559SOL    HW232577   3.694   0.122   6.553
10560SOL     OW32578   5.158   6.723   1.612
10560SOL    HW132579   5.182   6.692   1.704
10560SOL    HW232580   5.241   6.735   1.558
10561SOL     OW32581   5.961   3.759   0.376
10561SOL    HW132582   5.862   3.769   0.368
10561SOL    HW232583   5.984   3.735   0.470
10562SOL     OW32584   3.110   6.591   1.378
10562SOL    HW132585   3.193   6.535   1.370
10562SOL    HW232586   3.120   6.674   1.322
10563SOL     OW32587   0.372   0.189   0.325
10563SOL    HW132588   0.449   0.171   0.265
10563SOL    HW232589   0.287   0.160   0.280
10564SOL     OW32590   6.230   5.972   3.664
10564SOL    HW132591   6.255   6.065   3.692
10564SOL    HW232592   6.295   5.907   3.702
10565SOL     OW32593   6.498   0.118   4.934
10565SOL    HW132594   6.571   0.186   4.947
10565SOL    HW232595   6.476   0.075   5.021
10566SOL     OW32596   3.042   2.932   0.207
10566SOL    HW132597   3.085   2.941   0.297
10566SOL    HW232598   2.959   2.988   0.205
10567SOL     OW32599   1.186   1.963   6.639
10567SOL    HW132600   1.230   1.952   6.728
10567SOL    HW232601   1.256   1.960   6.567
10568SOL     OW32602   5.192   2.416   6.248
10568SOL    HW132603   5.183   2.486   6.177
10568SOL    HW232604   5.179   2.326   6.207
10569SOL     OW32605   5.438   6.912   1.736
10569SOL    HW132606   5.504   6.975   1.696
10569SOL    HW232607   5.432   6.829   1.680
10570SOL     OW32608   0.334   5.006   4.252
10570SOL    HW132609   0.357   5.095   4.292
10570SOL    HW232610   0.407   4.978   4.189
10571SOL     OW32611   6.960   4.232   5.525
10571SOL    HW132612   7.015   4.311   5.551
10571SOL    HW232613   6.915   4.195   5.606
10572SOL     OW32614   5.970   4.807   1.544
10572SOL    HW132615   5.985   4.749   1.624
10572SOL    HW232616   5.963   4.902   1.572
10573SOL     OW32617   5.943   0.885   3.590
10573SOL    HW132618   5.980   0.797   3.563
10573SOL    HW232619   5.864   0.871   3.650
10574SOL     OW32620   0.318   1.636   3.760
10574SOL    HW132621   0.375   1.561   3.727
10574SOL    HW232622   0.376   1.710   3.794
10575SOL     OW32623   6.353   1.046   1.933
10575SOL    HW132624   6.303   1.090   2.008
10575SOL    HW232625   6.415   1.112   1.891
10576SOL     OW32626   2.415   4.926   3.698
10576SOL    HW132627   2.446   4.898   3.607
10576SOL    HW232628   2.409   5.025   3.702
10577SOL     OW32629   4.026   6.471   0.955
10577SOL    HW132630   4.098   6.402   0.943
10577SOL    HW232631   3.972   6.448   1.036
10578SOL     OW32632   6.242   2.267   4.123
10578SOL    HW132633   6.314   2.274   4.192
10578SOL    HW232634   6.158   2.234   4.167
10579SOL     OW32635   2.413   3.423   1.213
10579SOL    HW132636   2.350   3.347   1.197
10579SOL    HW232637   2.406   3.451   1.309
10580SOL     OW32638   6.417   6.959   6.501
10580SOL    HW132639   6.483   6.981   6.572
10580SOL    HW232640   6.342   6.906   6.541
10581SOL     OW32641   5.332   6.978   3.328
10581SOL    HW132642   5.294   6.899   3.376
10581SOL    HW232643   5.306   0.039   3.376
10582SOL     OW32644   5.961   4.645   6.745
10582SOL    HW132645   6.042   4.618   6.692
10582SOL    HW232646   5.970   4.740   6.774
10583SOL     OW32647   2.600   0.496   4.153
10583SOL    HW132648   2.614   0.399   4.173
10583SOL    HW232649   2.504   0.513   4.133
10584SOL     OW32650   6.823   0.002   5.252
10584SOL    HW132651   6.748   0.004   5.186
10584SOL    HW232652   6.835   0.093   5.292
10585SOL     OW32653   0.821   1.060   6.013
10585SOL    HW132654   0.903   1.116   6.005
10585SOL    HW232655   0.794   1.053   6.109
10586SOL     OW32656   4.913   4.774   5.588
10586SOL    HW132657   4.865   4.713   5.652
10586SOL    HW232658   4.958   4.846   5.640
10587SOL     OW32659   1.148   5.603   5.325
10587SOL    HW132660   1.146   5.625   5.423
10587SOL    HW232661   1.152   5.503   5.314
10588SOL     OW32662   1.107   3.953   4.041
10588SOL    HW132663   1.123   3.975   4.137
10588SOL    HW232664   1.189   3.912   4.001
10589SOL     OW32665   5.465   6.377   4.030
10589SOL    HW132666   5.517   6.445   3.978
10589SOL    HW232667   5.528   6.312   4.072
10590SOL     OW32668   0.419   5.243   2.119
10590SOL    HW132669   0.445   5.338   2.141
10590SOL    HW232670   0.456   5.218   2.030
10591SOL     OW32671   1.404   1.838   1.324
10591SOL    HW132672   1.429   1.898   1.401
10591SOL    HW232673   1.320   1.789   1.346
10592SOL     OW32674   5.619   2.063   5.518
10592SOL    HW132675   5.697   2.039   5.577
10592SOL    HW232676   5.625   2.011   5.433
10593SOL     OW32677   2.964   6.294   1.811
10593SOL    HW132678   2.999   6.200   1.806
10593SOL    HW232679   2.955   6.331   1.719
10594SOL     OW32680   3.419   6.975   3.480
10594SOL    HW132681   3.486   6.996   3.551
10594SOL    HW232682   3.394   0.035   3.431
10595SOL     OW32683   5.964   0.421   0.984
10595SOL    HW132684   5.893   0.353   1.004
10595SOL    HW232685   6.021   0.434   1.065
10596SOL     OW32686   4.546   1.448   6.814
10596SOL    HW132687   4.540   1.351   6.839
10596SOL    HW232688   4.585   1.456   6.722
10597SOL     OW32689   2.365   0.337   5.910
10597SOL    HW132690   2.351   0.409   5.842
10597SOL    HW232691   2.314   0.359   5.993
10598SOL     OW32692   2.334   1.461   6.016
10598SOL    HW132693   2.407   1.511   6.062
10598SOL    HW232694   2.245   1.497   6.046
10599SOL     OW32695   6.992   3.538   6.175
10599SOL    HW132696   0.010   3.458   6.131
10599SOL    HW232697   6.918   3.509   6.235
10600SOL     OW32698   2.547   1.881   1.936
10600SOL    HW132699   2.552   1.957   1.872
10600SOL    HW232700   2.456   1.880   1.979
10601SOL     OW32701   0.344   0.047   6.209
10601SOL    HW132702   0.310   6.997   6.149
10601SOL    HW232703   0.295   0.132   6.189
10602SOL     OW32704   0.139   0.037   0.253
10602SOL    HW132705   0.114   0.021   0.349
10602SOL    HW232706   0.125   6.975   0.201
10603SOL     OW32707   4.656   6.495   1.917
10603SOL    HW132708   4.594   6.568   1.889
10603SOL    HW232709   4.746   6.533   1.934
10604SOL     OW32710   0.231   0.044   4.805
10604SOL    HW132711   0.204   0.132   4.844
10604SOL    HW232712   0.330   0.034   4.813
10605SOL     OW32713   2.637   1.533   0.985
10605SOL    HW132714   2.611   1.624   1.018
10605SOL    HW232715   2.558   1.488   0.945
10606SOL     OW32716   6.542   0.788   1.426
10606SOL    HW132717   6.549   0.728   1.346
10606SOL    HW232718   6.617   0.770   1.489
10607SOL     OW32719   3.809   4.551   5.889
10607SOL    HW132720   3.822   4.482   5.961
10607SOL    HW232721   3.896   4.569   5.844
10608SOL     OW32722   6.167   2.924   2.810
10608SOL    HW132723   6.159   2.924   2.910
10608SOL    HW232724   6.076   2.923   2.769
10609SOL     OW32725   3.876   0.594   0.105
10609SOL    HW132726   3.957   0.548   0.067
10609SOL    HW232727   3.805   0.599   0.035
10610SOL     OW32728   0.374   1.321   4.935
10610SOL    HW132729   0.387   1.418   4.914
10610SOL    HW232730   0.460   1.283   4.969
10611SOL     OW32731   2.490   5.801   5.126
10611SOL    HW132732   2.406   5.788   5.179
10611SOL    HW232733   2.502   5.723   5.063
10612SOL     OW32734   4.923   1.510   3.806
10612SOL    HW132735   4.877   1.439   3.753
10612SOL    HW232736   5.001   1.545   3.754
10613SOL     OW32737   6.078   6.650   4.247
10613SOL    HW132738   6.166   6.691   4.224
10613SOL    HW232739   6.009   6.722   4.254
10614SOL     OW32740   5.075   0.200   6.742
10614SOL    HW132741   5.016   0.236   6.670
10614SOL    HW232742   5.125   0.275   6.785
10615SOL     OW32743   2.430   2.311   6.488
10615SOL    HW132744   2.491   2.298   6.410
10615SOL    HW232745   2.481   2.349   6.565
10616SOL     OW32746   2.182   5.994   6.432
10616SOL    HW132747   2.213   6.072   6.377
10616SOL    HW232748   2.175   6.023   6.528
10617SOL     OW32749   2.680   3.295   1.401
10617SOL    HW132750   2.664   3.261   1.494
10617SOL    HW232751   2.610   3.258   1.339
10618SOL     OW32752   0.643   5.300   5.085
10618SOL    HW132753   0.642   5.379   5.023
10618SOL    HW232754   0.724   5.304   5.143
10619SOL     OW32755   1.060   1.919   3.183
10619SOL    HW132756   1.154   1.901   3.213
10619SOL    HW232757   1.004   1.946   3.262
10620SOL     OW32758   2.563   7.007   6.204
10620SOL    HW132759   2.607   7.022   6.292
10620SOL    HW232760   2.523   6.915   6.202
10621SOL     OW32761   1.276   3.556   3.079
10621SOL    HW132762   1.317   3.647   3.070
10621SOL    HW232763   1.343   3.487   3.052
10622SOL     OW32764   4.025   3.671   0.682
10622SOL    HW132765   4.106   3.660   0.624
10622SOL    HW232766   3.948   3.620   0.643
10623SOL     OW32767   5.722   5.884   6.574
10623SOL    HW132768   5.806   5.862   6.622
10623SOL    HW232769   5.740   5.951   6.502
10624SOL     OW32770   0.563   2.549   5.376
10624SOL    HW132771   0.642   2.516   5.323
10624SOL    HW232772   0.568   2.512   5.469
10625SOL     OW32773   6.744   4.004   6.496
10625SOL    HW132774   6.796   3.926   6.462
10625SOL    HW232775   6.807   4.078   6.520
10626SOL     OW32776   4.239   3.374   1.383
10626SOL    HW132777   4.248   3.310   1.459
10626SOL    HW232778   4.280   3.334   1.301
10627SOL     OW32779   5.742   6.276   5.688
10627SOL    HW132780   5.741   6.375   5.699
10627SOL    HW232781   5.692   6.233   5.763
10628SOL     OW32782   4.259   0.439   0.262
10628SOL    HW132783   4.257   0.423   0.163
10628SOL    HW232784   4.343   0.488   0.286
10629SOL     OW32785   3.833   5.583   4.610
10629SOL    HW132786   3.747   5.532   4.623
10629SOL    HW232787   3.844   5.605   4.514
10630SOL     OW32788   4.309   0.449   3.326
10630SOL    HW132789   4.255   0.365   3.324
10630SOL    HW232790   4.383   0.440   3.394
10631SOL     OW32791   4.519   5.936   0.060
10631SOL    HW132792   4.525   5.837   0.044
10631SOL    HW232793   4.470   5.953   0.145
10632SOL     OW32794   4.592   5.830   3.253
10632SOL    HW132795   4.584   5.766   3.176
10632SOL    HW232796   4.688   5.832   3.284
10633SOL     OW32797   2.146   3.077   2.137
10633SOL    HW132798   2.243   3.065   2.160
10633SOL    HW232799   2.093   3.005   2.182
10634SOL     OW32800   0.681   4.943   6.827
10634SOL    HW132801   0.648   4.882   6.755
10634SOL    HW232802   0.770   4.911   6.859
10635SOL     OW32803   2.302   3.683   0.297
10635SOL    HW132804   2.344   3.638   0.218
10635SOL    HW232805   2.235   3.750   0.266
10636SOL     OW32806   6.568   2.344   6.704
10636SOL    HW132807   6.511   2.271   6.666
10636SOL    HW232808   6.517   2.430   6.702
10637SOL     OW32809   3.099   6.726   6.366
10637SOL    HW132810   3.123   6.815   6.329
10637SOL    HW232811   3.103   6.730   6.466
10638SOL     OW32812   6.774   5.293   1.764
10638SOL    HW132813   6.715   5.313   1.685
10638SOL    HW232814   6.866   5.271   1.732
10639SOL     OW32815   1.976   3.417   1.564
10639SOL    HW132816   1.981   3.484   1.638
10639SOL    HW232817   2.057   3.358   1.567
10640SOL     OW32818   4.099   0.206   3.789
10640SOL    HW132819   4.098   0.112   3.756
10640SOL    HW232820   4.162   0.260   3.733
10641SOL     OW32821   0.672   0.279   3.131
10641SOL    HW132822   0.764   0.316   3.140
10641SOL    HW232823   0.672   0.201   3.068
10642SOL     OW32824   6.058   2.345   7.008
10642SOL    HW132825   6.144   2.356   6.958
10642SOL    HW232826   6.041   2.248   0.002
10643SOL     OW32827   1.673   4.793   4.972
10643SOL    HW132828   1.648   4.748   4.887
10643SOL    HW232829   1.708   4.885   4.952
10644SOL     OW32830   0.147   2.601   2.586
10644SOL    HW132831   0.130   2.697   2.565
10644SOL    HW232832   0.122   2.583   2.681
10645SOL     OW32833   2.265   2.913   3.041
10645SOL    HW132834   2.206   2.960   2.976
10645SOL    HW232835   2.305   2.833   2.998
10646SOL     OW32836   5.157   1.306   4.757
10646SOL    HW132837   5.077   1.301   4.697
10646SOL    HW232838   5.130   1.283   4.850
10647SOL     OW32839   3.873   5.144   4.918
10647SOL    HW132840   3.872   5.097   4.830
10647SOL    HW232841   3.866   5.243   4.904
10648SOL     OW32842   5.605   5.034   4.968
10648SOL    HW132843   5.605   5.113   5.029
10648SOL    HW232844   5.671   4.967   5.001
10649SOL     OW32845   0.451   3.237   3.100
10649SOL    HW132846   0.438   3.139   3.082
10649SOL    HW232847   0.377   3.288   3.057
10650SOL     OW32848   6.928   0.089   4.157
10650SOL    HW132849   6.930   0.113   4.060
10650SOL    HW232850   6.868   0.011   4.172
10651SOL     OW32851   4.852   6.302   5.365
10651SOL    HW132852   4.853   6.248   5.450
10651SOL    HW232853   4.776   6.272   5.308
10652SOL     OW32854   1.331   6.769   6.078
10652SOL    HW132855   1.289   6.713   6.150
10652SOL    HW232856   1.363   6.711   6.004
10653SOL     OW32857   3.809   6.233   4.751
10653SOL    HW132858   3.864   6.283   4.684
10653SOL    HW232859   3.756   6.298   4.805
10654SOL     OW32860   5.008   1.599   4.576
10654SOL    HW132861   5.058   1.684   4.584
10654SOL    HW232862   4.979   1.586   4.481
10655SOL     OW32863   1.265   4.718   1.439
10655SOL    HW132864   1.243   4.622   1.422
10655SOL    HW232865   1.250   4.739   1.536
10656SOL     OW32866   6.932   1.420   1.761
10656SOL    HW132867   6.858   1.357   1.738
10656SOL    HW232868   6.992   1.432   1.682
10657SOL     OW32869   6.153   0.822   4.277
10657SOL    HW132870   6.085   0.845   4.346
10657SOL    HW232871   6.114   0.757   4.212
10658SOL     OW32872   5.620   3.405   4.744
10658SOL    HW132873   5.663   3.314   4.746
10658SOL    HW232874   5.674   3.466   4.686
10659SOL     OW32875   0.783   4.642   1.035
10659SOL    HW132876   0.851   4.706   1.072
10659SOL    HW232877   0.782   4.650   0.935
10660SOL     OW32878   6.320   3.216   5.710
10660SOL    HW132879   6.323   3.223   5.610
10660SOL    HW232880   6.226   3.204   5.739
10661SOL     OW32881   1.163   4.552   0.181
10661SOL    HW132882   1.224   4.631   0.185
10661SOL    HW232883   1.180   4.492   0.259
10662SOL     OW32884   2.764   1.536   3.107
10662SOL    HW132885   2.835   1.593   3.066
10662SOL    HW232886   2.726   1.584   3.186
10663SOL     OW32887   1.104   1.014   3.515
10663SOL    HW132888   1.147   0.928   3.489
10663SOL    HW232889   1.008   0.998   3.535
10664SOL     OW32890   1.186   5.211   4.166
10664SOL    HW132891   1.220   5.273   4.096
10664SOL    HW232892   1.226   5.120   4.152
10665SOL     OW32893   2.235   3.490   6.344
10665SOL    HW132894   2.135   3.489   6.351
10665SOL    HW232895   2.263   3.548   6.268
10666SOL     OW32896   3.922   3.346   2.174
10666SOL    HW132897   4.004   3.288   2.178
10666SOL    HW232898   3.842   3.293   2.204
10667SOL     OW32899   5.626   2.229   2.656
10667SOL    HW132900   5.534   2.212   2.690
10667SOL    HW232901   5.621   2.287   2.575
10668SOL     OW32902   3.057   2.202   5.380
10668SOL    HW132903   3.097   2.264   5.313
10668SOL    HW232904   3.056   2.109   5.343
10669SOL     OW32905   5.844   1.085   0.809
10669SOL    HW132906   5.910   1.123   0.745
10669SOL    HW232907   5.753   1.085   0.769
10670SOL     OW32908   4.817   3.999   4.238
10670SOL    HW132909   4.827   4.016   4.140
10670SOL    HW232910   4.754   4.066   4.277
10671SOL     OW32911   1.343   1.473   4.308
10671SOL    HW132912   1.251   1.453   4.274
10671SOL    HW232913   1.344   1.564   4.349
10672SOL     OW32914   6.223   4.070   1.425
10672SOL    HW132915   6.166   4.030   1.497
10672SOL    HW232916   6.302   4.115   1.467
10673SOL     OW32917   1.924   0.597   0.813
10673SOL    HW132918   1.825   0.594   0.810
10673SOL    HW232919   1.962   0.516   0.768
10674SOL     OW32920   4.090   3.249   4.584
10674SOL    HW132921   4.138   3.283   4.664
10674SOL    HW232922   4.021   3.182   4.611
10675SOL     OW32923   3.661   1.330   6.472
10675SOL    HW132924   3.598   1.404   6.497
10675SOL    HW232925   3.615   1.268   6.408
10676SOL     OW32926   0.686   5.501   4.934
10676SOL    HW132927   0.661   5.501   4.837
10676SOL    HW232928   0.655   5.585   4.977
10677SOL     OW32929   1.351   1.593   0.639
10677SOL    HW132930   1.414   1.670   0.640
10677SOL    HW232931   1.265   1.620   0.682
10678SOL     OW32932   3.934   5.146   3.681
10678SOL    HW132933   3.910   5.147   3.584
10678SOL    HW232934   3.878   5.079   3.728
10679SOL     OW32935   4.007   4.898   0.253
10679SOL    HW132936   4.054   4.914   0.166
10679SOL    HW232937   3.989   4.985   0.298
10680SOL     OW32938   3.423   1.796   4.215
10680SOL    HW132939   3.492   1.752   4.158
10680SOL    HW232940   3.432   1.765   4.310
10681SOL     OW32941   6.693   3.694   6.986
10681SOL    HW132942   6.749   3.767   0.002
10681SOL    HW232943   6.697   3.614   0.023
10682SOL     OW32944   6.208   2.998   4.723
10682SOL    HW132945   6.268   2.958   4.793
10682SOL    HW232946   6.142   3.060   4.767
10683SOL     OW32947   4.447   0.114   3.548
10683SOL    HW132948   4.498   0.196   3.521
10683SOL    HW232949   4.439   0.112   3.648
10684SOL     OW32950   5.112   5.270   1.111
10684SOL    HW132951   5.167   5.245   1.191
10684SOL    HW232952   5.112   5.369   1.100
10685SOL     OW32953   6.578   5.742   1.838
10685SOL    HW132954   6.532   5.689   1.766
10685SOL    HW232955   6.649   5.687   1.880
10686SOL     OW32956   1.655   3.930   6.637
10686SOL    HW132957   1.713   4.011   6.628
10686SOL    HW232958   1.708   3.849   6.612
10687SOL     OW32959   6.556   4.703   3.039
10687SOL    HW132960   6.489   4.635   3.070
10687SOL    HW232961   6.547   4.785   3.095
10688SOL     OW32962   5.406   1.395   2.170
10688SOL    HW132963   5.359   1.309   2.189
10688SOL    HW232964   5.350   1.450   2.108
10689SOL     OW32965   0.519   0.255   1.849
10689SOL    HW132966   0.543   0.310   1.768
10689SOL    HW232967   0.451   0.187   1.824
10690SOL     OW32968   0.067   5.336   3.747
10690SOL    HW132969   0.086   5.380   3.834
10690SOL    HW232970   0.031   5.403   3.682
10691SOL     OW32971   2.350   1.809   2.147
10691SOL    HW132972   2.294   1.730   2.126
10691SOL    HW232973   2.438   1.779   2.185
10692SOL     OW32974   3.346   0.945   4.594
10692SOL    HW132975   3.347   0.855   4.552
10692SOL    HW232976   3.414   0.949   4.667
10693SOL     OW32977   0.810   6.253   1.631
10693SOL    HW132978   0.760   6.196   1.696
10693SOL    HW232979   0.824   6.344   1.670
10694SOL     OW32980   5.053   6.517   6.165
10694SOL    HW132981   5.036   6.423   6.133
10694SOL    HW232982   4.998   6.581   6.112
10695SOL     OW32983   1.289   2.949   1.331
10695SOL    HW132984   1.336   2.894   1.400
10695SOL    HW232985   1.238   3.023   1.377
10696SOL     OW32986   5.887   3.736   5.206
10696SOL    HW132987   5.815   3.799   5.177
10696SOL    HW232988   5.896   3.662   5.140
10697SOL     OW32989   0.469   6.500   5.629
10697SOL    HW132990   0.464   6.512   5.530
10697SOL    HW232991   0.491   6.405   5.650
10698SOL     OW32992   4.982   4.324   0.106
10698SOL    HW132993   4.938   4.274   0.031
10698SOL    HW232994   4.996   4.262   0.183
10699SOL     OW32995   4.002   4.593   0.930
10699SOL    HW132996   4.093   4.614   0.894
10699SOL    HW232997   4.010   4.563   1.025
10700SOL     OW32998   5.961   6.890   0.705
10700SOL    HW132999   5.906   6.973   0.710
10700SOL    HW233000   6.057   6.914   0.688
10701SOL     OW33001   3.152   0.129   6.177
10701SOL    HW133002   3.078   0.061   6.169
10701SOL    HW233003   3.127   0.211   6.126
10702SOL     OW33004   4.880   3.273   2.499
10702SOL    HW133005   4.805   3.319   2.547
10702SOL    HW233006   4.966   3.320   2.519
10703SOL     OW33007   2.174   2.973   5.492
10703SOL    HW133008   2.167   2.977   5.393
10703SOL    HW233009   2.249   3.031   5.523
10704SOL     OW33010   6.886   4.986   2.476
10704SOL    HW133011   6.982   4.972   2.450
10704SOL    HW233012   6.852   5.071   2.435
10705SOL     OW33013   5.769   5.067   0.913
10705SOL    HW133014   5.673   5.077   0.936
10705SOL    HW233015   5.809   4.990   0.964
10706SOL     OW33016   4.699   6.776   1.585
10706SOL    HW133017   4.622   6.713   1.574
10706SOL    HW233018   4.681   6.859   1.533
10707SOL     OW33019   0.060   6.703   4.233
10707SOL    HW133020   0.105   6.772   4.176
10707SOL    HW233021   0.088   6.714   4.328
10708SOL     OW33022   4.731   1.095   1.807
10708SOL    HW133023   4.770   1.004   1.815
10708SOL    HW233024   4.723   1.136   1.898
10709SOL     OW33025   5.815   5.689   4.360
10709SOL    HW133026   5.751   5.736   4.300
10709SOL    HW233027   5.793   5.592   4.363
10710SOL     OW33028   5.403   1.050   3.788
10710SOL    HW133029   5.326   1.034   3.726
10710SOL    HW233030   5.460   0.969   3.792
10711SOL     OW33031   2.274   6.819   3.594
10711SOL    HW133032   2.365   6.835   3.557
10711SOL    HW233033   2.225   6.906   3.603
10712SOL     OW33034   3.735   0.056   2.990
10712SOL    HW133035   3.744   0.154   2.973
10712SOL    HW233036   3.708   0.041   3.085
10713SOL     OW33037   1.403   2.564   0.204
10713SOL    HW133038   1.502   2.547   0.208
10713SOL    HW233039   1.366   2.523   0.120
10714SOL     OW33040   4.581   3.280   5.446
10714SOL    HW133041   4.501   3.242   5.493
10714SOL    HW233042   4.557   3.370   5.408
10715SOL     OW33043   4.152   0.313   2.219
10715SOL    HW133044   4.181   0.225   2.259
10715SOL    HW233045   4.231   0.357   2.177
10716SOL     OW33046   6.212   2.549   2.609
10716SOL    HW133047   6.179   2.463   2.570
10716SOL    HW233048   6.134   2.610   2.624
10717SOL     OW33049   1.786   3.015   0.877
10717SOL    HW133050   1.848   2.978   0.946
10717SOL    HW233051   1.830   3.013   0.788
10718SOL     OW33052   0.802   4.218   6.825
10718SOL    HW133053   0.823   4.207   6.728
10718SOL    HW233054   0.713   4.261   6.835
10719SOL     OW33055   6.262   5.601   3.262
10719SOL    HW133056   6.206   5.527   3.299
10719SOL    HW233057   6.255   5.603   3.162
10720SOL     OW33058   5.961   5.245   4.441
10720SOL    HW133059   5.934   5.169   4.500
10720SOL    HW233060   6.052   5.229   4.404
10721SOL     OW33061   5.135   4.046   5.204
10721SOL    HW133062   5.176   4.057   5.295
10721SOL    HW233063   5.118   4.137   5.165
10722SOL     OW33064   6.480   4.427   0.160
10722SOL    HW133065   6.572   4.463   0.174
10722SOL    HW233066   6.447   4.386   0.245
10723SOL     OW33067   0.196   1.741   6.355
10723SOL    HW133068   0.195   1.834   6.319
10723SOL    HW233069   0.289   1.715   6.379
10724SOL     OW33070   6.370   6.607   6.266
10724SOL    HW133071   6.448   6.550   6.292
10724SOL    HW233072   6.379   6.636   6.171
10725SOL     OW33073   1.814   6.021   5.341
10725SOL    HW133074   1.809   5.934   5.389
10725SOL    HW233075   1.792   6.095   5.405
10726SOL     OW33076   4.823   0.833   4.161
10726SOL    HW133077   4.790   0.740   4.176
10726SOL    HW233078   4.772   0.875   4.087
10727SOL     OW33079   0.408   5.400   5.961
10727SOL    HW133080   0.391   5.380   5.865
10727SOL    HW233081   0.503   5.429   5.973
10728SOL     OW33082   1.148   5.151   6.391
10728SOL    HW133083   1.105   5.095   6.463
10728SOL    HW233084   1.083   5.219   6.359
10729SOL     OW33085   6.244   1.369   2.497
10729SOL    HW133086   6.323   1.417   2.533
10729SOL    HW233087   6.161   1.403   2.541
10730SOL     OW33088   3.145   0.432   0.748
10730SOL    HW133089   3.067   0.485   0.781
10730SOL    HW233090   3.128   0.404   0.653
10731SOL     OW33091   3.232   0.817   0.575
10731SOL    HW133092   3.231   0.815   0.675
10731SOL    HW233093   3.284   0.739   0.541
10732SOL     OW33094   0.459   4.676   5.309
10732SOL    HW133095   0.391   4.613   5.346
10732SOL    HW233096   0.543   4.625   5.287
10733SOL     OW33097   6.118   1.817   6.743
10733SOL    HW133098   6.181   1.821   6.665
10733SOL    HW233099   6.158   1.760   6.815
10734SOL     OW33100   1.687   1.371   0.279
10734SOL    HW133101   1.779   1.392   0.313
10734SOL    HW233102   1.619   1.407   0.343
10735SOL     OW33103   0.900   2.922   2.278
10735SOL    HW133104   0.900   3.022   2.270
10735SOL    HW233105   0.847   2.883   2.203
10736SOL     OW33106   1.301   0.310   3.233
10736SOL    HW133107   1.326   0.402   3.203
10736SOL    HW233108   1.375   0.273   3.290
10737SOL     OW33109   1.566   2.167   0.871
10737SOL    HW133110   1.490   2.223   0.905
10737SOL    HW233111   1.545   2.070   0.887
10738SOL     OW33112   2.873   6.826   2.387
10738SOL    HW133113   2.954   6.773   2.412
10738SOL    HW233114   2.804   6.766   2.346
10739SOL     OW33115   2.139   1.310   1.430
10739SOL    HW133116   2.209   1.374   1.460
10739SOL    HW233117   2.131   1.314   1.330
10740SOL     OW33118   7.023   5.307   5.747
10740SOL    HW133119   0.071   5.313   5.677
10740SOL    HW233120   0.030   5.246   5.820
10741SOL     OW33121   4.546   0.915   1.476
10741SOL    HW133122   4.646   0.922   1.480
10741SOL    HW233123   4.511   0.889   1.566
10742SOL     OW33124   6.046   0.082   1.381
10742SOL    HW133125   6.013   0.176   1.384
10742SOL    HW233126   6.047   0.044   1.473
10743SOL     OW33127   1.299   2.588   5.916
10743SOL    HW133128   1.344   2.677   5.927
10743SOL    HW233129   1.222   2.581   5.980
10744SOL     OW33130   3.458   1.137   0.794
10744SOL    HW133131   3.412   1.110   0.709
10744SOL    HW233132   3.550   1.169   0.772
10745SOL     OW33133   6.591   5.933   5.941
10745SOL    HW133134   6.505   5.898   5.979
10745SOL    HW233135   6.649   5.857   5.913
10746SOL     OW33136   1.801   4.509   1.219
10746SOL    HW133137   1.791   4.420   1.262
10746SOL    HW233138   1.715   4.536   1.176
10747SOL     OW33139   3.606   1.270   4.904
10747SOL    HW133140   3.524   1.302   4.857
10747SOL    HW233141   3.644   1.344   4.959
10748SOL     OW33142   5.760   0.999   1.299
10748SOL    HW133143   5.701   0.922   1.322
10748SOL    HW233144   5.731   1.038   1.212
10749SOL     OW33145   0.240   5.683   3.883
10749SOL    HW133146   0.157   5.701   3.830
10749SOL    HW233147   0.267   5.767   3.931
10750SOL     OW33148   4.275   6.479   5.039
10750SOL    HW133149   4.317   6.480   4.948
10750SOL    HW233150   4.325   6.540   5.100
10751SOL     OW33151   1.511   4.782   4.141
10751SOL    HW133152   1.490   4.869   4.096
10751SOL    HW233153   1.462   4.708   4.095
10752SOL     OW33154   6.136   4.672   4.897
10752SOL    HW133155   6.216   4.614   4.912
10752SOL    HW233156   6.057   4.614   4.876
10753SOL     OW33157   6.262   4.996   4.219
10753SOL    HW133158   6.232   4.958   4.307
10753SOL    HW233159   6.299   4.923   4.162
10754SOL     OW33160   0.317   6.764   3.233
10754SOL    HW133161   0.235   6.805   3.273
10754SOL    HW233162   0.362   6.830   3.173
10755SOL     OW33163   6.587   0.366   0.879
10755SOL    HW133164   6.562   0.461   0.862
10755SOL    HW233165   6.680   0.362   0.917
10756SOL     OW33166   6.823   5.384   6.069
10756SOL    HW133167   6.822   5.467   6.124
10756SOL    HW233168   6.832   5.407   5.972
10757SOL     OW33169   1.655   2.444   6.927
10757SOL    HW133170   1.638   2.488   7.015
10757SOL    HW233171   1.570   2.442   6.874
10758SOL     OW33172   0.929   5.998   4.185
10758SOL    HW133173   0.906   6.089   4.220
10758SOL    HW233174   0.912   5.930   4.256
10759SOL     OW33175   1.869   4.061   0.824
10759SOL    HW133176   1.844   3.980   0.876
10759SOL    HW233177   1.915   4.127   0.884
10760SOL     OW33178   5.638   0.399   3.168
10760SOL    HW133179   5.599   0.482   3.129
10760SOL    HW233180   5.732   0.388   3.137
10761SOL     OW33181   0.308   5.848   5.741
10761SOL    HW133182   0.250   5.777   5.701
10761SOL    HW233183   0.295   5.933   5.691
10762SOL     OW33184   2.766   1.309   4.239
10762SOL    HW133185   2.690   1.272   4.291
10762SOL    HW233186   2.768   1.267   4.148
10763SOL     OW33187   3.757   6.622   2.405
10763SOL    HW133188   3.763   6.523   2.394
10763SOL    HW233189   3.709   6.643   2.490
10764SOL     OW33190   5.308   2.159   5.728
10764SOL    HW133191   5.383   2.094   5.739
10764SOL    HW233192   5.221   2.110   5.732
10765SOL     OW33193   4.721   2.741   0.445
10765SOL    HW133194   4.661   2.700   0.377
10765SOL    HW233195   4.798   2.681   0.462
10766SOL     OW33196   4.315   4.922   0.775
10766SOL    HW133197   4.354   5.010   0.748
10766SOL    HW233198   4.283   4.927   0.869
10767SOL     OW33199   2.703   0.272   1.132
10767SOL    HW133200   2.724   0.369   1.141
10767SOL    HW233201   2.788   0.218   1.138
10768SOL     OW33202   4.919   5.065   1.094
10768SOL    HW133203   4.897   5.011   1.013
10768SOL    HW233204   5.005   5.115   1.078
10769SOL     OW33205   1.965   4.143   5.420
10769SOL    HW133206   2.007   4.086   5.349
10769SOL    HW233207   2.032   4.209   5.453
10770SOL     OW33208   5.180   6.378   4.040
10770SOL    HW133209   5.138   6.354   4.128
10770SOL    HW233210   5.277   6.398   4.055
10771SOL     OW33211   4.252   6.978   4.477
10771SOL    HW133212   4.168   6.966   4.529
10771SOL    HW233213   4.236   6.951   4.382
10772SOL     OW33214   6.296   6.584   5.172
10772SOL    HW133215   6.297   6.559   5.075
10772SOL    HW233216   6.367   6.534   5.221
10773SOL     OW33217   5.381   4.653   6.751
10773SOL    HW133218   5.450   4.712   6.794
10773SOL    HW233219   5.347   4.696   6.668
10774SOL     OW33220   1.842   1.074   6.055
10774SOL    HW133221   1.839   1.148   5.987
10774SOL    HW233222   1.930   1.026   6.049
10775SOL     OW33223   0.488   4.985   2.700
10775SOL    HW133224   0.489   4.964   2.797
10775SOL    HW233225   0.581   5.007   2.669
10776SOL     OW33226   0.527   1.114   6.823
10776SOL    HW133227   0.530   1.208   6.857
10776SOL    HW233228   0.443   1.070   6.855
10777SOL     OW33229   3.965   5.330   1.611
10777SOL    HW133230   3.921   5.414   1.643
10777SOL    HW233231   3.900   5.255   1.614
10778SOL     OW33232   5.073   6.956   3.796
10778SOL    HW133233   5.010   6.914   3.731
10778SOL    HW233234   5.101   0.022   3.760
10779SOL     OW33235   5.578   2.866   3.158
10779SOL    HW133236   5.576   2.886   3.060
10779SOL    HW233237   5.568   2.767   3.172
10780SOL     OW33238   1.446   0.489   4.077
10780SOL    HW133239   1.497   0.459   3.997
10780SOL    HW233240   1.400   0.411   4.119
10781SOL     OW33241   3.937   0.650   3.775
10781SOL    HW133242   3.933   0.595   3.692
10781SOL    HW233243   3.934   0.747   3.751
10782SOL     OW33244   0.003   0.800   3.105
10782SOL    HW133245   7.021   0.884   3.159
10782SOL    HW233246   7.012   0.822   3.008
10783SOL     OW33247   0.563   2.489   2.524
10783SOL    HW133248   0.577   2.469   2.427
10783SOL    HW233249   0.651   2.511   2.567
10784SOL     OW33250   3.621   1.077   4.076
10784SOL    HW133251   3.618   1.152   4.142
10784SOL    HW233252   3.710   1.032   4.081
10785SOL     OW33253   0.961   3.858   0.758
10785SOL    HW133254   0.931   3.948   0.725
10785SOL    HW233255   0.881   3.800   0.774
10786SOL     OW33256   5.849   4.960   3.308
10786SOL    HW133257   5.939   4.992   3.337
10786SOL    HW233258   5.832   4.989   3.214
10787SOL     OW33259   1.452   1.037   6.076
10787SOL    HW133260   1.526   1.025   6.142
10787SOL    HW233261   1.489   1.068   5.989
10788SOL     OW33262   0.831   4.654   0.117
10788SOL    HW133263   0.872   4.725   0.175
10788SOL    HW233264   0.854   4.564   0.153
10789SOL     OW33265   6.345   3.470   6.691
10789SOL    HW133266   6.298   3.445   6.607
10789SOL    HW233267   6.418   3.405   6.710
10790SOL     OW33268   0.862   6.718   2.175
10790SOL    HW133269   0.812   6.717   2.088
10790SOL    HW233270   0.931   6.791   2.173
10791SOL     OW33271   6.903   5.874   1.823
10791SOL    HW133272   6.935   5.966   1.843
10791SOL    HW233273   6.980   5.810   1.828
10792SOL     OW33274   3.456   2.914   4.645
10792SOL    HW133275   3.478   2.824   4.607
10792SOL    HW233276   3.412   2.903   4.734
10793SOL     OW33277   6.098   4.095   5.984
10793SOL    HW133278   6.059   4.131   5.900
10793SOL    HW233279   6.038   4.024   6.021
10794SOL     OW33280   4.046   3.778   4.186
10794SOL    HW133281   4.118   3.779   4.255
10794SOL    HW233282   4.019   3.872   4.165
10795SOL     OW33283   0.253   5.186   2.856
10795SOL    HW133284   0.210   5.245   2.787
10795SOL    HW233285   0.252   5.091   2.824
10796SOL     OW33286   6.448   6.952   5.377
10796SOL    HW133287   6.428   6.912   5.287
10796SOL    HW233288   6.493   0.017   5.365
10797SOL     OW33289   3.299   2.692   1.166
10797SOL    HW133290   3.395   2.662   1.164
10797SOL    HW233291   3.240   2.611   1.172
10798SOL     OW33292   2.640   1.207   0.552
10798SOL    HW133293   2.633   1.119   0.599
10798SOL    HW233294   2.687   1.194   0.464
10799SOL     OW33295   4.265   0.990   2.418
10799SOL    HW133296   4.336   1.024   2.479
10799SOL    HW233297   4.189   0.954   2.472
10800SOL     OW33298   0.866   6.157   5.785
10800SOL    HW133299   0.863   6.221   5.709
10800SOL    HW233300   0.948   6.173   5.839
10801SOL     OW33301   1.324   0.075   0.008
10801SOL    HW133302   1.239   0.122   0.033
10801SOL    HW233303   1.312   7.000   0.020
10802SOL     OW33304   0.473   0.488   2.992
10802SOL    HW133305   0.529   0.407   2.978
10802SOL    HW233306   0.382   0.461   3.022
10803SOL     OW33307   1.569   5.649   5.417
10803SOL    HW133308   1.642   5.717   5.412
10803SOL    HW233309   1.488   5.691   5.459
10804SOL     OW33310   6.574   3.207   3.005
10804SOL    HW133311   6.614   3.116   3.021
10804SOL    HW233312   6.510   3.202   2.928
10805SOL     OW33313   5.211   0.742   5.008
10805SOL    HW133314   5.246   0.806   4.939
10805SOL    HW233315   5.114   0.725   4.991
10806SOL     OW33316   3.765   4.743   6.379
10806SOL    HW133317   3.852   4.706   6.349
10806SOL    HW233318   3.697   4.732   6.306
10807SOL     OW33319   1.520   5.874   3.659
10807SOL    HW133320   1.504   5.884   3.757
10807SOL    HW233321   1.439   5.904   3.608
10808SOL     OW33322   7.020   2.239   5.945
10808SOL    HW133323   6.982   2.149   5.923
10808SOL    HW233324   0.084   2.228   5.993
10809SOL     OW33325   2.347   4.531   4.155
10809SOL    HW133326   2.318   4.593   4.082
10809SOL    HW233327   2.322   4.437   4.131
10810SOL     OW33328   0.141   6.968   3.659
10810SOL    HW133329   0.053   6.940   3.620
10810SOL    HW233330   0.182   0.016   3.601
10811SOL     OW33331   4.227   5.041   5.281
10811SOL    HW133332   4.315   5.087   5.272
10811SOL    HW233333   4.183   5.036   5.191
10812SOL     OW33334   6.707   4.300   6.293
10812SOL    HW133335   6.744   4.232   6.230
10812SOL    HW233336   6.609   4.284   6.305
10813SOL     OW33337   0.706   3.904   6.031
10813SOL    HW133338   0.660   3.991   6.047
10813SOL    HW233339   0.729   3.862   6.119
10814SOL     OW33340   2.099   6.847   6.811
10814SOL    HW133341   2.192   6.844   6.848
10814SOL    HW233342   2.053   6.930   6.841
10815SOL     OW33343   5.231   2.721   2.717
10815SOL    HW133344   5.177   2.656   2.770
10815SOL    HW233345   5.179   2.749   2.636
10816SOL     OW33346   3.639   3.675   2.458
10816SOL    HW133347   3.674   3.593   2.505
10816SOL    HW233348   3.545   3.692   2.487
10817SOL     OW33349   3.194   0.714   3.671
10817SOL    HW133350   3.290   0.687   3.663
10817SOL    HW233351   3.148   0.655   3.738
10818SOL     OW33352   4.522   4.956   5.714
10818SOL    HW133353   4.611   4.975   5.757
10818SOL    HW233354   4.488   4.868   5.747
10819SOL     OW33355   5.878   5.204   6.148
10819SOL    HW133356   5.905   5.295   6.117
10819SOL    HW233357   5.789   5.180   6.108
10820SOL     OW33358   0.012   5.465   4.648
10820SOL    HW133359   0.035   5.504   4.558
10820SOL    HW233360   6.945   5.423   4.644
10821SOL     OW33361   4.531   6.598   2.845
10821SOL    HW133362   4.528   6.659   2.766
10821SOL    HW233363   4.549   6.505   2.814
10822SOL     OW33364   6.628   1.996   1.345
10822SOL    HW133365   6.545   2.003   1.290
10822SOL    HW233366   6.701   2.048   1.302
10823SOL     OW33367   0.320   0.455   3.378
10823SOL    HW133368   0.285   0.527   3.438
10823SOL    HW233369   0.244   0.399   3.345
10824SOL     OW33370   0.677   1.507   2.314
10824SOL    HW133371   0.741   1.510   2.391
10824SOL    HW233372   0.727   1.495   2.229
10825SOL     OW33373   1.668   2.646   0.630
10825SOL    HW133374   1.656   2.643   0.730
10825SOL    HW233375   1.713   2.562   0.599
10826SOL     OW33376   0.445   2.186   2.373
10826SOL    HW133377   0.540   2.154   2.372
10826SOL    HW233378   0.419   2.212   2.466
10827SOL     OW33379   6.400   2.736   5.188
10827SOL    HW133380   6.331   2.680   5.142
10827SOL    HW233381   6.481   2.743   5.131
10828SOL     OW33382   0.517   4.255   0.646
10828SOL    HW133383   0.482   4.335   0.597
10828SOL    HW233384   0.580   4.285   0.718
10829SOL     OW33385   4.490   3.691   6.963
10829SOL    HW133386   4.569   3.699   6.902
10829SOL    HW233387   4.455   3.782   6.985
10830SOL     OW33388   4.680   1.479   3.550
10830SOL    HW133389   4.660   1.576   3.560
10830SOL    HW233390   4.594   1.428   3.546
10831SOL     OW33391   3.161   6.579   2.072
10831SOL    HW133392   3.085   6.634   2.037
10831SOL    HW233393   3.180   6.604   2.167
10832SOL     OW33394   6.434   3.743   6.721
10832SOL    HW133395   6.415   3.647   6.741
10832SOL    HW233396   6.349   3.795   6.726
10833SOL     OW33397   0.521   2.323   0.495
10833SOL    HW133398   0.588   2.340   0.568
10833SOL    HW233399   0.437   2.286   0.535
10834SOL     OW33400   0.172   1.276   0.050
10834SOL    HW133401   0.119   1.198   0.082
10834SOL    HW233402   0.230   1.310   0.124
10835SOL     OW33403   5.612   3.022   0.183
10835SOL    HW133404   5.534   2.990   0.238
10835SOL    HW233405   5.579   3.064   0.099
10836SOL     OW33406   0.542   1.456   2.790
10836SOL    HW133407   0.547   1.435   2.692
10836SOL    HW233408   0.512   1.375   2.840
10837SOL     OW33409   6.575   4.737   1.955
10837SOL    HW133410   6.589   4.785   2.042
10837SOL    HW233411   6.540   4.645   1.974
10838SOL     OW33412   5.753   6.463   4.287
10838SOL    HW133413   5.849   6.492   4.289
10838SOL    HW233414   5.746   6.374   4.241
10839SOL     OW33415   4.694   3.049   0.818
10839SOL    HW133416   4.719   2.994   0.738
10839SOL    HW233417   4.641   2.992   0.881
10840SOL     OW33418   3.716   0.250   2.695
10840SOL    HW133419   3.744   0.299   2.613
10840SOL    HW233420   3.673   0.163   2.669
10841SOL     OW33421   6.030   4.865   5.054
10841SOL    HW133422   6.091   4.806   5.002
10841SOL    HW233423   6.022   4.954   5.009
10842SOL     OW33424   4.818   2.282   1.493
10842SOL    HW133425   4.797   2.378   1.474
10842SOL    HW233426   4.741   2.225   1.464
10843SOL     OW33427   2.196   1.287   1.130
10843SOL    HW133428   2.182   1.342   1.048
10843SOL    HW233429   2.178   1.191   1.109
10844SOL     OW33430   6.904   4.683   3.693
10844SOL    HW133431   6.889   4.607   3.757
10844SOL    HW233432   6.828   4.687   3.628
10845SOL     OW33433   4.363   6.056   4.999
10845SOL    HW133434   4.358   6.044   5.098
10845SOL    HW233435   4.384   5.969   4.955
10846SOL     OW33436   5.658   0.033   6.967
10846SOL    HW133437   5.639   0.129   6.950
10846SOL    HW233438   5.726   0.000   6.900
10847SOL     OW33439   3.382   1.774   0.179
10847SOL    HW133440   3.294   1.794   0.223
10847SOL    HW233441   3.407   1.680   0.198
10848SOL     OW33442   0.619   3.685   1.052
10848SOL    HW133443   0.642   3.744   1.129
10848SOL    HW233444   0.525   3.702   1.024
10849SOL     OW33445   2.606   4.595   4.057
10849SOL    HW133446   2.512   4.592   4.092
10849SOL    HW233447   2.669   4.565   4.129
10850SOL     OW33448   4.250   6.349   0.336
10850SOL    HW133449   4.190   6.351   0.416
10850SOL    HW233450   4.200   6.312   0.258
10851SOL     OW33451   3.206   3.949   0.874
10851SOL    HW133452   3.284   4.005   0.848
10851SOL    HW233453   3.157   3.920   0.792
10852SOL     OW33454   2.123   1.567   6.846
10852SOL    HW133455   2.132   1.635   6.919
10852SOL    HW233456   2.202   1.572   6.786
10853SOL     OW33457   2.628   3.486   6.071
10853SOL    HW133458   2.584   3.521   5.989
10853SOL    HW233459   2.727   3.491   6.061
10854SOL     OW33460   4.481   5.136   5.285
10854SOL    HW133461   4.495   5.159   5.382
10854SOL    HW233462   4.520   5.209   5.229
10855SOL     OW33463   4.010   0.693   0.771
10855SOL    HW133464   4.025   0.701   0.870
10855SOL    HW233465   3.954   0.770   0.740
10856SOL     OW33466   6.854   1.387   6.633
10856SOL    HW133467   6.809   1.462   6.681
10856SOL    HW233468   6.950   1.411   6.617
10857SOL     OW33469   0.429   2.291   3.049
10857SOL    HW133470   0.372   2.257   2.974
10857SOL    HW233471   0.460   2.384   3.028
10858SOL     OW33472   1.484   0.047   0.769
10858SOL    HW133473   1.498   0.047   0.868
10858SOL    HW233474   1.398   7.023   0.748
10859SOL     OW33475   6.561   4.412   4.755
10859SOL    HW133476   6.616   4.443   4.832
10859SOL    HW233477   6.616   4.350   4.698
10860SOL     OW33478   0.250   3.111   4.210
10860SOL    HW133479   0.216   3.184   4.268
10860SOL    HW233480   0.350   3.109   4.213
10861SOL     OW33481   3.228   2.951   2.839
10861SOL    HW133482   3.199   2.938   2.744
10861SOL    HW233483   3.203   3.044   2.868
10862SOL     OW33484   2.224   0.971   5.484
10862SOL    HW133485   2.205   1.007   5.393
10862SOL    HW233486   2.154   1.002   5.548
10863SOL     OW33487   2.066   0.664   4.744
10863SOL    HW133488   2.022   0.718   4.815
10863SOL    HW233489   2.059   0.567   4.766
10864SOL     OW33490   3.075   6.523   0.799
10864SOL    HW133491   3.058   6.606   0.850
10864SOL    HW233492   2.999   6.459   0.813
10865SOL     OW33493   6.928   1.594   0.171
10865SOL    HW133494   6.930   1.692   0.151
10865SOL    HW233495   6.929   1.580   0.270
10866SOL     OW33496   5.811   5.061   0.224
10866SOL    HW133497   5.741   5.089   0.291
10866SOL    HW233498   5.817   4.961   0.221
10867SOL     OW33499   2.986   4.380   0.195
10867SOL    HW133500   2.911   4.376   0.261
10867SOL    HW233501   2.951   4.354   0.104
10868SOL     OW33502   5.150   1.606   3.685
10868SOL    HW133503   5.212   1.583   3.610
10868SOL    HW233504   5.113   1.698   3.672
10869NA      NA33505   6.386   2.726   5.663
10870NA      NA33506   4.528   4.595   5.145
10871NA      NA33507   1.840   3.049   1.772
10872NA      NA33508   4.925   3.948   5.248
10873NA      NA33509   4.039   2.227   5.070
10874NA      NA33510   3.695   4.856   1.777
10875NA      NA33511   6.805   5.161   6.210
10876NA      NA33512   3.323   3.301   4.660
10877NA      NA33513   4.665   6.107   0.050
10878NA      NA33514   3.915   6.460   5.533
10879NA      NA33515   6.544   5.070   2.707
10880NA      NA33516   2.422   0.279   3.519
10881NA      NA33517   4.356   5.313   1.870
10882NA      NA33518   3.986   3.532   2.291
   7.02324   7.02324   7.02324
