Generated by trjconv : CNT in water t=  76.00000
33518
    1C        C    1   2.843   2.769   4.746
    1C        C    2   2.896   2.712   4.864
    1C        C    3   2.841   2.767   4.980
    1C        C    4   2.848   2.774   4.257
    1C        C    5   2.902   2.729   4.380
    1C        C    6   2.847   2.774   4.502
    1C        C    7   3.015   2.644   4.622
    1C        C    8   2.900   2.726   4.624
    1C        C    9   3.079   2.606   4.742
    1C        C   10   3.011   2.631   4.863
    1C        C   11   3.177   2.488   4.969
    1C        C   12   3.057   2.559   4.974
    1C        C   13   2.847   2.769   3.770
    1C        C   14   2.899   2.724   3.894
    1C        C   15   2.851   2.776   4.016
    1C        C   16   3.017   2.642   4.134
    1C        C   17   2.904   2.725   4.137
    1C        C   18   3.080   2.611   4.256
    1C        C   19   3.017   2.647   4.377
    1C        C   20   3.208   2.556   4.503
    1C        C   21   3.078   2.611   4.500
    1C        C   22   3.279   2.529   4.622
    1C        C   23   3.208   2.545   4.743
    1C        C   24   3.412   2.485   4.864
    1C        C   25   3.269   2.493   4.860
    1C        C   26   3.490   2.484   4.980
    1C        C   27   2.848   2.768   3.281
    1C        C   28   2.903   2.724   3.404
    1C        C   29   2.852   2.771   3.527
    1C        C   30   3.015   2.636   3.647
    1C        C   31   2.901   2.720   3.649
    1C        C   32   3.077   2.603   3.770
    1C        C   33   3.015   2.643   3.890
    1C        C   34   3.206   2.549   4.016
    1C        C   35   3.076   2.603   4.011
    1C        C   36   3.278   2.534   4.137
    1C        C   37   3.209   2.553   4.259
    1C        C   38   3.415   2.504   4.380
    1C        C   39   3.276   2.533   4.381
    1C        C   40   3.487   2.497   4.501
    1C        C   41   3.419   2.510   4.624
    1C        C   42   3.630   2.479   4.741
    1C        C   43   3.488   2.482   4.744
    1C        C   44   3.704   2.484   4.861
    1C        C   45   3.629   2.478   4.979
    1C        C   46   2.838   2.752   2.793
    1C        C   47   2.893   2.706   2.915
    1C        C   48   2.842   2.758   3.035
    1C        C   49   3.013   2.635   3.162
    1C        C   50   2.900   2.720   3.158
    1C        C   51   3.076   2.598   3.283
    1C        C   52   3.013   2.636   3.404
    1C        C   53   3.208   2.552   3.528
    1C        C   54   3.074   2.597   3.525
    1C        C   55   3.276   2.528   3.649
    1C        C   56   3.207   2.549   3.771
    1C        C   57   3.413   2.503   3.895
    1C        C   58   3.274   2.528   3.894
    1C        C   59   3.488   2.498   4.015
    1C        C   60   3.417   2.506   4.136
    1C        C   61   3.628   2.492   4.258
    1C        C   62   3.487   2.497   4.259
    1C        C   63   3.699   2.503   4.379
    1C        C   64   3.628   2.495   4.501
    1C        C   65   3.837   2.538   4.621
    1C        C   66   3.703   2.492   4.621
    1C        C   67   3.904   2.560   4.742
    1C        C   68   3.840   2.524   4.862
    1C        C   69   4.050   2.586   4.977
    1C        C   70   3.923   2.528   4.975
    1C        C   71   2.825   2.735   2.308
    1C        C   72   2.882   2.691   2.429
    1C        C   73   2.833   2.744   2.550
    1C        C   74   3.001   2.617   2.672
    1C        C   75   2.884   2.695   2.672
    1C        C   76   3.070   2.593   2.792
    1C        C   77   3.012   2.630   2.916
    1C        C   78   3.203   2.544   3.036
    1C        C   79   3.072   2.598   3.040
    1C        C   80   3.271   2.526   3.158
    1C        C   81   3.205   2.540   3.282
    1C        C   82   3.412   2.500   3.401
    1C        C   83   3.273   2.527   3.405
    1C        C   84   3.482   2.495   3.523
    1C        C   85   3.415   2.500   3.647
    1C        C   86   3.622   2.505   3.768
    1C        C   87   3.481   2.495   3.772
    1C        C   88   3.695   2.513   3.889
    1C        C   89   3.629   2.505   4.014
    1C        C   90   3.834   2.545   4.134
    1C        C   91   3.699   2.506   4.137
    1C        C   92   3.902   2.570   4.256
    1C        C   93   3.836   2.541   4.377
    1C        C   94   4.029   2.626   4.499
    1C        C   95   3.905   2.558   4.499
    1C        C   96   4.087   2.671   4.619
    1C        C   97   4.032   2.622   4.740
    1C        C   98   4.190   2.765   4.861
    1C        C   99   4.099   2.654   4.861
    1C        C  100   4.212   2.840   4.977
    1C        C  101   2.820   2.727   2.070
    1C        C  102   2.989   2.589   2.188
    1C        C  103   2.878   2.679   2.188
    1C        C  104   3.060   2.573   2.310
    1C        C  105   3.001   2.614   2.431
    1C        C  106   3.197   2.528   2.549
    1C        C  107   3.065   2.577   2.552
    1C        C  108   3.267   2.515   2.671
    1C        C  109   3.202   2.541   2.794
    1C        C  110   3.410   2.495   2.914
    1C        C  111   3.271   2.518   2.915
    1C        C  112   3.480   2.494   3.037
    1C        C  113   3.410   2.502   3.159
    1C        C  114   3.625   2.504   3.277
    1C        C  115   3.484   2.492   3.279
    1C        C  116   3.693   2.509   3.400
    1C        C  117   3.624   2.500   3.522
    1C        C  118   3.828   2.550   3.643
    1C        C  119   3.691   2.515   3.645
    1C        C  120   3.895   2.572   3.766
    1C        C  121   3.832   2.545   3.889
    1C        C  122   4.023   2.637   4.011
    1C        C  123   3.900   2.568   4.011
    1C        C  124   4.085   2.674   4.132
    1C        C  125   4.029   2.632   4.255
    1C        C  126   4.196   2.761   4.375
    1C        C  127   4.087   2.671   4.378
    1C        C  128   4.245   2.812   4.497
    1C        C  129   4.193   2.765   4.619
    1C        C  130   4.321   2.937   4.736
    1C        C  131   4.241   2.820   4.740
    1C        C  132   4.356   2.999   4.858
    1C        C  133   4.286   2.958   4.972
    1C        C  134   3.171   2.463   2.080
    1C        C  135   3.037   2.505   2.082
    1C        C  136   3.259   2.488   2.186
    1C        C  137   3.194   2.525   2.306
    1C        C  138   3.404   2.483   2.425
    1C        C  139   3.265   2.508   2.427
    1C        C  140   3.475   2.476   2.546
    1C        C  141   3.407   2.496   2.668
    1C        C  142   3.618   2.497   2.785
    1C        C  143   3.478   2.486   2.790
    1C        C  144   3.688   2.507   2.908
    1C        C  145   3.621   2.497   3.032
    1C        C  146   3.832   2.535   3.152
    1C        C  147   3.693   2.508   3.153
    1C        C  148   3.897   2.563   3.274
    1C        C  149   3.831   2.543   3.397
    1C        C  150   4.022   2.631   3.518
    1C        C  151   3.894   2.571   3.520
    1C        C  152   4.081   2.670   3.641
    1C        C  153   4.021   2.636   3.764
    1C        C  154   4.188   2.765   3.885
    1C        C  155   4.079   2.675   3.887
    1C        C  156   4.244   2.810   4.007
    1C        C  157   4.195   2.763   4.130
    1C        C  158   4.338   2.918   4.251
    1C        C  159   4.246   2.812   4.253
    1C        C  160   4.375   2.980   4.372
    1C        C  161   4.329   2.926   4.495
    1C        C  162   4.441   3.112   4.612
    1C        C  163   4.369   2.990   4.614
    1C        C  164   4.464   3.180   4.733
    1C        C  165   4.428   3.121   4.856
    1C        C  166   4.503   3.323   4.971
    1C        C  167   4.474   3.187   4.971
    1C        C  168   3.474   2.434   2.068
    1C        C  169   3.397   2.458   2.183
    1C        C  170   3.615   2.468   2.302
    1C        C  171   3.472   2.467   2.303
    1C        C  172   3.688   2.486   2.421
    1C        C  173   3.616   2.486   2.542
    1C        C  174   3.823   2.546   2.664
    1C        C  175   3.686   2.512   2.662
    1C        C  176   3.892   2.568   2.786
    1C        C  177   3.825   2.541   2.907
    1C        C  178   4.021   2.626   3.029
    1C        C  179   3.895   2.562   3.028
    1C        C  180   4.085   2.661   3.150
    1C        C  181   4.022   2.629   3.272
    1C        C  182   4.196   2.748   3.397
    1C        C  183   4.082   2.664   3.395
    1C        C  184   4.247   2.800   3.518
    1C        C  185   4.195   2.753   3.641
    1C        C  186   4.338   2.913   3.760
    1C        C  187   4.245   2.807   3.762
    1C        C  188   4.374   2.974   3.883
    1C        C  189   4.331   2.922   4.007
    1C        C  190   4.451   3.098   4.124
    1C        C  191   4.376   2.978   4.128
    1C        C  192   4.470   3.165   4.247
    1C        C  193   4.438   3.107   4.371
    1C        C  194   4.498   3.316   4.488
    1C        C  195   4.466   3.178   4.490
    1C        C  196   4.516   3.386   4.609
    1C        C  197   4.501   3.318   4.732
    1C        C  198   4.550   3.533   4.848
    1C        C  199   4.522   3.393   4.851
    1C        C  200   4.579   3.618   4.960
    1C        C  201   3.613   2.425   2.066
    1C        C  202   3.823   2.518   2.179
    1C        C  203   3.688   2.470   2.180
    1C        C  204   3.894   2.540   2.299
    1C        C  205   3.825   2.519   2.421
    1C        C  206   4.019   2.615   2.540
    1C        C  207   3.891   2.554   2.541
    1C        C  208   4.083   2.654   2.660
    1C        C  209   4.021   2.626   2.784
    1C        C  210   4.195   2.746   2.904
    1C        C  211   4.080   2.663   2.906
    1C        C  212   4.250   2.791   3.026
    1C        C  213   4.198   2.745   3.149
    1C        C  214   4.333   2.905   3.269
    1C        C  215   4.245   2.794   3.273
    1C        C  216   4.375   2.963   3.390
    1C        C  217   4.339   2.907   3.515
    1C        C  218   4.435   3.097   3.635
    1C        C  219   4.379   2.967   3.636
    1C        C  220   4.467   3.164   3.755
    1C        C  221   4.439   3.099   3.877
    1C        C  222   4.496   3.301   4.001
    1C        C  223   4.469   3.162   4.000
    1C        C  224   4.503   3.375   4.121
    1C        C  225   4.496   3.304   4.243
    1C        C  226   4.517   3.520   4.367
    1C        C  227   4.512   3.379   4.362
    1C        C  228   4.520   3.595   4.487
    1C        C  229   4.533   3.526   4.609
    1C        C  230   4.502   3.741   4.722
    1C        C  231   4.544   3.605   4.725
    1C        C  232   4.497   3.818   4.840
    1C        C  233   4.546   3.753   4.955
    1C        C  234   4.017   2.608   2.060
    1C        C  235   3.892   2.548   2.061
    1C        C  236   4.083   2.647   2.178
    1C        C  237   4.021   2.606   2.298
    1C        C  238   4.198   2.730   2.417
    1C        C  239   4.082   2.647   2.418
    1C        C  240   4.250   2.785   2.536
    1C        C  241   4.195   2.740   2.659
    1C        C  242   4.340   2.896   2.780
    1C        C  243   4.249   2.788   2.780
    1C        C  244   4.379   2.957   2.901
    1C        C  245   4.336   2.904   3.025
    1C        C  246   4.441   3.088   3.145
    1C        C  247   4.375   2.963   3.147
    1C        C  248   4.465   3.155   3.267
    1C        C  249   4.436   3.091   3.389
    1C        C  250   4.500   3.294   3.510
    1C        C  251   4.458   3.160   3.510
    1C        C  252   4.510   3.365   3.632
    1C        C  253   4.500   3.301   3.757
    1C        C  254   4.520   3.512   3.879
    1C        C  255   4.513   3.371   3.880
    1C        C  256   4.513   3.585   4.000
    1C        C  257   4.514   3.516   4.123
    1C        C  258   4.482   3.726   4.237
    1C        C  259   4.511   3.588   4.244
    1C        C  260   4.465   3.798   4.357
    1C        C  261   4.487   3.733   4.481
    1C        C  262   4.427   3.939   4.600
    1C        C  263   4.470   3.805   4.601
    1C        C  264   4.400   4.012   4.718
    1C        C  265   4.436   3.945   4.837
    1C        C  266   4.330   4.135   4.954
    1C        C  267   4.396   4.013   4.953
    1C        C  268   4.258   2.773   2.057
    1C        C  269   4.201   2.725   2.176
    1C        C  270   4.348   2.881   2.295
    1C        C  271   4.255   2.774   2.296
    1C        C  272   4.384   2.949   2.413
    1C        C  273   4.341   2.893   2.536
    1C        C  274   4.453   3.074   2.657
    1C        C  275   4.380   2.953   2.658
    1C        C  276   4.471   3.148   2.776
    1C        C  277   4.443   3.083   2.899
    1C        C  278   4.501   3.287   3.021
    1C        C  279   4.468   3.150   3.021
    1C        C  280   4.507   3.361   3.141
    1C        C  281   4.498   3.293   3.264
    1C        C  282   4.510   3.504   3.390
    1C        C  283   4.508   3.363   3.387
    1C        C  284   4.513   3.577   3.511
    1C        C  285   4.515   3.506   3.633
    1C        C  286   4.491   3.718   3.751
    1C        C  287   4.514   3.579   3.754
    1C        C  288   4.474   3.790   3.872
    1C        C  289   4.483   3.723   3.996
    1C        C  290   4.417   3.929   4.111
    1C        C  291   4.466   3.796   4.115
    1C        C  292   4.391   3.993   4.234
    1C        C  293   4.421   3.932   4.358
    1C        C  294   4.321   4.123   4.475
    1C        C  295   4.395   4.003   4.478
    1C        C  296   4.278   4.184   4.595
    1C        C  297   4.320   4.130   4.718
    1C        C  298   4.197   4.312   4.835
    1C        C  299   4.278   4.194   4.838
    1C        C  300   4.172   4.401   4.943
    1C        C  301   4.348   2.879   2.062
    1C        C  302   4.474   3.064   2.173
    1C        C  303   4.398   2.943   2.176
    1C        C  304   4.482   3.137   2.295
    1C        C  305   4.454   3.072   2.417
    1C        C  306   4.505   3.281   2.534
    1C        C  307   4.482   3.141   2.536
    1C        C  308   4.519   3.353   2.654
    1C        C  309   4.501   3.286   2.777
    1C        C  310   4.514   3.498   2.898
    1C        C  311   4.513   3.357   2.898
    1C        C  312   4.509   3.572   3.019
    1C        C  313   4.508   3.503   3.142
    1C        C  314   4.480   3.710   3.261
    1C        C  315   4.501   3.571   3.265
    1C        C  316   4.467   3.781   3.383
    1C        C  317   4.485   3.715   3.507
    1C        C  318   4.420   3.918   3.625
    1C        C  319   4.465   3.784   3.629
    1C        C  320   4.391   3.985   3.745
    1C        C  321   4.421   3.921   3.868
    1C        C  322   4.316   4.110   3.989
    1C        C  323   4.389   3.990   3.987
    1C        C  324   4.276   4.170   4.111
    1C        C  325   4.323   4.117   4.233
    1C        C  326   4.185   4.283   4.352
    1C        C  327   4.282   4.181   4.352
    1C        C  328   4.129   4.335   4.471
    1C        C  329   4.183   4.289   4.593
    1C        C  330   4.022   4.433   4.712
    1C        C  331   4.137   4.350   4.711
    1C        C  332   3.968   4.485   4.832
    1C        C  333   4.055   4.479   4.941
    1C        C  334   4.552   3.266   2.059
    1C        C  335   4.536   3.127   2.061
    1C        C  336   4.532   3.347   2.172
    1C        C  337   4.509   3.277   2.292
    1C        C  338   4.516   3.492   2.409
    1C        C  339   4.514   3.351   2.412
    1C        C  340   4.520   3.564   2.531
    1C        C  341   4.521   3.495   2.654
    1C        C  342   4.486   3.705   2.774
    1C        C  343   4.516   3.567   2.775
    1C        C  344   4.469   3.778   2.894
    1C        C  345   4.483   3.711   3.018
    1C        C  346   4.421   3.914   3.136
    1C        C  347   4.465   3.780   3.139
    1C        C  348   4.389   3.978   3.258
    1C        C  349   4.421   3.914   3.380
    1C        C  350   4.313   4.098   3.502
    1C        C  351   4.391   3.980   3.501
    1C        C  352   4.270   4.160   3.622
    1C        C  353   4.314   4.104   3.744
    1C        C  354   4.175   4.265   3.865
    1C        C  355   4.271   4.161   3.865
    1C        C  356   4.121   4.315   3.986
    1C        C  357   4.175   4.268   4.108
    1C        C  358   4.009   4.400   4.227
    1C        C  359   4.127   4.323   4.229
    1C        C  360   3.948   4.440   4.349
    1C        C  361   4.011   4.413   4.472
    1C        C  362   3.826   4.522   4.588
    1C        C  363   3.955   4.463   4.592
    1C        C  364   3.760   4.546   4.711
    1C        C  365   3.837   4.538   4.828
    1C        C  366   3.631   4.598   4.946
    1C        C  367   3.768   4.578   4.944
    1C        C  368   4.510   3.562   2.047
    1C        C  369   4.522   3.488   2.166
    1C        C  370   4.500   3.702   2.286
    1C        C  371   4.517   3.562   2.286
    1C        C  372   4.479   3.774   2.406
    1C        C  373   4.494   3.703   2.526
    1C        C  374   4.416   3.899   2.645
    1C        C  375   4.469   3.768   2.649
    1C        C  376   4.383   3.966   2.765
    1C        C  377   4.417   3.909   2.889
    1C        C  378   4.316   4.093   3.009
    1C        C  379   4.394   3.976   3.012
    1C        C  380   4.269   4.150   3.130
    1C        C  381   4.309   4.094   3.254
    1C        C  382   4.175   4.255   3.375
    1C        C  383   4.269   4.150   3.378
    1C        C  384   4.118   4.305   3.494
    1C        C  385   4.171   4.261   3.617
    1C        C  386   4.010   4.392   3.740
    1C        C  387   4.124   4.309   3.741
    1C        C  388   3.945   4.427   3.860
    1C        C  389   4.007   4.397   3.983
    1C        C  390   3.818   4.492   4.106
    1C        C  391   3.948   4.438   4.106
    1C        C  392   3.752   4.522   4.227
    1C        C  393   3.821   4.503   4.349
    1C        C  394   3.613   4.554   4.470
    1C        C  395   3.753   4.535   4.468
    1C        C  396   3.544   4.561   4.593
    1C        C  397   3.620   4.564   4.711
    1C        C  398   3.412   4.547   4.837
    1C        C  399   3.550   4.575   4.834
    1C        C  400   3.343   4.509   4.953
    1C        C  401   4.493   3.700   2.048
    1C        C  402   4.446   3.910   2.163
    1C        C  403   4.489   3.776   2.166
    1C        C  404   4.407   3.973   2.284
    1C        C  405   4.428   3.906   2.406
    1C        C  406   4.318   4.091   2.523
    1C        C  407   4.391   3.971   2.526
    1C        C  408   4.273   4.150   2.643
    1C        C  409   4.311   4.089   2.765
    1C        C  410   4.172   4.248   2.885
    1C        C  411   4.271   4.147   2.887
    1C        C  412   4.124   4.300   3.007
    1C        C  413   4.175   4.255   3.131
    1C        C  414   4.001   4.376   3.252
    1C        C  415   4.120   4.301   3.253
    1C        C  416   3.941   4.416   3.373
    1C        C  417   4.002   4.387   3.497
    1C        C  418   3.817   4.485   3.617
    1C        C  419   3.946   4.428   3.619
    1C        C  420   3.748   4.505   3.739
    1C        C  421   3.815   4.483   3.862
    1C        C  422   3.610   4.538   3.984
    1C        C  423   3.748   4.506   3.984
    1C        C  424   3.540   4.539   4.107
    1C        C  425   3.611   4.537   4.229
    1C        C  426   3.400   4.548   4.352
    1C        C  427   3.540   4.560   4.349
    1C        C  428   3.330   4.543   4.475
    1C        C  429   3.402   4.556   4.595
    1C        C  430   3.196   4.514   4.719
    1C        C  431   3.336   4.541   4.719
    1C        C  432   3.124   4.488   4.839
    1C        C  433   3.204   4.494   4.954
    1C        C  434   4.383   4.122   2.048
    1C        C  435   4.437   3.993   2.050
    1C        C  436   4.302   4.160   2.160
    1C        C  437   4.333   4.094   2.283
    1C        C  438   4.178   4.250   2.397
    1C        C  439   4.276   4.148   2.401
    1C        C  440   4.123   4.297   2.518
    1C        C  441   4.175   4.252   2.641
    1C        C  442   4.002   4.375   2.765
    1C        C  443   4.121   4.298   2.763
    1C        C  444   3.942   4.412   2.887
    1C        C  445   4.006   4.378   3.008
    1C        C  446   3.812   4.469   3.129
    1C        C  447   3.943   4.415   3.129
    1C        C  448   3.745   4.493   3.251
    1C        C  449   3.811   4.473   3.374
    1C        C  450   3.606   4.523   3.496
    1C        C  451   3.745   4.499   3.496
    1C        C  452   3.538   4.533   3.620
    1C        C  453   3.610   4.533   3.741
    1C        C  454   3.398   4.537   3.862
    1C        C  455   3.539   4.545   3.863
    1C        C  456   3.329   4.525   3.985
    1C        C  457   3.399   4.534   4.107
    1C        C  458   3.193   4.498   4.232
    1C        C  459   3.330   4.532   4.230
    1C        C  460   3.129   4.478   4.356
    1C        C  461   3.192   4.510   4.478
    1C        C  462   2.996   4.429   4.602
    1C        C  463   3.125   4.487   4.600
    1C        C  464   2.929   4.398   4.723
    1C        C  465   2.991   4.435   4.845
    1C        C  466   2.799   4.337   4.955
    1C        C  467   2.909   4.423   4.962
    1C        C  468   4.124   4.284   2.043
    1C        C  469   4.193   4.252   2.160
    1C        C  470   4.005   4.375   2.274
    1C        C  471   4.128   4.303   2.276
    1C        C  472   3.942   4.404   2.397
    1C        C  473   4.004   4.374   2.520
    1C        C  474   3.810   4.462   2.641
    1C        C  475   3.939   4.404   2.642
    1C        C  476   3.742   4.489   2.762
    1C        C  477   3.812   4.467   2.883
    1C        C  478   3.606   4.513   3.008
    1C        C  479   3.745   4.486   3.006
    1C        C  480   3.534   4.522   3.129
    1C        C  481   3.607   4.520   3.250
    1C        C  482   3.396   4.533   3.374
    1C        C  483   3.538   4.532   3.373
    1C        C  484   3.324   4.530   3.495
    1C        C  485   3.396   4.538   3.617
    1C        C  486   3.191   4.493   3.740
    1C        C  487   3.328   4.531   3.740
    1C        C  488   3.124   4.471   3.863
    1C        C  489   3.190   4.498   3.985
    1C        C  490   3.003   4.409   4.113
    1C        C  491   3.126   4.478   4.109
    1C        C  492   2.945   4.373   4.237
    1C        C  493   3.003   4.415   4.359
    1C        C  494   2.832   4.291   4.481
    1C        C  495   2.941   4.381   4.481
    1C        C  496   2.770   4.255   4.602
    1C        C  497   2.819   4.308   4.724
    1C        C  498   2.659   4.162   4.843
    1C        C  499   2.752   4.269   4.841
    1C        C  500   2.591   4.111   4.954
    1C        C  501   4.004   4.353   2.038
    1C        C  502   3.814   4.467   2.152
    1C        C  503   3.941   4.406   2.152
    1C        C  504   3.745   4.474   2.275
    1C        C  505   3.810   4.455   2.399
    1C        C  506   3.605   4.517   2.517
    1C        C  507   3.742   4.482   2.519
    1C        C  508   3.533   4.520   2.639
    1C        C  509   3.603   4.512   2.761
    1C        C  510   3.395   4.523   2.883
    1C        C  511   3.536   4.517   2.885
    1C        C  512   3.322   4.520   3.004
    1C        C  513   3.393   4.524   3.127
    1C        C  514   3.190   4.486   3.251
    1C        C  515   3.327   4.523   3.251
    1C        C  516   3.122   4.464   3.372
    1C        C  517   3.188   4.493   3.494
    1C        C  518   3.000   4.404   3.623
    1C        C  519   3.125   4.468   3.618
    1C        C  520   2.941   4.364   3.745
    1C        C  521   3.003   4.398   3.867
    1C        C  522   2.835   4.277   3.994
    1C        C  523   2.942   4.369   3.992
    1C        C  524   2.785   4.229   4.117
    1C        C  525   2.835   4.284   4.237
    1C        C  526   2.692   4.130   4.363
    1C        C  527   2.781   4.240   4.359
    1C        C  528   2.647   4.077   4.486
    1C        C  529   2.684   4.143   4.605
    1C        C  530   2.577   3.959   4.728
    1C        C  531   2.631   4.090   4.725
    1C        C  532   2.534   3.895   4.848
    1C        C  533   2.526   3.987   4.958
    1C        C  534   3.617   4.555   2.041
    1C        C  535   3.747   4.504   2.034
    1C        C  536   3.534   4.533   2.156
    1C        C  537   3.607   4.507   2.275
    1C        C  538   3.392   4.516   2.397
    1C        C  539   3.533   4.518   2.395
    1C        C  540   3.318   4.506   2.517
    1C        C  541   3.392   4.509   2.637
    1C        C  542   3.185   4.485   2.761
    1C        C  543   3.324   4.509   2.761
    1C        C  544   3.119   4.462   2.883
    1C        C  545   3.187   4.479   3.006
    1C        C  546   2.997   4.391   3.132
    1C        C  547   3.124   4.454   3.130
    1C        C  548   2.937   4.359   3.256
    1C        C  549   2.993   4.407   3.376
    1C        C  550   2.835   4.272   3.504
    1C        C  551   2.937   4.370   3.501
    1C        C  552   2.783   4.224   3.626
    1C        C  553   2.831   4.275   3.748
    1C        C  554   2.689   4.123   3.871
    1C        C  555   2.781   4.230   3.872
    1C        C  556   2.652   4.065   3.995
    1C        C  557   2.695   4.120   4.118
    1C        C  558   2.591   3.941   4.244
    1C        C  559   2.653   4.068   4.242
    1C        C  560   2.560   3.880   4.368
    1C        C  561   2.582   3.952   4.488
    1C        C  562   2.524   3.747   4.614
    1C        C  563   2.555   3.885   4.610
    1C        C  564   2.509   3.676   4.735
    1C        C  565   2.511   3.754   4.853
    1C        C  566   2.529   3.545   4.976
    1C        C  567   2.515   3.683   4.974
    1C        C  568   3.325   4.477   2.036
    1C        C  569   3.394   4.510   2.154
    1C        C  570   3.184   4.465   2.277
    1C        C  571   3.321   4.505   2.275
    1C        C  572   3.112   4.454   2.398
    1C        C  573   3.180   4.477   2.520
    1C        C  574   2.985   4.400   2.646
    1C        C  575   3.112   4.460   2.642
    1C        C  576   2.929   4.356   2.768
    1C        C  577   2.995   4.394   2.888
    1C        C  578   2.828   4.264   3.012
    1C        C  579   2.936   4.355   3.010
    1C        C  580   2.779   4.216   3.135
    1C        C  581   2.832   4.265   3.257
    1C        C  582   2.695   4.112   3.381
    1C        C  583   2.783   4.222   3.382
    1C        C  584   2.655   4.056   3.504
    1C        C  585   2.692   4.116   3.627
    1C        C  586   2.592   3.932   3.753
    1C        C  587   2.652   4.060   3.750
    1C        C  588   2.567   3.869   3.877
    1C        C  589   2.591   3.937   3.999
    1C        C  590   2.525   3.739   4.125
    1C        C  591   2.569   3.873   4.123
    1C        C  592   2.513   3.671   4.249
    1C        C  593   2.525   3.743   4.369
    1C        C  594   2.504   3.535   4.495
    1C        C  595   2.511   3.676   4.493
    1C        C  596   2.512   3.461   4.616
    1C        C  597   2.511   3.533   4.737
    1C        C  598   2.532   3.325   4.862
    1C        C  599   2.523   3.466   4.861
    1C        C  600   2.529   3.243   4.976
    1C        C  601   3.193   4.438   2.037
    1C        C  602   2.982   4.391   2.160
    1C        C  603   3.117   4.438   2.155
    1C        C  604   2.922   4.355   2.284
    1C        C  605   2.984   4.395   2.405
    1C        C  606   2.811   4.270   2.525
    1C        C  607   2.922   4.357   2.526
    1C        C  608   2.764   4.219   2.648
    1C        C  609   2.820   4.267   2.769
    1C        C  610   2.680   4.108   2.891
    1C        C  611   2.775   4.213   2.891
    1C        C  612   2.642   4.051   3.014
    1C        C  613   2.689   4.107   3.135
    1C        C  614   2.585   3.928   3.265
    1C        C  615   2.651   4.053   3.260
    1C        C  616   2.569   3.859   3.387
    1C        C  617   2.595   3.928   3.507
    1C        C  618   2.530   3.730   3.637
    1C        C  619   2.567   3.866   3.631
    1C        C  620   2.515   3.662   3.760
    1C        C  621   2.527   3.734   3.881
    1C        C  622   2.502   3.526   4.008
    1C        C  623   2.510   3.667   4.005
    1C        C  624   2.507   3.458   4.132
    1C        C  625   2.508   3.530   4.253
    1C        C  626   2.535   3.320   4.374
    1C        C  627   2.509   3.459   4.376
    1C        C  628   2.558   3.254   4.497
    1C        C  629   2.537   3.322   4.619
    1C        C  630   2.591   3.117   4.741
    1C        C  631   2.548   3.253   4.741
    1C        C  632   2.616   3.048   4.862
    1C        C  633   2.561   3.107   4.981
    1C        C  634   2.784   4.304   2.051
    1C        C  635   2.896   4.388   2.046
    1C        C  636   2.749   4.227   2.163
    1C        C  637   2.807   4.271   2.283
    1C        C  638   2.673   4.106   2.405
    1C        C  639   2.758   4.219   2.405
    1C        C  640   2.635   4.047   2.528
    1C        C  641   2.679   4.106   2.648
    1C        C  642   2.582   3.917   2.776
    1C        C  643   2.643   4.044   2.770
    1C        C  644   2.558   3.852   2.899
    1C        C  645   2.583   3.923   3.019
    1C        C  646   2.524   3.723   3.149
    1C        C  647   2.558   3.860   3.143
    1C        C  648   2.513   3.653   3.270
    1C        C  649   2.532   3.722   3.392
    1C        C  650   2.509   3.517   3.518
    1C        C  651   2.515   3.658   3.516
    1C        C  652   2.508   3.449   3.642
    1C        C  653   2.506   3.521   3.763
    1C        C  654   2.532   3.315   3.887
    1C        C  655   2.504   3.453   3.887
    1C        C  656   2.551   3.247   4.010
    1C        C  657   2.533   3.319   4.131
    1C        C  658   2.608   3.120   4.256
    1C        C  659   2.554   3.251   4.253
    1C        C  660   2.635   3.058   4.379
    1C        C  661   2.600   3.119   4.502
    1C        C  662   2.706   2.935   4.624
    1C        C  663   2.621   3.048   4.622
    1C        C  664   2.756   2.882   4.745
    1C        C  665   2.699   2.932   4.865
    1C        C  666   2.743   2.865   4.980
    1C        C  667   2.680   4.021   2.049
    1C        C  668   2.688   4.099   2.164
    1C        C  669   2.589   3.908   2.289
    1C        C  670   2.644   4.040   2.284
    1C        C  671   2.558   3.845   2.411
    1C        C  672   2.578   3.918   2.530
    1C        C  673   2.512   3.718   2.658
    1C        C  674   2.552   3.853   2.653
    1C        C  675   2.500   3.648   2.780
    1C        C  676   2.523   3.715   2.902
    1C        C  677   2.503   3.510   3.030
    1C        C  678   2.514   3.651   3.028
    1C        C  679   2.499   3.439   3.152
    1C        C  680   2.495   3.512   3.272
    1C        C  681   2.531   3.306   3.397
    1C        C  682   2.503   3.445   3.396
    1C        C  683   2.549   3.242   3.521
    1C        C  684   2.524   3.308   3.644
    1C        C  685   2.598   3.111   3.769
    1C        C  686   2.546   3.242   3.767
    1C        C  687   2.633   3.051   3.892
    1C        C  688   2.601   3.115   4.013
    1C        C  689   2.710   2.933   4.138
    1C        C  690   2.634   3.051   4.135
    1C        C  691   2.755   2.880   4.261
    1C        C  692   2.710   2.938   4.382
    1C        C  693   2.753   2.880   4.503
    1C        C  694   2.618   3.895   2.052
    1C        C  695   2.524   3.702   2.172
    1C        C  696   2.582   3.831   2.171
    1C        C  697   2.501   3.636   2.295
    1C        C  698   2.515   3.710   2.414
    1C        C  699   2.490   3.504   2.538
    1C        C  700   2.501   3.645   2.538
    1C        C  701   2.500   3.435   2.661
    1C        C  702   2.498   3.506   2.782
    1C        C  703   2.524   3.300   2.910
    1C        C  704   2.505   3.440   2.907
    1C        C  705   2.545   3.230   3.031
    1C        C  706   2.532   3.302   3.152
    1C        C  707   2.602   3.104   3.277
    1C        C  708   2.552   3.236   3.276
    1C        C  709   2.631   3.046   3.402
    1C        C  710   2.603   3.111   3.524
    1C        C  711   2.712   2.932   3.647
    1C        C  712   2.631   3.048   3.647
    1C        C  713   2.757   2.878   3.769
    1C        C  714   2.710   2.932   3.891
    1C        C  715   2.750   2.876   4.015
    1C        C  716   2.440   3.498   2.061
    1C        C  717   2.483   3.632   2.058
    1C        C  718   2.463   3.419   2.178
    1C        C  719   2.478   3.495   2.297
    1C        C  720   2.510   3.288   2.423
    1C        C  721   2.484   3.426   2.420
    1C        C  722   2.529   3.221   2.546
    1C        C  723   2.525   3.296   2.666
    1C        C  724   2.597   3.099   2.788
    1C        C  725   2.541   3.229   2.790
    1C        C  726   2.627   3.036   2.911
    1C        C  727   2.595   3.098   3.034
    1C        C  728   2.707   2.919   3.156
    1C        C  729   2.628   3.036   3.156
    1C        C  730   2.753   2.872   3.282
    1C        C  731   2.707   2.926   3.404
    1C        C  732   2.752   2.871   3.526
    1C        C  733   2.492   3.196   2.069
    1C        C  734   2.488   3.278   2.182
    1C        C  735   2.575   3.082   2.305
    1C        C  736   2.516   3.212   2.305
    1C        C  737   2.617   3.021   2.425
    1C        C  738   2.590   3.094   2.543
    1C        C  739   2.700   2.914   2.666
    1C        C  740   2.623   3.033   2.666
    1C        C  741   2.748   2.860   2.787
    1C        C  742   2.707   2.920   2.909
    1C        C  743   2.749   2.865   3.032
    1C        C  744   2.546   3.067   2.071
    1C        C  745   2.681   2.894   2.182
    1C        C  746   2.604   3.012   2.186
    1C        C  747   2.730   2.840   2.303
    1C        C  748   2.690   2.900   2.424
    1C        C  749   2.736   2.847   2.547
    1C        C  750   2.737   2.839   2.066
    1C        C  751   3.673   2.323   1.976
    1C        O  752   3.669   2.204   2.015
    1C        O  753   3.677   2.340   1.837
    1C        C  754   4.630   3.059   1.968
    1C        O  755   4.612   3.078   1.845
    1C        O  756   4.768   3.062   1.991
    1C        C  757   4.442   4.213   1.948
    1C        O  758   4.530   4.300   1.971
    1C        O  759   4.463   4.161   1.819
    1C        C  760   3.585   4.677   1.964
    1C        O  761   3.628   4.788   2.007
    1C        O  762   3.566   4.669   1.826
    1C        C  763   2.885   4.494   1.943
    1C        O  764   2.873   4.468   1.820
    1C        O  765   2.825   4.618   1.966
    1C        C  766   2.325   3.471   1.972
    1C        O  767   2.358   3.454   1.851
    1C        O  768   2.199   3.531   1.980
    1C        C  769   4.699   3.592   5.043
    1C        O  770   4.699   3.599   5.168
    1C        O  771   4.833   3.611   5.007
    1C        C  772   4.266   4.440   5.050
    1C        O  773   4.243   4.410   5.171
    1C        O  774   4.305   4.574   5.049
    1C        C  775   4.130   2.517   5.081
    1C        O  776   4.193   2.413   5.047
    1C        O  777   4.113   2.549   5.216
    1C        C  778   2.896   4.529   5.064
    1C        O  779   2.810   4.620   5.051
    1C        O  780   2.967   4.517   5.184
    1C        C  781   2.473   3.029   5.071
    1C        O  782   2.348   3.031   5.057
    1C        O  783   2.510   3.034   5.205
    1C        C  784   2.393   4.018   5.014
    1C        O  785   2.300   4.054   4.937
    1C        O  786   2.369   3.994   5.150
    1C        C  787   2.941   2.439   1.992
    1C        O  788   2.953   2.454   1.867
    1C        O  789   2.881   2.317   2.023
    1C        C  790   3.164   2.359   5.042
    1C        O  791   3.169   2.245   4.989
    1C        O  792   3.172   2.344   5.180
    1C        H  793   4.250   3.035   5.036
    1C        H  794   4.147   2.820   5.060
    1C        H  795   4.520   3.133   5.050
    1C        H  796   4.473   3.375   5.060
    1C        H  797   4.530   3.799   5.050
    1C        H  798   4.450   3.988   5.042
    1C        H  799   4.363   4.200   5.033
    1C        H  800   4.033   4.538   5.028
    1C        H  801   3.813   4.573   5.041
    1C        H  802   3.586   4.614   5.042
    1C        H  803   3.388   4.500   5.050
    1C        H  804   3.170   4.446   5.044
    1C        H  805   3.882   2.486   5.065
    1C        H  806   3.679   2.431   5.062
    1C        H  807   2.999   2.562   5.065
    1C        H  808   3.442   2.464   5.073
    1C        H  809   2.902   2.755   5.068
    1C        H  810   2.712   2.906   5.074
    1C        H  811   2.467   3.279   5.056
    1C        H  812   2.549   3.498   5.070
    1C        H  813   2.510   3.737   5.067
    1C        H  814   2.649   4.124   5.044
    1C        H  815   2.785   4.284   5.047
    1C        H  816   2.746   2.902   1.981
    1C        H  817   2.811   2.658   1.988
    1C        H  818   3.200   2.400   1.999
    1C        H  819   3.428   2.446   1.972
    1C        H  820   3.826   2.571   1.979
    1C        H  821   4.080   2.563   1.986
    1C        H  822   4.253   2.720   1.964
    1C        H  823   4.415   2.883   1.979
    1C        H  824   4.606   3.309   1.978
    1C        H  825   4.465   3.509   1.966
    1C        H  826   4.460   3.745   1.957
    1C        H  827   3.786   4.492   1.936
    1C        H  828   3.951   4.360   1.945
    1C        H  829   4.151   4.234   1.952
    1C        H  830   4.455   3.951   1.953
    1C        H  831   2.596   3.848   1.958
    1C        H  832   2.751   4.028   1.969
    1C        H  833   2.743   4.277   1.956
    1C        H  834   3.370   4.505   1.943
    1C        H  835   3.166   4.369   1.960
    1C        H  836   2.508   2.996   2.000
    1C        H  837   2.480   3.242   1.973
    1C        H  838   2.462   3.688   1.969
    2V3OU   H29  839   2.802   3.552   1.151
    2V3OU   C27  840   2.780   3.506   1.251
    2V3OU   H27  841   2.723   3.581   1.313
    2V3OU   H28  842   2.729   3.407   1.244
    2V3OU   O11  843   2.908   3.479   1.309
    2V3OU   C15  844   2.923   3.396   1.418
    2V3OU   C13  845   3.050   3.373   1.474
    2V3OU   C14  846   3.069   3.266   1.562
    2V3OU   C16  847   2.964   3.189   1.611
    2V3OU    H6  848   2.988   3.097   1.667
    2V3OU   C12  849   3.209   3.225   1.588
    2V3OU    O2  850   3.236   3.122   1.654
    2V3OU   C10  851   3.323   3.306   1.543
    2V3OU    C8  852   3.454   3.264   1.559
    2V3OU   O10  853   3.487   3.152   1.629
    2V3OU   H26  854   3.399   3.111   1.631
    2V3OU    C6  855   3.564   3.343   1.512
    2V3OU    C5  856   3.538   3.465   1.451
    2V3OU    C4  857   3.705   3.296   1.517
    2V3OU    H4  858   3.726   3.228   1.605
    2V3OU    H5  859   3.707   3.230   1.426
    2V3OU    C2  860   3.820   3.397   1.503
    2V3OU    O6  861   3.809   3.464   1.628
    2V3OU   H21  862   3.772   3.551   1.608
    2V3OU    C3  863   3.782   3.495   1.392
    2V3OU    H2  864   3.860   3.575   1.387
    2V3OU    H3  865   3.778   3.438   1.295
    2V3OU   C25  866   3.949   3.319   1.478
    2V3OU    O7  867   3.997   3.298   1.367
    2V3OU   C26  868   4.030   3.286   1.603
    2V3OU   H22  869   4.060   3.384   1.649
    2V3OU   H23  870   4.122   3.231   1.573
    2V3OU    O8  871   3.962   3.207   1.698
    2V3OU   H24  872   3.925   3.269   1.763
    2V3OU    C1  873   3.645   3.560   1.408
    2V3OU    H1  874   3.623   3.617   1.313
    2V3OU    O3  875   3.657   3.654   1.515
    2V3OU   C19  876   3.618   3.792   1.510
    2V3OU    H9  877   3.519   3.793   1.456
    2V3OU    O4  878   3.709   3.846   1.416
    2V3OU   C20  879   3.839   3.869   1.470
    2V3OU   H10  880   3.894   3.771   1.481
    2V3OU   C24  881   3.603   3.850   1.650
    2V3OU   H16  882   3.533   3.790   1.713
    2V3OU   H17  883   3.561   3.951   1.623
    2V3OU   C23  884   3.746   3.873   1.700
    2V3OU   H15  885   3.791   3.770   1.719
    2V3OU    N1  886   3.733   3.954   1.820
    2V3OU   H19  887   3.806   3.932   1.885
    2V3OU   H20  888   3.649   3.931   1.869
    2V3OU   C21  889   3.843   3.946   1.602
    2V3OU   H11  890   3.947   3.924   1.641
    2V3OU    O5  891   3.829   4.087   1.611
    2V3OU   H18  892   3.781   4.100   1.694
    2V3OU   C22  893   3.912   3.948   1.362
    2V3OU   H12  894   3.859   4.046   1.350
    2V3OU   H13  895   3.904   3.897   1.263
    2V3OU   H14  896   4.020   3.959   1.387
    2V3OU   C11  897   3.157   3.472   1.452
    2V3OU    O1  898   3.132   3.590   1.421
    2V3OU    C9  899   3.296   3.426   1.473
    2V3OU    C7  900   3.402   3.505   1.429
    2V3OU    O9  901   3.385   3.614   1.347
    2V3OU   H25  902   3.289   3.627   1.342
    2V3OU   C17  903   2.819   3.311   1.462
    2V3OU    H7  904   2.719   3.345   1.437
    2V3OU   C18  905   2.838   3.210   1.556
    2V3OU    H8  906   2.756   3.151   1.599
    3SOL     OW  907   1.557   3.079   0.347
    3SOL    HW1  908   1.612   3.031   0.415
    3SOL    HW2  909   1.530   3.016   0.274
    4SOL     OW  910   6.057   0.260   2.035
    4SOL    HW1  911   6.019   0.348   2.008
    4SOL    HW2  912   6.142   0.275   2.086
    5SOL     OW  913   3.285   2.360   1.187
    5SOL    HW1  914   3.321   2.407   1.268
    5SOL    HW2  915   3.199   2.403   1.160
    6SOL     OW  916   2.678   1.855   1.243
    6SOL    HW1  917   2.595   1.882   1.292
    6SOL    HW2  918   2.661   1.767   1.197
    7SOL     OW  919   6.004   1.369   1.577
    7SOL    HW1  920   6.095   1.364   1.535
    7SOL    HW2  921   6.007   1.429   1.657
    8SOL     OW  922   2.459   0.941   5.165
    8SOL    HW1  923   2.361   0.925   5.178
    8SOL    HW2  924   2.486   1.021   5.219
    9SOL     OW  925   1.347   3.407   5.641
    9SOL    HW1  926   1.269   3.390   5.702
    9SOL    HW2  927   1.429   3.365   5.679
   10SOL     OW  928   0.546   3.504   0.072
   10SOL    HW1  929   0.540   3.513   0.172
   10SOL    HW2  930   0.641   3.487   0.046
   11SOL     OW  931   3.800   6.818   6.913
   11SOL    HW1  932   3.881   6.843   6.966
   11SOL    HW2  933   3.790   6.718   6.915
   12SOL     OW  934   5.414   6.612   2.553
   12SOL    HW1  935   5.382   6.529   2.507
   12SOL    HW2  936   5.424   6.595   2.651
   13SOL     OW  937   2.502   6.602   3.336
   13SOL    HW1  938   2.464   6.518   3.373
   13SOL    HW2  939   2.491   6.676   3.402
   14SOL     OW  940   3.697   6.037   0.970
   14SOL    HW1  941   3.716   5.940   0.953
   14SOL    HW2  942   3.664   6.079   0.886
   15SOL     OW  943   1.440   6.207   6.870
   15SOL    HW1  944   1.351   6.165   6.886
   15SOL    HW2  945   1.505   6.137   6.841
   16SOL     OW  946   6.048   1.931   5.842
   16SOL    HW1  947   6.017   1.935   5.748
   16SOL    HW2  948   6.035   2.020   5.886
   17SOL     OW  949   5.328   6.598   4.727
   17SOL    HW1  950   5.316   6.504   4.695
   17SOL    HW2  951   5.424   6.626   4.715
   18SOL     OW  952   1.530   1.503   6.172
   18SOL    HW1  953   1.604   1.530   6.233
   18SOL    HW2  954   1.505   1.580   6.113
   19SOL     OW  955   1.025   7.017   2.165
   19SOL    HW1  956   0.959   6.942   2.174
   19SOL    HW2  957   1.046   0.013   2.068
   20SOL     OW  958   3.312   1.965   3.958
   20SOL    HW1  959   3.236   2.019   3.922
   20SOL    HW2  960   3.399   2.010   3.934
   21SOL     OW  961   3.054   2.419   1.037
   21SOL    HW1  962   2.966   2.419   0.988
   21SOL    HW2  963   3.109   2.496   1.006
   22SOL     OW  964   1.418   6.712   5.760
   22SOL    HW1  965   1.378   6.634   5.809
   22SOL    HW2  966   1.402   6.702   5.662
   23SOL     OW  967   3.861   6.523   4.393
   23SOL    HW1  968   3.783   6.549   4.451
   23SOL    HW2  969   3.945   6.563   4.431
   24SOL     OW  970   4.283   1.245   5.155
   24SOL    HW1  971   4.204   1.286   5.109
   24SOL    HW2  972   4.367   1.292   5.127
   25SOL     OW  973   3.660   5.566   0.624
   25SOL    HW1  974   3.704   5.569   0.714
   25SOL    HW2  975   3.697   5.491   0.571
   26SOL     OW  976   6.693   1.600   2.276
   26SOL    HW1  977   6.713   1.519   2.330
   26SOL    HW2  978   6.683   1.679   2.337
   27SOL     OW  979   5.775   6.425   2.443
   27SOL    HW1  980   5.775   6.503   2.506
   27SOL    HW2  981   5.779   6.340   2.496
   28SOL     OW  982   4.022   0.509   0.045
   28SOL    HW1  983   3.963   0.429   0.059
   28SOL    HW2  984   4.116   0.479   0.031
   29SOL     OW  985   4.653   2.131   1.668
   29SOL    HW1  986   4.649   2.182   1.754
   29SOL    HW2  987   4.710   2.049   1.680
   30SOL     OW  988   3.662   0.534   4.655
   30SOL    HW1  989   3.701   0.491   4.573
   30SOL    HW2  990   3.667   0.633   4.646
   31SOL     OW  991   0.150   0.408   5.705
   31SOL    HW1  992   0.079   0.451   5.761
   31SOL    HW2  993   0.126   0.418   5.608
   32SOL     OW  994   0.206   1.924   1.359
   32SOL    HW1  995   0.222   1.898   1.264
   32SOL    HW2  996   0.180   1.844   1.412
   33SOL     OW  997   2.195   2.130   6.012
   33SOL    HW1  998   2.282   2.141   5.965
   33SOL    HW2  999   2.205   2.157   6.107
   34SOL     OW 1000   1.314   0.503   4.864
   34SOL    HW1 1001   1.365   0.579   4.824
   34SOL    HW2 1002   1.302   0.519   4.962
   35SOL     OW 1003   4.729   1.680   6.500
   35SOL    HW1 1004   4.726   1.741   6.579
   35SOL    HW2 1005   4.650   1.618   6.503
   36SOL     OW 1006   1.565   2.108   5.657
   36SOL    HW1 1007   1.647   2.051   5.653
   36SOL    HW2 1008   1.585   2.192   5.708
   37SOL     OW 1009   3.201   6.714   1.868
   37SOL    HW1 1010   3.221   6.750   1.960
   37SOL    HW2 1011   3.118   6.657   1.873
   38SOL     OW 1012   6.645   6.296   3.084
   38SOL    HW1 1013   6.705   6.341   3.151
   38SOL    HW2 1014   6.583   6.363   3.044
   39SOL     OW 1015   6.987   3.665   4.854
   39SOL    HW1 1016   7.011   3.624   4.766
   39SOL    HW2 1017   6.928   3.744   4.840
   40SOL     OW 1018   6.846   0.552   1.978
   40SOL    HW1 1019   6.863   0.526   2.073
   40SOL    HW2 1020   6.790   0.482   1.933
   41SOL     OW 1021   1.006   6.926   5.636
   41SOL    HW1 1022   0.915   6.962   5.617
   41SOL    HW2 1023   1.073   6.970   5.576
   42SOL     OW 1024   3.761   0.726   0.364
   42SOL    HW1 1025   3.819   0.645   0.357
   42SOL    HW2 1026   3.814   0.807   0.339
   43SOL     OW 1027   5.559   5.870   5.363
   43SOL    HW1 1028   5.488   5.935   5.389
   43SOL    HW2 1029   5.645   5.895   5.406
   44SOL     OW 1030   0.576   2.730   5.944
   44SOL    HW1 1031   0.503   2.798   5.948
   44SOL    HW2 1032   0.650   2.756   6.007
   45SOL     OW 1033   2.792   0.487   1.974
   45SOL    HW1 1034   2.842   0.551   1.916
   45SOL    HW2 1035   2.856   0.438   2.033
   46SOL     OW 1036   1.763   3.960   4.228
   46SOL    HW1 1037   1.778   4.043   4.281
   46SOL    HW2 1038   1.730   3.887   4.289
   47SOL     OW 1039   6.283   4.850   3.607
   47SOL    HW1 1040   6.251   4.943   3.624
   47SOL    HW2 1041   6.291   4.835   3.508
   48SOL     OW 1042   0.171   2.324   5.148
   48SOL    HW1 1043   0.200   2.337   5.053
   48SOL    HW2 1044   0.115   2.401   5.177
   49SOL     OW 1045   4.846   2.183   1.193
   49SOL    HW1 1046   4.797   2.131   1.123
   49SOL    HW2 1047   4.931   2.136   1.217
   50SOL     OW 1048   6.688   4.007   4.299
   50SOL    HW1 1049   6.772   3.977   4.254
   50SOL    HW2 1050   6.708   4.087   4.356
   51SOL     OW 1051   3.585   5.146   2.952
   51SOL    HW1 1052   3.660   5.208   2.979
   51SOL    HW2 1053   3.499   5.197   2.951
   52SOL     OW 1054   2.032   2.078   1.912
   52SOL    HW1 1055   2.061   2.165   1.951
   52SOL    HW2 1056   1.988   2.022   1.982
   53SOL     OW 1057   5.413   0.007   4.247
   53SOL    HW1 1058   5.428   0.106   4.257
   53SOL    HW2 1059   5.318   7.010   4.217
   54SOL     OW 1060   4.142   5.218   5.863
   54SOL    HW1 1061   4.235   5.232   5.897
   54SOL    HW2 1062   4.106   5.304   5.826
   55SOL     OW 1063   3.851   1.823   0.426
   55SOL    HW1 1064   3.804   1.737   0.404
   55SOL    HW2 1065   3.905   1.853   0.347
   56SOL     OW 1066   1.256   0.164   2.298
   56SOL    HW1 1067   1.322   0.092   2.277
   56SOL    HW2 1068   1.163   0.127   2.289
   57SOL     OW 1069   5.893   0.995   0.212
   57SOL    HW1 1070   5.877   0.921   0.147
   57SOL    HW2 1071   5.902   0.957   0.304
   58SOL     OW 1072   7.002   6.244   0.110
   58SOL    HW1 1073   0.070   6.270   0.152
   58SOL    HW2 1074   6.927   6.260   0.174
   59SOL     OW 1075   1.233   0.324   5.290
   59SOL    HW1 1076   1.243   0.351   5.385
   59SOL    HW2 1077   1.296   0.249   5.269
   60SOL     OW 1078   4.409   6.689   4.951
   60SOL    HW1 1079   4.441   6.681   4.857
   60SOL    HW2 1080   4.325   6.636   4.963
   61SOL     OW 1081   4.637   0.358   4.461
   61SOL    HW1 1082   4.703   0.413   4.409
   61SOL    HW2 1083   4.601   0.412   4.536
   62SOL     OW 1084   1.392   0.597   4.463
   62SOL    HW1 1085   1.445   0.533   4.407
   62SOL    HW2 1086   1.374   0.555   4.552
   63SOL     OW 1087   0.110   2.782   2.975
   63SOL    HW1 1088   0.107   2.850   3.049
   63SOL    HW2 1089   0.204   2.751   2.963
   64SOL     OW 1090   0.325   3.748   5.722
   64SOL    HW1 1091   0.299   3.795   5.807
   64SOL    HW2 1092   0.380   3.810   5.665
   65SOL     OW 1093   6.650   4.593   5.966
   65SOL    HW1 1094   6.685   4.662   5.902
   65SOL    HW2 1095   6.601   4.639   6.040
   66SOL     OW 1096   2.882   0.926   0.531
   66SOL    HW1 1097   2.801   0.984   0.527
   66SOL    HW2 1098   2.931   0.932   0.443
   67SOL     OW 1099   5.310   5.907   4.593
   67SOL    HW1 1100   5.234   5.933   4.533
   67SOL    HW2 1101   5.307   5.808   4.610
   68SOL     OW 1102   5.749   2.155   5.852
   68SOL    HW1 1103   5.840   2.192   5.870
   68SOL    HW2 1104   5.744   2.122   5.758
   69SOL     OW 1105   3.013   3.611   5.958
   69SOL    HW1 1106   3.021   3.620   6.057
   69SOL    HW2 1107   3.093   3.563   5.922
   70SOL     OW 1108   6.971   5.194   1.819
   70SOL    HW1 1109   6.921   5.128   1.875
   70SOL    HW2 1110   7.002   5.270   1.876
   71SOL     OW 1111   1.120   2.432   3.170
   71SOL    HW1 1112   1.148   2.484   3.089
   71SOL    HW2 1113   1.183   2.451   3.245
   72SOL     OW 1114   2.734   5.612   3.962
   72SOL    HW1 1115   2.749   5.610   4.061
   72SOL    HW2 1116   2.644   5.575   3.941
   73SOL     OW 1117   4.332   2.488   0.303
   73SOL    HW1 1118   4.246   2.511   0.348
   73SOL    HW2 1119   4.340   2.538   0.217
   74SOL     OW 1120   5.181   5.872   6.316
   74SOL    HW1 1121   5.166   5.781   6.354
   74SOL    HW2 1122   5.278   5.895   6.320
   75SOL     OW 1123   3.769   5.593   5.697
   75SOL    HW1 1124   3.782   5.653   5.618
   75SOL    HW2 1125   3.703   5.635   5.760
   76SOL     OW 1126   2.533   2.874   1.710
   76SOL    HW1 1127   2.538   2.941   1.636
   76SOL    HW2 1128   2.624   2.841   1.732
   77SOL     OW 1129   5.681   5.420   6.458
   77SOL    HW1 1130   5.749   5.359   6.418
   77SOL    HW2 1131   5.608   5.437   6.392
   78SOL     OW 1132   6.362   6.615   5.866
   78SOL    HW1 1133   6.363   6.656   5.958
   78SOL    HW2 1134   6.440   6.554   5.857
   79SOL     OW 1135   3.223   6.949   0.318
   79SOL    HW1 1136   3.217   6.892   0.236
   79SOL    HW2 1137   3.194   0.023   0.297
   80SOL     OW 1138   0.198   1.088   4.105
   80SOL    HW1 1139   0.204   1.183   4.135
   80SOL    HW2 1140   0.185   1.085   4.006
   81SOL     OW 1141   1.566   0.777   3.120
   81SOL    HW1 1142   1.591   0.874   3.121
   81SOL    HW2 1143   1.600   0.733   3.203
   82SOL     OW 1144   7.015   4.823   5.537
   82SOL    HW1 1145   0.092   4.801   5.517
   82SOL    HW2 1146   7.009   4.876   5.621
   83SOL     OW 1147   0.151   6.800   0.478
   83SOL    HW1 1148   0.151   6.898   0.457
   83SOL    HW2 1149   0.243   6.763   0.466
   84SOL     OW 1150   5.548   3.871   1.796
   84SOL    HW1 1151   5.621   3.921   1.844
   84SOL    HW2 1152   5.575   3.776   1.786
   85SOL     OW 1153   0.910   2.846   4.878
   85SOL    HW1 1154   0.883   2.892   4.794
   85SOL    HW2 1155   0.840   2.781   4.905
   86SOL     OW 1156   0.580   0.768   6.110
   86SOL    HW1 1157   0.527   0.684   6.122
   86SOL    HW2 1158   0.677   0.747   6.111
   87SOL     OW 1159   4.081   1.231   0.689
   87SOL    HW1 1160   4.082   1.329   0.706
   87SOL    HW2 1161   4.000   1.207   0.634
   88SOL     OW 1162   5.174   1.157   0.666
   88SOL    HW1 1163   5.107   1.229   0.650
   88SOL    HW2 1164   5.151   1.107   0.750
   89SOL     OW 1165   1.482   2.700   6.031
   89SOL    HW1 1166   1.423   2.781   6.040
   89SOL    HW2 1167   1.578   2.729   6.031
   90SOL     OW 1168   5.696   6.192   3.849
   90SOL    HW1 1169   5.681   6.246   3.766
   90SOL    HW2 1170   5.617   6.132   3.864
   91SOL     OW 1171   4.623   4.470   4.975
   91SOL    HW1 1172   4.722   4.461   4.989
   91SOL    HW2 1173   4.597   4.427   4.889
   92SOL     OW 1174   3.605   5.138   1.822
   92SOL    HW1 1175   3.535   5.066   1.816
   92SOL    HW2 1176   3.563   5.227   1.804
   93SOL     OW 1177   3.275   5.437   5.854
   93SOL    HW1 1178   3.304   5.528   5.824
   93SOL    HW2 1179   3.354   5.376   5.853
   94SOL     OW 1180   3.067   5.791   0.673
   94SOL    HW1 1181   2.979   5.797   0.626
   94SOL    HW2 1182   3.141   5.799   0.606
   95SOL     OW 1183   0.361   0.260   4.551
   95SOL    HW1 1184   0.310   0.175   4.559
   95SOL    HW2 1185   0.370   0.302   4.642
   96SOL     OW 1186   2.163   0.045   5.458
   96SOL    HW1 1187   2.169   0.052   5.359
   96SOL    HW2 1188   2.186   0.133   5.499
   97SOL     OW 1189   6.012   3.128   4.798
   97SOL    HW1 1190   6.046   3.206   4.747
   97SOL    HW2 1191   5.920   3.104   4.766
   98SOL     OW 1192   5.728   2.470   5.736
   98SOL    HW1 1193   5.793   2.514   5.799
   98SOL    HW2 1194   5.747   2.501   5.643
   99SOL     OW 1195   4.447   1.930   1.045
   99SOL    HW1 1196   4.379   1.889   1.107
   99SOL    HW2 1197   4.464   2.025   1.073
  100SOL     OW 1198   0.258   5.345   6.734
  100SOL    HW1 1199   0.337   5.400   6.760
  100SOL    HW2 1200   0.250   5.266   6.795
  101SOL     OW 1201   1.883   6.483   3.823
  101SOL    HW1 1202   1.889   6.392   3.863
  101SOL    HW2 1203   1.788   6.513   3.823
  102SOL     OW 1204   4.605   0.230   3.906
  102SOL    HW1 1205   4.608   0.195   3.813
  102SOL    HW2 1206   4.522   0.284   3.919
  103SOL     OW 1207   3.767   1.833   1.329
  103SOL    HW1 1208   3.818   1.891   1.266
  103SOL    HW2 1209   3.794   1.854   1.423
  104SOL     OW 1210   0.200   5.833   2.528
  104SOL    HW1 1211   0.221   5.766   2.599
  104SOL    HW2 1212   0.283   5.854   2.476
  105SOL     OW 1213   5.136   0.948   6.168
  105SOL    HW1 1214   5.210   0.932   6.234
  105SOL    HW2 1215   5.057   0.988   6.214
  106SOL     OW 1216   2.739   6.583   6.475
  106SOL    HW1 1217   2.698   6.583   6.566
  106SOL    HW2 1218   2.824   6.530   6.477
  107SOL     OW 1219   2.524   2.964   0.735
  107SOL    HW1 1220   2.554   2.927   0.822
  107SOL    HW2 1221   2.424   2.957   0.728
  108SOL     OW 1222   4.973   4.373   5.572
  108SOL    HW1 1223   4.952   4.439   5.644
  108SOL    HW2 1224   5.072   4.357   5.570
  109SOL     OW 1225   6.582   0.641   1.090
  109SOL    HW1 1226   6.576   0.565   1.025
  109SOL    HW2 1227   6.657   0.702   1.064
  110SOL     OW 1228   3.962   5.985   4.957
  110SOL    HW1 1229   3.933   5.928   4.880
  110SOL    HW2 1230   4.040   5.943   5.003
  111SOL     OW 1231   3.680   1.099   3.434
  111SOL    HW1 1232   3.623   1.160   3.378
  111SOL    HW2 1233   3.690   1.011   3.388
  112SOL     OW 1234   6.871   6.735   5.907
  112SOL    HW1 1235   6.937   6.697   5.970
  112SOL    HW2 1236   6.916   6.799   5.845
  113SOL     OW 1237   0.175   5.267   3.195
  113SOL    HW1 1238   0.158   5.257   3.097
  113SOL    HW2 1239   0.180   5.176   3.238
  114SOL     OW 1240   0.698   0.028   0.048
  114SOL    HW1 1241   0.748   0.115   0.045
  114SOL    HW2 1242   0.610   0.040   0.003
  115SOL     OW 1243   5.400   1.306   4.661
  115SOL    HW1 1244   5.437   1.256   4.739
  115SOL    HW2 1245   5.333   1.373   4.693
  116SOL     OW 1246   6.259   4.422   2.130
  116SOL    HW1 1247   6.222   4.468   2.050
  116SOL    HW2 1248   6.216   4.460   2.213
  117SOL     OW 1249   1.524   6.896   6.305
  117SOL    HW1 1250   1.517   6.856   6.213
  117SOL    HW2 1251   1.592   6.845   6.358
  118SOL     OW 1252   0.545   0.203   2.388
  118SOL    HW1 1253   0.607   0.141   2.435
  118SOL    HW2 1254   0.583   0.226   2.299
  119SOL     OW 1255   6.692   2.853   6.093
  119SOL    HW1 1256   6.690   2.856   6.193
  119SOL    HW2 1257   6.787   2.849   6.062
  120SOL     OW 1258   6.024   6.496   1.097
  120SOL    HW1 1259   6.024   6.413   1.153
  120SOL    HW2 1260   6.074   6.479   1.012
  121SOL     OW 1261   2.775   3.510   5.822
  121SOL    HW1 1262   2.724   3.445   5.878
  121SOL    HW2 1263   2.862   3.532   5.868
  122SOL     OW 1264   0.947   2.844   4.388
  122SOL    HW1 1265   0.853   2.861   4.356
  122SOL    HW2 1266   1.003   2.925   4.373
  123SOL     OW 1267   0.867   2.173   1.297
  123SOL    HW1 1268   0.951   2.219   1.324
  123SOL    HW2 1269   0.790   2.237   1.304
  124SOL     OW 1270   4.779   3.085   1.115
  124SOL    HW1 1271   4.821   2.997   1.139
  124SOL    HW2 1272   4.817   3.157   1.173
  125SOL     OW 1273   1.810   3.027   1.892
  125SOL    HW1 1274   1.884   2.992   1.949
  125SOL    HW2 1275   1.798   2.966   1.813
  126SOL     OW 1276   3.271   4.987   1.338
  126SOL    HW1 1277   3.190   4.930   1.325
  126SOL    HW2 1278   3.246   5.083   1.325
  127SOL     OW 1279   0.049   6.098   6.413
  127SOL    HW1 1280   0.018   6.164   6.344
  127SOL    HW2 1281   6.990   6.046   6.447
  128SOL     OW 1282   4.710   2.459   1.588
  128SOL    HW1 1283   4.757   2.372   1.570
  128SOL    HW2 1284   4.769   2.518   1.643
  129SOL     OW 1285   2.805   3.764   6.453
  129SOL    HW1 1286   2.768   3.856   6.465
  129SOL    HW2 1287   2.797   3.714   6.539
  130SOL     OW 1288   1.680   1.708   4.390
  130SOL    HW1 1289   1.751   1.728   4.322
  130SOL    HW2 1290   1.641   1.794   4.423
  131SOL     OW 1291   4.770   1.582   3.025
  131SOL    HW1 1292   4.775   1.531   3.111
  131SOL    HW2 1293   4.739   1.675   3.043
  132SOL     OW 1294   1.053   2.734   1.140
  132SOL    HW1 1295   1.019   2.641   1.157
  132SOL    HW2 1296   1.058   2.783   1.227
  133SOL     OW 1297   6.703   5.793   2.407
  133SOL    HW1 1298   6.657   5.710   2.440
  133SOL    HW2 1299   6.688   5.867   2.472
  134SOL     OW 1300   6.938   3.691   2.989
  134SOL    HW1 1301   6.921   3.611   3.046
  134SOL    HW2 1302   6.886   3.684   2.905
  135SOL     OW 1303   4.856   1.715   4.059
  135SOL    HW1 1304   4.883   1.706   4.155
  135SOL    HW2 1305   4.758   1.734   4.054
  136SOL     OW 1306   5.481   4.660   5.391
  136SOL    HW1 1307   5.412   4.593   5.364
  136SOL    HW2 1308   5.572   4.619   5.381
  137SOL     OW 1309   3.547   0.043   5.848
  137SOL    HW1 1310   3.553   0.110   5.774
  137SOL    HW2 1311   3.514   6.975   5.812
  138SOL     OW 1312   0.038   5.325   4.835
  138SOL    HW1 1313   0.128   5.294   4.867
  138SOL    HW2 1314   6.991   5.250   4.842
  139SOL     OW 1315   3.421   4.725   5.492
  139SOL    HW1 1316   3.357   4.667   5.442
  139SOL    HW2 1317   3.490   4.668   5.538
  140SOL     OW 1318   6.109   4.604   4.757
  140SOL    HW1 1319   6.207   4.584   4.767
  140SOL    HW2 1320   6.088   4.624   4.662
  141SOL     OW 1321   1.360   2.361   4.313
  141SOL    HW1 1322   1.283   2.369   4.377
  141SOL    HW2 1323   1.326   2.333   4.223
  142SOL     OW 1324   1.939   5.759   1.156
  142SOL    HW1 1325   1.898   5.815   1.084
  142SOL    HW2 1326   2.037   5.749   1.140
  143SOL     OW 1327   5.855   4.303   1.735
  143SOL    HW1 1328   5.816   4.364   1.803
  143SOL    HW2 1329   5.783   4.243   1.699
  144SOL     OW 1330   2.663   6.913   6.712
  144SOL    HW1 1331   2.639   6.894   6.808
  144SOL    HW2 1332   2.579   6.926   6.659
  145SOL     OW 1333   0.086   5.752   0.306
  145SOL    HW1 1334   0.016   5.712   0.246
  145SOL    HW2 1335   0.050   5.836   0.348
  146SOL     OW 1336   4.875   5.140   1.136
  146SOL    HW1 1337   4.886   5.094   1.224
  146SOL    HW2 1338   4.923   5.088   1.065
  147SOL     OW 1339   6.232   1.997   1.314
  147SOL    HW1 1340   6.166   2.057   1.269
  147SOL    HW2 1341   6.221   1.903   1.280
  148SOL     OW 1342   1.051   5.362   5.523
  148SOL    HW1 1343   1.128   5.298   5.519
  148SOL    HW2 1344   1.084   5.455   5.504
  149SOL     OW 1345   3.242   1.266   4.794
  149SOL    HW1 1346   3.198   1.228   4.875
  149SOL    HW2 1347   3.340   1.277   4.811
  150SOL     OW 1348   0.277   5.150   6.939
  150SOL    HW1 1349   0.192   5.099   6.948
  150SOL    HW2 1350   0.304   5.186   0.010
  151SOL     OW 1351   4.155   1.933   1.709
  151SOL    HW1 1352   4.214   1.986   1.648
  151SOL    HW2 1353   4.061   1.936   1.674
  152SOL     OW 1354   3.206   0.636   4.109
  152SOL    HW1 1355   3.130   0.701   4.117
  152SOL    HW2 1356   3.273   0.672   4.044
  153SOL     OW 1357   1.907   1.533   3.442
  153SOL    HW1 1358   1.853   1.506   3.362
  153SOL    HW2 1359   2.003   1.509   3.427
  154SOL     OW 1360   6.664   2.162   2.307
  154SOL    HW1 1361   6.639   2.083   2.251
  154SOL    HW2 1362   6.736   2.136   2.372
  155SOL     OW 1363   6.803   0.962   2.962
  155SOL    HW1 1364   6.856   1.047   2.969
  155SOL    HW2 1365   6.797   0.936   2.866
  156SOL     OW 1366   6.156   2.277   0.998
  156SOL    HW1 1367   6.254   2.256   0.996
  156SOL    HW2 1368   6.107   2.201   1.040
  157SOL     OW 1369   5.987   3.631   2.554
  157SOL    HW1 1370   6.051   3.706   2.569
  157SOL    HW2 1371   5.969   3.584   2.640
  158SOL     OW 1372   2.097   1.250   2.731
  158SOL    HW1 1373   2.122   1.235   2.827
  158SOL    HW2 1374   2.140   1.335   2.700
  159SOL     OW 1375   4.697   4.398   2.136
  159SOL    HW1 1376   4.670   4.349   2.054
  159SOL    HW2 1377   4.741   4.484   2.109
  160SOL     OW 1378   6.508   4.183   5.766
  160SOL    HW1 1379   6.462   4.269   5.788
  160SOL    HW2 1380   6.445   4.121   5.720
  161SOL     OW 1381   2.291   5.511   4.861
  161SOL    HW1 1382   2.289   5.418   4.898
  161SOL    HW2 1383   2.365   5.518   4.793
  162SOL     OW 1384   4.348   5.534   1.346
  162SOL    HW1 1385   4.396   5.616   1.315
  162SOL    HW2 1386   4.349   5.530   1.446
  163SOL     OW 1387   4.657   0.676   2.719
  163SOL    HW1 1388   4.617   0.763   2.746
  163SOL    HW2 1389   4.600   0.601   2.752
  164SOL     OW 1390   5.994   3.563   0.752
  164SOL    HW1 1391   5.985   3.496   0.678
  164SOL    HW2 1392   5.955   3.650   0.723
  165SOL     OW 1393   5.020   3.257   6.370
  165SOL    HW1 1394   4.987   3.350   6.383
  165SOL    HW2 1395   4.984   3.221   6.283
  166SOL     OW 1396   0.888   0.021   2.699
  166SOL    HW1 1397   0.857   0.010   2.793
  166SOL    HW2 1398   0.809   0.027   2.638
  167SOL     OW 1399   6.056   2.939   0.051
  167SOL    HW1 1400   6.102   2.858   0.087
  167SOL    HW2 1401   6.109   3.021   0.075
  168SOL     OW 1402   2.691   5.571   0.690
  168SOL    HW1 1403   2.749   5.549   0.612
  168SOL    HW2 1404   2.612   5.509   0.691
  169SOL     OW 1405   2.303   6.668   1.846
  169SOL    HW1 1406   2.356   6.583   1.853
  169SOL    HW2 1407   2.271   6.694   1.938
  170SOL     OW 1408   0.400   1.489   3.057
  170SOL    HW1 1409   0.350   1.413   3.098
  170SOL    HW2 1410   0.472   1.519   3.120
  171SOL     OW 1411   3.585   3.645   0.140
  171SOL    HW1 1412   3.549   3.703   0.067
  171SOL    HW2 1413   3.574   3.691   0.228
  172SOL     OW 1414   0.030   2.555   5.215
  172SOL    HW1 1415   7.000   2.529   5.298
  172SOL    HW2 1416   0.009   2.651   5.194
  173SOL     OW 1417   0.130   6.494   5.668
  173SOL    HW1 1418   0.086   6.575   5.627
  173SOL    HW2 1419   0.160   6.516   5.761
  174SOL     OW 1420   2.553   5.283   3.759
  174SOL    HW1 1421   2.529   5.207   3.698
  174SOL    HW2 1422   2.641   5.263   3.803
  175SOL     OW 1423   1.172   5.515   2.955
  175SOL    HW1 1424   1.154   5.431   2.904
  175SOL    HW2 1425   1.244   5.499   3.022
  176SOL     OW 1426   2.350   4.478   0.672
  176SOL    HW1 1427   2.316   4.457   0.764
  176SOL    HW2 1428   2.442   4.441   0.662
  177SOL     OW 1429   4.637   1.904   2.473
  177SOL    HW1 1430   4.627   1.848   2.555
  177SOL    HW2 1431   4.633   1.846   2.392
  178SOL     OW 1432   5.250   5.197   6.759
  178SOL    HW1 1433   5.268   5.195   6.661
  178SOL    HW2 1434   5.290   5.116   6.802
  179SOL     OW 1435   2.957   0.364   0.416
  179SOL    HW1 1436   2.938   0.412   0.330
  179SOL    HW2 1437   2.951   0.429   0.492
  180SOL     OW 1438   0.834   1.934   0.128
  180SOL    HW1 1439   0.844   2.007   0.060
  180SOL    HW2 1440   0.778   1.967   0.204
  181SOL     OW 1441   3.653   3.192   5.602
  181SOL    HW1 1442   3.612   3.221   5.689
  181SOL    HW2 1443   3.625   3.254   5.529
  182SOL     OW 1444   3.991   2.206   4.710
  182SOL    HW1 1445   3.972   2.216   4.808
  182SOL    HW2 1446   3.954   2.119   4.677
  183SOL     OW 1447   4.979   1.175   1.808
  183SOL    HW1 1448   4.929   1.118   1.744
  183SOL    HW2 1449   4.953   1.271   1.796
  184SOL     OW 1450   6.937   4.595   2.962
  184SOL    HW1 1451   7.011   4.564   2.903
  184SOL    HW2 1452   6.973   4.609   3.055
  185SOL     OW 1453   1.852   4.001   6.120
  185SOL    HW1 1454   1.935   4.047   6.089
  185SOL    HW2 1455   1.876   3.918   6.169
  186SOL     OW 1456   5.575   0.103   3.473
  186SOL    HW1 1457   5.587   0.008   3.502
  186SOL    HW2 1458   5.500   0.145   3.525
  187SOL     OW 1459   5.748   1.291   3.995
  187SOL    HW1 1460   5.798   1.300   3.909
  187SOL    HW2 1461   5.790   1.218   4.050
  188SOL     OW 1462   6.319   2.197   3.285
  188SOL    HW1 1463   6.299   2.278   3.230
  188SOL    HW2 1464   6.295   2.215   3.381
  189SOL     OW 1465   2.108   4.600   2.691
  189SOL    HW1 1466   2.113   4.600   2.591
  189SOL    HW2 1467   2.124   4.508   2.725
  190SOL     OW 1468   3.799   1.166   5.883
  190SOL    HW1 1469   3.780   1.198   5.976
  190SOL    HW2 1470   3.720   1.183   5.825
  191SOL     OW 1471   5.496   5.884   6.288
  191SOL    HW1 1472   5.499   5.915   6.383
  191SOL    HW2 1473   5.583   5.843   6.263
  192SOL     OW 1474   6.916   0.805   1.864
  192SOL    HW1 1475   6.871   0.721   1.894
  192SOL    HW2 1476   7.009   0.784   1.833
  193SOL     OW 1477   5.299   3.994   0.067
  193SOL    HW1 1478   5.373   4.016   0.130
  193SOL    HW2 1479   5.330   4.010   6.992
  194SOL     OW 1480   3.759   0.531   3.426
  194SOL    HW1 1481   3.661   0.524   3.444
  194SOL    HW2 1482   3.800   0.597   3.488
  195SOL     OW 1483   0.851   5.948   3.384
  195SOL    HW1 1484   0.756   5.941   3.415
  195SOL    HW2 1485   0.854   5.941   3.285
  196SOL     OW 1486   0.931   2.156   0.406
  196SOL    HW1 1487   0.912   2.058   0.408
  196SOL    HW2 1488   0.847   2.205   0.381
  197SOL     OW 1489   1.759   0.961   0.758
  197SOL    HW1 1490   1.665   0.964   0.793
  197SOL    HW2 1491   1.775   0.873   0.715
  198SOL     OW 1492   3.288   2.174   3.768
  198SOL    HW1 1493   3.276   2.109   3.693
  198SOL    HW2 1494   3.385   2.178   3.792
  199SOL     OW 1495   1.173   2.914   4.134
  199SOL    HW1 1496   1.125   3.000   4.145
  199SOL    HW2 1497   1.110   2.838   4.148
  200SOL     OW 1498   6.804   2.549   0.231
  200SOL    HW1 1499   6.786   2.618   0.301
  200SOL    HW2 1500   6.878   2.581   0.171
  201SOL     OW 1501   0.394   0.844   6.521
  201SOL    HW1 1502   0.484   0.822   6.484
  201SOL    HW2 1503   0.382   0.800   6.610
  202SOL     OW 1504   4.733   6.860   0.081
  202SOL    HW1 1505   4.782   6.887   7.017
  202SOL    HW2 1506   4.751   6.927   0.154
  203SOL     OW 1507   5.663   2.801   5.632
  203SOL    HW1 1508   5.595   2.794   5.704
  203SOL    HW2 1509   5.636   2.870   5.566
  204SOL     OW 1510   6.315   1.200   5.794
  204SOL    HW1 1511   6.269   1.135   5.734
  204SOL    HW2 1512   6.252   1.229   5.866
  205SOL     OW 1513   0.930   2.992   2.307
  205SOL    HW1 1514   0.960   3.087   2.296
  205SOL    HW2 1515   1.004   2.930   2.282
  206SOL     OW 1516   0.698   3.501   0.474
  206SOL    HW1 1517   0.787   3.515   0.431
  206SOL    HW2 1518   0.646   3.586   0.472
  207SOL     OW 1519   5.569   1.863   4.159
  207SOL    HW1 1520   5.575   1.793   4.088
  207SOL    HW2 1521   5.586   1.821   4.248
  208SOL     OW 1522   1.160   4.388   4.392
  208SOL    HW1 1523   1.160   4.290   4.369
  208SOL    HW2 1524   1.183   4.398   4.489
  209SOL     OW 1525   6.227   4.065   2.699
  209SOL    HW1 1526   6.288   3.993   2.730
  209SOL    HW2 1527   6.255   4.097   2.609
  210SOL     OW 1528   4.346   2.609   0.050
  210SOL    HW1 1529   4.435   2.644   0.022
  210SOL    HW2 1530   4.284   2.685   0.070
  211SOL     OW 1531   0.233   1.498   2.653
  211SOL    HW1 1532   0.194   1.578   2.698
  211SOL    HW2 1533   0.317   1.471   2.699
  212SOL     OW 1534   1.984   3.782   2.604
  212SOL    HW1 1535   1.910   3.849   2.596
  212SOL    HW2 1536   1.954   3.707   2.664
  213SOL     OW 1537   1.532   4.641   1.050
  213SOL    HW1 1538   1.529   4.697   0.967
  213SOL    HW2 1539   1.548   4.545   1.025
  214SOL     OW 1540   4.654   6.014   2.305
  214SOL    HW1 1541   4.575   5.963   2.338
  214SOL    HW2 1542   4.642   6.037   2.209
  215SOL     OW 1543   2.541   4.839   2.577
  215SOL    HW1 1544   2.604   4.905   2.616
  215SOL    HW2 1545   2.462   4.828   2.637
  216SOL     OW 1546   1.261   6.780   2.331
  216SOL    HW1 1547   1.272   6.734   2.419
  216SOL    HW2 1548   1.169   6.817   2.324
  217SOL     OW 1549   1.556   4.447   6.399
  217SOL    HW1 1550   1.542   4.544   6.377
  217SOL    HW2 1551   1.616   4.406   6.331
  218SOL     OW 1552   1.282   1.687   4.902
  218SOL    HW1 1553   1.206   1.745   4.871
  218SOL    HW2 1554   1.286   1.605   4.844
  219SOL     OW 1555   4.160   1.746   0.791
  219SOL    HW1 1556   4.148   1.727   0.888
  219SOL    HW2 1557   4.192   1.840   0.779
  220SOL     OW 1558   2.947   6.832   0.620
  220SOL    HW1 1559   3.045   6.838   0.601
  220SOL    HW2 1560   2.898   6.899   0.564
  221SOL     OW 1561   4.801   5.924   1.904
  221SOL    HW1 1562   4.748   5.850   1.944
  221SOL    HW2 1563   4.887   5.887   1.867
  222SOL     OW 1564   2.339   4.476   6.028
  222SOL    HW1 1565   2.343   4.472   5.928
  222SOL    HW2 1566   2.267   4.415   6.061
  223SOL     OW 1567   6.269   3.000   5.102
  223SOL    HW1 1568   6.246   2.965   5.193
  223SOL    HW2 1569   6.361   3.040   5.105
  224SOL     OW 1570   2.216   1.412   6.329
  224SOL    HW1 1571   2.194   1.315   6.346
  224SOL    HW2 1572   2.131   1.464   6.321
  225SOL     OW 1573   4.781   5.180   5.728
  225SOL    HW1 1574   4.747   5.185   5.633
  225SOL    HW2 1575   4.783   5.085   5.757
  226SOL     OW 1576   1.134   2.105   6.653
  226SOL    HW1 1577   1.052   2.052   6.632
  226SOL    HW2 1578   1.107   2.199   6.677
  227SOL     OW 1579   0.882   3.533   1.770
  227SOL    HW1 1580   0.967   3.515   1.820
  227SOL    HW2 1581   0.822   3.454   1.776
  228SOL     OW 1582   1.908   6.527   2.873
  228SOL    HW1 1583   1.927   6.495   2.781
  228SOL    HW2 1584   1.991   6.564   2.913
  229SOL     OW 1585   4.707   5.907   6.206
  229SOL    HW1 1586   4.796   5.946   6.234
  229SOL    HW2 1587   4.692   5.925   6.109
  230SOL     OW 1588   4.773   5.495   4.971
  230SOL    HW1 1589   4.697   5.457   4.919
  230SOL    HW2 1590   4.841   5.423   4.988
  231SOL     OW 1591   5.346   1.349   6.900
  231SOL    HW1 1592   5.380   1.429   6.851
  231SOL    HW2 1593   5.248   1.337   6.879
  232SOL     OW 1594   1.690   2.844   5.470
  232SOL    HW1 1595   1.647   2.866   5.558
  232SOL    HW2 1596   1.676   2.920   5.407
  233SOL     OW 1597   2.852   1.477   3.011
  233SOL    HW1 1598   2.812   1.562   3.045
  233SOL    HW2 1599   2.787   1.402   3.022
  234SOL     OW 1600   4.724   1.157   6.760
  234SOL    HW1 1601   4.758   1.209   6.682
  234SOL    HW2 1602   4.764   1.193   6.845
  235SOL     OW 1603   4.721   2.558   2.966
  235SOL    HW1 1604   4.715   2.600   2.875
  235SOL    HW2 1605   4.651   2.487   2.975
  236SOL     OW 1606   4.591   4.694   6.472
  236SOL    HW1 1607   4.535   4.759   6.524
  236SOL    HW2 1608   4.638   4.742   6.399
  237SOL     OW 1609   6.148   3.738   2.832
  237SOL    HW1 1610   6.100   3.653   2.810
  237SOL    HW2 1611   6.173   3.785   2.747
  238SOL     OW 1612   6.454   1.514   0.932
  238SOL    HW1 1613   6.425   1.514   1.028
  238SOL    HW2 1614   6.549   1.546   0.926
  239SOL     OW 1615   0.964   4.022   0.184
  239SOL    HW1 1616   1.049   3.980   0.153
  239SOL    HW2 1617   0.892   4.005   0.117
  240SOL     OW 1618   5.706   3.258   3.090
  240SOL    HW1 1619   5.761   3.183   3.054
  240SOL    HW2 1620   5.649   3.296   3.017
  241SOL     OW 1621   3.008   1.554   3.952
  241SOL    HW1 1622   2.916   1.594   3.951
  241SOL    HW2 1623   3.066   1.602   3.886
  242SOL     OW 1624   3.618   3.790   3.293
  242SOL    HW1 1625   3.527   3.788   3.250
  242SOL    HW2 1626   3.608   3.785   3.392
  243SOL     OW 1627   4.694   2.381   5.900
  243SOL    HW1 1628   4.761   2.418   5.965
  243SOL    HW2 1629   4.679   2.284   5.920
  244SOL     OW 1630   5.032   3.603   5.177
  244SOL    HW1 1631   5.013   3.528   5.240
  244SOL    HW2 1632   4.961   3.607   5.107
  245SOL     OW 1633   3.246   1.800   2.857
  245SOL    HW1 1634   3.265   1.891   2.896
  245SOL    HW2 1635   3.165   1.805   2.800
  246SOL     OW 1636   6.335   1.380   2.283
  246SOL    HW1 1637   6.359   1.476   2.300
  246SOL    HW2 1638   6.245   1.361   2.322
  247SOL     OW 1639   1.957   1.626   1.366
  247SOL    HW1 1640   1.858   1.633   1.365
  247SOL    HW2 1641   1.988   1.602   1.459
  248SOL     OW 1642   1.596   2.390   2.302
  248SOL    HW1 1643   1.563   2.475   2.261
  248SOL    HW2 1644   1.668   2.351   2.245
  249SOL     OW 1645   5.601   6.381   5.107
  249SOL    HW1 1646   5.535   6.316   5.072
  249SOL    HW2 1647   5.622   6.360   5.203
  250SOL     OW 1648   3.891   2.415   1.282
  250SOL    HW1 1649   3.834   2.438   1.360
  250SOL    HW2 1650   3.880   2.484   1.210
  251SOL     OW 1651   3.811   4.010   5.605
  251SOL    HW1 1652   3.789   3.959   5.688
  251SOL    HW2 1653   3.881   4.079   5.626
  252SOL     OW 1654   6.077   5.913   5.370
  252SOL    HW1 1655   5.995   5.915   5.314
  252SOL    HW2 1656   6.119   5.822   5.364
  253SOL     OW 1657   4.378   5.766   5.868
  253SOL    HW1 1658   4.407   5.786   5.962
  253SOL    HW2 1659   4.439   5.813   5.804
  254SOL     OW 1660   5.748   2.557   4.822
  254SOL    HW1 1661   5.827   2.504   4.794
  254SOL    HW2 1662   5.777   2.643   4.863
  255SOL     OW 1663   1.816   4.922   5.859
  255SOL    HW1 1664   1.844   4.853   5.926
  255SOL    HW2 1665   1.889   4.933   5.791
  256SOL     OW 1666   5.027   2.209   4.838
  256SOL    HW1 1667   4.974   2.271   4.779
  256SOL    HW2 1668   5.104   2.172   4.786
  257SOL     OW 1669   4.986   6.599   2.416
  257SOL    HW1 1670   4.931   6.576   2.336
  257SOL    HW2 1671   5.079   6.620   2.387
  258SOL     OW 1672   2.019   3.629   5.929
  258SOL    HW1 1673   2.091   3.618   5.861
  258SOL    HW2 1674   2.019   3.551   5.991
  259SOL     OW 1675   3.904   0.261   3.960
  259SOL    HW1 1676   3.919   0.326   3.884
  259SOL    HW2 1677   3.847   0.304   4.029
  260SOL     OW 1678   3.703   5.445   3.840
  260SOL    HW1 1679   3.697   5.368   3.777
  260SOL    HW2 1680   3.667   5.418   3.929
  261SOL     OW 1681   4.169   4.583   6.830
  261SOL    HW1 1682   4.115   4.537   6.760
  261SOL    HW2 1683   4.207   4.668   6.793
  262SOL     OW 1684   2.199   3.973   6.769
  262SOL    HW1 1685   2.154   4.024   6.696
  262SOL    HW2 1686   2.170   4.009   6.858
  263SOL     OW 1687   1.134   5.807   3.980
  263SOL    HW1 1688   1.211   5.823   4.041
  263SOL    HW2 1689   1.049   5.828   4.027
  264SOL     OW 1690   0.106   3.544   6.604
  264SOL    HW1 1691   0.123   3.584   6.695
  264SOL    HW2 1692   0.016   3.502   6.603
  265SOL     OW 1693   6.590   6.818   4.419
  265SOL    HW1 1694   6.631   6.735   4.458
  265SOL    HW2 1695   6.509   6.793   4.366
  266SOL     OW 1696   3.815   1.611   5.665
  266SOL    HW1 1697   3.839   1.698   5.621
  266SOL    HW2 1698   3.866   1.537   5.621
  267SOL     OW 1699   1.480   0.985   4.825
  267SOL    HW1 1700   1.519   0.948   4.740
  267SOL    HW2 1701   1.398   1.038   4.803
  268SOL     OW 1702   3.291   1.381   1.264
  268SOL    HW1 1703   3.357   1.345   1.330
  268SOL    HW2 1704   3.219   1.314   1.248
  269SOL     OW 1705   4.270   1.614   0.162
  269SOL    HW1 1706   4.306   1.537   0.215
  269SOL    HW2 1707   4.276   1.698   0.216
  270SOL     OW 1708   6.560   6.912   0.467
  270SOL    HW1 1709   6.568   6.813   0.461
  270SOL    HW2 1710   6.649   6.954   0.449
  271SOL     OW 1711   0.543   2.407   5.939
  271SOL    HW1 1712   0.563   2.446   6.028
  271SOL    HW2 1713   0.578   2.468   5.867
  272SOL     OW 1714   2.439   6.596   3.725
  272SOL    HW1 1715   2.470   6.664   3.658
  272SOL    HW2 1716   2.360   6.548   3.689
  273SOL     OW 1717   1.900   4.875   6.266
  273SOL    HW1 1718   1.899   4.935   6.186
  273SOL    HW2 1719   1.848   4.919   6.340
  274SOL     OW 1720   4.352   1.255   3.878
  274SOL    HW1 1721   4.432   1.238   3.935
  274SOL    HW2 1722   4.295   1.173   3.876
  275SOL     OW 1723   0.066   6.453   2.519
  275SOL    HW1 1724   7.012   6.415   2.462
  275SOL    HW2 1725   0.073   6.401   2.604
  276SOL     OW 1726   0.509   0.630   4.769
  276SOL    HW1 1727   0.555   0.718   4.755
  276SOL    HW2 1728   0.432   0.644   4.831
  277SOL     OW 1729   2.394   3.610   0.478
  277SOL    HW1 1730   2.311   3.614   0.533
  277SOL    HW2 1731   2.374   3.640   0.384
  278SOL     OW 1732   0.188   2.421   2.287
  278SOL    HW1 1733   0.222   2.509   2.321
  278SOL    HW2 1734   0.195   2.353   2.360
  279SOL     OW 1735   5.766   2.331   4.328
  279SOL    HW1 1736   5.781   2.233   4.344
  279SOL    HW2 1737   5.800   2.383   4.406
  280SOL     OW 1738   1.808   4.457   2.032
  280SOL    HW1 1739   1.823   4.437   1.935
  280SOL    HW2 1740   1.837   4.551   2.051
  281SOL     OW 1741   2.143   4.242   0.583
  281SOL    HW1 1742   2.128   4.154   0.537
  281SOL    HW2 1743   2.241   4.260   0.589
  282SOL     OW 1744   3.414   2.498   5.785
  282SOL    HW1 1745   3.331   2.508   5.730
  282SOL    HW2 1746   3.392   2.450   5.870
  283SOL     OW 1747   5.042   3.112   5.737
  283SOL    HW1 1748   5.110   3.185   5.748
  283SOL    HW2 1749   5.034   3.061   5.822
  284SOL     OW 1750   1.043   3.548   4.216
  284SOL    HW1 1751   1.021   3.640   4.247
  284SOL    HW2 1752   0.963   3.490   4.224
  285SOL     OW 1753   5.586   4.431   4.351
  285SOL    HW1 1754   5.523   4.436   4.273
  285SOL    HW2 1755   5.671   4.477   4.328
  286SOL     OW 1756   3.100   3.770   6.541
  286SOL    HW1 1757   3.009   3.742   6.510
  286SOL    HW2 1758   3.124   3.719   6.624
  287SOL     OW 1759   2.105   3.412   6.836
  287SOL    HW1 1760   2.137   3.389   6.928
  287SOL    HW2 1761   2.153   3.494   6.804
  288SOL     OW 1762   4.866   2.617   6.954
  288SOL    HW1 1763   4.929   2.630   6.878
  288SOL    HW2 1764   4.795   2.551   6.929
  289SOL     OW 1765   2.512   5.075   5.957
  289SOL    HW1 1766   2.520   4.976   5.949
  289SOL    HW2 1767   2.415   5.100   5.966
  290SOL     OW 1768   6.952   2.322   5.673
  290SOL    HW1 1769   6.897   2.303   5.592
  290SOL    HW2 1770   6.898   2.372   5.740
  291SOL     OW 1771   6.765   2.064   2.966
  291SOL    HW1 1772   6.754   2.124   2.887
  291SOL    HW2 1773   6.677   2.056   3.013
  292SOL     OW 1774   2.038   6.868   3.932
  292SOL    HW1 1775   2.039   6.902   4.027
  292SOL    HW2 1776   1.960   6.909   3.884
  293SOL     OW 1777   3.752   5.251   3.639
  293SOL    HW1 1778   3.849   5.251   3.615
  293SOL    HW2 1779   3.698   5.258   3.555
  294SOL     OW 1780   4.139   6.693   6.498
  294SOL    HW1 1781   4.070   6.765   6.496
  294SOL    HW2 1782   4.136   6.647   6.587
  295SOL     OW 1783   5.266   0.344   4.287
  295SOL    HW1 1784   5.224   0.260   4.252
  295SOL    HW2 1785   5.363   0.328   4.305
  296SOL     OW 1786   2.406   1.813   3.556
  296SOL    HW1 1787   2.375   1.907   3.567
  296SOL    HW2 1788   2.331   1.750   3.576
  297SOL     OW 1789   1.617   4.504   3.140
  297SOL    HW1 1790   1.592   4.589   3.187
  297SOL    HW2 1791   1.541   4.475   3.082
  298SOL     OW 1792   5.710   5.291   1.216
  298SOL    HW1 1793   5.782   5.225   1.238
  298SOL    HW2 1794   5.621   5.253   1.237
  299SOL     OW 1795   6.361   2.620   5.109
  299SOL    HW1 1796   6.285   2.557   5.128
  299SOL    HW2 1797   6.325   2.706   5.073
  300SOL     OW 1798   6.169   6.998   2.687
  300SOL    HW1 1799   6.137   0.072   2.708
  300SOL    HW2 1800   6.267   7.001   2.667
  301SOL     OW 1801   5.299   4.081   6.202
  301SOL    HW1 1802   5.216   4.038   6.165
  301SOL    HW2 1803   5.369   4.011   6.215
  302SOL     OW 1804   0.906   6.561   3.861
  302SOL    HW1 1805   0.939   6.650   3.831
  302SOL    HW2 1806   0.916   6.495   3.787
  303SOL     OW 1807   5.749   7.010   3.921
  303SOL    HW1 1808   5.754   0.001   3.821
  303SOL    HW2 1809   5.657   6.979   3.946
  304SOL     OW 1810   3.253   0.041   3.172
  304SOL    HW1 1811   3.208   0.077   3.254
  304SOL    HW2 1812   3.223   0.093   3.092
  305SOL     OW 1813   1.298   3.287   1.274
  305SOL    HW1 1814   1.199   3.289   1.283
  305SOL    HW2 1815   1.333   3.381   1.276
  306SOL     OW 1816   2.001   0.570   3.354
  306SOL    HW1 1817   2.070   0.538   3.289
  306SOL    HW2 1818   2.046   0.617   3.430
  307SOL     OW 1819   3.522   0.477   1.191
  307SOL    HW1 1820   3.536   0.573   1.217
  307SOL    HW2 1821   3.581   0.454   1.114
  308SOL     OW 1822   0.484   5.393   4.169
  308SOL    HW1 1823   0.537   5.403   4.254
  308SOL    HW2 1824   0.427   5.311   4.175
  309SOL     OW 1825   4.267   5.421   5.260
  309SOL    HW1 1826   4.251   5.422   5.359
  309SOL    HW2 1827   4.207   5.488   5.216
  310SOL     OW 1828   0.638   6.510   6.340
  310SOL    HW1 1829   0.553   6.491   6.390
  310SOL    HW2 1830   0.629   6.596   6.290
  311SOL     OW 1831   0.586   0.238   1.523
  311SOL    HW1 1832   0.563   0.286   1.607
  311SOL    HW2 1833   0.547   0.146   1.525
  312SOL     OW 1834   3.800   1.767   5.099
  312SOL    HW1 1835   3.712   1.728   5.125
  312SOL    HW2 1836   3.814   1.755   5.001
  313SOL     OW 1837   0.639   4.611   1.552
  313SOL    HW1 1838   0.696   4.676   1.502
  313SOL    HW2 1839   0.667   4.518   1.526
  314SOL     OW 1840   3.692   6.400   1.226
  314SOL    HW1 1841   3.665   6.414   1.130
  314SOL    HW2 1842   3.658   6.312   1.257
  315SOL     OW 1843   1.115   3.014   3.094
  315SOL    HW1 1844   1.073   2.927   3.123
  315SOL    HW2 1845   1.067   3.048   3.014
  316SOL     OW 1846   2.330   2.594   3.786
  316SOL    HW1 1847   2.320   2.640   3.698
  316SOL    HW2 1848   2.427   2.585   3.809
  317SOL     OW 1849   6.541   1.918   0.064
  317SOL    HW1 1850   6.586   1.976   7.015
  317SOL    HW2 1851   6.444   1.907   0.039
  318SOL     OW 1852   2.698   5.232   1.002
  318SOL    HW1 1853   2.776   5.256   0.944
  318SOL    HW2 1854   2.731   5.193   1.088
  319SOL     OW 1855   1.434   6.663   0.770
  319SOL    HW1 1856   1.373   6.710   0.706
  319SOL    HW2 1857   1.450   6.570   0.739
  320SOL     OW 1858   5.243   4.163   0.461
  320SOL    HW1 1859   5.335   4.191   0.434
  320SOL    HW2 1860   5.204   4.105   0.389
  321SOL     OW 1861   2.020   1.322   1.347
  321SOL    HW1 1862   2.035   1.280   1.258
  321SOL    HW2 1863   2.010   1.421   1.337
  322SOL     OW 1864   3.797   2.980   4.810
  322SOL    HW1 1865   3.820   2.924   4.730
  322SOL    HW2 1866   3.877   3.032   4.839
  323SOL     OW 1867   0.303   4.303   2.063
  323SOL    HW1 1868   0.286   4.204   2.061
  323SOL    HW2 1869   0.273   4.343   1.977
  324SOL     OW 1870   0.146   3.024   4.534
  324SOL    HW1 1871   0.219   2.966   4.568
  324SOL    HW2 1872   0.108   3.079   4.609
  325SOL     OW 1873   2.377   2.687   2.665
  325SOL    HW1 1874   2.366   2.737   2.751
  325SOL    HW2 1875   2.454   2.623   2.673
  326SOL     OW 1876   2.097   4.134   6.057
  326SOL    HW1 1877   2.169   4.065   6.066
  326SOL    HW2 1878   2.125   4.218   6.102
  327SOL     OW 1879   5.827   5.511   5.342
  327SOL    HW1 1880   5.825   5.604   5.378
  327SOL    HW2 1881   5.849   5.514   5.244
  328SOL     OW 1882   2.545   5.961   2.130
  328SOL    HW1 1883   2.513   6.005   2.215
  328SOL    HW2 1884   2.643   5.977   2.120
  329SOL     OW 1885   3.472   3.136   2.227
  329SOL    HW1 1886   3.406   3.210   2.237
  329SOL    HW2 1887   3.425   3.048   2.238
  330SOL     OW 1888   3.742   1.000   1.494
  330SOL    HW1 1889   3.830   1.017   1.538
  330SOL    HW2 1890   3.745   0.912   1.447
  331SOL     OW 1891   5.512   4.744   6.301
  331SOL    HW1 1892   5.493   4.821   6.241
  331SOL    HW2 1893   5.429   4.689   6.311
  332SOL     OW 1894   3.883   1.721   3.288
  332SOL    HW1 1895   3.798   1.667   3.286
  332SOL    HW2 1896   3.921   1.720   3.380
  333SOL     OW 1897   3.768   6.110   6.593
  333SOL    HW1 1898   3.699   6.045   6.562
  333SOL    HW2 1899   3.833   6.063   6.653
  334SOL     OW 1900   4.405   6.774   2.548
  334SOL    HW1 1901   4.458   6.691   2.565
  334SOL    HW2 1902   4.425   6.808   2.456
  335SOL     OW 1903   3.627   6.675   3.241
  335SOL    HW1 1904   3.575   6.755   3.210
  335SOL    HW2 1905   3.590   6.593   3.198
  336SOL     OW 1906   3.088   1.236   4.542
  336SOL    HW1 1907   3.158   1.227   4.614
  336SOL    HW2 1908   3.099   1.163   4.475
  337SOL     OW 1909   6.971   3.973   1.319
  337SOL    HW1 1910   6.966   3.976   1.219
  337SOL    HW2 1911   0.046   3.988   1.349
  338SOL     OW 1912   3.620   2.934   1.450
  338SOL    HW1 1913   3.530   2.978   1.453
  338SOL    HW2 1914   3.666   2.958   1.364
  339SOL     OW 1915   4.356   6.833   2.961
  339SOL    HW1 1916   4.343   6.747   2.912
  339SOL    HW2 1917   4.280   6.848   3.025
  340SOL     OW 1918   4.813   4.003   4.133
  340SOL    HW1 1919   4.813   4.021   4.232
  340SOL    HW2 1920   4.783   3.910   4.116
  341SOL     OW 1921   5.620   4.999   5.050
  341SOL    HW1 1922   5.681   4.958   4.982
  341SOL    HW2 1923   5.557   4.930   5.085
  342SOL     OW 1924   6.335   3.718   0.064
  342SOL    HW1 1925   6.271   3.794   0.075
  342SOL    HW2 1926   6.333   3.660   0.145
  343SOL     OW 1927   2.920   0.344   2.889
  343SOL    HW1 1928   2.827   0.308   2.900
  343SOL    HW2 1929   2.944   0.344   2.792
  344SOL     OW 1930   3.354   5.002   0.532
  344SOL    HW1 1931   3.282   4.997   0.600
  344SOL    HW2 1932   3.331   5.072   0.464
  345SOL     OW 1933   0.768   6.630   5.872
  345SOL    HW1 1934   0.865   6.647   5.886
  345SOL    HW2 1935   0.748   6.533   5.883
  346SOL     OW 1936   2.170   0.169   3.924
  346SOL    HW1 1937   2.094   0.220   3.885
  346SOL    HW2 1938   2.185   0.085   3.871
  347SOL     OW 1939   5.252   6.220   6.157
  347SOL    HW1 1940   5.289   6.269   6.236
  347SOL    HW2 1941   5.154   6.239   6.149
  348SOL     OW 1942   3.474   5.832   2.866
  348SOL    HW1 1943   3.405   5.888   2.820
  348SOL    HW2 1944   3.565   5.862   2.838
  349SOL     OW 1945   2.043   4.632   1.891
  349SOL    HW1 1946   1.988   4.658   1.812
  349SOL    HW2 1947   2.127   4.587   1.860
  350SOL     OW 1948   4.866   2.868   1.277
  350SOL    HW1 1949   4.963   2.844   1.278
  350SOL    HW2 1950   4.811   2.785   1.283
  351SOL     OW 1951   3.477   1.705   0.060
  351SOL    HW1 1952   3.466   1.629   0.125
  351SOL    HW2 1953   3.388   1.747   0.044
  352SOL     OW 1954   3.572   1.068   6.828
  352SOL    HW1 1955   3.533   1.159   6.815
  352SOL    HW2 1956   3.593   1.054   6.925
  353SOL     OW 1957   1.983   6.816   0.977
  353SOL    HW1 1958   2.078   6.844   0.991
  353SOL    HW2 1959   1.925   6.855   1.048
  354SOL     OW 1960   4.478   1.421   1.559
  354SOL    HW1 1961   4.407   1.415   1.629
  354SOL    HW2 1962   4.444   1.474   1.481
  355SOL     OW 1963   1.060   1.422   2.324
  355SOL    HW1 1964   1.110   1.351   2.274
  355SOL    HW2 1965   1.032   1.387   2.413
  356SOL     OW 1966   3.981   5.843   3.259
  356SOL    HW1 1967   3.951   5.762   3.310
  356SOL    HW2 1968   4.065   5.879   3.300
  357SOL     OW 1969   0.891   4.821   5.446
  357SOL    HW1 1970   0.962   4.751   5.437
  357SOL    HW2 1971   0.933   4.909   5.468
  358SOL     OW 1972   5.530   1.062   2.098
  358SOL    HW1 1973   5.594   1.104   2.162
  358SOL    HW2 1974   5.437   1.091   2.120
  359SOL     OW 1975   1.622   1.377   2.157
  359SOL    HW1 1976   1.569   1.300   2.120
  359SOL    HW2 1977   1.561   1.438   2.207
  360SOL     OW 1978   4.201   6.284   0.839
  360SOL    HW1 1979   4.127   6.217   0.843
  360SOL    HW2 1980   4.182   6.358   0.904
  361SOL     OW 1981   4.154   0.643   3.581
  361SOL    HW1 1982   4.236   0.682   3.540
  361SOL    HW2 1983   4.179   0.596   3.666
  362SOL     OW 1984   2.713   3.491   0.815
  362SOL    HW1 1985   2.751   3.507   0.724
  362SOL    HW2 1986   2.694   3.393   0.827
  363SOL     OW 1987   4.678   4.688   4.243
  363SOL    HW1 1988   4.582   4.695   4.215
  363SOL    HW2 1989   4.727   4.633   4.176
  364SOL     OW 1990   1.911   5.717   5.847
  364SOL    HW1 1991   1.882   5.625   5.820
  364SOL    HW2 1992   1.839   5.783   5.824
  365SOL     OW 1993   4.586   6.559   2.706
  365SOL    HW1 1994   4.619   6.544   2.613
  365SOL    HW2 1995   4.627   6.492   2.768
  366SOL     OW 1996   5.224   6.488   6.995
  366SOL    HW1 1997   5.185   6.409   6.949
  366SOL    HW2 1998   5.288   6.457   0.047
  367SOL     OW 1999   4.948   2.299   1.575
  367SOL    HW1 2000   4.961   2.213   1.525
  367SOL    HW2 2001   5.036   2.346   1.583
  368SOL     OW 2002   1.596   4.728   5.288
  368SOL    HW1 2003   1.618   4.636   5.254
  368SOL    HW2 2004   1.661   4.794   5.249
  369SOL     OW 2005   0.452   3.625   1.628
  369SOL    HW1 2006   0.354   3.608   1.615
  369SOL    HW2 2007   0.504   3.546   1.593
  370SOL     OW 2008   3.757   1.158   6.363
  370SOL    HW1 2009   3.746   1.244   6.413
  370SOL    HW2 2010   3.833   1.166   6.299
  371SOL     OW 2011   3.853   2.941   6.553
  371SOL    HW1 2012   3.880   2.950   6.458
  371SOL    HW2 2013   3.776   3.003   6.572
  372SOL     OW 2014   1.295   5.343   5.931
  372SOL    HW1 2015   1.360   5.292   5.874
  372SOL    HW2 2016   1.344   5.408   5.989
  373SOL     OW 2017   6.827   7.018   0.404
  373SOL    HW1 2018   6.860   6.987   0.494
  373SOL    HW2 2019   6.893   6.993   0.334
  374SOL     OW 2020   3.941   1.289   0.984
  374SOL    HW1 2021   3.917   1.344   1.064
  374SOL    HW2 2022   3.888   1.204   0.985
  375SOL     OW 2023   6.821   4.282   2.269
  375SOL    HW1 2024   6.739   4.250   2.222
  375SOL    HW2 2025   6.814   4.262   2.367
  376SOL     OW 2026   2.191   2.831   4.444
  376SOL    HW1 2027   2.264   2.773   4.481
  376SOL    HW2 2028   2.185   2.915   4.497
  377SOL     OW 2029   5.143   1.732   4.170
  377SOL    HW1 2030   5.079   1.711   4.244
  377SOL    HW2 2031   5.107   1.808   4.115
  378SOL     OW 2032   4.749   2.680   4.236
  378SOL    HW1 2033   4.834   2.729   4.220
  378SOL    HW2 2034   4.720   2.692   4.331
  379SOL     OW 2035   6.364   3.506   1.551
  379SOL    HW1 2036   6.273   3.541   1.572
  379SOL    HW2 2037   6.394   3.542   1.462
  380SOL     OW 2038   0.927   1.657   0.240
  380SOL    HW1 2039   1.000   1.705   0.191
  380SOL    HW2 2040   0.839   1.676   0.197
  381SOL     OW 2041   2.946   3.921   0.649
  381SOL    HW1 2042   3.002   3.897   0.728
  381SOL    HW2 2043   2.875   3.851   0.636
  382SOL     OW 2044   2.364   5.226   1.209
  382SOL    HW1 2045   2.265   5.235   1.194
  382SOL    HW2 2046   2.397   5.305   1.260
  383SOL     OW 2047   6.408   2.152   6.952
  383SOL    HW1 2048   6.379   2.096   6.874
  383SOL    HW2 2049   6.507   2.142   6.965
  384SOL     OW 2050   1.821   5.827   5.050
  384SOL    HW1 2051   1.778   5.795   4.965
  384SOL    HW2 2052   1.906   5.777   5.065
  385SOL     OW 2053   4.626   5.163   1.380
  385SOL    HW1 2054   4.632   5.224   1.459
  385SOL    HW2 2055   4.618   5.218   1.296
  386SOL     OW 2056   2.940   6.311   5.306
  386SOL    HW1 2057   2.956   6.401   5.264
  386SOL    HW2 2058   2.968   6.239   5.242
  387SOL     OW 2059   6.935   0.448   5.830
  387SOL    HW1 2060   6.971   0.372   5.883
  387SOL    HW2 2061   6.856   0.417   5.777
  388SOL     OW 2062   6.933   2.169   5.245
  388SOL    HW1 2063   0.009   2.170   5.216
  388SOL    HW2 2064   6.880   2.234   5.190
  389SOL     OW 2065   4.622   4.402   1.463
  389SOL    HW1 2066   4.542   4.373   1.515
  389SOL    HW2 2067   4.704   4.359   1.502
  390SOL     OW 2068   4.069   2.385   0.463
  390SOL    HW1 2069   4.066   2.306   0.525
  390SOL    HW2 2070   3.991   2.381   0.400
  391SOL     OW 2071   3.529   3.894   3.804
  391SOL    HW1 2072   3.437   3.877   3.770
  391SOL    HW2 2073   3.535   3.988   3.839
  392SOL     OW 2074   1.375   3.759   1.450
  392SOL    HW1 2075   1.301   3.692   1.448
  392SOL    HW2 2076   1.419   3.764   1.360
  393SOL     OW 2077   1.463   5.005   1.234
  393SOL    HW1 2078   1.553   5.039   1.205
  393SOL    HW2 2079   1.469   4.969   1.327
  394SOL     OW 2080   6.256   1.037   6.390
  394SOL    HW1 2081   6.285   0.948   6.426
  394SOL    HW2 2082   6.294   1.110   6.447
  395SOL     OW 2083   5.859   4.770   0.873
  395SOL    HW1 2084   5.834   4.819   0.956
  395SOL    HW2 2085   5.796   4.794   0.799
  396SOL     OW 2086   1.673   6.747   1.115
  396SOL    HW1 2087   1.630   6.685   1.049
  396SOL    HW2 2088   1.682   6.700   1.203
  397SOL     OW 2089   3.649   2.003   5.227
  397SOL    HW1 2090   3.714   1.927   5.223
  397SOL    HW2 2091   3.695   2.088   5.199
  398SOL     OW 2092   1.340   0.704   3.356
  398SOL    HW1 2093   1.289   0.778   3.313
  398SOL    HW2 2094   1.375   0.641   3.286
  399SOL     OW 2095   5.699   5.825   3.953
  399SOL    HW1 2096   5.682   5.915   3.994
  399SOL    HW2 2097   5.747   5.767   4.018
  400SOL     OW 2098   5.748   6.767   4.258
  400SOL    HW1 2099   5.831   6.738   4.305
  400SOL    HW2 2100   5.685   6.807   4.324
  401SOL     OW 2101   0.457   5.735   5.439
  401SOL    HW1 2102   0.410   5.739   5.351
  401SOL    HW2 2103   0.503   5.647   5.449
  402SOL     OW 2104   5.433   1.777   3.283
  402SOL    HW1 2105   5.441   1.677   3.288
  402SOL    HW2 2106   5.519   1.819   3.313
  403SOL     OW 2107   2.870   1.438   5.357
  403SOL    HW1 2108   2.853   1.471   5.450
  403SOL    HW2 2109   2.806   1.481   5.294
  404SOL     OW 2110   3.542   5.802   3.305
  404SOL    HW1 2111   3.463   5.742   3.290
  404SOL    HW2 2112   3.531   5.886   3.253
  405SOL     OW 2113   2.452   4.951   4.410
  405SOL    HW1 2114   2.540   4.950   4.362
  405SOL    HW2 2115   2.436   5.042   4.448
  406SOL     OW 2116   0.482   6.921   6.116
  406SOL    HW1 2117   0.524   7.001   6.159
  406SOL    HW2 2118   0.547   6.845   6.116
  407SOL     OW 2119   2.151   2.731   3.928
  407SOL    HW1 2120   2.222   2.695   3.869
  407SOL    HW2 2121   2.188   2.747   4.020
  408SOL     OW 2122   1.979   1.937   3.249
  408SOL    HW1 2123   2.034   1.937   3.332
  408SOL    HW2 2124   1.883   1.950   3.274
  409SOL     OW 2125   0.522   2.950   2.164
  409SOL    HW1 2126   0.426   2.952   2.135
  409SOL    HW2 2127   0.563   3.040   2.151
  410SOL     OW 2128   1.626   2.281   1.896
  410SOL    HW1 2129   1.638   2.306   1.801
  410SOL    HW2 2130   1.528   2.283   1.920
  411SOL     OW 2131   0.031   2.106   1.254
  411SOL    HW1 2132   0.101   2.057   1.306
  411SOL    HW2 2133   6.966   2.053   1.252
  412SOL     OW 2134   1.391   4.960   2.707
  412SOL    HW1 2135   1.341   4.999   2.784
  412SOL    HW2 2136   1.487   4.986   2.713
  413SOL     OW 2137   6.120   5.924   1.929
  413SOL    HW1 2138   6.103   5.942   1.832
  413SOL    HW2 2139   6.213   5.952   1.953
  414SOL     OW 2140   1.784   6.799   3.077
  414SOL    HW1 2141   1.807   6.875   3.138
  414SOL    HW2 2142   1.827   6.715   3.112
  415SOL     OW 2143   5.969   1.088   6.628
  415SOL    HW1 2144   5.994   1.014   6.565
  415SOL    HW2 2145   6.052   1.128   6.667
  416SOL     OW 2146   5.480   3.614   5.549
  416SOL    HW1 2147   5.421   3.674   5.496
  416SOL    HW2 2148   5.459   3.519   5.528
  417SOL     OW 2149   1.734   1.991   6.811
  417SOL    HW1 2150   1.809   1.937   6.772
  417SOL    HW2 2151   1.753   2.011   6.907
  418SOL     OW 2152   3.701   0.114   4.672
  418SOL    HW1 2153   3.641   0.156   4.740
  418SOL    HW2 2154   3.797   0.130   4.698
  419SOL     OW 2155   6.679   0.267   0.084
  419SOL    HW1 2156   6.581   0.280   0.071
  419SOL    HW2 2157   6.701   0.276   0.182
  420SOL     OW 2158   3.929   6.800   0.856
  420SOL    HW1 2159   3.935   6.889   0.812
  420SOL    HW2 2160   3.955   6.728   0.791
  421SOL     OW 2161   4.756   4.498   2.441
  421SOL    HW1 2162   4.837   4.488   2.382
  421SOL    HW2 2163   4.718   4.589   2.429
  422SOL     OW 2164   5.207   2.649   1.799
  422SOL    HW1 2165   5.262   2.714   1.746
  422SOL    HW2 2166   5.237   2.556   1.779
  423SOL     OW 2167   2.667   1.112   6.187
  423SOL    HW1 2168   2.627   1.047   6.252
  423SOL    HW2 2169   2.619   1.200   6.195
  424SOL     OW 2170   1.348   3.888   4.101
  424SOL    HW1 2171   1.267   3.831   4.090
  424SOL    HW2 2172   1.320   3.978   4.134
  425SOL     OW 2173   3.721   1.052   0.100
  425SOL    HW1 2174   3.796   1.001   0.057
  425SOL    HW2 2175   3.743   1.149   0.099
  426SOL     OW 2176   2.900   1.800   4.245
  426SOL    HW1 2177   2.803   1.819   4.265
  426SOL    HW2 2178   2.953   1.884   4.257
  427SOL     OW 2179   4.687   1.858   2.966
  427SOL    HW1 2180   4.684   1.807   2.880
  427SOL    HW2 2181   4.597   1.852   3.011
  428SOL     OW 2182   2.983   2.354   6.155
  428SOL    HW1 2183   2.971   2.293   6.233
  428SOL    HW2 2184   2.894   2.386   6.124
  429SOL     OW 2185   6.912   5.791   4.317
  429SOL    HW1 2186   6.824   5.769   4.359
  429SOL    HW2 2187   6.941   5.882   4.346
  430SOL     OW 2188   1.351   6.936   4.548
  430SOL    HW1 2189   1.288   6.877   4.497
  430SOL    HW2 2190   1.445   6.911   4.526
  431SOL     OW 2191   2.652   1.866   1.589
  431SOL    HW1 2192   2.682   1.941   1.530
  431SOL    HW2 2193   2.558   1.841   1.566
  432SOL     OW 2194   4.644   1.920   1.454
  432SOL    HW1 2195   4.609   1.846   1.511
  432SOL    HW2 2196   4.598   2.005   1.478
  433SOL     OW 2197   1.877   4.457   0.804
  433SOL    HW1 2198   1.974   4.444   0.825
  433SOL    HW2 2199   1.855   4.555   0.812
  434SOL     OW 2200   4.611   4.952   3.178
  434SOL    HW1 2201   4.537   4.997   3.128
  434SOL    HW2 2202   4.596   4.962   3.277
  435SOL     OW 2203   4.136   2.949   5.806
  435SOL    HW1 2204   4.091   2.882   5.865
  435SOL    HW2 2205   4.133   2.918   5.711
  436SOL     OW 2206   5.217   6.653   2.244
  436SOL    HW1 2207   5.260   6.613   2.163
  436SOL    HW2 2208   5.226   6.753   2.241
  437SOL     OW 2209   6.389   1.043   5.154
  437SOL    HW1 2210   6.303   1.076   5.113
  437SOL    HW2 2211   6.466   1.085   5.108
  438SOL     OW 2212   0.784   4.704   2.455
  438SOL    HW1 2213   0.834   4.784   2.420
  438SOL    HW2 2214   0.686   4.721   2.450
  439SOL     OW 2215   0.141   1.097   4.769
  439SOL    HW1 2216   0.234   1.064   4.755
  439SOL    HW2 2217   0.084   1.070   4.691
  440SOL     OW 2218   4.020   1.430   0.389
  440SOL    HW1 2219   4.031   1.508   0.451
  440SOL    HW2 2220   4.109   1.406   0.350
  441SOL     OW 2221   1.120   4.835   1.795
  441SOL    HW1 2222   1.184   4.874   1.729
  441SOL    HW2 2223   1.057   4.906   1.826
  442SOL     OW 2224   4.828   3.486   5.394
  442SOL    HW1 2225   4.779   3.514   5.311
  442SOL    HW2 2226   4.768   3.427   5.449
  443SOL     OW 2227   4.783   2.734   2.709
  443SOL    HW1 2228   4.882   2.721   2.698
  443SOL    HW2 2229   4.755   2.818   2.664
  444SOL     OW 2230   4.487   1.542   1.931
  444SOL    HW1 2231   4.518   1.489   2.010
  444SOL    HW2 2232   4.563   1.597   1.895
  445SOL     OW 2233   1.364   4.754   2.907
  445SOL    HW1 2234   1.454   4.747   2.865
  445SOL    HW2 2235   1.294   4.736   2.838
  446SOL     OW 2236   6.230   6.960   1.357
  446SOL    HW1 2237   6.247   6.899   1.435
  446SOL    HW2 2238   6.312   6.964   1.300
  447SOL     OW 2239   5.726   4.007   0.715
  447SOL    HW1 2240   5.737   4.071   0.791
  447SOL    HW2 2241   5.687   3.922   0.748
  448SOL     OW 2242   3.941   6.808   3.919
  448SOL    HW1 2243   3.878   6.731   3.911
  448SOL    HW2 2244   4.034   6.775   3.928
  449SOL     OW 2245   1.660   4.147   4.615
  449SOL    HW1 2246   1.646   4.176   4.710
  449SOL    HW2 2247   1.757   4.154   4.592
  450SOL     OW 2248   6.515   4.635   3.277
  450SOL    HW1 2249   6.555   4.548   3.307
  450SOL    HW2 2250   6.584   4.707   3.285
  451SOL     OW 2251   1.102   2.159   0.637
  451SOL    HW1 2252   1.021   2.175   0.580
  451SOL    HW2 2253   1.170   2.106   0.585
  452SOL     OW 2254   4.656   5.218   2.956
  452SOL    HW1 2255   4.732   5.226   3.021
  452SOL    HW2 2256   4.569   5.233   3.003
  453SOL     OW 2257   3.814   1.313   0.079
  453SOL    HW1 2258   3.884   1.381   0.057
  453SOL    HW2 2259   3.726   1.341   0.040
  454SOL     OW 2260   0.256   3.413   5.114
  454SOL    HW1 2261   0.197   3.483   5.155
  454SOL    HW2 2262   0.206   3.326   5.111
  455SOL     OW 2263   5.222   5.086   6.250
  455SOL    HW1 2264   5.199   4.990   6.233
  455SOL    HW2 2265   5.148   5.145   6.216
  456SOL     OW 2266   2.952   1.010   2.616
  456SOL    HW1 2267   2.911   1.089   2.662
  456SOL    HW2 2268   2.978   0.942   2.685
  457SOL     OW 2269   2.577   6.870   6.986
  457SOL    HW1 2270   2.477   6.864   6.988
  457SOL    HW2 2271   2.612   6.874   0.060
  458SOL     OW 2272   3.767   1.408   2.824
  458SOL    HW1 2273   3.668   1.397   2.835
  458SOL    HW2 2274   3.810   1.318   2.819
  459SOL     OW 2275   3.508   0.731   3.493
  459SOL    HW1 2276   3.436   0.775   3.439
  459SOL    HW2 2277   3.489   0.633   3.500
  460SOL     OW 2278   0.593   1.165   6.438
  460SOL    HW1 2279   0.689   1.138   6.436
  460SOL    HW2 2280   0.573   1.210   6.525
  461SOL     OW 2281   1.189   5.958   5.636
  461SOL    HW1 2282   1.209   5.871   5.681
  461SOL    HW2 2283   1.092   5.980   5.646
  462SOL     OW 2284   3.140   3.906   4.502
  462SOL    HW1 2285   3.094   3.917   4.590
  462SOL    HW2 2286   3.232   3.870   4.516
  463SOL     OW 2287   5.234   6.115   3.684
  463SOL    HW1 2288   5.247   6.032   3.628
  463SOL    HW2 2289   5.138   6.123   3.708
  464SOL     OW 2290   4.613   5.438   5.919
  464SOL    HW1 2291   4.663   5.474   5.998
  464SOL    HW2 2292   4.672   5.444   5.838
  465SOL     OW 2293   0.813   4.259   0.277
  465SOL    HW1 2294   0.793   4.268   0.180
  465SOL    HW2 2295   0.908   4.228   0.289
  466SOL     OW 2296   4.190   5.131   4.284
  466SOL    HW1 2297   4.282   5.157   4.256
  466SOL    HW2 2298   4.125   5.155   4.211
  467SOL     OW 2299   6.205   0.202   2.426
  467SOL    HW1 2300   6.254   0.244   2.502
  467SOL    HW2 2301   6.121   0.253   2.408
  468SOL     OW 2302   2.408   6.138   6.046
  468SOL    HW1 2303   2.317   6.115   6.014
  468SOL    HW2 2304   2.403   6.217   6.108
  469SOL     OW 2305   2.893   4.823   4.880
  469SOL    HW1 2306   2.990   4.836   4.898
  469SOL    HW2 2307   2.853   4.765   4.951
  470SOL     OW 2308   2.062   4.913   2.594
  470SOL    HW1 2309   1.966   4.890   2.584
  470SOL    HW2 2310   2.079   4.947   2.686
  471SOL     OW 2311   1.673   2.234   4.176
  471SOL    HW1 2312   1.647   2.192   4.263
  471SOL    HW2 2313   1.749   2.296   4.191
  472SOL     OW 2314   5.457   4.047   6.550
  472SOL    HW1 2315   5.516   3.982   6.501
  472SOL    HW2 2316   5.467   4.138   6.510
  473SOL     OW 2317   5.479   3.569   2.459
  473SOL    HW1 2318   5.526   3.482   2.442
  473SOL    HW2 2319   5.512   3.608   2.545
  474SOL     OW 2320   4.640   5.552   4.285
  474SOL    HW1 2321   4.541   5.560   4.293
  474SOL    HW2 2322   4.679   5.527   4.373
  475SOL     OW 2323   5.732   1.769   0.605
  475SOL    HW1 2324   5.802   1.826   0.563
  475SOL    HW2 2325   5.686   1.716   0.534
  476SOL     OW 2326   1.379   3.894   6.827
  476SOL    HW1 2327   1.293   3.906   6.776
  476SOL    HW2 2328   1.396   3.797   6.841
  477SOL     OW 2329   1.097   4.997   3.113
  477SOL    HW1 2330   1.094   4.944   3.198
  477SOL    HW2 2331   1.008   4.993   3.068
  478SOL     OW 2332   5.836   5.958   3.076
  478SOL    HW1 2333   5.856   6.053   3.052
  478SOL    HW2 2334   5.742   5.952   3.110
  479SOL     OW 2335   2.983   3.904   2.709
  479SOL    HW1 2336   2.927   3.963   2.767
  479SOL    HW2 2337   3.001   3.818   2.757
  480SOL     OW 2338   1.051   0.426   2.672
  480SOL    HW1 2339   1.109   0.475   2.736
  480SOL    HW2 2340   0.970   0.392   2.719
  481SOL     OW 2341   6.772   0.377   1.105
  481SOL    HW1 2342   6.709   0.302   1.123
  481SOL    HW2 2343   6.780   0.390   1.006
  482SOL     OW 2344   4.195   4.944   2.661
  482SOL    HW1 2345   4.238   5.028   2.626
  482SOL    HW2 2346   4.101   4.940   2.630
  483SOL     OW 2347   5.987   1.871   4.132
  483SOL    HW1 2348   6.001   1.775   4.108
  483SOL    HW2 2349   5.917   1.911   4.073
  484SOL     OW 2350   2.191   5.055   3.420
  484SOL    HW1 2351   2.100   5.043   3.460
  484SOL    HW2 2352   2.254   5.090   3.489
  485SOL     OW 2353   5.448   2.087   1.708
  485SOL    HW1 2354   5.538   2.104   1.666
  485SOL    HW2 2355   5.432   2.152   1.782
  486SOL     OW 2356   5.999   6.563   5.878
  486SOL    HW1 2357   6.061   6.573   5.800
  486SOL    HW2 2358   6.029   6.623   5.952
  487SOL     OW 2359   0.424   0.420   6.840
  487SOL    HW1 2360   0.346   0.453   6.894
  487SOL    HW2 2361   0.394   0.404   6.746
  488SOL     OW 2362   1.896   5.782   3.304
  488SOL    HW1 2363   1.974   5.819   3.354
  488SOL    HW2 2364   1.908   5.683   3.294
  489SOL     OW 2365   2.044   6.097   5.528
  489SOL    HW1 2366   2.131   6.067   5.567
  489SOL    HW2 2367   1.982   6.125   5.601
  490SOL     OW 2368   1.015   3.433   4.600
  490SOL    HW1 2369   1.013   3.403   4.695
  490SOL    HW2 2370   1.109   3.439   4.568
  491SOL     OW 2371   6.396   2.608   0.954
  491SOL    HW1 2372   6.434   2.688   1.000
  491SOL    HW2 2373   6.336   2.637   0.879
  492SOL     OW 2374   1.631   3.048   5.261
  492SOL    HW1 2375   1.534   3.058   5.281
  492SOL    HW2 2376   1.645   2.974   5.196
  493SOL     OW 2377   1.720   5.189   4.524
  493SOL    HW1 2378   1.687   5.281   4.506
  493SOL    HW2 2379   1.642   5.126   4.530
  494SOL     OW 2380   2.472   0.676   4.083
  494SOL    HW1 2381   2.434   0.625   4.005
  494SOL    HW2 2382   2.458   0.774   4.068
  495SOL     OW 2383   3.605   4.121   6.649
  495SOL    HW1 2384   3.559   4.079   6.570
  495SOL    HW2 2385   3.680   4.178   6.617
  496SOL     OW 2386   5.337   1.136   3.227
  496SOL    HW1 2387   5.320   1.189   3.310
  496SOL    HW2 2388   5.376   1.047   3.251
  497SOL     OW 2389   4.676   1.942   0.506
  497SOL    HW1 2390   4.723   1.864   0.548
  497SOL    HW2 2391   4.618   1.986   0.575
  498SOL     OW 2392   0.485   0.663   1.270
  498SOL    HW1 2393   0.389   0.682   1.250
  498SOL    HW2 2394   0.544   0.713   1.207
  499SOL     OW 2395   3.408   6.290   0.395
  499SOL    HW1 2396   3.412   6.190   0.382
  499SOL    HW2 2397   3.489   6.320   0.446
  500SOL     OW 2398   5.214   1.739   6.544
  500SOL    HW1 2399   5.185   1.682   6.467
  500SOL    HW2 2400   5.264   1.818   6.511
  501SOL     OW 2401   1.345   1.190   5.122
  501SOL    HW1 2402   1.302   1.269   5.079
  501SOL    HW2 2403   1.435   1.215   5.156
  502SOL     OW 2404   2.409   4.466   6.781
  502SOL    HW1 2405   2.455   4.452   6.693
  502SOL    HW2 2406   2.462   4.422   6.853
  503SOL     OW 2407   3.694   5.471   1.070
  503SOL    HW1 2408   3.762   5.398   1.073
  503SOL    HW2 2409   3.625   5.449   1.001
  504SOL     OW 2410   6.837   6.246   1.617
  504SOL    HW1 2411   6.782   6.274   1.696
  504SOL    HW2 2412   6.791   6.272   1.533
  505SOL     OW 2413   5.786   5.044   5.257
  505SOL    HW1 2414   5.720   5.014   5.188
  505SOL    HW2 2415   5.747   5.030   5.348
  506SOL     OW 2416   3.533   5.233   3.456
  506SOL    HW1 2417   3.520   5.136   3.431
  506SOL    HW2 2418   3.494   5.291   3.384
  507SOL     OW 2419   2.873   0.978   1.495
  507SOL    HW1 2420   2.824   0.911   1.439
  507SOL    HW2 2421   2.825   0.990   1.582
  508SOL     OW 2422   0.524   4.441   3.306
  508SOL    HW1 2423   0.463   4.374   3.265
  508SOL    HW2 2424   0.494   4.533   3.281
  509SOL     OW 2425   4.169   6.782   6.066
  509SOL    HW1 2426   4.199   6.691   6.096
  509SOL    HW2 2427   4.166   6.785   5.966
  510SOL     OW 2428   6.548   4.123   0.039
  510SOL    HW1 2429   6.581   4.032   0.066
  510SOL    HW2 2430   6.560   4.134   6.959
  511SOL     OW 2431   0.743   1.250   0.361
  511SOL    HW1 2432   0.743   1.234   0.263
  511SOL    HW2 2433   0.795   1.332   0.382
  512SOL     OW 2434   0.133   2.595   3.937
  512SOL    HW1 2435   0.185   2.523   3.891
  512SOL    HW2 2436   0.162   2.684   3.901
  513SOL     OW 2437   5.279   0.461   3.248
  513SOL    HW1 2438   5.258   0.559   3.252
  513SOL    HW2 2439   5.303   0.436   3.155
  514SOL     OW 2440   4.820   1.088   5.385
  514SOL    HW1 2441   4.761   1.007   5.391
  514SOL    HW2 2442   4.807   1.132   5.297
  515SOL     OW 2443   3.833   0.340   0.166
  515SOL    HW1 2444   3.856   0.243   0.171
  515SOL    HW2 2445   3.867   0.387   0.248
  516SOL     OW 2446   2.251   6.363   2.317
  516SOL    HW1 2447   2.232   6.295   2.246
  516SOL    HW2 2448   2.201   6.339   2.401
  517SOL     OW 2449   3.464   5.356   1.722
  517SOL    HW1 2450   3.447   5.314   1.633
  517SOL    HW2 2451   3.443   5.453   1.719
  518SOL     OW 2452   2.081   5.209   4.298
  518SOL    HW1 2453   2.026   5.234   4.218
  518SOL    HW2 2454   2.158   5.272   4.306
  519SOL     OW 2455   6.965   6.876   1.965
  519SOL    HW1 2456   6.900   6.831   2.026
  519SOL    HW2 2457   6.915   6.939   1.904
  520SOL     OW 2458   2.434   4.713   0.536
  520SOL    HW1 2459   2.437   4.702   0.636
  520SOL    HW2 2460   2.418   4.624   0.493
  521SOL     OW 2461   6.336   5.847   5.249
  521SOL    HW1 2462   6.397   5.918   5.285
  521SOL    HW2 2463   6.383   5.798   5.175
  522SOL     OW 2464   3.663   4.265   0.283
  522SOL    HW1 2465   3.735   4.277   0.352
  522SOL    HW2 2466   3.705   4.234   0.198
  523SOL     OW 2467   1.457   6.810   6.950
  523SOL    HW1 2468   1.552   6.829   6.978
  523SOL    HW2 2469   1.453   6.804   6.850
  524SOL     OW 2470   6.834   1.413   0.884
  524SOL    HW1 2471   6.933   1.428   0.876
  524SOL    HW2 2472   6.792   1.421   0.794
  525SOL     OW 2473   0.797   3.058   3.934
  525SOL    HW1 2474   0.861   3.122   3.976
  525SOL    HW2 2475   0.841   2.969   3.921
  526SOL     OW 2476   4.376   6.806   4.160
  526SOL    HW1 2477   4.282   6.821   4.191
  526SOL    HW2 2478   4.440   6.844   4.227
  527SOL     OW 2479   0.499   1.575   0.957
  527SOL    HW1 2480   0.488   1.675   0.961
  527SOL    HW2 2481   0.434   1.532   1.019
  528SOL     OW 2482   6.966   2.833   4.391
  528SOL    HW1 2483   6.883   2.873   4.429
  528SOL    HW2 2484   0.027   2.881   4.427
  529SOL     OW 2485   1.694   0.077   6.728
  529SOL    HW1 2486   1.609   0.059   6.679
  529SOL    HW2 2487   1.675   0.079   6.827
  530SOL     OW 2488   3.503   4.848   1.335
  530SOL    HW1 2489   3.551   4.857   1.422
  530SOL    HW2 2490   3.427   4.912   1.332
  531SOL     OW 2491   1.488   0.113   0.253
  531SOL    HW1 2492   1.494   0.210   0.230
  531SOL    HW2 2493   1.557   0.091   0.321
  532SOL     OW 2494   1.786   1.713   5.770
  532SOL    HW1 2495   1.867   1.656   5.787
  532SOL    HW2 2496   1.717   1.693   5.838
  533SOL     OW 2497   3.789   0.650   3.707
  533SOL    HW1 2498   3.825   0.560   3.733
  533SOL    HW2 2499   3.860   0.702   3.661
  534SOL     OW 2500   1.723   4.041   1.807
  534SOL    HW1 2501   1.803   3.987   1.834
  534SOL    HW2 2502   1.711   4.116   1.872
  535SOL     OW 2503   5.052   3.338   4.442
  535SOL    HW1 2504   5.038   3.306   4.348
  535SOL    HW2 2505   4.969   3.320   4.496
  536SOL     OW 2506   6.409   6.633   1.803
  536SOL    HW1 2507   6.351   6.614   1.882
  536SOL    HW2 2508   6.505   6.625   1.829
  537SOL     OW 2509   2.968   1.966   2.348
  537SOL    HW1 2510   3.057   1.940   2.384
  537SOL    HW2 2511   2.944   1.907   2.271
  538SOL     OW 2512   3.387   5.259   4.826
  538SOL    HW1 2513   3.387   5.185   4.759
  538SOL    HW2 2514   3.423   5.342   4.783
  539SOL     OW 2515   1.643   0.326   6.547
  539SOL    HW1 2516   1.654   0.234   6.509
  539SOL    HW2 2517   1.717   0.384   6.515
  540SOL     OW 2518   1.846   0.746   4.771
  540SOL    HW1 2519   1.756   0.766   4.732
  540SOL    HW2 2520   1.856   0.646   4.780
  541SOL     OW 2521   5.091   5.800   3.973
  541SOL    HW1 2522   5.140   5.799   3.886
  541SOL    HW2 2523   5.026   5.876   3.974
  542SOL     OW 2524   3.781   6.400   5.996
  542SOL    HW1 2525   3.859   6.402   6.059
  542SOL    HW2 2526   3.707   6.346   6.036
  543SOL     OW 2527   6.188   2.229   3.568
  543SOL    HW1 2528   6.187   2.305   3.633
  543SOL    HW2 2529   6.269   2.173   3.583
  544SOL     OW 2530   1.376   3.064   1.421
  544SOL    HW1 2531   1.355   3.123   1.343
  544SOL    HW2 2532   1.457   3.009   1.400
  545SOL     OW 2533   6.523   6.104   0.982
  545SOL    HW1 2534   6.617   6.090   1.012
  545SOL    HW2 2535   6.523   6.140   0.888
  546SOL     OW 2536   0.284   3.878   1.763
  546SOL    HW1 2537   0.267   3.977   1.761
  546SOL    HW2 2538   0.378   3.861   1.795
  547SOL     OW 2539   5.085   0.119   6.434
  547SOL    HW1 2540   5.054   0.071   6.352
  547SOL    HW2 2541   5.020   0.192   6.456
  548SOL     OW 2542   3.658   2.810   6.966
  548SOL    HW1 2543   3.736   2.779   6.911
  548SOL    HW2 2544   3.626   2.898   6.931
  549SOL     OW 2545   5.469   1.463   2.185
  549SOL    HW1 2546   5.526   1.538   2.217
  549SOL    HW2 2547   5.467   1.463   2.085
  550SOL     OW 2548   6.999   6.138   2.913
  550SOL    HW1 2549   0.007   6.162   3.007
  550SOL    HW2 2550   6.900   6.149   2.903
  551SOL     OW 2551   6.056   0.649   0.783
  551SOL    HW1 2552   6.009   0.573   0.828
  551SOL    HW2 2553   6.147   0.660   0.824
  552SOL     OW 2554   0.564   6.658   5.266
  552SOL    HW1 2555   0.655   6.699   5.263
  552SOL    HW2 2556   0.498   6.727   5.295
  553SOL     OW 2557   3.668   1.967   6.697
  553SOL    HW1 2558   3.620   2.053   6.678
  553SOL    HW2 2559   3.639   1.932   6.786
  554SOL     OW 2560   6.293   5.969   1.037
  554SOL    HW1 2561   6.319   5.873   1.027
  554SOL    HW2 2562   6.362   6.027   0.994
  555SOL     OW 2563   2.239   3.794   5.251
  555SOL    HW1 2564   2.202   3.737   5.177
  555SOL    HW2 2565   2.293   3.868   5.212
  556SOL     OW 2566   5.773   0.036   3.652
  556SOL    HW1 2567   5.759   0.119   3.598
  556SOL    HW2 2568   5.771   6.975   3.592
  557SOL     OW 2569   5.745   4.482   6.570
  557SOL    HW1 2570   5.713   4.505   6.478
  557SOL    HW2 2571   5.845   4.477   6.571
  558SOL     OW 2572   3.240   3.649   2.640
  558SOL    HW1 2573   3.166   3.582   2.644
  558SOL    HW2 2574   3.321   3.608   2.599
  559SOL     OW 2575   6.709   0.515   5.994
  559SOL    HW1 2576   6.805   0.498   5.974
  559SOL    HW2 2577   6.652   0.463   5.931
  560SOL     OW 2578   6.704   3.224   4.406
  560SOL    HW1 2579   6.791   3.185   4.375
  560SOL    HW2 2580   6.645   3.243   4.327
  561SOL     OW 2581   0.819   3.248   0.792
  561SOL    HW1 2582   0.831   3.174   0.726
  561SOL    HW2 2583   0.884   3.321   0.772
  562SOL     OW 2584   4.528   6.518   4.483
  562SOL    HW1 2585   4.431   6.508   4.460
  562SOL    HW2 2586   4.553   6.450   4.551
  563SOL     OW 2587   1.709   0.717   4.243
  563SOL    HW1 2588   1.642   0.669   4.187
  563SOL    HW2 2589   1.747   0.793   4.190
  564SOL     OW 2590   5.863   2.142   6.389
  564SOL    HW1 2591   5.782   2.180   6.344
  564SOL    HW2 2592   5.835   2.085   6.466
  565SOL     OW 2593   3.810   3.610   3.508
  565SOL    HW1 2594   3.820   3.541   3.580
  565SOL    HW2 2595   3.723   3.595   3.460
  566SOL     OW 2596   3.117   0.928   3.568
  566SOL    HW1 2597   3.180   0.893   3.499
  566SOL    HW2 2598   3.024   0.932   3.531
  567SOL     OW 2599   3.065   2.789   5.570
  567SOL    HW1 2600   3.007   2.836   5.636
  567SOL    HW2 2601   3.143   2.747   5.617
  568SOL     OW 2602   0.800   6.251   0.460
  568SOL    HW1 2603   0.876   6.204   0.504
  568SOL    HW2 2604   0.828   6.342   0.431
  569SOL     OW 2605   6.242   3.493   6.956
  569SOL    HW1 2606   6.166   3.463   7.013
  569SOL    HW2 2607   6.275   3.582   6.988
  570SOL     OW 2608   2.954   0.902   5.794
  570SOL    HW1 2609   2.914   0.950   5.872
  570SOL    HW2 2610   2.949   0.803   5.810
  571SOL     OW 2611   2.289   4.368   1.530
  571SOL    HW1 2612   2.338   4.311   1.464
  571SOL    HW2 2613   2.335   4.456   1.539
  572SOL     OW 2614   2.584   0.881   4.935
  572SOL    HW1 2615   2.594   0.973   4.896
  572SOL    HW2 2616   2.552   0.888   5.029
  573SOL     OW 2617   0.316   0.765   5.465
  573SOL    HW1 2618   0.415   0.781   5.474
  573SOL    HW2 2619   0.278   0.741   5.553
  574SOL     OW 2620   1.957   1.479   6.231
  574SOL    HW1 2621   1.920   1.568   6.258
  574SOL    HW2 2622   1.892   1.434   6.169
  575SOL     OW 2623   4.071   4.018   0.340
  575SOL    HW1 2624   4.167   4.014   0.370
  575SOL    HW2 2625   4.068   4.034   0.241
  576SOL     OW 2626   2.292   1.890   2.673
  576SOL    HW1 2627   2.261   1.864   2.581
  576SOL    HW2 2628   2.217   1.934   2.722
  577SOL     OW 2629   0.651   1.279   1.495
  577SOL    HW1 2630   0.720   1.337   1.451
  577SOL    HW2 2631   0.696   1.200   1.538
  578SOL     OW 2632   3.670   0.030   6.853
  578SOL    HW1 2633   3.721   6.963   6.863
  578SOL    HW2 2634   3.734   0.106   6.840
  579SOL     OW 2635   1.607   3.788   1.740
  579SOL    HW1 2636   1.634   3.884   1.749
  579SOL    HW2 2637   1.618   3.742   1.828
  580SOL     OW 2638   4.880   5.112   4.831
  580SOL    HW1 2639   4.829   5.034   4.867
  580SOL    HW2 2640   4.840   5.141   4.744
  581SOL     OW 2641   2.312   2.623   5.151
  581SOL    HW1 2642   2.252   2.543   5.150
  581SOL    HW2 2643   2.407   2.594   5.166
  582SOL     OW 2644   5.025   4.828   3.992
  582SOL    HW1 2645   4.955   4.805   3.925
  582SOL    HW2 2646   4.988   4.817   4.084
  583SOL     OW 2647   3.901   5.999   5.667
  583SOL    HW1 2648   3.929   6.029   5.576
  583SOL    HW2 2649   3.805   6.026   5.683
  584SOL     OW 2650   3.590   0.626   5.540
  584SOL    HW1 2651   3.571   0.724   5.537
  584SOL    HW2 2652   3.527   0.582   5.605
  585SOL     OW 2653   3.789   0.224   1.289
  585SOL    HW1 2654   3.830   0.140   1.254
  585SOL    HW2 2655   3.699   0.203   1.327
  586SOL     OW 2656   3.809   0.108   0.555
  586SOL    HW1 2657   3.874   0.102   0.479
  586SOL    HW2 2658   3.731   0.164   0.528
  587SOL     OW 2659   4.923   1.683   2.079
  587SOL    HW1 2660   5.007   1.737   2.067
  587SOL    HW2 2661   4.933   1.594   2.035
  588SOL     OW 2662   1.441   4.482   2.934
  588SOL    HW1 2663   1.409   4.577   2.929
  588SOL    HW2 2664   1.379   4.423   2.882
  589SOL     OW 2665   3.042   5.343   0.562
  589SOL    HW1 2666   2.955   5.385   0.534
  589SOL    HW2 2667   3.075   5.387   0.645
  590SOL     OW 2668   2.860   2.370   0.226
  590SOL    HW1 2669   2.855   2.320   0.139
  590SOL    HW2 2670   2.942   2.342   0.275
  591SOL     OW 2671   2.986   5.975   3.940
  591SOL    HW1 2672   3.083   5.949   3.934
  591SOL    HW2 2673   2.939   5.949   3.856
  592SOL     OW 2674   3.933   1.940   4.676
  592SOL    HW1 2675   3.887   1.858   4.711
  592SOL    HW2 2676   3.885   1.973   4.595
  593SOL     OW 2677   1.729   1.952   0.077
  593SOL    HW1 2678   1.765   2.029   0.130
  593SOL    HW2 2679   1.802   1.885   0.062
  594SOL     OW 2680   4.565   0.901   2.853
  594SOL    HW1 2681   4.511   0.855   2.924
  594SOL    HW2 2682   4.624   0.969   2.896
  595SOL     OW 2683   6.307   5.579   2.933
  595SOL    HW1 2684   6.251   5.612   3.009
  595SOL    HW2 2685   6.247   5.551   2.857
  596SOL     OW 2686   6.577   4.934   4.239
  596SOL    HW1 2687   6.501   4.986   4.200
  596SOL    HW2 2688   6.648   4.922   4.170
  597SOL     OW 2689   3.234   1.073   6.764
  597SOL    HW1 2690   3.314   1.028   6.724
  597SOL    HW2 2691   3.182   1.007   6.819
  598SOL     OW 2692   3.391   4.150   3.826
  598SOL    HW1 2693   3.296   4.134   3.799
  598SOL    HW2 2694   3.399   4.145   3.925
  599SOL     OW 2695   1.827   5.490   1.393
  599SOL    HW1 2696   1.873   5.502   1.306
  599SOL    HW2 2697   1.882   5.431   1.452
  600SOL     OW 2698   6.689   3.323   5.481
  600SOL    HW1 2699   6.697   3.409   5.531
  600SOL    HW2 2700   6.614   3.329   5.416
  601SOL     OW 2701   0.716   6.336   5.830
  601SOL    HW1 2702   0.772   6.262   5.866
  601SOL    HW2 2703   0.671   6.306   5.746
  602SOL     OW 2704   1.577   0.117   3.648
  602SOL    HW1 2705   1.511   0.058   3.601
  602SOL    HW2 2706   1.627   0.171   3.581
  603SOL     OW 2707   1.896   1.717   4.193
  603SOL    HW1 2708   1.989   1.682   4.208
  603SOL    HW2 2709   1.899   1.816   4.184
  604SOL     OW 2710   6.135   3.353   0.934
  604SOL    HW1 2711   6.109   3.397   0.847
  604SOL    HW2 2712   6.071   3.279   0.953
  605SOL     OW 2713   6.750   5.941   1.333
  605SOL    HW1 2714   6.725   6.037   1.344
  605SOL    HW2 2715   6.835   5.934   1.280
  606SOL     OW 2716   3.492   6.645   4.962
  606SOL    HW1 2717   3.528   6.555   4.938
  606SOL    HW2 2718   3.514   6.710   4.890
  607SOL     OW 2719   1.756   3.193   5.657
  607SOL    HW1 2720   1.753   3.180   5.558
  607SOL    HW2 2721   1.846   3.227   5.684
  608SOL     OW 2722   3.074   1.247   6.047
  608SOL    HW1 2723   3.097   1.249   6.144
  608SOL    HW2 2724   3.156   1.227   5.994
  609SOL     OW 2725   3.388   2.879   2.236
  609SOL    HW1 2726   3.344   2.817   2.171
  609SOL    HW2 2727   3.471   2.837   2.270
  610SOL     OW 2728   4.588   3.571   1.527
  610SOL    HW1 2729   4.615   3.476   1.543
  610SOL    HW2 2730   4.641   3.607   1.450
  611SOL     OW 2731   3.824   0.999   3.140
  611SOL    HW1 2732   3.803   0.916   3.191
  611SOL    HW2 2733   3.739   1.051   3.124
  612SOL     OW 2734   4.393   4.934   3.944
  612SOL    HW1 2735   4.426   4.946   4.038
  612SOL    HW2 2736   4.380   5.023   3.901
  613SOL     OW 2737   4.032   4.574   5.324
  613SOL    HW1 2738   4.018   4.664   5.283
  613SOL    HW2 2739   4.112   4.530   5.282
  614SOL     OW 2740   2.740   6.210   6.294
  614SOL    HW1 2741   2.667   6.221   6.226
  614SOL    HW2 2742   2.703   6.231   6.385
  615SOL     OW 2743   0.470   4.728   2.691
  615SOL    HW1 2744   0.466   4.828   2.685
  615SOL    HW2 2745   0.377   4.692   2.694
  616SOL     OW 2746   5.983   2.696   3.706
  616SOL    HW1 2747   5.994   2.683   3.607
  616SOL    HW2 2748   5.900   2.649   3.737
  617SOL     OW 2749   3.030   6.450   5.861
  617SOL    HW1 2750   3.029   6.470   5.959
  617SOL    HW2 2751   3.027   6.351   5.847
  618SOL     OW 2752   1.841   1.179   2.820
  618SOL    HW1 2753   1.787   1.259   2.791
  618SOL    HW2 2754   1.938   1.197   2.805
  619SOL     OW 2755   0.929   1.884   6.827
  619SOL    HW1 2756   0.831   1.868   6.830
  619SOL    HW2 2757   0.964   1.864   6.735
  620SOL     OW 2758   4.277   3.527   1.327
  620SOL    HW1 2759   4.228   3.583   1.394
  620SOL    HW2 2760   4.364   3.570   1.304
  621SOL     OW 2761   0.433   5.493   0.993
  621SOL    HW1 2762   0.377   5.550   0.934
  621SOL    HW2 2763   0.454   5.407   0.946
  622SOL     OW 2764   0.889   0.668   6.869
  622SOL    HW1 2765   0.874   0.718   6.954
  622SOL    HW2 2766   0.980   0.628   6.869
  623SOL     OW 2767   0.366   4.897   5.796
  623SOL    HW1 2768   0.359   4.798   5.810
  623SOL    HW2 2769   0.391   4.916   5.701
  624SOL     OW 2770   1.226   1.942   0.799
  624SOL    HW1 2771   1.185   2.029   0.771
  624SOL    HW2 2772   1.170   1.900   0.870
  625SOL     OW 2773   1.655   1.502   2.488
  625SOL    HW1 2774   1.572   1.464   2.446
  625SOL    HW2 2775   1.646   1.601   2.496
  626SOL     OW 2776   3.441   6.931   4.613
  626SOL    HW1 2777   3.344   6.920   4.633
  626SOL    HW2 2778   3.453   7.006   4.547
  627SOL     OW 2779   5.419   0.891   0.089
  627SOL    HW1 2780   5.404   0.981   0.046
  627SOL    HW2 2781   5.469   0.903   0.175
  628SOL     OW 2782   5.424   3.946   3.429
  628SOL    HW1 2783   5.516   3.985   3.429
  628SOL    HW2 2784   5.429   3.849   3.407
  629SOL     OW 2785   1.702   6.789   0.615
  629SOL    HW1 2786   1.614   6.830   0.589
  629SOL    HW2 2787   1.746   6.847   0.683
  630SOL     OW 2788   3.093   1.784   1.463
  630SOL    HW1 2789   3.019   1.845   1.434
  630SOL    HW2 2790   3.180   1.819   1.427
  631SOL     OW 2791   2.345   6.974   4.782
  631SOL    HW1 2792   2.442   6.974   4.757
  631SOL    HW2 2793   2.290   6.948   4.702
  632SOL     OW 2794   2.471   0.359   0.982
  632SOL    HW1 2795   2.538   0.410   1.037
  632SOL    HW2 2796   2.379   0.381   1.013
  633SOL     OW 2797   2.276   6.520   5.570
  633SOL    HW1 2798   2.372   6.505   5.545
  633SOL    HW2 2799   2.272   6.563   5.660
  634SOL     OW 2800   3.028   5.621   1.832
  634SOL    HW1 2801   3.106   5.651   1.886
  634SOL    HW2 2802   3.058   5.555   1.763
  635SOL     OW 2803   2.940   0.677   2.698
  635SOL    HW1 2804   2.847   0.712   2.687
  635SOL    HW2 2805   2.939   0.600   2.762
  636SOL     OW 2806   5.032   5.754   0.296
  636SOL    HW1 2807   5.044   5.773   0.393
  636SOL    HW2 2808   5.093   5.679   0.269
  637SOL     OW 2809   5.248   4.583   0.477
  637SOL    HW1 2810   5.208   4.523   0.408
  637SOL    HW2 2811   5.282   4.666   0.433
  638SOL     OW 2812   5.351   0.957   2.478
  638SOL    HW1 2813   5.399   0.870   2.473
  638SOL    HW2 2814   5.320   0.984   2.386
  639SOL     OW 2815   4.828   4.266   2.591
  639SOL    HW1 2816   4.753   4.265   2.657
  639SOL    HW2 2817   4.826   4.353   2.540
  640SOL     OW 2818   2.495   4.064   5.584
  640SOL    HW1 2819   2.528   4.150   5.546
  640SOL    HW2 2820   2.511   3.991   5.518
  641SOL     OW 2821   0.168   5.861   5.941
  641SOL    HW1 2822   0.093   5.896   5.997
  641SOL    HW2 2823   0.158   5.894   5.848
  642SOL     OW 2824   1.175   4.517   5.919
  642SOL    HW1 2825   1.209   4.442   5.863
  642SOL    HW2 2826   1.126   4.582   5.861
  643SOL     OW 2827   6.256   6.048   5.067
  643SOL    HW1 2828   6.244   5.950   5.080
  643SOL    HW2 2829   6.234   6.096   5.152
  644SOL     OW 2830   2.663   5.650   2.177
  644SOL    HW1 2831   2.702   5.740   2.195
  644SOL    HW2 2832   2.582   5.637   2.234
  645SOL     OW 2833   6.455   3.350   3.177
  645SOL    HW1 2834   6.425   3.256   3.165
  645SOL    HW2 2835   6.376   3.411   3.174
  646SOL     OW 2836   1.611   1.947   4.531
  646SOL    HW1 2837   1.587   2.038   4.497
  646SOL    HW2 2838   1.594   1.942   4.629
  647SOL     OW 2839   5.482   2.955   0.162
  647SOL    HW1 2840   5.388   2.922   0.164
  647SOL    HW2 2841   5.538   2.903   0.226
  648SOL     OW 2842   4.885   2.031   3.757
  648SOL    HW1 2843   4.814   2.008   3.691
  648SOL    HW2 2844   4.842   2.060   3.843
  649SOL     OW 2845   4.364   4.527   1.946
  649SOL    HW1 2846   4.370   4.427   1.954
  649SOL    HW2 2847   4.417   4.569   2.019
  650SOL     OW 2848   5.031   3.340   0.864
  650SOL    HW1 2849   5.092   3.349   0.942
  650SOL    HW2 2850   5.078   3.369   0.781
  651SOL     OW 2851   0.828   5.891   6.253
  651SOL    HW1 2852   0.809   5.797   6.224
  651SOL    HW2 2853   0.743   5.935   6.280
  652SOL     OW 2854   5.263   1.510   2.485
  652SOL    HW1 2855   5.340   1.449   2.467
  652SOL    HW2 2856   5.269   1.590   2.426
  653SOL     OW 2857   3.535   4.956   3.452
  653SOL    HW1 2858   3.496   4.914   3.370
  653SOL    HW2 2859   3.479   4.931   3.531
  654SOL     OW 2860   6.194   5.211   6.665
  654SOL    HW1 2861   6.184   5.248   6.757
  654SOL    HW2 2862   6.209   5.112   6.670
  655SOL     OW 2863   0.052   1.432   6.724
  655SOL    HW1 2864   0.018   1.349   6.769
  655SOL    HW2 2865   7.010   1.509   6.748
  656SOL     OW 2866   2.899   6.145   1.519
  656SOL    HW1 2867   2.872   6.175   1.427
  656SOL    HW2 2868   2.871   6.050   1.533
  657SOL     OW 2869   3.962   1.144   6.197
  657SOL    HW1 2870   4.039   1.206   6.183
  657SOL    HW2 2871   3.977   1.060   6.145
  658SOL     OW 2872   3.735   4.935   5.842
  658SOL    HW1 2873   3.640   4.961   5.825
  658SOL    HW2 2874   3.755   4.849   5.795
  659SOL     OW 2875   3.152   0.766   6.259
  659SOL    HW1 2876   3.144   0.859   6.294
  659SOL    HW2 2877   3.241   0.727   6.285
  660SOL     OW 2878   3.781   5.997   3.353
  660SOL    HW1 2879   3.738   5.925   3.409
  660SOL    HW2 2880   3.858   5.958   3.303
  661SOL     OW 2881   5.694   5.844   2.891
  661SOL    HW1 2882   5.744   5.777   2.837
  661SOL    HW2 2883   5.756   5.888   2.955
  662SOL     OW 2884   3.585   1.336   0.767
  662SOL    HW1 2885   3.553   1.274   0.839
  662SOL    HW2 2886   3.631   1.283   0.696
  663SOL     OW 2887   2.118   4.804   4.634
  663SOL    HW1 2888   2.122   4.898   4.599
  663SOL    HW2 2889   2.208   4.761   4.622
  664SOL     OW 2890   5.935   0.706   6.324
  664SOL    HW1 2891   5.937   0.806   6.316
  664SOL    HW2 2892   5.958   0.680   6.418
  665SOL     OW 2893   1.933   4.373   2.402
  665SOL    HW1 2894   1.843   4.410   2.422
  665SOL    HW2 2895   1.987   4.442   2.352
  666SOL     OW 2896   4.269   1.508   0.963
  666SOL    HW1 2897   4.197   1.503   0.893
  666SOL    HW2 2898   4.240   1.456   1.043
  667SOL     OW 2899   1.404   6.629   2.139
  667SOL    HW1 2900   1.349   6.547   2.120
  667SOL    HW2 2901   1.344   6.704   2.165
  668SOL     OW 2902   5.244   3.792   0.772
  668SOL    HW1 2903   5.295   3.799   0.686
  668SOL    HW2 2904   5.301   3.750   0.842
  669SOL     OW 2905   4.972   1.749   2.331
  669SOL    HW1 2906   4.949   1.725   2.236
  669SOL    HW2 2907   5.070   1.738   2.345
  670SOL     OW 2908   3.017   2.187   3.167
  670SOL    HW1 2909   2.918   2.200   3.162
  670SOL    HW2 2910   3.040   2.134   3.248
  671SOL     OW 2911   2.972   6.586   1.732
  671SOL    HW1 2912   2.906   6.566   1.659
  671SOL    HW2 2913   3.027   6.666   1.707
  672SOL     OW 2914   1.697   6.687   2.527
  672SOL    HW1 2915   1.654   6.628   2.458
  672SOL    HW2 2916   1.628   6.721   2.590
  673SOL     OW 2917   5.833   6.657   0.834
  673SOL    HW1 2918   5.818   6.707   0.749
  673SOL    HW2 2919   5.931   6.639   0.846
  674SOL     OW 2920   5.874   0.870   3.862
  674SOL    HW1 2921   5.791   0.925   3.861
  674SOL    HW2 2922   5.854   0.777   3.829
  675SOL     OW 2923   0.399   3.535   3.057
  675SOL    HW1 2924   0.356   3.534   3.147
  675SOL    HW2 2925   0.381   3.623   3.012
  676SOL     OW 2926   2.756   6.497   5.967
  676SOL    HW1 2927   2.772   6.404   5.934
  676SOL    HW2 2928   2.675   6.535   5.922
  677SOL     OW 2929   5.420   1.774   1.021
  677SOL    HW1 2930   5.377   1.754   1.109
  677SOL    HW2 2931   5.505   1.824   1.036
  678SOL     OW 2932   0.886   5.259   3.649
  678SOL    HW1 2933   0.946   5.203   3.593
  678SOL    HW2 2934   0.841   5.202   3.718
  679SOL     OW 2935   4.553   2.032   5.276
  679SOL    HW1 2936   4.498   1.999   5.353
  679SOL    HW2 2937   4.612   1.958   5.244
  680SOL     OW 2938   6.113   6.493   4.379
  680SOL    HW1 2939   6.091   6.443   4.295
  680SOL    HW2 2940   6.160   6.433   4.443
  681SOL     OW 2941   4.693   4.759   2.403
  681SOL    HW1 2942   4.596   4.771   2.383
  681SOL    HW2 2943   4.709   4.772   2.500
  682SOL     OW 2944   0.372   1.354   2.824
  682SOL    HW1 2945   0.428   1.273   2.842
  682SOL    HW2 2946   0.375   1.414   2.904
  683SOL     OW 2947   3.468   4.177   1.409
  683SOL    HW1 2948   3.524   4.237   1.466
  683SOL    HW2 2949   3.513   4.162   1.321
  684SOL     OW 2950   6.668   1.461   5.531
  684SOL    HW1 2951   6.638   1.374   5.570
  684SOL    HW2 2952   6.590   1.505   5.485
  685SOL     OW 2953   3.348   0.109   2.574
  685SOL    HW1 2954   3.279   0.043   2.603
  685SOL    HW2 2955   3.369   0.170   2.650
  686SOL     OW 2956   4.168   0.258   5.245
  686SOL    HW1 2957   4.095   0.209   5.197
  686SOL    HW2 2958   4.191   0.341   5.194
  687SOL     OW 2959   0.347   1.883   3.398
  687SOL    HW1 2960   0.260   1.897   3.445
  687SOL    HW2 2961   0.355   1.788   3.368
  688SOL     OW 2962   5.955   1.483   6.839
  688SOL    HW1 2963   5.999   1.416   6.898
  688SOL    HW2 2964   5.940   1.568   6.889
  689SOL     OW 2965   1.601   5.411   6.464
  689SOL    HW1 2966   1.518   5.396   6.517
  689SOL    HW2 2967   1.675   5.438   6.526
  690SOL     OW 2968   5.266   3.613   3.134
  690SOL    HW1 2969   5.182   3.652   3.170
  690SOL    HW2 2970   5.248   3.570   3.045
  691SOL     OW 2971   6.128   1.401   1.134
  691SOL    HW1 2972   6.047   1.455   1.160
  691SOL    HW2 2973   6.117   1.369   1.040
  692SOL     OW 2974   1.583   0.113   4.783
  692SOL    HW1 2975   1.653   0.123   4.713
  692SOL    HW2 2976   1.493   0.133   4.743
  693SOL     OW 2977   5.581   5.969   3.467
  693SOL    HW1 2978   5.645   5.896   3.490
  693SOL    HW2 2979   5.611   6.054   3.509
  694SOL     OW 2980   4.827   6.263   5.493
  694SOL    HW1 2981   4.875   6.321   5.559
  694SOL    HW2 2982   4.893   6.229   5.426
  695SOL     OW 2983   4.635   6.763   4.055
  695SOL    HW1 2984   4.544   6.772   4.096
  695SOL    HW2 2985   4.683   6.851   4.063
  696SOL     OW 2986   5.459   3.948   2.817
  696SOL    HW1 2987   5.408   4.029   2.847
  696SOL    HW2 2988   5.546   3.976   2.777
  697SOL     OW 2989   1.007   6.443   2.305
  697SOL    HW1 2990   1.011   6.525   2.247
  697SOL    HW2 2991   1.004   6.361   2.247
  698SOL     OW 2992   5.626   6.473   6.540
  698SOL    HW1 2993   5.606   6.473   6.638
  698SOL    HW2 2994   5.659   6.564   6.514
  699SOL     OW 2995   3.231   3.150   1.170
  699SOL    HW1 2996   3.232   3.250   1.172
  699SOL    HW2 2997   3.168   3.119   1.097
  700SOL     OW 2998   4.099   0.059   4.313
  700SOL    HW1 2999   4.125   0.119   4.389
  700SOL    HW2 3000   4.129   0.099   4.227
  701SOL     OW 3001   4.914   5.072   1.423
  701SOL    HW1 3002   4.820   5.105   1.424
  701SOL    HW2 3003   4.949   5.066   1.517
  702SOL     OW 3004   3.866   0.767   4.414
  702SOL    HW1 3005   3.905   0.857   4.396
  702SOL    HW2 3006   3.939   0.699   4.422
  703SOL     OW 3007   3.041   2.204   6.772
  703SOL    HW1 3008   3.066   2.252   6.857
  703SOL    HW2 3009   3.117   2.146   6.744
  704SOL     OW 3010   2.597   1.912   5.547
  704SOL    HW1 3011   2.694   1.929   5.561
  704SOL    HW2 3012   2.580   1.813   5.546
  705SOL     OW 3013   0.232   6.724   5.157
  705SOL    HW1 3014   0.273   6.772   5.234
  705SOL    HW2 3015   0.175   6.649   5.191
  706SOL     OW 3016   4.163   1.575   5.123
  706SOL    HW1 3017   4.072   1.612   5.144
  706SOL    HW2 3018   4.226   1.600   5.197
  707SOL     OW 3019   3.049   5.302   4.302
  707SOL    HW1 3020   3.035   5.291   4.400
  707SOL    HW2 3021   3.134   5.256   4.275
  708SOL     OW 3022   4.848   5.900   3.971
  708SOL    HW1 3023   4.829   5.804   3.951
  708SOL    HW2 3024   4.761   5.949   3.985
  709SOL     OW 3025   2.216   0.476   1.008
  709SOL    HW1 3026   2.185   0.396   1.060
  709SOL    HW2 3027   2.188   0.559   1.055
  710SOL     OW 3028   4.976   3.184   2.075
  710SOL    HW1 3029   4.885   3.159   2.043
  710SOL    HW2 3030   5.019   3.104   2.117
  711SOL     OW 3031   6.698   2.084   6.912
  711SOL    HW1 3032   6.679   2.128   6.824
  711SOL    HW2 3033   6.796   2.084   6.929
  712SOL     OW 3034   5.100   3.792   0.025
  712SOL    HW1 3035   5.029   3.838   0.078
  712SOL    HW2 3036   5.186   3.842   0.036
  713SOL     OW 3037   4.198   3.381   5.227
  713SOL    HW1 3038   4.224   3.473   5.197
  713SOL    HW2 3039   4.099   3.370   5.216
  714SOL     OW 3040   5.300   6.085   2.989
  714SOL    HW1 3041   5.363   6.096   2.912
  714SOL    HW2 3042   5.283   5.987   3.004
  715SOL     OW 3043   6.358   4.744   5.485
  715SOL    HW1 3044   6.302   4.697   5.554
  715SOL    HW2 3045   6.451   4.707   5.487
  716SOL     OW 3046   2.179   1.839   3.104
  716SOL    HW1 3047   2.097   1.838   3.160
  716SOL    HW2 3048   2.160   1.796   3.016
  717SOL     OW 3049   5.077   5.041   4.448
  717SOL    HW1 3050   4.995   5.063   4.500
  717SOL    HW2 3051   5.053   5.026   4.352
  718SOL     OW 3052   5.133   2.545   5.539
  718SOL    HW1 3053   5.067   2.612   5.505
  718SOL    HW2 3054   5.169   2.576   5.627
  719SOL     OW 3055   5.033   6.782   3.806
  719SOL    HW1 3056   5.091   6.816   3.732
  719SOL    HW2 3057   4.971   6.711   3.770
  720SOL     OW 3058   2.302   0.933   0.718
  720SOL    HW1 3059   2.254   0.857   0.675
  720SOL    HW2 3060   2.280   1.018   0.670
  721SOL     OW 3061   6.934   2.328   2.578
  721SOL    HW1 3062   7.005   2.398   2.585
  721SOL    HW2 3063   6.970   2.248   2.529
  722SOL     OW 3064   5.058   6.364   0.916
  722SOL    HW1 3065   5.110   6.379   0.833
  722SOL    HW2 3066   5.015   6.273   0.912
  723SOL     OW 3067   2.429   7.002   4.357
  723SOL    HW1 3068   2.480   0.062   4.322
  723SOL    HW2 3069   2.456   6.983   4.451
  724SOL     OW 3070   1.227   2.065   3.975
  724SOL    HW1 3071   1.276   2.072   3.889
  724SOL    HW2 3072   1.161   1.990   3.969
  725SOL     OW 3073   1.698   4.411   2.849
  725SOL    HW1 3074   1.767   4.483   2.861
  725SOL    HW2 3075   1.607   4.451   2.856
  726SOL     OW 3076   1.722   3.660   0.879
  726SOL    HW1 3077   1.787   3.589   0.905
  726SOL    HW2 3078   1.721   3.731   0.950
  727SOL     OW 3079   3.871   5.436   4.955
  727SOL    HW1 3080   3.840   5.349   4.994
  727SOL    HW2 3081   3.958   5.462   4.997
  728SOL     OW 3082   6.600   3.173   3.762
  728SOL    HW1 3083   6.611   3.078   3.792
  728SOL    HW2 3084   6.663   3.231   3.814
  729SOL     OW 3085   0.561   4.109   0.913
  729SOL    HW1 3086   0.568   4.172   0.835
  729SOL    HW2 3087   0.491   4.142   0.976
  730SOL     OW 3088   3.709   0.844   3.351
  730SOL    HW1 3089   3.652   0.777   3.399
  730SOL    HW2 3090   3.805   0.831   3.377
  731SOL     OW 3091   4.730   5.209   5.378
  731SOL    HW1 3092   4.673   5.291   5.388
  731SOL    HW2 3093   4.746   5.190   5.282
  732SOL     OW 3094   3.776   1.251   5.351
  732SOL    HW1 3095   3.684   1.275   5.383
  732SOL    HW2 3096   3.772   1.229   5.253
  733SOL     OW 3097   6.383   5.860   3.097
  733SOL    HW1 3098   6.334   5.944   3.076
  733SOL    HW2 3099   6.469   5.857   3.046
  734SOL     OW 3100   6.142   6.732   2.713
  734SOL    HW1 3101   6.122   6.694   2.623
  734SOL    HW2 3102   6.147   6.831   2.707
  735SOL     OW 3103   4.696   7.016   2.272
  735SOL    HW1 3104   4.773   6.952   2.272
  735SOL    HW2 3105   4.645   7.006   2.187
  736SOL     OW 3106   2.121   1.299   3.703
  736SOL    HW1 3107   2.144   1.236   3.629
  736SOL    HW2 3108   2.026   1.330   3.693
  737SOL     OW 3109   3.341   0.993   5.930
  737SOL    HW1 3110   3.430   0.955   5.953
  737SOL    HW2 3111   3.293   0.930   5.869
  738SOL     OW 3112   2.430   4.481   0.229
  738SOL    HW1 3113   2.511   4.468   0.287
  738SOL    HW2 3114   2.351   4.439   0.273
  739SOL     OW 3115   3.018   0.066   3.971
  739SOL    HW1 3116   3.087   7.014   3.956
  739SOL    HW2 3117   3.013   0.126   3.891
  740SOL     OW 3118   4.927   3.269   2.733
  740SOL    HW1 3119   4.953   3.173   2.744
  740SOL    HW2 3120   4.913   3.311   2.823
  741SOL     OW 3121   2.996   0.585   3.057
  741SOL    HW1 3122   2.947   0.499   3.045
  741SOL    HW2 3123   3.091   0.566   3.082
  742SOL     OW 3124   2.475   6.445   1.883
  742SOL    HW1 3125   2.573   6.427   1.896
  742SOL    HW2 3126   2.438   6.379   1.817
  743SOL     OW 3127   0.547   6.974   3.125
  743SOL    HW1 3128   0.590   0.038   3.090
  743SOL    HW2 3129   0.479   6.941   3.060
  744SOL     OW 3130   5.208   1.841   0.018
  744SOL    HW1 3131   5.195   1.743   0.032
  744SOL    HW2 3132   5.169   1.892   0.094
  745SOL     OW 3133   2.026   0.049   4.666
  745SOL    HW1 3134   2.054   0.142   4.643
  745SOL    HW2 3135   2.081   7.003   4.614
  746SOL     OW 3136   0.317   4.923   5.267
  746SOL    HW1 3137   0.238   4.964   5.221
  746SOL    HW2 3138   0.388   4.903   5.200
  747SOL     OW 3139   4.850   5.931   2.779
  747SOL    HW1 3140   4.754   5.905   2.789
  747SOL    HW2 3141   4.857   6.029   2.764
  748SOL     OW 3142   5.227   5.105   1.702
  748SOL    HW1 3143   5.254   5.178   1.765
  748SOL    HW2 3144   5.169   5.040   1.750
  749SOL     OW 3145   4.818   4.074   4.409
  749SOL    HW1 3146   4.783   4.048   4.499
  749SOL    HW2 3147   4.918   4.081   4.413
  750SOL     OW 3148   2.638   1.955   2.339
  750SOL    HW1 3149   2.588   1.976   2.423
  750SOL    HW2 3150   2.733   1.985   2.348
  751SOL     OW 3151   3.619   0.812   0.602
  751SOL    HW1 3152   3.692   0.801   0.535
  751SOL    HW2 3153   3.629   0.745   0.675
  752SOL     OW 3154   3.662   2.607   5.365
  752SOL    HW1 3155   3.597   2.674   5.329
  752SOL    HW2 3156   3.622   2.516   5.358
  753SOL     OW 3157   3.608   3.590   4.430
  753SOL    HW1 3158   3.595   3.676   4.381
  753SOL    HW2 3159   3.548   3.520   4.391
  754SOL     OW 3160   5.840   0.678   0.195
  754SOL    HW1 3161   5.820   0.593   0.244
  754SOL    HW2 3162   5.897   0.658   0.115
  755SOL     OW 3163   4.086   4.213   5.299
  755SOL    HW1 3164   4.138   4.291   5.263
  755SOL    HW2 3165   3.993   4.215   5.261
  756SOL     OW 3166   2.406   5.156   6.316
  756SOL    HW1 3167   2.410   5.228   6.385
  756SOL    HW2 3168   2.331   5.174   6.253
  757SOL     OW 3169   2.586   6.150   2.654
  757SOL    HW1 3170   2.642   6.076   2.691
  757SOL    HW2 3171   2.493   6.142   2.690
  758SOL     OW 3172   4.726   0.676   4.449
  758SOL    HW1 3173   4.797   0.629   4.396
  758SOL    HW2 3174   4.696   0.757   4.400
  759SOL     OW 3175   0.943   3.376   3.575
  759SOL    HW1 3176   0.959   3.373   3.674
  759SOL    HW2 3177   0.872   3.310   3.551
  760SOL     OW 3178   6.374   5.281   3.292
  760SOL    HW1 3179   6.348   5.234   3.207
  760SOL    HW2 3180   6.407   5.372   3.270
  761SOL     OW 3181   4.090   4.478   6.307
  761SOL    HW1 3182   4.015   4.533   6.344
  761SOL    HW2 3183   4.175   4.531   6.308
  762SOL     OW 3184   3.164   5.918   3.460
  762SOL    HW1 3185   3.252   5.905   3.505
  762SOL    HW2 3186   3.154   6.014   3.432
  763SOL     OW 3187   5.581   0.619   0.429
  763SOL    HW1 3188   5.582   0.694   0.494
  763SOL    HW2 3189   5.673   0.584   0.416
  764SOL     OW 3190   5.197   6.601   5.846
  764SOL    HW1 3191   5.186   6.545   5.763
  764SOL    HW2 3192   5.123   6.581   5.910
  765SOL     OW 3193   6.866   7.010   0.697
  765SOL    HW1 3194   6.923   0.069   0.724
  765SOL    HW2 3195   6.810   6.981   0.774
  766SOL     OW 3196   2.711   2.109   4.557
  766SOL    HW1 3197   2.657   2.128   4.639
  766SOL    HW2 3198   2.734   2.195   4.512
  767SOL     OW 3199   6.503   5.024   4.645
  767SOL    HW1 3200   6.586   5.006   4.592
  767SOL    HW2 3201   6.528   5.050   4.738
  768SOL     OW 3202   1.560   5.735   2.800
  768SOL    HW1 3203   1.536   5.650   2.753
  768SOL    HW2 3204   1.501   5.809   2.768
  769SOL     OW 3205   2.934   1.995   5.553
  769SOL    HW1 3206   2.963   2.082   5.594
  769SOL    HW2 3207   2.890   2.012   5.465
  770SOL     OW 3208   1.093   5.102   5.764
  770SOL    HW1 3209   1.119   5.199   5.766
  770SOL    HW2 3210   1.169   5.047   5.797
  771SOL     OW 3211   1.642   5.130   2.709
  771SOL    HW1 3212   1.606   5.195   2.776
  771SOL    HW2 3213   1.714   5.075   2.751
  772SOL     OW 3214   5.978   4.054   0.343
  772SOL    HW1 3215   5.939   4.129   0.397
  772SOL    HW2 3216   6.015   3.985   0.406
  773SOL     OW 3217   1.597   4.301   3.916
  773SOL    HW1 3218   1.694   4.281   3.901
  773SOL    HW2 3219   1.542   4.226   3.878
  774SOL     OW 3220   2.240   0.579   3.180
  774SOL    HW1 3221   2.310   0.616   3.240
  774SOL    HW2 3222   2.171   0.649   3.162
  775SOL     OW 3223   1.097   4.354   2.945
  775SOL    HW1 3224   1.005   4.320   2.925
  775SOL    HW2 3225   1.143   4.374   2.859
  776SOL     OW 3226   2.394   5.518   5.771
  776SOL    HW1 3227   2.445   5.599   5.799
  776SOL    HW2 3228   2.375   5.460   5.850
  777SOL     OW 3229   2.603   3.975   6.510
  777SOL    HW1 3230   2.548   4.054   6.484
  777SOL    HW2 3231   2.558   3.925   6.584
  778SOL     OW 3232   3.017   6.212   6.909
  778SOL    HW1 3233   3.063   6.124   6.919
  778SOL    HW2 3234   2.976   6.238   6.996
  779SOL     OW 3235   0.024   2.237   3.244
  779SOL    HW1 3236   0.031   2.332   3.214
  779SOL    HW2 3237   6.958   2.225   3.296
  780SOL     OW 3238   0.050   2.377   4.638
  780SOL    HW1 3239   0.125   2.310   4.644
  780SOL    HW2 3240   6.995   2.338   4.584
  781SOL     OW 3241   0.077   4.670   6.989
  781SOL    HW1 3242   0.131   4.602   0.020
  781SOL    HW2 3243   0.012   4.713   0.034
  782SOL     OW 3244   1.827   3.588   4.557
  782SOL    HW1 3245   1.787   3.666   4.603
  782SOL    HW2 3246   1.923   3.579   4.585
  783SOL     OW 3247   6.454   4.937   6.802
  783SOL    HW1 3248   6.430   4.844   6.829
  783SOL    HW2 3249   6.431   4.951   6.706
  784SOL     OW 3250   2.276   5.997   0.865
  784SOL    HW1 3251   2.335   5.917   0.862
  784SOL    HW2 3252   2.189   5.977   0.820
  785SOL     OW 3253   0.804   0.813   3.959
  785SOL    HW1 3254   0.894   0.774   3.980
  785SOL    HW2 3255   0.733   0.759   4.005
  786SOL     OW 3256   6.048   0.821   4.085
  786SOL    HW1 3257   6.091   0.736   4.056
  786SOL    HW2 3258   5.991   0.857   4.010
  787SOL     OW 3259   2.282   6.877   1.075
  787SOL    HW1 3260   2.346   6.937   1.123
  787SOL    HW2 3261   2.299   6.782   1.102
  788SOL     OW 3262   1.818   2.351   2.082
  788SOL    HW1 3263   1.911   2.341   2.047
  788SOL    HW2 3264   1.753   2.342   2.006
  789SOL     OW 3265   4.286   4.633   2.731
  789SOL    HW1 3266   4.333   4.563   2.784
  789SOL    HW2 3267   4.295   4.612   2.633
  790SOL     OW 3268   0.752   2.793   2.081
  790SOL    HW1 3269   0.789   2.872   2.032
  790SOL    HW2 3270   0.677   2.823   2.140
  791SOL     OW 3271   2.546   6.323   3.825
  791SOL    HW1 3272   2.580   6.407   3.867
  791SOL    HW2 3273   2.542   6.335   3.726
  792SOL     OW 3274   1.679   0.108   6.998
  792SOL    HW1 3275   1.600   0.087   0.037
  792SOL    HW2 3276   1.759   0.061   0.015
  793SOL     OW 3277   2.572   6.560   3.963
  793SOL    HW1 3278   2.524   6.598   3.884
  793SOL    HW2 3279   2.516   6.572   4.045
  794SOL     OW 3280   2.937   3.551   2.362
  794SOL    HW1 3281   2.898   3.494   2.290
  794SOL    HW2 3282   2.951   3.495   2.444
  795SOL     OW 3283   4.032   0.941   6.030
  795SOL    HW1 3284   4.126   0.974   6.034
  795SOL    HW2 3285   4.031   0.848   5.993
  796SOL     OW 3286   0.291   2.588   0.641
  796SOL    HW1 3287   0.363   2.591   0.711
  796SOL    HW2 3288   0.290   2.674   0.590
  797SOL     OW 3289   4.437   0.241   1.006
  797SOL    HW1 3290   4.381   0.292   0.941
  797SOL    HW2 3291   4.438   0.144   0.980
  798SOL     OW 3292   5.280   5.758   1.213
  798SOL    HW1 3293   5.260   5.666   1.179
  798SOL    HW2 3294   5.321   5.812   1.139
  799SOL     OW 3295   2.581   2.175   5.716
  799SOL    HW1 3296   2.546   2.088   5.680
  799SOL    HW2 3297   2.629   2.224   5.643
  800SOL     OW 3298   5.569   2.775   3.228
  800SOL    HW1 3299   5.637   2.763   3.301
  800SOL    HW2 3300   5.611   2.754   3.140
  801SOL     OW 3301   1.867   5.886   6.403
  801SOL    HW1 3302   1.886   5.907   6.307
  801SOL    HW2 3303   1.866   5.787   6.416
  802SOL     OW 3304   4.974   2.101   6.528
  802SOL    HW1 3305   4.875   2.116   6.531
  802SOL    HW2 3306   4.997   2.019   6.580
  803SOL     OW 3307   2.514   1.849   4.487
  803SOL    HW1 3308   2.581   1.923   4.495
  803SOL    HW2 3309   2.562   1.761   4.492
  804SOL     OW 3310   5.223   0.732   3.264
  804SOL    HW1 3311   5.213   0.723   3.364
  804SOL    HW2 3312   5.152   0.793   3.229
  805SOL     OW 3313   3.501   0.454   4.031
  805SOL    HW1 3314   3.434   0.494   3.969
  805SOL    HW2 3315   3.582   0.512   4.034
  806SOL     OW 3316   2.641   6.108   5.476
  806SOL    HW1 3317   2.565   6.132   5.415
  806SOL    HW2 3318   2.613   6.035   5.537
  807SOL     OW 3319   1.136   6.428   5.731
  807SOL    HW1 3320   1.065   6.492   5.699
  807SOL    HW2 3321   1.163   6.368   5.655
  808SOL     OW 3322   5.424   2.601   6.152
  808SOL    HW1 3323   5.406   2.587   6.054
  808SOL    HW2 3324   5.383   2.687   6.182
  809SOL     OW 3325   2.639   4.981   7.015
  809SOL    HW1 3326   2.703   4.904   7.009
  809SOL    HW2 3327   2.547   4.946   0.013
  810SOL     OW 3328   3.524   3.388   0.088
  810SOL    HW1 3329   3.441   3.373   0.032
  810SOL    HW2 3330   3.544   3.486   0.092
  811SOL     OW 3331   6.293   5.167   4.742
  811SOL    HW1 3332   6.339   5.195   4.826
  811SOL    HW2 3333   6.361   5.131   4.677
  812SOL     OW 3334   0.553   3.804   1.791
  812SOL    HW1 3335   0.521   3.738   1.723
  812SOL    HW2 3336   0.652   3.817   1.780
  813SOL     OW 3337   1.471   1.887   5.517
  813SOL    HW1 3338   1.496   1.976   5.556
  813SOL    HW2 3339   1.542   1.821   5.539
  814SOL     OW 3340   0.194   4.714   2.690
  814SOL    HW1 3341   0.176   4.657   2.771
  814SOL    HW2 3342   0.142   4.678   2.612
  815SOL     OW 3343   4.198   1.950   4.650
  815SOL    HW1 3344   4.105   1.955   4.685
  815SOL    HW2 3345   4.204   1.878   4.581
  816SOL     OW 3346   5.873   4.505   6.815
  816SOL    HW1 3347   5.816   4.503   6.897
  816SOL    HW2 3348   5.819   4.477   6.736
  817SOL     OW 3349   0.396   5.195   0.187
  817SOL    HW1 3350   0.364   5.290   0.190
  817SOL    HW2 3351   0.488   5.189   0.225
  818SOL     OW 3352   6.828   2.364   5.083
  818SOL    HW1 3353   6.874   2.328   5.002
  818SOL    HW2 3354   6.854   2.460   5.096
  819SOL     OW 3355   4.858   3.196   1.760
  819SOL    HW1 3356   4.877   3.136   1.682
  819SOL    HW2 3357   4.822   3.142   1.836
  820SOL     OW 3358   2.407   1.812   5.255
  820SOL    HW1 3359   2.377   1.807   5.351
  820SOL    HW2 3360   2.504   1.833   5.252
  821SOL     OW 3361   5.089   3.530   6.458
  821SOL    HW1 3362   5.002   3.570   6.427
  821SOL    HW2 3363   5.083   3.508   6.555
  822SOL     OW 3364   0.510   4.718   3.308
  822SOL    HW1 3365   0.430   4.774   3.286
  822SOL    HW2 3366   0.542   4.741   3.400
  823SOL     OW 3367   1.337   3.305   4.981
  823SOL    HW1 3368   1.246   3.300   4.939
  823SOL    HW2 3369   1.366   3.213   5.009
  824SOL     OW 3370   4.946   0.571   6.614
  824SOL    HW1 3371   4.909   0.662   6.595
  824SOL    HW2 3372   4.986   0.533   6.530
  825SOL     OW 3373   5.971   5.921   0.877
  825SOL    HW1 3374   5.995   5.877   0.964
  825SOL    HW2 3375   6.055   5.948   0.829
  826SOL     OW 3376   3.568   2.164   0.072
  826SOL    HW1 3377   3.588   2.246   0.018
  826SOL    HW2 3378   3.584   2.184   0.169
  827SOL     OW 3379   3.445   4.007   5.240
  827SOL    HW1 3380   3.475   4.047   5.326
  827SOL    HW2 3381   3.375   4.065   5.199
  828SOL     OW 3382   0.163   6.551   6.270
  828SOL    HW1 3383   0.149   6.489   6.347
  828SOL    HW2 3384   0.170   6.645   6.303
  829SOL     OW 3385   3.701   3.240   2.303
  829SOL    HW1 3386   3.620   3.192   2.270
  829SOL    HW2 3387   3.717   3.321   2.247
  830SOL     OW 3388   6.909   4.756   0.149
  830SOL    HW1 3389   6.893   4.840   0.201
  830SOL    HW2 3390   6.837   4.690   0.171
  831SOL     OW 3391   5.037   0.723   1.868
  831SOL    HW1 3392   4.962   0.788   1.856
  831SOL    HW2 3393   5.107   0.764   1.927
  832SOL     OW 3394   2.946   1.403   5.002
  832SOL    HW1 3395   3.025   1.453   4.968
  832SOL    HW2 3396   2.975   1.310   5.029
  833SOL     OW 3397   3.587   2.498   0.227
  833SOL    HW1 3398   3.626   2.590   0.226
  833SOL    HW2 3399   3.537   2.483   0.142
  834SOL     OW 3400   5.906   2.763   0.488
  834SOL    HW1 3401   5.977   2.786   0.422
  834SOL    HW2 3402   5.817   2.793   0.454
  835SOL     OW 3403   0.297   0.013   4.882
  835SOL    HW1 3404   0.270   0.093   4.936
  835SOL    HW2 3405   0.385   0.030   4.840
  836SOL     OW 3406   4.990   0.663   4.999
  836SOL    HW1 3407   5.039   0.749   4.983
  836SOL    HW2 3408   5.053   0.586   4.986
  837SOL     OW 3409   1.535   0.381   0.131
  837SOL    HW1 3410   1.533   0.401   0.033
  837SOL    HW2 3411   1.511   0.463   0.182
  838SOL     OW 3412   1.218   5.838   3.268
  838SOL    HW1 3413   1.298   5.869   3.319
  838SOL    HW2 3414   1.138   5.836   3.329
  839SOL     OW 3415   1.476   2.033   0.344
  839SOL    HW1 3416   1.441   1.988   0.261
  839SOL    HW2 3417   1.545   1.974   0.386
  840SOL     OW 3418   4.318   5.086   0.144
  840SOL    HW1 3419   4.385   5.160   0.134
  840SOL    HW2 3420   4.358   5.000   0.113
  841SOL     OW 3421   3.016   5.010   0.050
  841SOL    HW1 3422   2.936   5.067   0.030
  841SOL    HW2 3423   2.989   4.936   0.112
  842SOL     OW 3424   4.359   5.363   0.952
  842SOL    HW1 3425   4.430   5.296   0.971
  842SOL    HW2 3426   4.298   5.371   1.031
  843SOL     OW 3427   1.047   0.462   2.403
  843SOL    HW1 3428   0.979   0.404   2.358
  843SOL    HW2 3429   1.042   0.450   2.502
  844SOL     OW 3430   0.156   0.778   1.753
  844SOL    HW1 3431   0.256   0.778   1.751
  844SOL    HW2 3432   0.121   0.739   1.667
  845SOL     OW 3433   3.058   1.364   2.581
  845SOL    HW1 3434   3.027   1.443   2.633
  845SOL    HW2 3435   3.154   1.345   2.603
  846SOL     OW 3436   2.877   1.825   0.783
  846SOL    HW1 3437   2.946   1.769   0.828
  846SOL    HW2 3438   2.836   1.887   0.850
  847SOL     OW 3439   2.678   3.550   1.645
  847SOL    HW1 3440   2.769   3.590   1.639
  847SOL    HW2 3441   2.610   3.623   1.651
  848SOL     OW 3442   6.805   6.305   0.278
  848SOL    HW1 3443   6.861   6.385   0.297
  848SOL    HW2 3444   6.779   6.260   0.364
  849SOL     OW 3445   5.898   3.346   6.517
  849SOL    HW1 3446   5.960   3.408   6.468
  849SOL    HW2 3447   5.812   3.394   6.536
  850SOL     OW 3448   0.907   1.036   5.071
  850SOL    HW1 3449   0.952   1.114   5.115
  850SOL    HW2 3450   0.974   0.964   5.054
  851SOL     OW 3451   5.245   3.549   5.762
  851SOL    HW1 3452   5.300   3.626   5.795
  851SOL    HW2 3453   5.173   3.582   5.703
  852SOL     OW 3454   0.366   3.787   2.063
  852SOL    HW1 3455   0.417   3.791   1.978
  852SOL    HW2 3456   0.326   3.696   2.074
  853SOL     OW 3457   2.659   2.827   0.518
  853SOL    HW1 3458   2.650   2.730   0.542
  853SOL    HW2 3459   2.629   2.884   0.594
  854SOL     OW 3460   5.908   6.122   5.534
  854SOL    HW1 3461   5.984   6.058   5.526
  854SOL    HW2 3462   5.831   6.077   5.580
  855SOL     OW 3463   5.772   1.718   0.201
  855SOL    HW1 3464   5.788   1.622   0.225
  855SOL    HW2 3465   5.673   1.736   0.202
  856SOL     OW 3466   1.795   5.128   1.782
  856SOL    HW1 3467   1.876   5.106   1.728
  856SOL    HW2 3468   1.717   5.142   1.721
  857SOL     OW 3469   6.831   5.787   4.909
  857SOL    HW1 3470   6.851   5.702   4.957
  857SOL    HW2 3471   6.779   5.848   4.969
  858SOL     OW 3472   4.299   3.642   0.179
  858SOL    HW1 3473   4.392   3.667   0.206
  858SOL    HW2 3474   4.233   3.702   0.225
  859SOL     OW 3475   5.435   6.147   5.025
  859SOL    HW1 3476   5.413   6.088   4.947
  859SOL    HW2 3477   5.353   6.197   5.053
  860SOL     OW 3478   4.812   2.874   6.200
  860SOL    HW1 3479   4.904   2.838   6.194
  860SOL    HW2 3480   4.796   2.908   6.293
  861SOL     OW 3481   1.899   5.712   1.627
  861SOL    HW1 3482   1.850   5.721   1.541
  861SOL    HW2 3483   1.840   5.670   1.695
  862SOL     OW 3484   0.231   4.013   3.985
  862SOL    HW1 3485   0.141   3.969   3.974
  862SOL    HW2 3486   0.233   4.099   3.934
  863SOL     OW 3487   6.203   0.757   1.425
  863SOL    HW1 3488   6.226   0.791   1.516
  863SOL    HW2 3489   6.286   0.756   1.369
  864SOL     OW 3490   5.758   6.344   4.056
  864SOL    HW1 3491   5.730   6.322   4.149
  864SOL    HW2 3492   5.711   6.284   3.992
  865SOL     OW 3493   1.514   6.075   5.729
  865SOL    HW1 3494   1.473   6.090   5.639
  865SOL    HW2 3495   1.474   6.139   5.795
  866SOL     OW 3496   3.828   0.099   1.609
  866SOL    HW1 3497   3.743   0.138   1.644
  866SOL    HW2 3498   3.811   0.056   1.520
  867SOL     OW 3499   5.978   1.659   5.810
  867SOL    HW1 3500   6.043   1.726   5.845
  867SOL    HW2 3501   5.914   1.703   5.746
  868SOL     OW 3502   0.210   2.415   1.890
  868SOL    HW1 3503   0.269   2.495   1.904
  868SOL    HW2 3504   0.262   2.332   1.909
  869SOL     OW 3505   6.940   3.664   3.539
  869SOL    HW1 3506   6.995   3.741   3.571
  869SOL    HW2 3507   6.976   3.579   3.578
  870SOL     OW 3508   3.753   5.157   2.337
  870SOL    HW1 3509   3.771   5.134   2.241
  870SOL    HW2 3510   3.806   5.237   2.362
  871SOL     OW 3511   4.887   1.635   3.542
  871SOL    HW1 3512   4.825   1.713   3.552
  871SOL    HW2 3513   4.963   1.660   3.484
  872SOL     OW 3514   0.959   2.379   4.705
  872SOL    HW1 3515   0.940   2.288   4.668
  872SOL    HW2 3516   0.981   2.372   4.802
  873SOL     OW 3517   3.908   6.884   6.055
  873SOL    HW1 3518   3.848   6.810   6.025
  873SOL    HW2 3519   3.997   6.847   6.081
  874SOL     OW 3520   4.791   3.973   1.583
  874SOL    HW1 3521   4.880   3.967   1.627
  874SOL    HW2 3522   4.735   3.894   1.609
  875SOL     OW 3523   4.815   5.454   1.442
  875SOL    HW1 3524   4.741   5.421   1.500
  875SOL    HW2 3525   4.787   5.541   1.400
  876SOL     OW 3526   0.000   0.215   0.761
  876SOL    HW1 3527   0.078   0.276   0.742
  876SOL    HW2 3528   6.940   0.270   0.787
  877SOL     OW 3529   2.094   3.611   6.531
  877SOL    HW1 3530   2.018   3.552   6.554
  877SOL    HW2 3531   2.118   3.667   6.611
  878SOL     OW 3532   4.150   6.300   4.628
  878SOL    HW1 3533   4.143   6.309   4.727
  878SOL    HW2 3534   4.186   6.384   4.589
  879SOL     OW 3535   6.036   0.014   0.621
  879SOL    HW1 3536   6.072   6.940   0.615
  879SOL    HW2 3537   6.112   0.079   0.628
  880SOL     OW 3538   2.824   3.548   2.089
  880SOL    HW1 3539   2.731   3.580   2.108
  880SOL    HW2 3540   2.890   3.620   2.113
  881SOL     OW 3541   4.146   1.658   0.535
  881SOL    HW1 3542   4.232   1.663   0.483
  881SOL    HW2 3543   4.156   1.710   0.620
  882SOL     OW 3544   1.532   3.335   4.546
  882SOL    HW1 3545   1.543   3.274   4.467
  882SOL    HW2 3546   1.594   3.307   4.619
  883SOL     OW 3547   2.971   6.986   3.030
  883SOL    HW1 3548   2.998   0.063   3.023
  883SOL    HW2 3549   3.053   6.928   3.033
  884SOL     OW 3550   4.097   3.790   5.813
  884SOL    HW1 3551   4.072   3.728   5.887
  884SOL    HW2 3552   4.083   3.745   5.725
  885SOL     OW 3553   3.921   2.654   6.235
  885SOL    HW1 3554   3.822   2.655   6.221
  885SOL    HW2 3555   3.944   2.581   6.299
  886SOL     OW 3556   3.569   0.781   6.872
  886SOL    HW1 3557   3.527   0.810   6.958
  886SOL    HW2 3558   3.667   0.771   6.885
  887SOL     OW 3559   4.926   1.684   4.342
  887SOL    HW1 3560   4.855   1.615   4.351
  887SOL    HW2 3561   4.949   1.720   4.432
  888SOL     OW 3562   6.601   6.524   2.949
  888SOL    HW1 3563   6.647   6.536   2.861
  888SOL    HW2 3564   6.607   6.609   3.002
  889SOL     OW 3565   0.474   4.116   0.038
  889SOL    HW1 3566   0.474   4.057   6.976
  889SOL    HW2 3567   0.549   4.182   0.030
  890SOL     OW 3568   2.468   5.237   4.113
  890SOL    HW1 3569   2.538   5.191   4.168
  890SOL    HW2 3570   2.439   5.178   4.038
  891SOL     OW 3571   4.863   5.894   1.439
  891SOL    HW1 3572   4.813   5.836   1.375
  891SOL    HW2 3573   4.909   5.836   1.506
  892SOL     OW 3574   2.903   4.349   0.682
  892SOL    HW1 3575   2.809   4.362   0.652
  892SOL    HW2 3576   2.904   4.334   0.781
  893SOL     OW 3577   2.437   6.592   2.382
  893SOL    HW1 3578   2.465   6.611   2.288
  893SOL    HW2 3579   2.379   6.510   2.384
  894SOL     OW 3580   0.726   4.377   1.039
  894SOL    HW1 3581   0.743   4.366   0.941
  894SOL    HW2 3582   0.635   4.343   1.061
  895SOL     OW 3583   0.273   5.678   4.004
  895SOL    HW1 3584   0.246   5.684   4.100
  895SOL    HW2 3585   0.306   5.586   3.985
  896SOL     OW 3586   6.912   0.069   6.186
  896SOL    HW1 3587   6.962   7.001   6.184
  896SOL    HW2 3588   6.920   0.110   6.277
  897SOL     OW 3589   5.176   0.795   0.124
  897SOL    HW1 3590   5.275   0.807   0.114
  897SOL    HW2 3591   5.130   0.827   0.042
  898SOL     OW 3592   4.074   6.195   3.197
  898SOL    HW1 3593   4.088   6.294   3.187
  898SOL    HW2 3594   4.061   6.173   3.294
  899SOL     OW 3595   0.246   4.886   0.277
  899SOL    HW1 3596   0.166   4.937   0.246
  899SOL    HW2 3597   0.323   4.948   0.288
  900SOL     OW 3598   5.038   5.257   0.667
  900SOL    HW1 3599   5.064   5.328   0.602
  900SOL    HW2 3600   4.986   5.298   0.742
  901SOL     OW 3601   1.465   0.873   2.484
  901SOL    HW1 3602   1.553   0.918   2.469
  901SOL    HW2 3603   1.448   0.866   2.582
  902SOL     OW 3604   5.958   3.398   2.098
  902SOL    HW1 3605   5.935   3.403   2.195
  902SOL    HW2 3606   5.876   3.375   2.045
  903SOL     OW 3607   0.171   2.161   0.763
  903SOL    HW1 3608   0.178   2.225   0.686
  903SOL    HW2 3609   0.081   2.117   0.762
  904SOL     OW 3610   3.249   1.248   1.600
  904SOL    HW1 3611   3.231   1.344   1.577
  904SOL    HW2 3612   3.308   1.208   1.530
  905SOL     OW 3613   6.217   3.114   6.428
  905SOL    HW1 3614   6.267   3.028   6.414
  905SOL    HW2 3615   6.154   3.129   6.352
  906SOL     OW 3616   5.899   3.623   6.789
  906SOL    HW1 3617   5.868   3.538   6.830
  906SOL    HW2 3618   5.857   3.701   6.836
  907SOL     OW 3619   5.187   4.224   6.827
  907SOL    HW1 3620   5.101   4.183   6.798
  907SOL    HW2 3621   5.180   4.323   6.823
  908SOL     OW 3622   1.247   4.396   2.707
  908SOL    HW1 3623   1.313   4.333   2.667
  908SOL    HW2 3624   1.273   4.490   2.685
  909SOL     OW 3625   4.981   5.313   6.271
  909SOL    HW1 3626   4.947   5.272   6.186
  909SOL    HW2 3627   4.919   5.288   6.346
  910SOL     OW 3628   2.584   4.296   0.923
  910SOL    HW1 3629   2.535   4.292   1.010
  910SOL    HW2 3630   2.569   4.210   0.873
  911SOL     OW 3631   0.758   5.272   6.491
  911SOL    HW1 3632   0.717   5.339   6.430
  911SOL    HW2 3633   0.736   5.179   6.459
  912SOL     OW 3634   4.900   1.861   3.293
  912SOL    HW1 3635   4.828   1.877   3.360
  912SOL    HW2 3636   4.966   1.795   3.330
  913SOL     OW 3637   5.007   0.077   2.674
  913SOL    HW1 3638   5.106   0.085   2.686
  913SOL    HW2 3639   4.981   6.999   2.681
  914SOL     OW 3640   2.950   0.123   6.562
  914SOL    HW1 3641   2.857   0.127   6.599
  914SOL    HW2 3642   2.951   0.160   6.470
  915SOL     OW 3643   5.235   5.501   0.685
  915SOL    HW1 3644   5.321   5.484   0.734
  915SOL    HW2 3645   5.178   5.563   0.739
  916SOL     OW 3646   1.322   2.351   2.434
  916SOL    HW1 3647   1.268   2.293   2.372
  916SOL    HW2 3648   1.416   2.355   2.402
  917SOL     OW 3649   6.719   6.508   0.662
  917SOL    HW1 3650   6.726   6.512   0.762
  917SOL    HW2 3651   6.704   6.414   0.634
  918SOL     OW 3652   2.575   5.724   0.275
  918SOL    HW1 3653   2.509   5.648   0.278
  918SOL    HW2 3654   2.650   5.701   0.215
  919SOL     OW 3655   6.024   2.035   4.899
  919SOL    HW1 3656   5.954   2.093   4.941
  919SOL    HW2 3657   6.051   2.075   4.811
  920SOL     OW 3658   2.295   5.370   2.502
  920SOL    HW1 3659   2.313   5.334   2.410
  920SOL    HW2 3660   2.381   5.380   2.551
  921SOL     OW 3661   4.843   5.199   5.120
  921SOL    HW1 3662   4.875   5.139   5.046
  921SOL    HW2 3663   4.918   5.260   5.147
  922SOL     OW 3664   3.617   2.923   3.624
  922SOL    HW1 3665   3.591   2.922   3.721
  922SOL    HW2 3666   3.536   2.907   3.568
  923SOL     OW 3667   2.183   3.612   5.480
  923SOL    HW1 3668   2.232   3.669   5.414
  923SOL    HW2 3669   2.091   3.593   5.445
  924SOL     OW 3670   6.906   3.528   2.236
  924SOL    HW1 3671   6.876   3.480   2.153
  924SOL    HW2 3672   6.851   3.499   2.314
  925SOL     OW 3673   6.849   1.844   0.035
  925SOL    HW1 3674   6.857   1.797   6.965
  925SOL    HW2 3675   6.767   1.813   0.082
  926SOL     OW 3676   1.522   1.673   2.156
  926SOL    HW1 3677   1.482   1.718   2.077
  926SOL    HW2 3678   1.489   1.716   2.240
  927SOL     OW 3679   6.294   3.574   3.979
  927SOL    HW1 3680   6.327   3.608   4.066
  927SOL    HW2 3681   6.201   3.607   3.963
  928SOL     OW 3682   3.294   4.649   6.179
  928SOL    HW1 3683   3.292   4.702   6.264
  928SOL    HW2 3684   3.380   4.667   6.131
  929SOL     OW 3685   0.361   1.613   4.842
  929SOL    HW1 3686   0.458   1.627   4.827
  929SOL    HW2 3687   0.331   1.530   4.794
  930SOL     OW 3688   5.153   4.884   5.594
  930SOL    HW1 3689   5.112   4.951   5.657
  930SOL    HW2 3690   5.231   4.926   5.548
  931SOL     OW 3691   6.609   1.562   3.428
  931SOL    HW1 3692   6.587   1.512   3.512
  931SOL    HW2 3693   6.666   1.641   3.451
  932SOL     OW 3694   3.976   0.786   3.443
  932SOL    HW1 3695   4.044   0.756   3.509
  932SOL    HW2 3696   4.021   0.811   3.357
  933SOL     OW 3697   1.583   5.460   2.175
  933SOL    HW1 3698   1.495   5.504   2.192
  933SOL    HW2 3699   1.649   5.528   2.142
  934SOL     OW 3700   2.014   4.004   0.383
  934SOL    HW1 3701   1.978   3.911   0.375
  934SOL    HW2 3702   1.944   4.070   0.358
  935SOL     OW 3703   5.883   2.912   4.299
  935SOL    HW1 3704   5.823   2.976   4.251
  935SOL    HW2 3705   5.942   2.963   4.362
  936SOL     OW 3706   1.552   6.859   6.016
  936SOL    HW1 3707   1.590   6.949   5.996
  936SOL    HW2 3708   1.615   6.789   5.985
  937SOL     OW 3709   3.398   2.093   5.985
  937SOL    HW1 3710   3.478   2.112   5.928
  937SOL    HW2 3711   3.351   2.179   6.005
  938SOL     OW 3712   6.053   5.455   4.538
  938SOL    HW1 3713   6.003   5.541   4.529
  938SOL    HW2 3714   6.122   5.449   4.465
  939SOL     OW 3715   0.052   6.576   6.030
  939SOL    HW1 3716   0.053   6.493   5.975
  939SOL    HW2 3717   0.083   6.555   6.123
  940SOL     OW 3718   1.936   4.774   6.762
  940SOL    HW1 3719   1.892   4.861   6.738
  940SOL    HW2 3720   1.867   4.709   6.793
  941SOL     OW 3721   3.611   0.243   0.452
  941SOL    HW1 3722   3.571   0.187   0.379
  941SOL    HW2 3723   3.572   0.335   0.448
  942SOL     OW 3724   0.258   5.438   0.168
  942SOL    HW1 3725   0.254   5.455   0.266
  942SOL    HW2 3726   0.170   5.400   0.138
  943SOL     OW 3727   3.550   5.911   1.988
  943SOL    HW1 3728   3.620   5.848   1.954
  943SOL    HW2 3729   3.467   5.859   2.010
  944SOL     OW 3730   6.386   6.694   4.278
  944SOL    HW1 3731   6.292   6.666   4.298
  944SOL    HW2 3732   6.403   6.688   4.180
  945SOL     OW 3733   0.771   5.527   7.015
  945SOL    HW1 3734   0.679   5.509   0.031
  945SOL    HW2 3735   0.773   5.512   6.916
  946SOL     OW 3736   5.185   2.606   4.423
  946SOL    HW1 3737   5.152   2.539   4.356
  946SOL    HW2 3738   5.238   2.559   4.493
  947SOL     OW 3739   3.797   4.059   4.193
  947SOL    HW1 3740   3.841   4.148   4.177
  947SOL    HW2 3741   3.778   4.016   4.105
  948SOL     OW 3742   3.750   0.865   2.848
  948SOL    HW1 3743   3.824   0.879   2.915
  948SOL    HW2 3744   3.783   0.805   2.775
  949SOL     OW 3745   3.263   6.744   5.843
  949SOL    HW1 3746   3.254   6.831   5.892
  949SOL    HW2 3747   3.245   6.668   5.906
  950SOL     OW 3748   6.751   6.915   2.141
  950SOL    HW1 3749   6.737   6.998   2.088
  950SOL    HW2 3750   6.666   6.862   2.144
  951SOL     OW 3751   2.118   6.679   3.328
  951SOL    HW1 3752   2.198   6.706   3.275
  951SOL    HW2 3753   2.106   6.742   3.405
  952SOL     OW 3754   3.137   0.949   2.868
  952SOL    HW1 3755   3.062   0.889   2.897
  952SOL    HW2 3756   3.218   0.894   2.849
  953SOL     OW 3757   6.802   4.449   5.648
  953SOL    HW1 3758   6.885   4.489   5.686
  953SOL    HW2 3759   6.727   4.515   5.654
  954SOL     OW 3760   4.527   6.052   2.699
  954SOL    HW1 3761   4.614   6.103   2.698
  954SOL    HW2 3762   4.541   5.964   2.744
  955SOL     OW 3763   2.177   4.920   0.367
  955SOL    HW1 3764   2.131   4.836   0.396
  955SOL    HW2 3765   2.214   4.967   0.446
  956SOL     OW 3766   4.922   0.430   1.048
  956SOL    HW1 3767   4.922   0.396   0.954
  956SOL    HW2 3768   4.881   0.521   1.051
  957SOL     OW 3769   5.980   1.276   3.212
  957SOL    HW1 3770   5.911   1.234   3.153
  957SOL    HW2 3771   5.948   1.274   3.307
  958SOL     OW 3772   5.587   6.914   1.626
  958SOL    HW1 3773   5.564   6.842   1.692
  958SOL    HW2 3774   5.533   6.995   1.645
  959SOL     OW 3775   4.661   6.767   3.488
  959SOL    HW1 3776   4.722   6.822   3.432
  959SOL    HW2 3777   4.670   6.794   3.584
  960SOL     OW 3778   1.646   6.695   6.473
  960SOL    HW1 3779   1.670   6.602   6.445
  960SOL    HW2 3780   1.728   6.743   6.505
  961SOL     OW 3781   3.529   0.115   3.082
  961SOL    HW1 3782   3.459   0.055   3.120
  961SOL    HW2 3783   3.615   0.065   3.074
  962SOL     OW 3784   6.593   0.869   4.676
  962SOL    HW1 3785   6.527   0.928   4.630
  962SOL    HW2 3786   6.590   0.885   4.775
  963SOL     OW 3787   5.181   3.064   1.017
  963SOL    HW1 3788   5.270   3.025   1.043
  963SOL    HW2 3789   5.185   3.163   1.026
  964SOL     OW 3790   4.511   5.017   5.337
  964SOL    HW1 3791   4.547   4.925   5.353
  964SOL    HW2 3792   4.587   5.083   5.335
  965SOL     OW 3793   5.775   2.311   3.686
  965SOL    HW1 3794   5.692   2.255   3.678
  965SOL    HW2 3795   5.855   2.250   3.688
  966SOL     OW 3796   4.758   1.377   4.689
  966SOL    HW1 3797   4.712   1.345   4.606
  966SOL    HW2 3798   4.704   1.448   4.733
  967SOL     OW 3799   4.361   3.878   6.655
  967SOL    HW1 3800   4.414   3.942   6.599
  967SOL    HW2 3801   4.422   3.834   6.721
  968SOL     OW 3802   3.983   0.879   1.399
  968SOL    HW1 3803   3.918   0.806   1.422
  968SOL    HW2 3804   4.012   0.925   1.484
  969SOL     OW 3805   2.970   4.281   6.253
  969SOL    HW1 3806   2.937   4.224   6.328
  969SOL    HW2 3807   2.980   4.225   6.171
  970SOL     OW 3808   5.366   0.051   6.070
  970SOL    HW1 3809   5.459   0.044   6.034
  970SOL    HW2 3810   5.302   0.006   6.007
  971SOL     OW 3811   5.593   3.434   3.756
  971SOL    HW1 3812   5.633   3.482   3.678
  971SOL    HW2 3813   5.616   3.337   3.751
  972SOL     OW 3814   0.096   2.804   0.215
  972SOL    HW1 3815   0.064   2.896   0.240
  972SOL    HW2 3816   0.021   2.755   0.170
  973SOL     OW 3817   0.271   3.431   5.970
  973SOL    HW1 3818   0.241   3.526   5.965
  973SOL    HW2 3819   0.229   3.387   6.049
  974SOL     OW 3820   0.156   4.683   2.311
  974SOL    HW1 3821   0.200   4.601   2.276
  974SOL    HW2 3822   0.072   4.659   2.359
  975SOL     OW 3823   3.398   0.616   2.104
  975SOL    HW1 3824   3.411   0.710   2.073
  975SOL    HW2 3825   3.394   0.613   2.203
  976SOL     OW 3826   6.872   3.080   3.181
  976SOL    HW1 3827   6.808   3.088   3.258
  976SOL    HW2 3828   6.825   3.102   3.096
  977SOL     OW 3829   6.452   0.549   2.083
  977SOL    HW1 3830   6.541   0.560   2.126
  977SOL    HW2 3831   6.416   0.639   2.057
  978SOL     OW 3832   5.516   3.017   1.894
  978SOL    HW1 3833   5.467   2.944   1.847
  978SOL    HW2 3834   5.505   3.103   1.843
  979SOL     OW 3835   0.392   4.367   6.919
  979SOL    HW1 3836   0.375   4.347   7.015
  979SOL    HW2 3837   0.434   4.457   6.910
  980SOL     OW 3838   3.720   0.818   4.641
  980SOL    HW1 3839   3.775   0.809   4.559
  980SOL    HW2 3840   3.635   0.867   4.620
  981SOL     OW 3841   6.999   0.180   5.941
  981SOL    HW1 3842   0.069   0.142   5.913
  981SOL    HW2 3843   6.972   0.139   6.028
  982SOL     OW 3844   6.082   1.238   5.966
  982SOL    HW1 3845   6.134   1.193   6.038
  982SOL    HW2 3846   6.013   1.175   5.930
  983SOL     OW 3847   0.295   4.889   3.869
  983SOL    HW1 3848   0.285   4.969   3.929
  983SOL    HW2 3849   0.358   4.824   3.911
  984SOL     OW 3850   0.643   3.523   3.598
  984SOL    HW1 3851   0.692   3.608   3.620
  984SOL    HW2 3852   0.708   3.457   3.559
  985SOL     OW 3853   6.503   5.139   5.355
  985SOL    HW1 3854   6.488   5.047   5.318
  985SOL    HW2 3855   6.459   5.207   5.296
  986SOL     OW 3856   4.975   5.319   1.817
  986SOL    HW1 3857   4.890   5.371   1.826
  986SOL    HW2 3858   5.041   5.372   1.764
  987SOL     OW 3859   4.693   4.316   4.283
  987SOL    HW1 3860   4.735   4.245   4.340
  987SOL    HW2 3861   4.681   4.282   4.190
  988SOL     OW 3862   2.573   4.659   2.096
  988SOL    HW1 3863   2.573   4.628   2.191
  988SOL    HW2 3864   2.665   4.647   2.057
  989SOL     OW 3865   1.643   2.031   0.875
  989SOL    HW1 3866   1.582   2.031   0.954
  989SOL    HW2 3867   1.642   1.941   0.831
  990SOL     OW 3868   3.697   0.233   4.191
  990SOL    HW1 3869   3.599   0.245   4.209
  990SOL    HW2 3870   3.722   0.138   4.208
  991SOL     OW 3871   0.159   5.359   4.319
  991SOL    HW1 3872   0.136   5.451   4.288
  991SOL    HW2 3873   0.085   5.324   4.376
  992SOL     OW 3874   0.027   2.338   0.054
  992SOL    HW1 3875   0.113   2.371   0.016
  992SOL    HW2 3876   7.011   2.263   7.017
  993SOL     OW 3877   1.488   5.245   0.114
  993SOL    HW1 3878   1.552   5.224   0.040
  993SOL    HW2 3879   1.520   5.202   0.198
  994SOL     OW 3880   3.471   6.008   0.504
  994SOL    HW1 3881   3.500   6.083   0.564
  994SOL    HW2 3882   3.541   5.937   0.502
  995SOL     OW 3883   6.810   4.236   6.091
  995SOL    HW1 3884   6.724   4.257   6.139
  995SOL    HW2 3885   6.866   4.177   6.149
  996SOL     OW 3886   3.768   5.885   4.425
  996SOL    HW1 3887   3.794   5.893   4.329
  996SOL    HW2 3888   3.805   5.961   4.477
  997SOL     OW 3889   1.455   6.750   3.567
  997SOL    HW1 3890   1.512   6.717   3.492
  997SOL    HW2 3891   1.432   6.846   3.552
  998SOL     OW 3892   4.541   0.068   5.955
  998SOL    HW1 3893   4.595   0.048   6.037
  998SOL    HW2 3894   4.558   0.161   5.925
  999SOL     OW 3895   4.859   3.747   2.367
  999SOL    HW1 3896   4.909   3.686   2.430
  999SOL    HW2 3897   4.762   3.746   2.391
 1000SOL     OW 3898   5.364   2.293   1.891
 1000SOL    HW1 3899   5.335   2.277   1.985
 1000SOL    HW2 3900   5.407   2.382   1.884
 1001SOL     OW 3901   3.158   0.316   2.360
 1001SOL    HW1 3902   3.140   0.299   2.264
 1001SOL    HW2 3903   3.232   0.383   2.369
 1002SOL     OW 3904   5.409   2.336   1.239
 1002SOL    HW1 3905   5.464   2.375   1.165
 1002SOL    HW2 3906   5.405   2.401   1.315
 1003SOL     OW 3907   1.012   0.377   3.248
 1003SOL    HW1 3908   0.961   0.329   3.319
 1003SOL    HW2 3909   1.063   0.312   3.192
 1004SOL     OW 3910   5.156   1.258   4.158
 1004SOL    HW1 3911   5.105   1.280   4.075
 1004SOL    HW2 3912   5.199   1.341   4.194
 1005SOL     OW 3913   1.602   4.988   2.039
 1005SOL    HW1 3914   1.700   4.971   2.048
 1005SOL    HW2 3915   1.584   5.087   2.047
 1006SOL     OW 3916   2.460   4.023   1.298
 1006SOL    HW1 3917   2.429   4.042   1.391
 1006SOL    HW2 3918   2.551   3.981   1.302
 1007SOL     OW 3919   4.836   0.831   6.568
 1007SOL    HW1 3920   4.767   0.829   6.495
 1007SOL    HW2 3921   4.791   0.820   6.656
 1008SOL     OW 3922   0.675   5.085   5.460
 1008SOL    HW1 3923   0.715   5.147   5.527
 1008SOL    HW2 3924   0.622   5.138   5.393
 1009SOL     OW 3925   6.793   5.835   5.813
 1009SOL    HW1 3926   6.865   5.771   5.786
 1009SOL    HW2 3927   6.719   5.785   5.858
 1010SOL     OW 3928   3.056   3.500   0.775
 1010SOL    HW1 3929   3.132   3.505   0.711
 1010SOL    HW2 3930   2.973   3.532   0.731
 1011SOL     OW 3931   0.186   5.536   2.261
 1011SOL    HW1 3932   0.144   5.476   2.192
 1011SOL    HW2 3933   0.275   5.567   2.228
 1012SOL     OW 3934   4.892   6.873   3.249
 1012SOL    HW1 3935   4.937   6.807   3.309
 1012SOL    HW2 3936   4.884   6.961   3.297
 1013SOL     OW 3937   6.876   6.888   6.543
 1013SOL    HW1 3938   6.821   6.838   6.476
 1013SOL    HW2 3939   6.904   6.976   6.505
 1014SOL     OW 3940   1.114   4.341   5.135
 1014SOL    HW1 3941   1.156   4.430   5.121
 1014SOL    HW2 3942   1.017   4.345   5.110
 1015SOL     OW 3943   3.046   6.511   0.121
 1015SOL    HW1 3944   2.993   6.501   0.037
 1015SOL    HW2 3945   3.018   6.442   0.187
 1016SOL     OW 3946   6.067   3.949   1.572
 1016SOL    HW1 3947   6.155   3.901   1.572
 1016SOL    HW2 3948   6.004   3.901   1.633
 1017SOL     OW 3949   2.268   1.569   1.664
 1017SOL    HW1 3950   2.171   1.583   1.681
 1017SOL    HW2 3951   2.315   1.551   1.750
 1018SOL     OW 3952   6.571   6.402   5.125
 1018SOL    HW1 3953   6.562   6.309   5.160
 1018SOL    HW2 3954   6.481   6.446   5.121
 1019SOL     OW 3955   6.499   4.083   1.132
 1019SOL    HW1 3956   6.541   4.163   1.089
 1019SOL    HW2 3957   6.496   4.008   1.065
 1020SOL     OW 3958   5.235   1.422   0.817
 1020SOL    HW1 3959   5.311   1.365   0.787
 1020SOL    HW2 3960   5.182   1.453   0.738
 1021SOL     OW 3961   0.905   6.623   1.179
 1021SOL    HW1 3962   0.806   6.608   1.173
 1021SOL    HW2 3963   0.925   6.719   1.159
 1022SOL     OW 3964   2.372   5.667   6.340
 1022SOL    HW1 3965   2.424   5.709   6.266
 1022SOL    HW2 3966   2.341   5.738   6.404
 1023SOL     OW 3967   0.580   0.969   3.221
 1023SOL    HW1 3968   0.582   1.064   3.254
 1023SOL    HW2 3969   0.533   0.912   3.289
 1024SOL     OW 3970   1.879   1.992   4.407
 1024SOL    HW1 3971   1.793   1.977   4.456
 1024SOL    HW2 3972   1.945   1.923   4.435
 1025SOL     OW 3973   4.675   4.296   0.403
 1025SOL    HW1 3974   4.756   4.247   0.435
 1025SOL    HW2 3975   4.596   4.234   0.403
 1026SOL     OW 3976   3.234   2.731   1.706
 1026SOL    HW1 3977   3.192   2.644   1.680
 1026SOL    HW2 3978   3.325   2.737   1.666
 1027SOL     OW 3979   0.781   6.720   0.315
 1027SOL    HW1 3980   0.841   6.799   0.311
 1027SOL    HW2 3981   0.722   6.727   0.396
 1028SOL     OW 3982   1.385   6.004   2.727
 1028SOL    HW1 3983   1.382   6.007   2.827
 1028SOL    HW2 3984   1.380   6.097   2.691
 1029SOL     OW 3985   0.921   0.897   6.194
 1029SOL    HW1 3986   0.847   0.954   6.159
 1029SOL    HW2 3987   1.002   0.954   6.210
 1030SOL     OW 3988   3.837   3.262   1.087
 1030SOL    HW1 3989   3.808   3.230   0.997
 1030SOL    HW2 3990   3.929   3.229   1.107
 1031SOL     OW 3991   3.921   2.942   0.906
 1031SOL    HW1 3992   3.858   2.868   0.880
 1031SOL    HW2 3993   3.881   3.030   0.880
 1032SOL     OW 3994   2.128   1.356   6.823
 1032SOL    HW1 3995   2.174   1.394   6.742
 1032SOL    HW2 3996   2.056   1.418   6.853
 1033SOL     OW 3997   0.555   6.832   2.622
 1033SOL    HW1 3998   0.484   6.772   2.586
 1033SOL    HW2 3999   0.631   6.836   2.557
 1034SOL     OW 4000   3.033   0.814   4.343
 1034SOL    HW1 4001   2.962   0.751   4.313
 1034SOL    HW2 4002   3.082   0.775   4.420
 1035SOL     OW 4003   1.682   1.497   6.824
 1035SOL    HW1 4004   1.642   1.581   6.787
 1035SOL    HW2 4005   1.623   1.420   6.802
 1036SOL     OW 4006   4.747   1.244   1.345
 1036SOL    HW1 4007   4.725   1.330   1.300
 1036SOL    HW2 4008   4.847   1.233   1.350
 1037SOL     OW 4009   1.548   3.122   1.862
 1037SOL    HW1 4010   1.557   3.189   1.788
 1037SOL    HW2 4011   1.634   3.073   1.873
 1038SOL     OW 4012   2.778   5.775   0.088
 1038SOL    HW1 4013   2.767   5.859   0.140
 1038SOL    HW2 4014   2.748   5.789   7.013
 1039SOL     OW 4015   3.635   3.298   2.871
 1039SOL    HW1 4016   3.640   3.261   2.778
 1039SOL    HW2 4017   3.558   3.360   2.879
 1040SOL     OW 4018   3.631   1.932   3.303
 1040SOL    HW1 4019   3.546   1.950   3.254
 1040SOL    HW2 4020   3.708   1.943   3.240
 1041SOL     OW 4021   6.277   5.759   6.430
 1041SOL    HW1 4022   6.294   5.757   6.331
 1041SOL    HW2 4023   6.179   5.765   6.447
 1042SOL     OW 4024   5.397   4.284   3.310
 1042SOL    HW1 4025   5.338   4.311   3.233
 1042SOL    HW2 4026   5.358   4.204   3.355
 1043SOL     OW 4027   2.673   2.333   3.472
 1043SOL    HW1 4028   2.730   2.285   3.540
 1043SOL    HW2 4029   2.700   2.304   3.380
 1044SOL     OW 4030   6.131   4.540   1.651
 1044SOL    HW1 4031   6.075   4.462   1.623
 1044SOL    HW2 4032   6.206   4.552   1.587
 1045SOL     OW 4033   2.323   0.436   1.983
 1045SOL    HW1 4034   2.308   0.431   2.081
 1045SOL    HW2 4035   2.326   0.344   1.945
 1046SOL     OW 4036   2.904   1.959   1.350
 1046SOL    HW1 4037   2.909   2.058   1.342
 1046SOL    HW2 4038   2.814   1.927   1.319
 1047SOL     OW 4039   3.864   6.393   3.369
 1047SOL    HW1 4040   3.929   6.355   3.435
 1047SOL    HW2 4041   3.783   6.425   3.417
 1048SOL     OW 4042   1.469   6.270   2.688
 1048SOL    HW1 4043   1.514   6.319   2.762
 1048SOL    HW2 4044   1.420   6.335   2.629
 1049SOL     OW 4045   4.515   6.026   4.968
 1049SOL    HW1 4046   4.425   6.050   4.932
 1049SOL    HW2 4047   4.519   5.927   4.983
 1050SOL     OW 4048   2.936   6.070   3.623
 1050SOL    HW1 4049   2.921   6.128   3.543
 1050SOL    HW2 4050   3.010   6.006   3.605
 1051SOL     OW 4051   1.090   1.086   6.375
 1051SOL    HW1 4052   1.131   0.998   6.399
 1051SOL    HW2 4053   1.115   1.109   6.281
 1052SOL     OW 4054   3.309   1.279   0.133
 1052SOL    HW1 4055   3.355   1.204   0.180
 1052SOL    HW2 4056   3.255   1.243   0.057
 1053SOL     OW 4057   5.154   2.212   4.109
 1053SOL    HW1 4058   5.054   2.203   4.112
 1053SOL    HW2 4059   5.195   2.121   4.109
 1054SOL     OW 4060   3.785   5.069   6.109
 1054SOL    HW1 4061   3.750   5.042   6.019
 1054SOL    HW2 4062   3.885   5.068   6.107
 1055SOL     OW 4063   4.689   5.842   6.505
 1055SOL    HW1 4064   4.600   5.808   6.537
 1055SOL    HW2 4065   4.692   5.838   6.405
 1056SOL     OW 4066   2.953   4.138   0.127
 1056SOL    HW1 4067   3.014   4.197   0.179
 1056SOL    HW2 4068   2.866   4.186   0.110
 1057SOL     OW 4069   3.232   2.688   0.553
 1057SOL    HW1 4070   3.191   2.670   0.464
 1057SOL    HW2 4071   3.207   2.615   0.617
 1058SOL     OW 4072   2.860   2.217   2.272
 1058SOL    HW1 4073   2.868   2.249   2.177
 1058SOL    HW2 4074   2.908   2.131   2.283
 1059SOL     OW 4075   2.677   6.338   1.536
 1059SOL    HW1 4076   2.683   6.257   1.594
 1059SOL    HW2 4077   2.587   6.340   1.492
 1060SOL     OW 4078   6.375   0.300   5.851
 1060SOL    HW1 4079   6.368   0.219   5.909
 1060SOL    HW2 4080   6.303   0.298   5.782
 1061SOL     OW 4081   6.927   3.571   5.934
 1061SOL    HW1 4082   6.857   3.641   5.921
 1061SOL    HW2 4083   7.017   3.615   5.937
 1062SOL     OW 4084   3.692   6.233   4.504
 1062SOL    HW1 4085   3.731   6.324   4.493
 1062SOL    HW2 4086   3.623   6.217   4.434
 1063SOL     OW 4087   3.655   6.551   5.224
 1063SOL    HW1 4088   3.684   6.647   5.226
 1063SOL    HW2 4089   3.565   6.544   5.180
 1064SOL     OW 4090   1.893   3.628   0.078
 1064SOL    HW1 4091   1.955   3.553   0.053
 1064SOL    HW2 4092   1.883   3.690   7.019
 1065SOL     OW 4093   5.146   0.665   4.684
 1065SOL    HW1 4094   5.052   0.633   4.695
 1065SOL    HW2 4095   5.196   0.602   4.624
 1066SOL     OW 4096   5.438   6.647   1.716
 1066SOL    HW1 4097   5.414   6.705   1.793
 1066SOL    HW2 4098   5.367   6.654   1.645
 1067SOL     OW 4099   2.576   1.461   0.448
 1067SOL    HW1 4100   2.666   1.478   0.406
 1067SOL    HW2 4101   2.527   1.393   0.393
 1068SOL     OW 4102   6.788   2.591   1.342
 1068SOL    HW1 4103   6.724   2.573   1.417
 1068SOL    HW2 4104   6.882   2.587   1.377
 1069SOL     OW 4105   6.376   3.265   1.672
 1069SOL    HW1 4106   6.315   3.270   1.751
 1069SOL    HW2 4107   6.366   3.348   1.617
 1070SOL     OW 4108   1.419   6.997   2.169
 1070SOL    HW1 4109   1.421   6.897   2.164
 1070SOL    HW2 4110   1.386   0.015   2.082
 1071SOL     OW 4111   0.390   2.724   5.144
 1071SOL    HW1 4112   0.475   2.775   5.147
 1071SOL    HW2 4113   0.383   2.663   5.223
 1072SOL     OW 4114   1.614   1.981   2.199
 1072SOL    HW1 4115   1.710   2.006   2.197
 1072SOL    HW2 4116   1.598   1.917   2.274
 1073SOL     OW 4117   4.619   2.355   3.380
 1073SOL    HW1 4118   4.640   2.347   3.477
 1073SOL    HW2 4119   4.677   2.426   3.339
 1074SOL     OW 4120   2.886   4.805   1.785
 1074SOL    HW1 4121   2.856   4.726   1.838
 1074SOL    HW2 4122   2.876   4.888   1.840
 1075SOL     OW 4123   6.139   4.439   5.888
 1075SOL    HW1 4124   6.219   4.473   5.937
 1075SOL    HW2 4125   6.156   4.346   5.856
 1076SOL     OW 4126   1.930   4.425   4.922
 1076SOL    HW1 4127   2.013   4.472   4.953
 1076SOL    HW2 4128   1.952   4.331   4.897
 1077SOL     OW 4129   6.996   0.001   0.191
 1077SOL    HW1 4130   0.028   6.946   0.146
 1077SOL    HW2 4131   0.033   0.083   0.195
 1078SOL     OW 4132   6.273   6.810   4.609
 1078SOL    HW1 4133   6.349   6.822   4.546
 1078SOL    HW2 4134   6.201   6.877   4.588
 1079SOL     OW 4135   1.230   6.852   1.516
 1079SOL    HW1 4136   1.246   6.941   1.559
 1079SOL    HW2 4137   1.217   6.865   1.417
 1080SOL     OW 4138   3.515   6.039   6.544
 1080SOL    HW1 4139   3.487   6.014   6.637
 1080SOL    HW2 4140   3.485   6.133   6.524
 1081SOL     OW 4141   6.737   6.199   4.318
 1081SOL    HW1 4142   6.814   6.155   4.271
 1081SOL    HW2 4143   6.693   6.133   4.379
 1082SOL     OW 4144   4.260   6.990   6.942
 1082SOL    HW1 4145   4.353   6.978   6.977
 1082SOL    HW2 4146   4.255   0.056   6.889
 1083SOL     OW 4147   5.042   4.702   1.662
 1083SOL    HW1 4148   5.107   4.750   1.602
 1083SOL    HW2 4149   5.082   4.615   1.692
 1084SOL     OW 4150   6.458   0.482   5.275
 1084SOL    HW1 4151   6.549   0.505   5.243
 1084SOL    HW2 4152   6.427   0.398   5.232
 1085SOL     OW 4153   2.011   3.870   4.433
 1085SOL    HW1 4154   2.047   3.796   4.377
 1085SOL    HW2 4155   2.021   3.848   4.530
 1086SOL     OW 4156   5.717   5.665   0.945
 1086SOL    HW1 4157   5.675   5.751   0.974
 1086SOL    HW2 4158   5.786   5.637   1.012
 1087SOL     OW 4159   3.348   0.060   5.568
 1087SOL    HW1 4160   3.316   6.990   5.599
 1087SOL    HW2 4161   3.367   0.056   5.469
 1088SOL     OW 4162   6.427   5.006   3.224
 1088SOL    HW1 4163   6.397   5.074   3.290
 1088SOL    HW2 4164   6.514   4.967   3.253
 1089SOL     OW 4165   6.560   4.692   4.380
 1089SOL    HW1 4166   6.655   4.662   4.384
 1089SOL    HW2 4167   6.553   4.775   4.324
 1090SOL     OW 4168   5.179   1.856   5.412
 1090SOL    HW1 4169   5.266   1.829   5.452
 1090SOL    HW2 4170   5.166   1.808   5.325
 1091SOL     OW 4171   2.260   2.368   2.884
 1091SOL    HW1 4172   2.291   2.439   2.947
 1091SOL    HW2 4173   2.339   2.317   2.849
 1092SOL     OW 4174   0.281   5.652   0.780
 1092SOL    HW1 4175   0.184   5.648   0.755
 1092SOL    HW2 4176   0.337   5.644   0.698
 1093SOL     OW 4177   1.919   0.790   2.850
 1093SOL    HW1 4178   2.011   0.825   2.833
 1093SOL    HW2 4179   1.893   0.725   2.779
 1094SOL     OW 4180   0.804   0.214   3.332
 1094SOL    HW1 4181   0.822   0.121   3.301
 1094SOL    HW2 4182   0.716   0.244   3.296
 1095SOL     OW 4183   5.134   3.112   0.156
 1095SOL    HW1 4184   5.167   3.017   0.152
 1095SOL    HW2 4185   5.143   3.146   0.250
 1096SOL     OW 4186   2.944   6.301   1.762
 1096SOL    HW1 4187   2.996   6.358   1.697
 1096SOL    HW2 4188   2.907   6.221   1.714
 1097SOL     OW 4189   2.975   6.077   4.675
 1097SOL    HW1 4190   2.987   5.986   4.637
 1097SOL    HW2 4191   2.930   6.136   4.608
 1098SOL     OW 4192   6.188   4.229   0.589
 1098SOL    HW1 4193   6.205   4.307   0.530
 1098SOL    HW2 4194   6.225   4.146   0.547
 1099SOL     OW 4195   4.202   6.581   5.656
 1099SOL    HW1 4196   4.113   6.542   5.632
 1099SOL    HW2 4197   4.268   6.559   5.585
 1100SOL     OW 4198   4.088   1.589   4.382
 1100SOL    HW1 4199   4.092   1.689   4.374
 1100SOL    HW2 4200   3.996   1.558   4.360
 1101SOL     OW 4201   5.299   3.465   6.259
 1101SOL    HW1 4202   5.234   3.479   6.333
 1101SOL    HW2 4203   5.255   3.482   6.171
 1102SOL     OW 4204   2.908   0.843   3.009
 1102SOL    HW1 4205   2.814   0.841   2.976
 1102SOL    HW2 4206   2.936   0.751   3.037
 1103SOL     OW 4207   3.452   6.854   0.091
 1103SOL    HW1 4208   3.387   6.790   0.132
 1103SOL    HW2 4209   3.545   6.822   0.104
 1104SOL     OW 4210   0.568   3.046   4.097
 1104SOL    HW1 4211   0.642   3.050   4.030
 1104SOL    HW2 4212   0.605   3.023   4.187
 1105SOL     OW 4213   4.997   1.107   5.839
 1105SOL    HW1 4214   5.082   1.071   5.877
 1105SOL    HW2 4215   4.998   1.099   5.739
 1106SOL     OW 4216   6.970   1.571   0.413
 1106SOL    HW1 4217   6.989   1.669   0.419
 1106SOL    HW2 4218   6.887   1.550   0.465
 1107SOL     OW 4219   0.762   1.488   6.752
 1107SOL    HW1 4220   0.784   1.445   6.839
 1107SOL    HW2 4221   0.843   1.533   6.715
 1108SOL     OW 4222   2.349   0.346   3.971
 1108SOL    HW1 4223   2.285   0.407   4.019
 1108SOL    HW2 4224   2.302   0.263   3.944
 1109SOL     OW 4225   4.604   1.963   4.816
 1109SOL    HW1 4226   4.604   1.948   4.914
 1109SOL    HW2 4227   4.509   1.968   4.783
 1110SOL     OW 4228   2.734   0.893   2.432
 1110SOL    HW1 4229   2.826   0.916   2.466
 1110SOL    HW2 4230   2.726   0.923   2.337
 1111SOL     OW 4231   6.013   4.455   6.485
 1111SOL    HW1 4232   6.085   4.430   6.550
 1111SOL    HW2 4233   6.053   4.465   6.394
 1112SOL     OW 4234   5.512   0.460   2.189
 1112SOL    HW1 4235   5.430   0.433   2.240
 1112SOL    HW2 4236   5.530   0.557   2.204
 1113SOL     OW 4237   5.584   4.212   2.587
 1113SOL    HW1 4238   5.574   4.285   2.520
 1113SOL    HW2 4239   5.655   4.236   2.654
 1114SOL     OW 4240   3.472   4.145   4.887
 1114SOL    HW1 4241   3.492   4.207   4.811
 1114SOL    HW2 4242   3.442   4.056   4.851
 1115SOL     OW 4243   2.647   4.286   5.413
 1115SOL    HW1 4244   2.740   4.263   5.385
 1115SOL    HW2 4245   2.648   4.369   5.468
 1116SOL     OW 4246   4.573   6.739   6.831
 1116SOL    HW1 4247   4.480   6.736   6.795
 1116SOL    HW2 4248   4.620   6.820   6.795
 1117SOL     OW 4249   2.141   2.618   1.696
 1117SOL    HW1 4250   2.147   2.523   1.664
 1117SOL    HW2 4251   2.101   2.675   1.624
 1118SOL     OW 4252   4.093   5.614   0.106
 1118SOL    HW1 4253   4.068   5.617   0.203
 1118SOL    HW2 4254   4.012   5.632   0.050
 1119SOL     OW 4255   2.979   5.457   4.056
 1119SOL    HW1 4256   3.051   5.417   4.112
 1119SOL    HW2 4257   2.943   5.386   3.994
 1120SOL     OW 4258   6.914   4.025   1.030
 1120SOL    HW1 4259   6.874   4.101   0.979
 1120SOL    HW2 4260   6.932   3.949   0.968
 1121SOL     OW 4261   6.991   4.841   4.265
 1121SOL    HW1 4262   0.028   4.768   4.227
 1121SOL    HW2 4263   6.940   4.886   4.192
 1122SOL     OW 4264   5.603   2.420   2.103
 1122SOL    HW1 4265   5.689   2.466   2.082
 1122SOL    HW2 4266   5.617   2.353   2.176
 1123SOL     OW 4267   3.874   1.224   3.593
 1123SOL    HW1 4268   3.811   1.188   3.523
 1123SOL    HW2 4269   3.957   1.257   3.548
 1124SOL     OW 4270   2.073   2.598   4.328
 1124SOL    HW1 4271   2.114   2.524   4.381
 1124SOL    HW2 4272   2.107   2.686   4.361
 1125SOL     OW 4273   2.063   3.684   3.433
 1125SOL    HW1 4274   2.097   3.689   3.527
 1125SOL    HW2 4275   2.118   3.744   3.374
 1126SOL     OW 4276   4.259   4.721   4.666
 1126SOL    HW1 4277   4.333   4.729   4.733
 1126SOL    HW2 4278   4.185   4.665   4.706
 1127SOL     OW 4279   6.116   6.580   2.461
 1127SOL    HW1 4280   6.099   6.508   2.393
 1127SOL    HW2 4281   6.072   6.665   2.431
 1128SOL     OW 4282   4.843   1.174   4.155
 1128SOL    HW1 4283   4.887   1.204   4.240
 1128SOL    HW2 4284   4.895   1.207   4.077
 1129SOL     OW 4285   1.403   0.977   0.694
 1129SOL    HW1 4286   1.455   0.954   0.777
 1129SOL    HW2 4287   1.346   1.057   0.711
 1130SOL     OW 4288   2.103   4.579   2.165
 1130SOL    HW1 4289   2.191   4.624   2.177
 1130SOL    HW2 4290   2.071   4.592   2.071
 1131SOL     OW 4291   1.270   5.497   4.066
 1131SOL    HW1 4292   1.329   5.567   4.107
 1131SOL    HW2 4293   1.208   5.540   4.000
 1132SOL     OW 4294   2.527   1.327   2.641
 1132SOL    HW1 4295   2.586   1.383   2.699
 1132SOL    HW2 4296   2.558   1.334   2.546
 1133SOL     OW 4297   0.811   6.937   5.934
 1133SOL    HW1 4298   0.818   6.992   6.018
 1133SOL    HW2 4299   0.839   6.843   5.954
 1134SOL     OW 4300   3.684   6.783   1.562
 1134SOL    HW1 4301   3.642   6.694   1.578
 1134SOL    HW2 4302   3.707   6.826   1.649
 1135SOL     OW 4303   2.060   5.838   3.543
 1135SOL    HW1 4304   2.138   5.868   3.598
 1135SOL    HW2 4305   1.994   5.912   3.536
 1136SOL     OW 4306   1.933   5.350   1.837
 1136SOL    HW1 4307   1.874   5.269   1.841
 1136SOL    HW2 4308   2.009   5.340   1.901
 1137SOL     OW 4309   1.042   5.527   5.126
 1137SOL    HW1 4310   1.083   5.443   5.090
 1137SOL    HW2 4311   0.993   5.574   5.053
 1138SOL     OW 4312   2.081   3.541   4.631
 1138SOL    HW1 4313   2.165   3.545   4.577
 1138SOL    HW2 4314   2.067   3.630   4.676
 1139SOL     OW 4315   2.736   5.543   5.040
 1139SOL    HW1 4316   2.676   5.501   5.108
 1139SOL    HW2 4317   2.683   5.563   4.957
 1140SOL     OW 4318   2.086   2.247   1.217
 1140SOL    HW1 4319   2.173   2.241   1.266
 1140SOL    HW2 4320   2.103   2.236   1.119
 1141SOL     OW 4321   0.233   5.055   5.963
 1141SOL    HW1 4322   0.267   5.048   6.057
 1141SOL    HW2 4323   0.283   4.991   5.904
 1142SOL     OW 4324   2.199   6.083   2.054
 1142SOL    HW1 4325   2.201   5.996   2.104
 1142SOL    HW2 4326   2.272   6.084   1.986
 1143SOL     OW 4327   0.705   4.126   1.674
 1143SOL    HW1 4328   0.710   4.224   1.693
 1143SOL    HW2 4329   0.791   4.082   1.699
 1144SOL     OW 4330   5.868   4.747   0.453
 1144SOL    HW1 4331   5.802   4.761   0.379
 1144SOL    HW2 4332   5.832   4.785   0.538
 1145SOL     OW 4333   6.121   0.107   1.079
 1145SOL    HW1 4334   6.050   0.143   1.017
 1145SOL    HW2 4335   6.125   0.164   1.161
 1146SOL     OW 4336   0.786   1.295   1.110
 1146SOL    HW1 4337   0.746   1.207   1.133
 1146SOL    HW2 4338   0.807   1.345   1.194
 1147SOL     OW 4339   2.512   6.298   1.180
 1147SOL    HW1 4340   2.475   6.357   1.252
 1147SOL    HW2 4341   2.442   6.233   1.152
 1148SOL     OW 4342   4.318   5.562   3.188
 1148SOL    HW1 4343   4.314   5.659   3.214
 1148SOL    HW2 4344   4.344   5.507   3.267
 1149SOL     OW 4345   4.453   3.168   1.507
 1149SOL    HW1 4346   4.395   3.215   1.440
 1149SOL    HW2 4347   4.484   3.081   1.469
 1150SOL     OW 4348   1.579   3.744   0.627
 1150SOL    HW1 4349   1.490   3.739   0.671
 1150SOL    HW2 4350   1.625   3.656   0.634
 1151SOL     OW 4351   6.207   5.417   4.043
 1151SOL    HW1 4352   6.211   5.330   3.993
 1151SOL    HW2 4353   6.226   5.492   3.980
 1152SOL     OW 4354   3.614   6.214   6.123
 1152SOL    HW1 4355   3.543   6.157   6.082
 1152SOL    HW2 4356   3.623   6.192   6.220
 1153SOL     OW 4357   6.152   0.200   1.528
 1153SOL    HW1 4358   6.145   0.126   1.596
 1153SOL    HW2 4359   6.247   0.229   1.521
 1154SOL     OW 4360   2.167   2.682   1.014
 1154SOL    HW1 4361   2.142   2.660   1.108
 1154SOL    HW2 4362   2.171   2.782   1.003
 1155SOL     OW 4363   3.050   6.681   4.444
 1155SOL    HW1 4364   2.956   6.689   4.411
 1155SOL    HW2 4365   3.110   6.738   4.387
 1156SOL     OW 4366   2.776   1.820   3.993
 1156SOL    HW1 4367   2.847   1.823   4.064
 1156SOL    HW2 4368   2.740   1.912   3.979
 1157SOL     OW 4369   3.469   0.839   0.098
 1157SOL    HW1 4370   3.533   0.915   0.111
 1157SOL    HW2 4371   3.420   0.822   0.183
 1158SOL     OW 4372   5.669   4.849   3.406
 1158SOL    HW1 4373   5.671   4.845   3.306
 1158SOL    HW2 4374   5.577   4.826   3.438
 1159SOL     OW 4375   6.083   5.182   1.180
 1159SOL    HW1 4376   5.989   5.151   1.192
 1159SOL    HW2 4377   6.141   5.141   1.251
 1160SOL     OW 4378   5.496   1.787   0.203
 1160SOL    HW1 4379   5.430   1.811   0.274
 1160SOL    HW2 4380   5.457   1.807   0.113
 1161SOL     OW 4381   6.932   5.358   0.694
 1161SOL    HW1 4382   6.914   5.412   0.612
 1161SOL    HW2 4383   6.866   5.283   0.700
 1162SOL     OW 4384   3.069   2.170   4.774
 1162SOL    HW1 4385   3.128   2.198   4.849
 1162SOL    HW2 4386   2.995   2.112   4.808
 1163SOL     OW 4387   5.782   3.215   1.575
 1163SOL    HW1 4388   5.719   3.276   1.622
 1163SOL    HW2 4389   5.732   3.135   1.541
 1164SOL     OW 4390   4.193   2.184   5.577
 1164SOL    HW1 4391   4.186   2.145   5.669
 1164SOL    HW2 4392   4.209   2.282   5.584
 1165SOL     OW 4393   3.804   5.965   3.696
 1165SOL    HW1 4394   3.802   5.878   3.645
 1165SOL    HW2 4395   3.710   5.996   3.711
 1166SOL     OW 4396   3.027   4.708   6.117
 1166SOL    HW1 4397   3.120   4.687   6.147
 1166SOL    HW2 4398   3.027   4.725   6.018
 1167SOL     OW 4399   5.164   4.713   2.828
 1167SOL    HW1 4400   5.120   4.760   2.751
 1167SOL    HW2 4401   5.113   4.733   2.912
 1168SOL     OW 4402   6.176   0.765   3.146
 1168SOL    HW1 4403   6.134   0.856   3.139
 1168SOL    HW2 4404   6.105   0.698   3.167
 1169SOL     OW 4405   5.013   1.075   5.581
 1169SOL    HW1 4406   4.946   1.085   5.508
 1169SOL    HW2 4407   5.028   0.978   5.600
 1170SOL     OW 4408   4.971   6.159   3.738
 1170SOL    HW1 4409   4.947   6.158   3.835
 1170SOL    HW2 4410   4.925   6.083   3.692
 1171SOL     OW 4411   0.919   6.036   1.414
 1171SOL    HW1 4412   0.977   5.965   1.374
 1171SOL    HW2 4413   0.976   6.103   1.460
 1172SOL     OW 4414   6.617   3.565   6.404
 1172SOL    HW1 4415   6.671   3.566   6.320
 1172SOL    HW2 4416   6.533   3.514   6.389
 1173SOL     OW 4417   3.591   1.673   0.656
 1173SOL    HW1 4418   3.575   1.748   0.592
 1173SOL    HW2 4419   3.689   1.665   0.675
 1174SOL     OW 4420   2.696   3.798   0.669
 1174SOL    HW1 4421   2.646   3.752   0.743
 1174SOL    HW2 4422   2.630   3.837   0.604
 1175SOL     OW 4423   3.376   2.929   4.513
 1175SOL    HW1 4424   3.455   2.913   4.454
 1175SOL    HW2 4425   3.296   2.950   4.456
 1176SOL     OW 4426   5.404   3.775   5.847
 1176SOL    HW1 4427   5.481   3.838   5.844
 1176SOL    HW2 4428   5.332   3.812   5.906
 1177SOL     OW 4429   7.008   1.877   4.625
 1177SOL    HW1 4430   6.980   1.914   4.714
 1177SOL    HW2 4431   0.089   1.870   4.623
 1178SOL     OW 4432   3.573   5.288   0.561
 1178SOL    HW1 4433   3.577   5.291   0.661
 1178SOL    HW2 4434   3.480   5.306   0.531
 1179SOL     OW 4435   1.834   5.235   0.231
 1179SOL    HW1 4436   1.793   5.253   0.321
 1179SOL    HW2 4437   1.930   5.263   0.231
 1180SOL     OW 4438   3.395   5.815   0.835
 1180SOL    HW1 4439   3.312   5.870   0.829
 1180SOL    HW2 4440   3.475   5.875   0.842
 1181SOL     OW 4441   0.412   6.552   0.497
 1181SOL    HW1 4442   0.335   6.488   0.498
 1181SOL    HW2 4443   0.476   6.529   0.570
 1182SOL     OW 4444   4.483   4.488   2.852
 1182SOL    HW1 4445   4.518   4.395   2.844
 1182SOL    HW2 4446   4.506   4.525   2.942
 1183SOL     OW 4447   2.455   3.228   5.596
 1183SOL    HW1 4448   2.502   3.143   5.618
 1183SOL    HW2 4449   2.513   3.306   5.619
 1184SOL     OW 4450   0.884   6.729   6.171
 1184SOL    HW1 4451   0.786   6.711   6.164
 1184SOL    HW2 4452   0.898   6.825   6.196
 1185SOL     OW 4453   6.605   1.620   6.563
 1185SOL    HW1 4454   6.573   1.550   6.628
 1185SOL    HW2 4455   6.692   1.657   6.595
 1186SOL     OW 4456   5.671   6.123   4.625
 1186SOL    HW1 4457   5.668   6.071   4.710
 1186SOL    HW2 4458   5.765   6.126   4.591
 1187SOL     OW 4459   5.903   0.592   6.068
 1187SOL    HW1 4460   5.952   0.505   6.060
 1187SOL    HW2 4461   5.918   0.630   6.159
 1188SOL     OW 4462   2.450   0.100   6.275
 1188SOL    HW1 4463   2.413   0.098   6.368
 1188SOL    HW2 4464   2.509   0.021   6.260
 1189SOL     OW 4465   5.469   3.278   3.378
 1189SOL    HW1 4466   5.471   3.186   3.339
 1189SOL    HW2 4467   5.477   3.272   3.477
 1190SOL     OW 4468   2.212   5.810   3.062
 1190SOL    HW1 4469   2.288   5.839   3.004
 1190SOL    HW2 4470   2.159   5.740   3.016
 1191SOL     OW 4471   4.290   5.530   2.526
 1191SOL    HW1 4472   4.201   5.500   2.559
 1191SOL    HW2 4473   4.325   5.603   2.585
 1192SOL     OW 4474   5.757   6.191   3.504
 1192SOL    HW1 4475   5.741   6.288   3.521
 1192SOL    HW2 4476   5.855   6.174   3.496
 1193SOL     OW 4477   6.537   5.276   4.200
 1193SOL    HW1 4478   6.539   5.355   4.139
 1193SOL    HW2 4479   6.465   5.212   4.171
 1194SOL     OW 4480   3.870   0.995   0.685
 1194SOL    HW1 4481   3.836   1.016   0.777
 1194SOL    HW2 4482   3.958   0.948   0.692
 1195SOL     OW 4483   5.382   2.521   3.513
 1195SOL    HW1 4484   5.304   2.566   3.556
 1195SOL    HW2 4485   5.416   2.448   3.573
 1196SOL     OW 4486   6.297   6.496   5.112
 1196SOL    HW1 4487   6.291   6.588   5.072
 1196SOL    HW2 4488   6.209   6.473   5.154
 1197SOL     OW 4489   2.565   6.000   0.526
 1197SOL    HW1 4490   2.511   5.918   0.507
 1197SOL    HW2 4491   2.517   6.058   0.591
 1198SOL     OW 4492   1.482   2.896   0.143
 1198SOL    HW1 4493   1.479   2.821   0.077
 1198SOL    HW2 4494   1.414   2.965   0.118
 1199SOL     OW 4495   5.435   4.152   1.715
 1199SOL    HW1 4496   5.371   4.181   1.643
 1199SOL    HW2 4497   5.528   4.158   1.680
 1200SOL     OW 4498   3.224   3.638   1.987
 1200SOL    HW1 4499   3.320   3.630   1.959
 1200SOL    HW2 4500   3.189   3.547   2.011
 1201SOL     OW 4501   1.804   2.022   4.757
 1201SOL    HW1 4502   1.832   1.926   4.758
 1201SOL    HW2 4503   1.853   2.072   4.829
 1202SOL     OW 4504   0.458   5.252   5.620
 1202SOL    HW1 4505   0.470   5.305   5.704
 1202SOL    HW2 4506   0.446   5.156   5.642
 1203SOL     OW 4507   4.479   5.788   6.149
 1203SOL    HW1 4508   4.541   5.855   6.190
 1203SOL    HW2 4509   4.516   5.696   6.160
 1204SOL     OW 4510   2.248   6.695   3.014
 1204SOL    HW1 4511   2.347   6.707   3.005
 1204SOL    HW2 4512   2.226   6.598   3.021
 1205SOL     OW 4513   5.295   4.434   2.206
 1205SOL    HW1 4514   5.296   4.516   2.147
 1205SOL    HW2 4515   5.213   4.381   2.185
 1206SOL     OW 4516   3.372   3.500   5.027
 1206SOL    HW1 4517   3.370   3.472   4.931
 1206SOL    HW2 4518   3.465   3.523   5.053
 1207SOL     OW 4519   1.274   6.405   2.081
 1207SOL    HW1 4520   1.178   6.377   2.091
 1207SOL    HW2 4521   1.330   6.325   2.063
 1208SOL     OW 4522   3.263   4.177   5.945
 1208SOL    HW1 4523   3.204   4.119   5.888
 1208SOL    HW2 4524   3.353   4.135   5.953
 1209SOL     OW 4525   4.070   6.293   5.335
 1209SOL    HW1 4526   4.072   6.380   5.384
 1209SOL    HW2 4527   4.155   6.243   5.353
 1210SOL     OW 4528   3.331   0.883   3.134
 1210SOL    HW1 4529   3.398   0.846   3.070
 1210SOL    HW2 4530   3.317   0.981   3.116
 1211SOL     OW 4531   1.227   3.447   0.075
 1211SOL    HW1 4532   1.312   3.447   0.128
 1211SOL    HW2 4533   1.149   3.433   0.137
 1212SOL     OW 4534   1.624   6.151   0.224
 1212SOL    HW1 4535   1.644   6.159   0.322
 1212SOL    HW2 4536   1.525   6.159   0.210
 1213SOL     OW 4537   5.679   2.969   1.455
 1213SOL    HW1 4538   5.684   2.899   1.526
 1213SOL    HW2 4539   5.735   2.941   1.377
 1214SOL     OW 4540   0.204   2.519   1.379
 1214SOL    HW1 4541   0.281   2.575   1.409
 1214SOL    HW2 4542   0.231   2.465   1.298
 1215SOL     OW 4543   1.268   5.483   4.383
 1215SOL    HW1 4544   1.247   5.454   4.289
 1215SOL    HW2 4545   1.228   5.573   4.399
 1216SOL     OW 4546   4.714   6.358   0.677
 1216SOL    HW1 4547   4.617   6.345   0.654
 1216SOL    HW2 4548   4.736   6.305   0.759
 1217SOL     OW 4549   2.958   4.147   6.691
 1217SOL    HW1 4550   2.970   4.245   6.709
 1217SOL    HW2 4551   3.007   4.095   6.761
 1218SOL     OW 4552   1.938   5.006   3.487
 1218SOL    HW1 4553   1.902   4.942   3.419
 1218SOL    HW2 4554   1.863   5.063   3.523
 1219SOL     OW 4555   4.290   6.072   2.823
 1219SOL    HW1 4556   4.223   6.006   2.788
 1219SOL    HW2 4557   4.378   6.056   2.778
 1220SOL     OW 4558   0.976   4.613   2.602
 1220SOL    HW1 4559   0.910   4.645   2.534
 1220SOL    HW2 4560   0.971   4.513   2.609
 1221SOL     OW 4561   5.372   3.751   6.246
 1221SOL    HW1 4562   5.436   3.676   6.232
 1221SOL    HW2 4563   5.293   3.739   6.185
 1222SOL     OW 4564   6.624   6.537   6.511
 1222SOL    HW1 4565   6.644   6.440   6.528
 1222SOL    HW2 4566   6.583   6.548   6.421
 1223SOL     OW 4567   3.569   6.247   0.649
 1223SOL    HW1 4568   3.487   6.255   0.706
 1223SOL    HW2 4569   3.604   6.338   0.628
 1224SOL     OW 4570   3.845   0.392   1.882
 1224SOL    HW1 4571   3.831   0.415   1.786
 1224SOL    HW2 4572   3.786   0.450   1.939
 1225SOL     OW 4573   2.717   4.095   6.157
 1225SOL    HW1 4574   2.625   4.105   6.195
 1225SOL    HW2 4575   2.779   4.064   6.229
 1226SOL     OW 4576   2.218   4.330   1.143
 1226SOL    HW1 4577   2.175   4.410   1.185
 1226SOL    HW2 4578   2.298   4.303   1.197
 1227SOL     OW 4579   0.275   3.528   6.382
 1227SOL    HW1 4580   0.221   3.537   6.465
 1227SOL    HW2 4581   0.365   3.491   6.405
 1228SOL     OW 4582   3.928   1.567   5.926
 1228SOL    HW1 4583   4.021   1.530   5.915
 1228SOL    HW2 4584   3.902   1.616   5.843
 1229SOL     OW 4585   3.469   4.352   6.422
 1229SOL    HW1 4586   3.409   4.354   6.342
 1229SOL    HW2 4587   3.445   4.427   6.484
 1230SOL     OW 4588   4.526   6.315   3.417
 1230SOL    HW1 4589   4.541   6.378   3.341
 1230SOL    HW2 4590   4.567   6.352   3.500
 1231SOL     OW 4591   1.709   4.808   4.458
 1231SOL    HW1 4592   1.662   4.726   4.424
 1231SOL    HW2 4593   1.791   4.781   4.508
 1232SOL     OW 4594   1.878   2.448   4.620
 1232SOL    HW1 4595   1.904   2.455   4.524
 1232SOL    HW2 4596   1.796   2.391   4.629
 1233SOL     OW 4597   0.864   2.999   4.642
 1233SOL    HW1 4598   0.824   2.978   4.553
 1233SOL    HW2 4599   0.959   3.029   4.629
 1234SOL     OW 4600   6.442   4.299   4.614
 1234SOL    HW1 4601   6.531   4.267   4.646
 1234SOL    HW2 4602   6.396   4.348   4.687
 1235SOL     OW 4603   6.379   5.785   3.973
 1235SOL    HW1 4604   6.352   5.880   3.993
 1235SOL    HW2 4605   6.474   5.772   4.000
 1236SOL     OW 4606   5.032   0.881   6.891
 1236SOL    HW1 4607   5.021   0.971   6.933
 1236SOL    HW2 4608   5.073   0.891   6.800
 1237SOL     OW 4609   2.767   4.445   6.468
 1237SOL    HW1 4610   2.787   4.391   6.387
 1237SOL    HW2 4611   2.832   4.521   6.475
 1238SOL     OW 4612   1.663   1.408   1.455
 1238SOL    HW1 4613   1.675   1.491   1.400
 1238SOL    HW2 4614   1.635   1.332   1.396
 1239SOL     OW 4615   0.291   6.824   6.344
 1239SOL    HW1 4616   0.337   6.861   6.425
 1239SOL    HW2 4617   0.336   6.858   6.261
 1240SOL     OW 4618   4.307   5.977   2.072
 1240SOL    HW1 4619   4.401   6.010   2.062
 1240SOL    HW2 4620   4.293   5.897   2.015
 1241SOL     OW 4621   6.692   3.332   3.268
 1241SOL    HW1 4622   6.599   3.344   3.232
 1241SOL    HW2 4623   6.691   3.344   3.367
 1242SOL     OW 4624   2.424   3.654   6.486
 1242SOL    HW1 4625   2.433   3.687   6.392
 1242SOL    HW2 4626   2.449   3.727   6.549
 1243SOL     OW 4627   2.683   5.036   5.501
 1243SOL    HW1 4628   2.782   5.042   5.512
 1243SOL    HW2 4629   2.641   5.122   5.531
 1244SOL     OW 4630   0.831   0.795   3.288
 1244SOL    HW1 4631   0.909   0.830   3.237
 1244SOL    HW2 4632   0.760   0.865   3.293
 1245SOL     OW 4633   2.863   2.891   5.736
 1245SOL    HW1 4634   2.847   2.989   5.748
 1245SOL    HW2 4635   2.915   2.856   5.814
 1246SOL     OW 4636   1.057   6.907   2.489
 1246SOL    HW1 4637   0.977   6.904   2.549
 1246SOL    HW2 4638   1.133   6.951   2.537
 1247SOL     OW 4639   1.746   6.530   6.748
 1247SOL    HW1 4640   1.785   6.467   6.815
 1247SOL    HW2 4641   1.646   6.524   6.752
 1248SOL     OW 4642   1.876   6.023   3.521
 1248SOL    HW1 4643   1.878   6.084   3.441
 1248SOL    HW2 4644   1.783   5.992   3.537
 1249SOL     OW 4645   6.115   3.406   2.975
 1249SOL    HW1 4646   6.105   3.306   2.979
 1249SOL    HW2 4647   6.130   3.441   3.067
 1250SOL     OW 4648   0.475   4.476   4.163
 1250SOL    HW1 4649   0.397   4.439   4.213
 1250SOL    HW2 4650   0.560   4.444   4.204
 1251SOL     OW 4651   3.415   6.791   5.337
 1251SOL    HW1 4652   3.371   6.874   5.302
 1251SOL    HW2 4653   3.360   6.753   5.412
 1252SOL     OW 4654   3.368   3.379   6.676
 1252SOL    HW1 4655   3.387   3.281   6.676
 1252SOL    HW2 4656   3.394   3.418   6.588
 1253SOL     OW 4657   4.182   5.957   3.476
 1253SOL    HW1 4658   4.233   6.028   3.524
 1253SOL    HW2 4659   4.245   5.901   3.422
 1254SOL     OW 4660   6.561   1.805   2.449
 1254SOL    HW1 4661   6.602   1.853   2.527
 1254SOL    HW2 4662   6.509   1.727   2.482
 1255SOL     OW 4663   6.258   0.130   0.423
 1255SOL    HW1 4664   6.285   0.047   0.375
 1255SOL    HW2 4665   6.209   0.190   0.360
 1256SOL     OW 4666   4.151   1.480   3.921
 1256SOL    HW1 4667   4.134   1.396   3.869
 1256SOL    HW2 4668   4.243   1.513   3.903
 1257SOL     OW 4669   6.455   1.110   4.248
 1257SOL    HW1 4670   6.424   1.163   4.169
 1257SOL    HW2 4671   6.512   1.034   4.217
 1258SOL     OW 4672   6.725   6.683   4.099
 1258SOL    HW1 4673   6.821   6.656   4.099
 1258SOL    HW2 4674   6.716   6.771   4.146
 1259SOL     OW 4675   4.172   2.255   5.290
 1259SOL    HW1 4676   4.150   2.337   5.237
 1259SOL    HW2 4677   4.198   2.282   5.383
 1260SOL     OW 4678   0.917   1.257   6.150
 1260SOL    HW1 4679   0.857   1.178   6.166
 1260SOL    HW2 4680   0.958   1.249   6.058
 1261SOL     OW 4681   6.541   3.935   0.893
 1261SOL    HW1 4682   6.519   3.995   0.817
 1261SOL    HW2 4683   6.474   3.862   0.899
 1262SOL     OW 4684   5.213   6.070   2.496
 1262SOL    HW1 4685   5.234   6.069   2.398
 1262SOL    HW2 4686   5.156   5.991   2.518
 1263SOL     OW 4687   0.135   2.617   3.641
 1263SOL    HW1 4688   0.170   2.531   3.677
 1263SOL    HW2 4689   0.102   2.604   3.548
 1264SOL     OW 4690   0.671   2.886   5.177
 1264SOL    HW1 4691   0.686   2.859   5.272
 1264SOL    HW2 4692   0.699   2.811   5.117
 1265SOL     OW 4693   5.599   6.340   5.405
 1265SOL    HW1 4694   5.548   6.403   5.464
 1265SOL    HW2 4695   5.691   6.326   5.442
 1266SOL     OW 4696   1.654   1.696   5.516
 1266SOL    HW1 4697   1.725   1.710   5.586
 1266SOL    HW2 4698   1.694   1.711   5.425
 1267SOL     OW 4699   3.648   0.302   2.720
 1267SOL    HW1 4700   3.570   0.258   2.764
 1267SOL    HW2 4701   3.732   0.255   2.746
 1268SOL     OW 4702   4.404   2.815   5.509
 1268SOL    HW1 4703   4.397   2.735   5.450
 1268SOL    HW2 4704   4.462   2.794   5.588
 1269SOL     OW 4705   6.173   1.969   4.305
 1269SOL    HW1 4706   6.266   1.954   4.273
 1269SOL    HW2 4707   6.111   1.906   4.258
 1270SOL     OW 4708   6.458   5.827   2.615
 1270SOL    HW1 4709   6.537   5.877   2.652
 1270SOL    HW2 4710   6.483   5.731   2.603
 1271SOL     OW 4711   1.712   1.504   1.101
 1271SOL    HW1 4712   1.757   1.433   1.156
 1271SOL    HW2 4713   1.643   1.462   1.042
 1272SOL     OW 4714   6.452   3.016   6.259
 1272SOL    HW1 4715   6.504   2.958   6.321
 1272SOL    HW2 4716   6.501   3.103   6.246
 1273SOL     OW 4717   1.361   4.782   5.145
 1273SOL    HW1 4718   1.419   4.748   5.220
 1273SOL    HW2 4719   1.285   4.835   5.184
 1274SOL     OW 4720   0.026   5.021   2.742
 1274SOL    HW1 4721   6.982   4.998   2.816
 1274SOL    HW2 4722   0.089   4.944   2.726
 1275SOL     OW 4723   2.231   0.974   3.194
 1275SOL    HW1 4724   2.252   0.942   3.287
 1275SOL    HW2 4725   2.137   0.950   3.171
 1276SOL     OW 4726   5.547   4.822   3.979
 1276SOL    HW1 4727   5.574   4.790   4.070
 1276SOL    HW2 4728   5.478   4.761   3.942
 1277SOL     OW 4729   0.595   5.879   0.622
 1277SOL    HW1 4730   0.559   5.972   0.628
 1277SOL    HW2 4731   0.665   5.875   0.550
 1278SOL     OW 4732   1.052   5.971   3.080
 1278SOL    HW1 4733   1.120   5.935   3.144
 1278SOL    HW2 4734   1.049   6.071   3.088
 1279SOL     OW 4735   2.985   2.858   1.745
 1279SOL    HW1 4736   3.000   2.896   1.837
 1279SOL    HW2 4737   3.074   2.836   1.704
 1280SOL     OW 4738   1.980   2.225   3.975
 1280SOL    HW1 4739   2.061   2.224   3.917
 1280SOL    HW2 4740   1.978   2.309   4.029
 1281SOL     OW 4741   4.925   6.111   5.176
 1281SOL    HW1 4742   4.982   6.095   5.096
 1281SOL    HW2 4743   4.976   6.163   5.244
 1282SOL     OW 4744   0.298   2.434   1.133
 1282SOL    HW1 4745   0.232   2.363   1.106
 1282SOL    HW2 4746   0.384   2.419   1.083
 1283SOL     OW 4747   6.720   2.872   4.512
 1283SOL    HW1 4748   6.637   2.816   4.513
 1283SOL    HW2 4749   6.716   2.938   4.587
 1284SOL     OW 4750   4.029   2.152   1.988
 1284SOL    HW1 4751   3.970   2.071   1.978
 1284SOL    HW2 4752   4.055   2.161   2.084
 1285SOL     OW 4753   3.964   1.082   5.500
 1285SOL    HW1 4754   3.901   1.131   5.441
 1285SOL    HW2 4755   4.037   1.041   5.445
 1286SOL     OW 4756   5.388   1.631   1.269
 1286SOL    HW1 4757   5.362   1.562   1.336
 1286SOL    HW2 4758   5.424   1.711   1.316
 1287SOL     OW 4759   6.880   5.122   4.752
 1287SOL    HW1 4760   6.802   5.091   4.806
 1287SOL    HW2 4761   6.878   5.076   4.663
 1288SOL     OW 4762   4.631   4.579   6.938
 1288SOL    HW1 4763   4.721   4.540   6.919
 1288SOL    HW2 4764   4.561   4.525   6.891
 1289SOL     OW 4765   7.017   6.769   1.244
 1289SOL    HW1 4766   6.918   6.779   1.241
 1289SOL    HW2 4767   0.038   6.805   1.160
 1290SOL     OW 4768   1.182   6.304   5.359
 1290SOL    HW1 4769   1.091   6.323   5.395
 1290SOL    HW2 4770   1.195   6.355   5.274
 1291SOL     OW 4771   6.695   4.919   3.292
 1291SOL    HW1 4772   6.757   4.909   3.370
 1291SOL    HW2 4773   6.749   4.927   3.208
 1292SOL     OW 4774   1.217   6.817   1.928
 1292SOL    HW1 4775   1.247   6.753   1.858
 1292SOL    HW2 4776   1.284   6.891   1.937
 1293SOL     OW 4777   4.627   1.184   0.034
 1293SOL    HW1 4778   4.660   1.114   0.097
 1293SOL    HW2 4779   4.527   1.182   0.030
 1294SOL     OW 4780   2.191   4.546   4.937
 1294SOL    HW1 4781   2.201   4.644   4.919
 1294SOL    HW2 4782   2.280   4.508   4.964
 1295SOL     OW 4783   6.479   4.610   0.956
 1295SOL    HW1 4784   6.503   4.541   1.024
 1295SOL    HW2 4785   6.542   4.605   0.879
 1296SOL     OW 4786   5.082   0.186   5.798
 1296SOL    HW1 4787   5.179   0.207   5.795
 1296SOL    HW2 4788   5.069   0.092   5.829
 1297SOL     OW 4789   0.559   0.403   1.854
 1297SOL    HW1 4790   0.536   0.311   1.887
 1297SOL    HW2 4791   0.496   0.469   1.895
 1298SOL     OW 4792   5.014   0.672   2.342
 1298SOL    HW1 4793   5.088   0.700   2.402
 1298SOL    HW2 4794   4.926   0.692   2.385
 1299SOL     OW 4795   0.509   3.311   4.639
 1299SOL    HW1 4796   0.549   3.272   4.556
 1299SOL    HW2 4797   0.569   3.292   4.716
 1300SOL     OW 4798   1.032   5.242   1.644
 1300SOL    HW1 4799   0.939   5.229   1.611
 1300SOL    HW2 4800   1.030   5.300   1.726
 1301SOL     OW 4801   0.202   0.084   0.398
 1301SOL    HW1 4802   0.297   0.104   0.376
 1301SOL    HW2 4803   0.142   0.139   0.339
 1302SOL     OW 4804   6.109   6.897   5.206
 1302SOL    HW1 4805   6.038   6.857   5.148
 1302SOL    HW2 4806   6.163   6.962   5.153
 1303SOL     OW 4807   3.581   6.543   1.649
 1303SOL    HW1 4808   3.507   6.501   1.702
 1303SOL    HW2 4809   3.601   6.487   1.569
 1304SOL     OW 4810   0.403   0.774   0.823
 1304SOL    HW1 4811   0.438   0.849   0.767
 1304SOL    HW2 4812   0.416   0.796   0.920
 1305SOL     OW 4813   4.546   3.197   6.601
 1305SOL    HW1 4814   4.509   3.112   6.563
 1305SOL    HW2 4815   4.541   3.269   6.532
 1306SOL     OW 4816   2.870   5.715   4.208
 1306SOL    HW1 4817   2.926   5.658   4.148
 1306SOL    HW2 4818   2.865   5.808   4.171
 1307SOL     OW 4819   2.461   2.489   3.393
 1307SOL    HW1 4820   2.526   2.430   3.441
 1307SOL    HW2 4821   2.471   2.477   3.294
 1308SOL     OW 4822   0.263   4.516   6.405
 1308SOL    HW1 4823   0.269   4.586   6.476
 1308SOL    HW2 4824   0.250   4.559   6.316
 1309SOL     OW 4825   5.652   4.793   6.528
 1309SOL    HW1 4826   5.748   4.765   6.531
 1309SOL    HW2 4827   5.614   4.773   6.438
 1310SOL     OW 4828   1.172   4.325   3.353
 1310SOL    HW1 4829   1.206   4.239   3.314
 1310SOL    HW2 4830   1.102   4.306   3.421
 1311SOL     OW 4831   5.691   5.262   0.934
 1311SOL    HW1 4832   5.703   5.274   1.033
 1311SOL    HW2 4833   5.607   5.209   0.918
 1312SOL     OW 4834   2.327   1.140   6.082
 1312SOL    HW1 4835   2.386   1.203   6.132
 1312SOL    HW2 4836   2.344   1.148   5.984
 1313SOL     OW 4837   6.788   5.601   2.063
 1313SOL    HW1 4838   6.727   5.573   1.990
 1313SOL    HW2 4839   6.866   5.651   2.025
 1314SOL     OW 4840   2.225   1.712   5.037
 1314SOL    HW1 4841   2.233   1.773   4.957
 1314SOL    HW2 4842   2.276   1.752   5.113
 1315SOL     OW 4843   6.233   1.329   3.170
 1315SOL    HW1 4844   6.137   1.347   3.193
 1315SOL    HW2 4845   6.278   1.415   3.146
 1316SOL     OW 4846   5.507   0.233   6.711
 1316SOL    HW1 4847   5.599   0.193   6.719
 1316SOL    HW2 4848   5.510   0.310   6.647
 1317SOL     OW 4849   3.677   3.590   5.703
 1317SOL    HW1 4850   3.763   3.540   5.713
 1317SOL    HW2 4851   3.635   3.568   5.615
 1318SOL     OW 4852   1.489   1.800   6.290
 1318SOL    HW1 4853   1.547   1.758   6.360
 1318SOL    HW2 4854   1.393   1.779   6.308
 1319SOL     OW 4855   6.829   6.872   0.953
 1319SOL    HW1 4856   6.927   6.863   0.937
 1319SOL    HW2 4857   6.810   6.865   1.052
 1320SOL     OW 4858   3.408   3.070   5.838
 1320SOL    HW1 4859   3.481   3.126   5.876
 1320SOL    HW2 4860   3.335   3.058   5.905
 1321SOL     OW 4861   6.764   2.708   0.446
 1321SOL    HW1 4862   6.765   2.786   0.508
 1321SOL    HW2 4863   6.777   2.624   0.498
 1322SOL     OW 4864   3.175   2.294   6.988
 1322SOL    HW1 4865   3.226   2.214   7.018
 1322SOL    HW2 4866   3.236   2.356   6.939
 1323SOL     OW 4867   3.786   6.509   0.823
 1323SOL    HW1 4868   3.765   6.607   0.819
 1323SOL    HW2 4869   3.770   6.468   0.734
 1324SOL     OW 4870   2.122   3.972   0.001
 1324SOL    HW1 4871   2.163   3.993   0.090
 1324SOL    HW2 4872   2.022   3.973   0.010
 1325SOL     OW 4873   2.867   5.746   5.336
 1325SOL    HW1 4874   2.939   5.706   5.280
 1325SOL    HW2 4875   2.788   5.684   5.338
 1326SOL     OW 4876   4.864   2.247   4.611
 1326SOL    HW1 4877   4.920   2.182   4.561
 1326SOL    HW2 4878   4.768   2.221   4.603
 1327SOL     OW 4879   5.313   5.436   2.115
 1327SOL    HW1 4880   5.229   5.452   2.166
 1327SOL    HW2 4881   5.364   5.361   2.157
 1328SOL     OW 4882   1.924   2.690   5.519
 1328SOL    HW1 4883   2.011   2.739   5.515
 1328SOL    HW2 4884   1.850   2.751   5.491
 1329SOL     OW 4885   0.900   2.815   3.867
 1329SOL    HW1 4886   0.993   2.792   3.894
 1329SOL    HW2 4887   0.859   2.738   3.819
 1330SOL     OW 4888   6.083   2.919   2.103
 1330SOL    HW1 4889   6.112   3.007   2.141
 1330SOL    HW2 4890   6.163   2.860   2.092
 1331SOL     OW 4891   4.558   1.851   4.011
 1331SOL    HW1 4892   4.506   1.861   3.925
 1331SOL    HW2 4893   4.539   1.761   4.050
 1332SOL     OW 4894   2.143   5.803   7.004
 1332SOL    HW1 4895   2.045   5.820   7.009
 1332SOL    HW2 4896   2.172   5.751   0.066
 1333SOL     OW 4897   3.260   4.135   2.984
 1333SOL    HW1 4898   3.349   4.140   3.028
 1333SOL    HW2 4899   3.272   4.110   2.887
 1334SOL     OW 4900   6.773   3.107   1.652
 1334SOL    HW1 4901   6.692   3.053   1.632
 1334SOL    HW2 4902   6.752   3.174   1.724
 1335SOL     OW 4903   1.052   4.055   2.714
 1335SOL    HW1 4904   0.998   3.972   2.696
 1335SOL    HW2 4905   1.010   4.105   2.790
 1336SOL     OW 4906   2.259   0.237   5.629
 1336SOL    HW1 4907   2.214   0.321   5.660
 1336SOL    HW2 4908   2.346   0.227   5.676
 1337SOL     OW 4909   6.827   0.468   2.952
 1337SOL    HW1 4910   6.777   0.501   3.032
 1337SOL    HW2 4911   6.903   0.530   2.933
 1338SOL     OW 4912   6.687   4.068   5.075
 1338SOL    HW1 4913   6.685   4.044   4.978
 1338SOL    HW2 4914   6.605   4.120   5.098
 1339SOL     OW 4915   0.113   0.300   0.172
 1339SOL    HW1 4916   0.102   0.387   0.220
 1339SOL    HW2 4917   0.052   0.297   0.093
 1340SOL     OW 4918   4.139   2.572   1.161
 1340SOL    HW1 4919   4.059   2.632   1.162
 1340SOL    HW2 4920   4.179   2.568   1.252
 1341SOL     OW 4921   5.077   6.007   0.179
 1341SOL    HW1 4922   5.095   5.913   0.208
 1341SOL    HW2 4923   5.162   6.059   0.176
 1342SOL     OW 4924   2.009   6.492   1.779
 1342SOL    HW1 4925   2.010   6.421   1.850
 1342SOL    HW2 4926   2.082   6.558   1.797
 1343SOL     OW 4927   6.276   6.144   3.342
 1343SOL    HW1 4928   6.214   6.086   3.289
 1343SOL    HW2 4929   6.345   6.088   3.387
 1344SOL     OW 4930   0.673   0.841   4.805
 1344SOL    HW1 4931   0.718   0.883   4.727
 1344SOL    HW2 4932   0.677   0.903   4.883
 1345SOL     OW 4933   0.350   6.381   0.194
 1345SOL    HW1 4934   0.403   6.421   0.119
 1345SOL    HW2 4935   0.319   6.453   0.256
 1346SOL     OW 4936   3.168   4.984   4.832
 1346SOL    HW1 4937   3.162   4.971   4.931
 1346SOL    HW2 4938   3.169   5.081   4.811
 1347SOL     OW 4939   1.098   6.814   6.545
 1347SOL    HW1 4940   1.163   6.887   6.565
 1347SOL    HW2 4941   1.103   6.790   6.448
 1348SOL     OW 4942   0.614   6.288   5.422
 1348SOL    HW1 4943   0.572   6.296   5.513
 1348SOL    HW2 4944   0.545   6.259   5.356
 1349SOL     OW 4945   4.646   2.755   3.932
 1349SOL    HW1 4946   4.738   2.786   3.906
 1349SOL    HW2 4947   4.632   2.773   4.029
 1350SOL     OW 4948   4.179   4.134   6.855
 1350SOL    HW1 4949   4.252   4.145   6.789
 1350SOL    HW2 4950   4.118   4.214   6.852
 1351SOL     OW 4951   0.418   2.555   5.353
 1351SOL    HW1 4952   0.329   2.562   5.399
 1351SOL    HW2 4953   0.483   2.509   5.413
 1352SOL     OW 4954   6.935   0.462   2.233
 1352SOL    HW1 4955   0.005   0.424   2.208
 1352SOL    HW2 4956   6.948   0.532   2.304
 1353SOL     OW 4957   0.823   0.747   0.325
 1353SOL    HW1 4958   0.901   0.752   0.264
 1353SOL    HW2 4959   0.746   0.703   0.279
 1354SOL     OW 4960   4.750   4.808   3.017
 1354SOL    HW1 4961   4.847   4.830   3.009
 1354SOL    HW2 4962   4.707   4.872   3.081
 1355SOL     OW 4963   5.423   3.170   5.880
 1355SOL    HW1 4964   5.374   3.179   5.966
 1355SOL    HW2 4965   5.490   3.096   5.887
 1356SOL     OW 4966   2.718   3.143   0.264
 1356SOL    HW1 4967   2.618   3.144   0.255
 1356SOL    HW2 4968   2.759   3.190   0.186
 1357SOL     OW 4969   1.275   3.388   5.370
 1357SOL    HW1 4970   1.255   3.462   5.305
 1357SOL    HW2 4971   1.318   3.426   5.451
 1358SOL     OW 4972   2.378   6.818   0.357
 1358SOL    HW1 4973   2.335   6.907   0.341
 1358SOL    HW2 4974   2.371   6.795   0.454
 1359SOL     OW 4975   6.842   4.509   1.577
 1359SOL    HW1 4976   6.866   4.526   1.672
 1359SOL    HW2 4977   6.744   4.491   1.570
 1360SOL     OW 4978   1.939   2.597   6.857
 1360SOL    HW1 4979   1.879   2.578   6.935
 1360SOL    HW2 4980   1.909   2.682   6.812
 1361SOL     OW 4981   0.275   4.651   5.063
 1361SOL    HW1 4982   0.217   4.588   5.116
 1361SOL    HW2 4983   0.361   4.666   5.113
 1362SOL     OW 4984   3.035   3.089   2.969
 1362SOL    HW1 4985   3.091   3.080   3.052
 1362SOL    HW2 4986   3.093   3.120   2.894
 1363SOL     OW 4987   1.017   6.180   4.430
 1363SOL    HW1 4988   1.004   6.118   4.507
 1363SOL    HW2 4989   0.959   6.152   4.354
 1364SOL     OW 4990   4.533   3.940   0.694
 1364SOL    HW1 4991   4.497   4.032   0.680
 1364SOL    HW2 4992   4.538   3.921   0.792
 1365SOL     OW 4993   6.763   3.310   6.903
 1365SOL    HW1 4994   6.803   3.369   6.973
 1365SOL    HW2 4995   6.699   3.362   6.847
 1366SOL     OW 4996   3.067   6.583   5.173
 1366SOL    HW1 4997   2.989   6.588   5.111
 1366SOL    HW2 4998   3.129   6.510   5.144
 1367SOL     OW 4999   2.508   1.208   2.061
 1367SOL    HW1 5000   2.410   1.229   2.062
 1367SOL    HW2 5001   2.533   1.158   2.144
 1368SOL     OW 5002   5.531   6.665   3.487
 1368SOL    HW1 5003   5.444   6.628   3.521
 1368SOL    HW2 5004   5.542   6.642   3.391
 1369SOL     OW 5005   0.986   0.925   2.796
 1369SOL    HW1 5006   1.056   0.865   2.756
 1369SOL    HW2 5007   0.926   0.958   2.723
 1370SOL     OW 5008   2.037   0.255   1.441
 1370SOL    HW1 5009   2.081   0.245   1.531
 1370SOL    HW2 5010   1.971   0.330   1.444
 1371SOL     OW 5011   3.923   0.180   6.855
 1371SOL    HW1 5012   3.964   0.271   6.847
 1371SOL    HW2 5013   3.954   0.123   6.779
 1372SOL     OW 5014   3.104   2.163   1.954
 1372SOL    HW1 5015   3.085   2.121   1.865
 1372SOL    HW2 5016   3.041   2.238   1.970
 1373SOL     OW 5017   0.937   5.925   0.761
 1373SOL    HW1 5018   0.869   5.937   0.688
 1373SOL    HW2 5019   0.995   5.846   0.741
 1374SOL     OW 5020   5.062   3.262   0.391
 1374SOL    HW1 5021   5.060   3.167   0.422
 1374SOL    HW2 5022   4.976   3.307   0.414
 1375SOL     OW 5023   0.431   4.084   5.357
 1375SOL    HW1 5024   0.363   4.042   5.298
 1375SOL    HW2 5025   0.448   4.178   5.326
 1376SOL     OW 5026   4.490   1.442   2.393
 1376SOL    HW1 5027   4.565   1.466   2.454
 1376SOL    HW2 5028   4.435   1.524   2.375
 1377SOL     OW 5029   1.245   5.171   4.798
 1377SOL    HW1 5030   1.307   5.203   4.726
 1377SOL    HW2 5031   1.226   5.074   4.783
 1378SOL     OW 5032   1.647   2.712   6.377
 1378SOL    HW1 5033   1.587   2.633   6.362
 1378SOL    HW2 5034   1.714   2.717   6.303
 1379SOL     OW 5035   4.617   6.082   1.190
 1379SOL    HW1 5036   4.701   6.134   1.206
 1379SOL    HW2 5037   4.538   6.143   1.198
 1380SOL     OW 5038   6.424   6.388   2.785
 1380SOL    HW1 5039   6.446   6.427   2.696
 1380SOL    HW2 5040   6.467   6.442   2.857
 1381SOL     OW 5041   6.131   0.354   1.224
 1381SOL    HW1 5042   6.115   0.304   1.308
 1381SOL    HW2 5043   6.099   0.448   1.234
 1382SOL     OW 5044   6.913   5.200   6.466
 1382SOL    HW1 5045   6.887   5.273   6.403
 1382SOL    HW2 5046   7.013   5.196   6.474
 1383SOL     OW 5047   2.737   0.572   7.010
 1383SOL    HW1 5048   2.675   0.637   6.965
 1383SOL    HW2 5049   2.729   0.483   6.966
 1384SOL     OW 5050   2.479   2.294   2.292
 1384SOL    HW1 5051   2.540   2.347   2.232
 1384SOL    HW2 5052   2.444   2.215   2.242
 1385SOL     OW 5053   5.602   2.686   3.797
 1385SOL    HW1 5054   5.623   2.611   3.734
 1385SOL    HW2 5055   5.630   2.660   3.890
 1386SOL     OW 5056   1.994   2.513   3.505
 1386SOL    HW1 5057   1.963   2.566   3.426
 1386SOL    HW2 5058   1.984   2.569   3.588
 1387SOL     OW 5059   2.692   0.609   4.550
 1387SOL    HW1 5060   2.746   0.687   4.580
 1387SOL    HW2 5061   2.657   0.626   4.457
 1388SOL     OW 5062   6.237   1.220   4.708
 1388SOL    HW1 5063   6.296   1.236   4.630
 1388SOL    HW2 5064   6.282   1.251   4.792
 1389SOL     OW 5065   6.430   0.652   3.981
 1389SOL    HW1 5066   6.382   0.635   4.067
 1389SOL    HW2 5067   6.386   0.602   3.907
 1390SOL     OW 5068   4.346   2.389   2.288
 1390SOL    HW1 5069   4.370   2.457   2.357
 1390SOL    HW2 5070   4.356   2.428   2.197
 1391SOL     OW 5071   5.939   1.283   4.886
 1391SOL    HW1 5072   5.870   1.290   4.814
 1391SOL    HW2 5073   5.913   1.342   4.963
 1392SOL     OW 5074   4.577   6.140   5.599
 1392SOL    HW1 5075   4.656   6.126   5.538
 1392SOL    HW2 5076   4.602   6.205   5.671
 1393SOL     OW 5077   5.104   0.175   6.780
 1393SOL    HW1 5078   5.084   0.104   6.712
 1393SOL    HW2 5079   5.074   0.144   6.870
 1394SOL     OW 5080   4.475   0.597   3.681
 1394SOL    HW1 5081   4.459   0.656   3.761
 1394SOL    HW2 5082   4.465   0.651   3.598
 1395SOL     OW 5083   1.454   5.197   2.286
 1395SOL    HW1 5084   1.491   5.251   2.210
 1395SOL    HW2 5085   1.395   5.125   2.250
 1396SOL     OW 5086   1.431   1.316   3.655
 1396SOL    HW1 5087   1.517   1.285   3.616
 1396SOL    HW2 5088   1.360   1.248   3.637
 1397SOL     OW 5089   0.586   5.162   5.181
 1397SOL    HW1 5090   0.597   5.244   5.125
 1397SOL    HW2 5091   0.503   5.170   5.236
 1398SOL     OW 5092   1.909   6.668   6.604
 1398SOL    HW1 5093   1.834   6.613   6.642
 1398SOL    HW2 5094   1.992   6.651   6.657
 1399SOL     OW 5095   4.030   6.887   0.073
 1399SOL    HW1 5096   4.079   6.837   0.145
 1399SOL    HW2 5097   4.093   6.910   7.018
 1400SOL     OW 5098   6.914   1.437   4.991
 1400SOL    HW1 5099   6.993   1.486   4.954
 1400SOL    HW2 5100   6.940   1.389   5.074
 1401SOL     OW 5101   5.278   0.238   2.817
 1401SOL    HW1 5102   5.361   0.209   2.864
 1401SOL    HW2 5103   5.282   0.210   2.722
 1402SOL     OW 5104   6.992   4.687   2.059
 1402SOL    HW1 5105   6.895   4.690   2.083
 1402SOL    HW2 5106   0.013   4.600   2.090
 1403SOL     OW 5107   3.108   3.396   6.237
 1403SOL    HW1 5108   3.205   3.373   6.233
 1403SOL    HW2 5109   3.097   3.494   6.251
 1404SOL     OW 5110   4.556   6.437   0.942
 1404SOL    HW1 5111   4.529   6.416   0.849
 1404SOL    HW2 5112   4.655   6.453   0.946
 1405SOL     OW 5113   1.158   3.772   0.641
 1405SOL    HW1 5114   1.073   3.820   0.663
 1405SOL    HW2 5115   1.216   3.766   0.722
 1406SOL     OW 5116   2.037   2.908   7.014
 1406SOL    HW1 5117   1.964   2.949   6.961
 1406SOL    HW2 5118   2.124   2.920   6.966
 1407SOL     OW 5119   0.735   2.767   1.257
 1407SOL    HW1 5120   0.713   2.777   1.354
 1407SOL    HW2 5121   0.766   2.674   1.239
 1408SOL     OW 5122   5.572   6.599   0.912
 1408SOL    HW1 5123   5.671   6.606   0.900
 1408SOL    HW2 5124   5.552   6.569   1.005
 1409SOL     OW 5125   6.412   1.552   5.458
 1409SOL    HW1 5126   6.355   1.595   5.387
 1409SOL    HW2 5127   6.371   1.569   5.548
 1410SOL     OW 5128   3.141   0.196   0.318
 1410SOL    HW1 5129   3.093   0.263   0.374
 1410SOL    HW2 5130   3.170   0.238   0.233
 1411SOL     OW 5131   3.856   5.188   6.546
 1411SOL    HW1 5132   3.907   5.274   6.556
 1411SOL    HW2 5133   3.809   5.167   6.631
 1412SOL     OW 5134   2.323   1.984   0.500
 1412SOL    HW1 5135   2.340   1.953   0.406
 1412SOL    HW2 5136   2.392   1.944   0.561
 1413SOL     OW 5137   2.172   1.810   5.518
 1413SOL    HW1 5138   2.124   1.852   5.595
 1413SOL    HW2 5139   2.241   1.746   5.553
 1414SOL     OW 5140   1.058   5.051   2.028
 1414SOL    HW1 5141   0.998   5.053   1.948
 1414SOL    HW2 5142   1.043   4.966   2.079
 1415SOL     OW 5143   3.154   1.794   4.866
 1415SOL    HW1 5144   3.171   1.841   4.780
 1415SOL    HW2 5145   3.184   1.700   4.860
 1416SOL     OW 5146   4.100   0.309   4.925
 1416SOL    HW1 5147   4.038   0.382   4.897
 1416SOL    HW2 5148   4.165   0.344   4.992
 1417SOL     OW 5149   3.400   3.418   4.321
 1417SOL    HW1 5150   3.353   3.372   4.245
 1417SOL    HW2 5151   3.357   3.506   4.339
 1418SOL     OW 5152   3.400   3.693   6.008
 1418SOL    HW1 5153   3.346   3.769   6.045
 1418SOL    HW2 5154   3.479   3.729   5.958
 1419SOL     OW 5155   1.401   6.002   2.231
 1419SOL    HW1 5156   1.435   5.994   2.325
 1419SOL    HW2 5157   1.302   5.986   2.230
 1420SOL     OW 5158   3.018   6.065   2.680
 1420SOL    HW1 5159   3.010   6.014   2.766
 1420SOL    HW2 5160   2.972   6.153   2.689
 1421SOL     OW 5161   2.035   5.242   6.603
 1421SOL    HW1 5162   2.095   5.163   6.618
 1421SOL    HW2 5163   2.085   5.326   6.625
 1422SOL     OW 5164   1.878   3.465   6.541
 1422SOL    HW1 5165   1.837   3.556   6.531
 1422SOL    HW2 5166   1.813   3.403   6.584
 1423SOL     OW 5167   3.878   0.411   5.104
 1423SOL    HW1 5168   3.823   0.452   5.031
 1423SOL    HW2 5169   3.868   0.465   5.187
 1424SOL     OW 5170   6.461   2.350   0.997
 1424SOL    HW1 5171   6.485   2.302   0.913
 1424SOL    HW2 5172   6.459   2.448   0.981
 1425SOL     OW 5173   5.497   6.935   3.979
 1425SOL    HW1 5174   5.417   6.966   3.928
 1425SOL    HW2 5175   5.475   6.929   4.077
 1426SOL     OW 5176   4.531   0.319   0.161
 1426SOL    HW1 5177   4.604   0.380   0.191
 1426SOL    HW2 5178   4.533   0.311   0.061
 1427SOL     OW 5179   1.400   0.264   4.250
 1427SOL    HW1 5180   1.386   0.184   4.192
 1427SOL    HW2 5181   1.322   0.276   4.311
 1428SOL     OW 5182   2.046   3.697   4.067
 1428SOL    HW1 5183   1.960   3.714   4.115
 1428SOL    HW2 5184   2.090   3.785   4.046
 1429SOL     OW 5185   6.236   0.441   2.207
 1429SOL    HW1 5186   6.326   0.463   2.171
 1429SOL    HW2 5187   6.246   0.380   2.286
 1430SOL     OW 5188   2.113   4.112   4.231
 1430SOL    HW1 5189   2.097   4.039   4.298
 1430SOL    HW2 5190   2.197   4.160   4.254
 1431SOL     OW 5191   3.451   1.495   0.236
 1431SOL    HW1 5192   3.494   1.434   0.302
 1431SOL    HW2 5193   3.370   1.451   0.198
 1432SOL     OW 5194   4.339   0.218   2.363
 1432SOL    HW1 5195   4.416   0.241   2.423
 1432SOL    HW2 5196   4.271   0.165   2.414
 1433SOL     OW 5197   2.953   1.270   3.782
 1433SOL    HW1 5198   2.964   1.350   3.842
 1433SOL    HW2 5199   3.038   1.255   3.731
 1434SOL     OW 5200   5.500   4.207   0.430
 1434SOL    HW1 5201   5.572   4.162   0.483
 1434SOL    HW2 5202   5.488   4.301   0.463
 1435SOL     OW 5203   1.008   0.112   4.417
 1435SOL    HW1 5204   1.006   0.044   4.343
 1435SOL    HW2 5205   0.973   0.070   4.501
 1436SOL     OW 5206   5.602   0.913   0.303
 1436SOL    HW1 5207   5.655   0.848   0.249
 1436SOL    HW2 5208   5.579   0.872   0.392
 1437SOL     OW 5209   3.935   0.931   0.415
 1437SOL    HW1 5210   3.907   1.008   0.358
 1437SOL    HW2 5211   3.921   0.955   0.511
 1438SOL     OW 5212   2.254   7.011   2.276
 1438SOL    HW1 5213   2.269   7.012   2.375
 1438SOL    HW2 5214   2.211   6.924   2.249
 1439SOL     OW 5215   0.552   5.474   6.572
 1439SOL    HW1 5216   0.516   5.566   6.582
 1439SOL    HW2 5217   0.567   5.434   6.662
 1440SOL     OW 5218   3.951   3.091   2.737
 1440SOL    HW1 5219   4.003   3.111   2.654
 1440SOL    HW2 5220   3.858   3.064   2.712
 1441SOL     OW 5221   6.379   2.583   5.421
 1441SOL    HW1 5222   6.445   2.572   5.496
 1441SOL    HW2 5223   6.429   2.588   5.334
 1442SOL     OW 5224   5.599   6.700   0.385
 1442SOL    HW1 5225   5.659   6.626   0.354
 1442SOL    HW2 5226   5.655   6.776   0.418
 1443SOL     OW 5227   1.442   2.710   3.261
 1443SOL    HW1 5228   1.387   2.642   3.311
 1443SOL    HW2 5229   1.518   2.664   3.216
 1444SOL     OW 5230   5.194   6.951   4.933
 1444SOL    HW1 5231   5.109   7.002   4.932
 1444SOL    HW2 5232   5.272   7.013   4.921
 1445SOL     OW 5233   6.657   1.724   0.559
 1445SOL    HW1 5234   6.576   1.685   0.602
 1445SOL    HW2 5235   6.630   1.772   0.475
 1446SOL     OW 5236   3.920   6.437   1.395
 1446SOL    HW1 5237   3.954   6.522   1.354
 1446SOL    HW2 5238   3.837   6.408   1.348
 1447SOL     OW 5239   6.360   1.352   4.928
 1447SOL    HW1 5240   6.443   1.405   4.942
 1447SOL    HW2 5241   6.353   1.281   4.999
 1448SOL     OW 5242   5.823   0.847   6.908
 1448SOL    HW1 5243   5.891   0.788   6.865
 1448SOL    HW2 5244   5.735   0.800   6.910
 1449SOL     OW 5245   4.662   5.500   1.018
 1449SOL    HW1 5246   4.732   5.536   1.079
 1449SOL    HW2 5247   4.643   5.566   0.945
 1450SOL     OW 5248   5.969   2.089   3.631
 1450SOL    HW1 5249   5.992   2.051   3.721
 1450SOL    HW2 5250   6.050   2.134   3.592
 1451SOL     OW 5251   1.806   6.168   1.785
 1451SOL    HW1 5252   1.868   6.190   1.860
 1451SOL    HW2 5253   1.858   6.135   1.707
 1452SOL     OW 5254   3.752   0.564   5.309
 1452SOL    HW1 5255   3.714   0.538   5.397
 1452SOL    HW2 5256   3.686   0.618   5.258
 1453SOL     OW 5257   4.392   4.646   4.185
 1453SOL    HW1 5258   4.352   4.684   4.268
 1453SOL    HW2 5259   4.330   4.661   4.108
 1454SOL     OW 5260   4.712   4.358   0.789
 1454SOL    HW1 5261   4.709   4.444   0.739
 1454SOL    HW2 5262   4.634   4.301   0.763
 1455SOL     OW 5263   2.032   1.818   1.819
 1455SOL    HW1 5264   2.052   1.785   1.911
 1455SOL    HW2 5265   2.059   1.914   1.811
 1456SOL     OW 5266   6.366   5.473   4.686
 1456SOL    HW1 5267   6.315   5.394   4.720
 1456SOL    HW2 5268   6.314   5.556   4.702
 1457SOL     OW 5269   2.041   0.213   3.580
 1457SOL    HW1 5270   2.063   0.120   3.612
 1457SOL    HW2 5271   2.125   0.261   3.557
 1458SOL     OW 5272   6.920   5.497   0.439
 1458SOL    HW1 5273   6.948   5.408   0.402
 1458SOL    HW2 5274   6.960   5.570   0.385
 1459SOL     OW 5275   2.465   6.959   1.289
 1459SOL    HW1 5276   2.530   6.942   1.363
 1459SOL    HW2 5277   2.426   0.032   1.301
 1460SOL     OW 5278   0.900   6.858   6.960
 1460SOL    HW1 5279   0.837   6.913   7.016
 1460SOL    HW2 5280   0.896   6.763   6.990
 1461SOL     OW 5281   5.050   5.139   2.615
 1461SOL    HW1 5282   4.991   5.185   2.681
 1461SOL    HW2 5283   5.145   5.170   2.628
 1462SOL     OW 5284   4.960   0.468   5.197
 1462SOL    HW1 5285   4.924   0.423   5.279
 1462SOL    HW2 5286   4.952   0.567   5.207
 1463SOL     OW 5287   0.678   2.062   6.228
 1463SOL    HW1 5288   0.634   2.102   6.309
 1463SOL    HW2 5289   0.740   2.128   6.188
 1464SOL     OW 5290   0.686   1.008   1.624
 1464SOL    HW1 5291   0.609   0.964   1.577
 1464SOL    HW2 5292   0.673   1.002   1.722
 1465SOL     OW 5293   0.634   0.655   4.094
 1465SOL    HW1 5294   0.635   0.585   4.165
 1465SOL    HW2 5295   0.541   0.690   4.084
 1466SOL     OW 5296   5.617   5.241   4.725
 1466SOL    HW1 5297   5.544   5.173   4.717
 1466SOL    HW2 5298   5.703   5.194   4.746
 1467SOL     OW 5299   5.716   3.569   3.543
 1467SOL    HW1 5300   5.816   3.576   3.533
 1467SOL    HW2 5301   5.674   3.573   3.452
 1468SOL     OW 5302   5.480   0.109   2.140
 1468SOL    HW1 5303   5.547   0.146   2.076
 1468SOL    HW2 5304   5.390   0.149   2.121
 1469SOL     OW 5305   1.131   0.882   2.040
 1469SOL    HW1 5306   1.099   0.797   2.082
 1469SOL    HW2 5307   1.061   0.953   2.051
 1470SOL     OW 5308   6.705   0.601   3.179
 1470SOL    HW1 5309   6.606   0.590   3.170
 1470SOL    HW2 5310   6.739   0.535   3.247
 1471SOL     OW 5311   6.366   0.436   1.083
 1471SOL    HW1 5312   6.291   0.385   1.125
 1471SOL    HW2 5313   6.446   0.433   1.143
 1472SOL     OW 5314   4.569   5.413   4.815
 1472SOL    HW1 5315   4.549   5.316   4.796
 1472SOL    HW2 5316   4.489   5.468   4.791
 1473SOL     OW 5317   6.010   3.928   3.049
 1473SOL    HW1 5318   5.935   3.862   3.039
 1473SOL    HW2 5319   6.098   3.879   3.047
 1474SOL     OW 5320   4.626   5.258   3.312
 1474SOL    HW1 5321   4.718   5.225   3.291
 1474SOL    HW2 5322   4.630   5.353   3.341
 1475SOL     OW 5323   6.070   0.446   3.712
 1475SOL    HW1 5324   6.002   0.485   3.651
 1475SOL    HW2 5325   6.030   0.370   3.763
 1476SOL     OW 5326   6.818   2.489   0.900
 1476SOL    HW1 5327   6.911   2.514   0.875
 1476SOL    HW2 5328   6.820   2.435   0.985
 1477SOL     OW 5329   2.399   6.355   3.402
 1477SOL    HW1 5330   2.339   6.306   3.340
 1477SOL    HW2 5331   2.405   6.305   3.489
 1478SOL     OW 5332   6.898   4.110   1.626
 1478SOL    HW1 5333   6.882   4.028   1.681
 1478SOL    HW2 5334   6.819   4.126   1.566
 1479SOL     OW 5335   1.161   4.946   0.613
 1479SOL    HW1 5336   1.126   4.982   0.526
 1479SOL    HW2 5337   1.185   4.850   0.602
 1480SOL     OW 5338   2.488   0.957   0.050
 1480SOL    HW1 5339   2.467   0.862   0.026
 1480SOL    HW2 5340   2.570   0.986   0.000
 1481SOL     OW 5341   0.228   2.538   6.120
 1481SOL    HW1 5342   0.181   2.621   6.150
 1481SOL    HW2 5343   0.325   2.557   6.106
 1482SOL     OW 5344   5.279   0.674   6.606
 1482SOL    HW1 5345   5.257   0.601   6.670
 1482SOL    HW2 5346   5.368   0.655   6.564
 1483SOL     OW 5347   6.552   1.974   6.301
 1483SOL    HW1 5348   6.568   1.935   6.210
 1483SOL    HW2 5349   6.494   2.055   6.293
 1484SOL     OW 5350   6.215   6.898   3.516
 1484SOL    HW1 5351   6.166   6.822   3.472
 1484SOL    HW2 5352   6.313   6.881   3.513
 1485SOL     OW 5353   5.993   2.848   3.915
 1485SOL    HW1 5354   5.984   2.798   4.000
 1485SOL    HW2 5355   5.995   2.784   3.838
 1486SOL     OW 5356   5.308   2.204   2.148
 1486SOL    HW1 5357   5.345   2.197   2.240
 1486SOL    HW2 5358   5.208   2.209   2.152
 1487SOL     OW 5359   6.571   1.198   5.899
 1487SOL    HW1 5360   6.555   1.271   5.966
 1487SOL    HW2 5361   6.484   1.168   5.861
 1488SOL     OW 5362   5.229   2.034   3.818
 1488SOL    HW1 5363   5.149   2.048   3.876
 1488SOL    HW2 5364   5.205   1.971   3.743
 1489SOL     OW 5365   3.722   5.529   4.425
 1489SOL    HW1 5366   3.712   5.627   4.443
 1489SOL    HW2 5367   3.777   5.487   4.496
 1490SOL     OW 5368   2.456   2.569   1.329
 1490SOL    HW1 5369   2.412   2.653   1.361
 1490SOL    HW2 5370   2.524   2.540   1.396
 1491SOL     OW 5371   6.885   2.535   5.430
 1491SOL    HW1 5372   6.861   2.598   5.503
 1491SOL    HW2 5373   6.804   2.482   5.403
 1492SOL     OW 5374   5.489   2.791   1.712
 1492SOL    HW1 5375   5.469   2.855   1.637
 1492SOL    HW2 5376   5.588   2.777   1.719
 1493SOL     OW 5377   6.039   1.621   5.073
 1493SOL    HW1 5378   6.010   1.715   5.091
 1493SOL    HW2 5379   6.075   1.615   4.980
 1494SOL     OW 5380   5.726   1.533   4.491
 1494SOL    HW1 5381   5.798   1.565   4.552
 1494SOL    HW2 5382   5.746   1.440   4.461
 1495SOL     OW 5383   1.076   3.562   2.630
 1495SOL    HW1 5384   1.151   3.594   2.687
 1495SOL    HW2 5385   1.106   3.483   2.576
 1496SOL     OW 5386   0.832   1.209   2.715
 1496SOL    HW1 5387   0.892   1.260   2.653
 1496SOL    HW2 5388   0.794   1.130   2.667
 1497SOL     OW 5389   5.285   4.643   5.676
 1497SOL    HW1 5390   5.223   4.712   5.640
 1497SOL    HW2 5391   5.371   4.687   5.703
 1498SOL     OW 5392   2.462   5.152   0.192
 1498SOL    HW1 5393   2.399   5.092   0.144
 1498SOL    HW2 5394   2.510   5.211   0.127
 1499SOL     OW 5395   0.970   4.234   4.764
 1499SOL    HW1 5396   0.967   4.134   4.759
 1499SOL    HW2 5397   0.951   4.273   4.674
 1500SOL     OW 5398   4.387   6.570   5.452
 1500SOL    HW1 5399   4.370   6.614   5.364
 1500SOL    HW2 5400   4.447   6.492   5.439
 1501SOL     OW 5401   4.197   0.284   0.118
 1501SOL    HW1 5402   4.204   0.257   0.022
 1501SOL    HW2 5403   4.223   0.380   0.127
 1502SOL     OW 5404   6.854   6.252   6.832
 1502SOL    HW1 5405   6.925   6.189   6.864
 1502SOL    HW2 5406   6.896   6.321   6.773
 1503SOL     OW 5407   3.200   4.310   5.412
 1503SOL    HW1 5408   3.295   4.338   5.400
 1503SOL    HW2 5409   3.142   4.363   5.350
 1504SOL     OW 5410   2.828   6.745   4.263
 1504SOL    HW1 5411   2.830   6.815   4.191
 1504SOL    HW2 5412   2.832   6.655   4.221
 1505SOL     OW 5413   4.639   6.672   2.176
 1505SOL    HW1 5414   4.598   6.752   2.131
 1505SOL    HW2 5415   4.720   6.643   2.125
 1506SOL     OW 5416   0.789   6.701   3.126
 1506SOL    HW1 5417   0.782   6.708   3.026
 1506SOL    HW2 5418   0.860   6.636   3.150
 1507SOL     OW 5419   2.629   2.297   6.778
 1507SOL    HW1 5420   2.670   2.284   6.688
 1507SOL    HW2 5421   2.689   2.354   6.834
 1508SOL     OW 5422   4.867   6.748   0.864
 1508SOL    HW1 5423   4.934   6.782   0.798
 1508SOL    HW2 5424   4.776   6.780   0.838
 1509SOL     OW 5425   5.484   1.825   6.697
 1509SOL    HW1 5426   5.407   1.770   6.729
 1509SOL    HW2 5427   5.457   1.875   6.615
 1510SOL     OW 5428   0.169   2.055   3.071
 1510SOL    HW1 5429   0.114   2.019   2.996
 1510SOL    HW2 5430   0.114   2.118   3.126
 1511SOL     OW 5431   1.161   2.868   0.701
 1511SOL    HW1 5432   1.181   2.851   0.797
 1511SOL    HW2 5433   1.246   2.869   0.649
 1512SOL     OW 5434   6.376   0.824   2.066
 1512SOL    HW1 5435   6.278   0.812   2.080
 1512SOL    HW2 5436   6.417   0.866   2.147
 1513SOL     OW 5437   3.629   0.950   2.151
 1513SOL    HW1 5438   3.530   0.968   2.152
 1513SOL    HW2 5439   3.646   0.856   2.179
 1514SOL     OW 5440   4.706   0.933   6.328
 1514SOL    HW1 5441   4.800   0.965   6.337
 1514SOL    HW2 5442   4.678   0.935   6.232
 1515SOL     OW 5443   5.862   5.227   5.049
 1515SOL    HW1 5444   5.921   5.157   5.010
 1515SOL    HW2 5445   5.845   5.206   5.146
 1516SOL     OW 5446   0.866   0.989   0.714
 1516SOL    HW1 5447   0.866   1.083   0.750
 1516SOL    HW2 5448   0.823   0.988   0.624
 1517SOL     OW 5449   3.344   5.562   3.665
 1517SOL    HW1 5450   3.355   5.475   3.714
 1517SOL    HW2 5451   3.423   5.620   3.681
 1518SOL     OW 5452   0.790   4.717   0.975
 1518SOL    HW1 5453   0.717   4.677   0.919
 1518SOL    HW2 5454   0.750   4.766   1.052
 1519SOL     OW 5455   0.299   4.031   1.106
 1519SOL    HW1 5456   0.280   4.107   1.167
 1519SOL    HW2 5457   0.390   3.994   1.126
 1520SOL     OW 5458   1.261   2.569   2.959
 1520SOL    HW1 5459   1.310   2.522   2.885
 1520SOL    HW2 5460   1.206   2.643   2.921
 1521SOL     OW 5461   2.390   4.193   5.331
 1521SOL    HW1 5462   2.385   4.115   5.268
 1521SOL    HW2 5463   2.486   4.217   5.347
 1522SOL     OW 5464   1.116   2.399   6.314
 1522SOL    HW1 5465   1.159   2.487   6.295
 1522SOL    HW2 5466   1.185   2.335   6.350
 1523SOL     OW 5467   6.099   0.910   1.222
 1523SOL    HW1 5468   6.139   0.845   1.286
 1523SOL    HW2 5469   6.010   0.941   1.257
 1524SOL     OW 5470   6.241   0.598   2.513
 1524SOL    HW1 5471   6.275   0.683   2.474
 1524SOL    HW2 5472   6.183   0.551   2.447
 1525SOL     OW 5473   4.292   1.069   6.036
 1525SOL    HW1 5474   4.346   1.001   6.086
 1525SOL    HW2 5475   4.349   1.114   5.968
 1526SOL     OW 5476   6.582   1.274   0.202
 1526SOL    HW1 5477   6.533   1.357   0.228
 1526SOL    HW2 5478   6.650   1.252   0.272
 1527SOL     OW 5479   3.006   1.346   5.764
 1527SOL    HW1 5480   3.096   1.309   5.787
 1527SOL    HW2 5481   2.935   1.291   5.808
 1528SOL     OW 5482   5.459   5.643   4.180
 1528SOL    HW1 5483   5.391   5.716   4.189
 1528SOL    HW2 5484   5.438   5.569   4.244
 1529SOL     OW 5485   2.410   0.448   5.259
 1529SOL    HW1 5486   2.423   0.499   5.345
 1529SOL    HW2 5487   2.467   0.489   5.188
 1530SOL     OW 5488   3.373   6.858   1.706
 1530SOL    HW1 5489   3.452   6.883   1.762
 1530SOL    HW2 5490   3.310   6.803   1.761
 1531SOL     OW 5491   5.291   0.453   6.235
 1531SOL    HW1 5492   5.373   0.511   6.240
 1531SOL    HW2 5493   5.302   0.374   6.294
 1532SOL     OW 5494   3.255   2.538   5.334
 1532SOL    HW1 5495   3.227   2.471   5.265
 1532SOL    HW2 5496   3.263   2.492   5.423
 1533SOL     OW 5497   5.146   2.905   6.800
 1533SOL    HW1 5498   5.239   2.899   6.836
 1533SOL    HW2 5499   5.082   2.922   6.875
 1534SOL     OW 5500   6.721   6.579   2.226
 1534SOL    HW1 5501   6.765   6.619   2.145
 1534SOL    HW2 5502   6.623   6.568   2.208
 1535SOL     OW 5503   5.053   4.231   4.378
 1535SOL    HW1 5504   5.132   4.292   4.382
 1535SOL    HW2 5505   5.043   4.194   4.286
 1536SOL     OW 5506   3.244   5.520   3.427
 1536SOL    HW1 5507   3.198   5.432   3.435
 1536SOL    HW2 5508   3.282   5.546   3.515
 1537SOL     OW 5509   2.574   5.497   4.352
 1537SOL    HW1 5510   2.486   5.524   4.313
 1537SOL    HW2 5511   2.627   5.578   4.375
 1538SOL     OW 5512   3.712   5.010   6.370
 1538SOL    HW1 5513   3.744   5.018   6.276
 1538SOL    HW2 5514   3.769   5.067   6.430
 1539SOL     OW 5515   3.791   6.030   2.151
 1539SOL    HW1 5516   3.715   6.039   2.086
 1539SOL    HW2 5517   3.852   6.109   2.142
 1540SOL     OW 5518   5.835   0.114   5.189
 1540SOL    HW1 5519   5.866   0.033   5.139
 1540SOL    HW2 5520   5.802   0.183   5.125
 1541SOL     OW 5521   4.939   1.151   1.083
 1541SOL    HW1 5522   4.947   1.249   1.100
 1541SOL    HW2 5523   4.955   1.101   1.169
 1542SOL     OW 5524   0.960   5.717   1.014
 1542SOL    HW1 5525   0.964   5.632   0.961
 1542SOL    HW2 5526   1.052   5.746   1.036
 1543SOL     OW 5527   3.766   4.018   3.198
 1543SOL    HW1 5528   3.729   3.926   3.209
 1543SOL    HW2 5529   3.865   4.014   3.182
 1544SOL     OW 5530   3.344   3.898   2.486
 1544SOL    HW1 5531   3.266   3.838   2.502
 1544SOL    HW2 5532   3.407   3.855   2.422
 1545SOL     OW 5533   0.156   0.563   4.138
 1545SOL    HW1 5534   0.173   0.626   4.214
 1545SOL    HW2 5535   0.178   0.470   4.166
 1546SOL     OW 5536   6.242   6.589   6.272
 1546SOL    HW1 5537   6.192   6.670   6.299
 1546SOL    HW2 5538   6.191   6.507   6.300
 1547SOL     OW 5539   3.083   5.919   0.026
 1547SOL    HW1 5540   3.063   5.856   6.970
 1547SOL    HW2 5541   3.066   5.874   0.113
 1548SOL     OW 5542   5.620   3.888   3.992
 1548SOL    HW1 5543   5.591   3.925   4.081
 1548SOL    HW2 5544   5.623   3.789   3.997
 1549SOL     OW 5545   6.934   2.435   0.531
 1549SOL    HW1 5546   6.874   2.356   0.546
 1549SOL    HW2 5547   6.982   2.456   0.616
 1550SOL     OW 5548   2.244   5.268   2.758
 1550SOL    HW1 5549   2.245   5.282   2.659
 1550SOL    HW2 5550   2.336   5.283   2.795
 1551SOL     OW 5551   0.113   3.296   0.902
 1551SOL    HW1 5552   0.048   3.282   0.976
 1551SOL    HW2 5553   0.190   3.232   0.913
 1552SOL     OW 5554   0.730   6.694   2.133
 1552SOL    HW1 5555   0.693   6.672   2.223
 1552SOL    HW2 5556   0.689   6.778   2.099
 1553SOL     OW 5557   5.294   0.911   6.410
 1553SOL    HW1 5558   5.375   0.918   6.351
 1553SOL    HW2 5559   5.312   0.959   6.496
 1554SOL     OW 5560   2.858   2.421   1.303
 1554SOL    HW1 5561   2.897   2.335   1.271
 1554SOL    HW2 5562   2.926   2.471   1.356
 1555SOL     OW 5563   4.126   0.792   0.190
 1555SOL    HW1 5564   4.103   0.800   0.287
 1555SOL    HW2 5565   4.071   0.858   0.138
 1556SOL     OW 5566   3.922   2.293   7.012
 1556SOL    HW1 5567   3.977   2.373   6.988
 1556SOL    HW2 5568   3.959   2.213   6.966
 1557SOL     OW 5569   1.647   3.455   0.727
 1557SOL    HW1 5570   1.657   3.522   0.801
 1557SOL    HW2 5571   1.690   3.369   0.754
 1558SOL     OW 5572   5.175   2.731   6.386
 1558SOL    HW1 5573   5.216   2.812   6.428
 1558SOL    HW2 5574   5.133   2.674   6.457
 1559SOL     OW 5575   2.840   6.312   3.198
 1559SOL    HW1 5576   2.764   6.248   3.201
 1559SOL    HW2 5577   2.831   6.379   3.272
 1560SOL     OW 5578   3.840   2.640   1.100
 1560SOL    HW1 5579   3.760   2.663   1.045
 1560SOL    HW2 5580   3.861   2.716   1.161
 1561SOL     OW 5581   5.651   6.185   1.174
 1561SOL    HW1 5582   5.605   6.150   1.092
 1561SOL    HW2 5583   5.587   6.244   1.225
 1562SOL     OW 5584   3.951   0.358   1.597
 1562SOL    HW1 5585   4.039   0.349   1.550
 1562SOL    HW2 5586   3.914   0.267   1.615
 1563SOL     OW 5587   1.944   2.687   4.117
 1563SOL    HW1 5588   2.006   2.656   4.189
 1563SOL    HW2 5589   1.994   2.694   4.030
 1564SOL     OW 5590   0.647   1.433   2.596
 1564SOL    HW1 5591   0.613   1.400   2.508
 1564SOL    HW2 5592   0.680   1.356   2.651
 1565SOL     OW 5593   4.461   1.676   5.102
 1565SOL    HW1 5594   4.544   1.730   5.112
 1565SOL    HW2 5595   4.391   1.730   5.056
 1566SOL     OW 5596   6.794   4.252   3.955
 1566SOL    HW1 5597   6.741   4.288   4.032
 1566SOL    HW2 5598   6.731   4.228   3.881
 1567SOL     OW 5599   5.372   0.566   5.248
 1567SOL    HW1 5600   5.338   0.546   5.340
 1567SOL    HW2 5601   5.334   0.653   5.217
 1568SOL     OW 5602   3.052   4.875   1.575
 1568SOL    HW1 5603   2.991   4.861   1.652
 1568SOL    HW2 5604   3.144   4.844   1.599
 1569SOL     OW 5605   3.179   1.098   2.452
 1569SOL    HW1 5606   3.171   1.198   2.446
 1569SOL    HW2 5607   3.105   1.062   2.510
 1570SOL     OW 5608   2.938   6.391   6.364
 1570SOL    HW1 5609   2.866   6.325   6.342
 1570SOL    HW2 5610   3.026   6.345   6.362
 1571SOL     OW 5611   6.798   3.581   4.245
 1571SOL    HW1 5612   6.733   3.618   4.179
 1571SOL    HW2 5613   6.764   3.598   4.338
 1572SOL     OW 5614   2.359   6.126   2.828
 1572SOL    HW1 5615   2.412   6.066   2.889
 1572SOL    HW2 5616   2.303   6.070   2.768
 1573SOL     OW 5617   4.993   6.039   0.452
 1573SOL    HW1 5618   5.072   5.984   0.479
 1573SOL    HW2 5619   4.995   6.054   0.353
 1574SOL     OW 5620   0.647   4.225   2.492
 1574SOL    HW1 5621   0.548   4.220   2.474
 1574SOL    HW2 5622   0.696   4.173   2.422
 1575SOL     OW 5623   7.004   2.607   0.023
 1575SOL    HW1 5624   0.080   2.633   0.008
 1575SOL    HW2 5625   6.992   2.511   7.017
 1576SOL     OW 5626   1.929   6.084   1.554
 1576SOL    HW1 5627   1.849   6.086   1.494
 1576SOL    HW2 5628   1.971   6.175   1.556
 1577SOL     OW 5629   3.378   5.883   4.196
 1577SOL    HW1 5630   3.280   5.904   4.198
 1577SOL    HW2 5631   3.402   5.829   4.277
 1578SOL     OW 5632   4.953   1.470   1.762
 1578SOL    HW1 5633   5.029   1.534   1.759
 1578SOL    HW2 5634   4.892   1.488   1.684
 1579SOL     OW 5635   1.381   2.935   1.664
 1579SOL    HW1 5636   1.372   2.961   1.569
 1579SOL    HW2 5637   1.307   2.976   1.718
 1580SOL     OW 5638   3.366   3.242   2.545
 1580SOL    HW1 5639   3.318   3.271   2.462
 1580SOL    HW2 5640   3.380   3.143   2.544
 1581SOL     OW 5641   6.456   4.136   5.377
 1581SOL    HW1 5642   6.474   4.104   5.285
 1581SOL    HW2 5643   6.494   4.228   5.389
 1582SOL     OW 5644   4.942   5.715   4.974
 1582SOL    HW1 5645   4.993   5.679   4.896
 1582SOL    HW2 5646   4.885   5.642   5.013
 1583SOL     OW 5647   1.475   5.656   5.068
 1583SOL    HW1 5648   1.406   5.717   5.108
 1583SOL    HW2 5649   1.559   5.662   5.122
 1584SOL     OW 5650   0.221   3.823   0.547
 1584SOL    HW1 5651   0.279   3.862   0.619
 1584SOL    HW2 5652   0.126   3.849   0.562
 1585SOL     OW 5653   4.633   6.479   3.628
 1585SOL    HW1 5654   4.624   6.423   3.709
 1585SOL    HW2 5655   4.578   6.562   3.638
 1586SOL     OW 5656   3.114   5.906   2.467
 1586SOL    HW1 5657   3.065   5.947   2.544
 1586SOL    HW2 5658   3.190   5.965   2.440
 1587SOL     OW 5659   3.204   6.348   6.728
 1587SOL    HW1 5660   3.143   6.279   6.768
 1587SOL    HW2 5661   3.159   6.437   6.732
 1588SOL     OW 5662   6.747   1.769   3.476
 1588SOL    HW1 5663   6.786   1.850   3.518
 1588SOL    HW2 5664   6.695   1.795   3.395
 1589SOL     OW 5665   6.654   3.787   4.126
 1589SOL    HW1 5666   6.681   3.830   4.039
 1589SOL    HW2 5667   6.647   3.858   4.197
 1590SOL     OW 5668   6.692   1.537   3.165
 1590SOL    HW1 5669   6.655   1.547   3.257
 1590SOL    HW2 5670   6.769   1.474   3.167
 1591SOL     OW 5671   1.373   5.649   0.905
 1591SOL    HW1 5672   1.404   5.613   0.993
 1591SOL    HW2 5673   1.432   5.613   0.832
 1592SOL     OW 5674   0.481   3.580   5.880
 1592SOL    HW1 5675   0.430   3.659   5.847
 1592SOL    HW2 5676   0.418   3.517   5.926
 1593SOL     OW 5677   3.944   6.543   0.173
 1593SOL    HW1 5678   3.908   6.474   0.110
 1593SOL    HW2 5679   3.868   6.597   0.210
 1594SOL     OW 5680   5.419   0.661   3.066
 1594SOL    HW1 5681   5.452   0.748   3.028
 1594SOL    HW2 5682   5.340   0.677   3.123
 1595SOL     OW 5683   0.542   3.146   0.026
 1595SOL    HW1 5684   0.554   3.193   0.113
 1595SOL    HW2 5685   0.467   3.189   6.994
 1596SOL     OW 5686   4.751   4.522   2.792
 1596SOL    HW1 5687   4.655   4.510   2.766
 1596SOL    HW2 5688   4.779   4.447   2.850
 1597SOL     OW 5689   3.532   5.939   0.239
 1597SOL    HW1 5690   3.463   5.963   0.170
 1597SOL    HW2 5691   3.499   5.966   0.330
 1598SOL     OW 5692   0.498   4.797   6.378
 1598SOL    HW1 5693   0.398   4.796   6.380
 1598SOL    HW2 5694   0.532   4.716   6.425
 1599SOL     OW 5695   4.120   5.549   3.588
 1599SOL    HW1 5696   4.135   5.601   3.673
 1599SOL    HW2 5697   4.205   5.549   3.534
 1600SOL     OW 5698   4.122   0.443   1.822
 1600SOL    HW1 5699   4.038   0.411   1.778
 1600SOL    HW2 5700   4.201   0.397   1.781
 1601SOL     OW 5701   6.664   1.556   4.786
 1601SOL    HW1 5702   6.657   1.499   4.868
 1601SOL    HW2 5703   6.760   1.574   4.765
 1602SOL     OW 5704   4.461   5.955   4.170
 1602SOL    HW1 5705   4.450   6.031   4.233
 1602SOL    HW2 5706   4.436   5.869   4.215
 1603SOL     OW 5707   2.993   4.831   2.625
 1603SOL    HW1 5708   2.939   4.777   2.561
 1603SOL    HW2 5709   2.988   4.791   2.717
 1604SOL     OW 5710   4.491   4.839   2.879
 1604SOL    HW1 5711   4.581   4.807   2.909
 1604SOL    HW2 5712   4.503   4.912   2.813
 1605SOL     OW 5713   4.709   4.829   0.579
 1605SOL    HW1 5714   4.665   4.873   0.501
 1605SOL    HW2 5715   4.758   4.898   0.632
 1606SOL     OW 5716   2.905   6.200   4.902
 1606SOL    HW1 5717   2.924   6.133   4.830
 1606SOL    HW2 5718   2.937   6.164   4.990
 1607SOL     OW 5719   4.424   4.540   3.745
 1607SOL    HW1 5720   4.482   4.498   3.675
 1607SOL    HW2 5721   4.426   4.483   3.828
 1608SOL     OW 5722   5.656   1.857   3.648
 1608SOL    HW1 5723   5.683   1.826   3.557
 1608SOL    HW2 5724   5.587   1.795   3.686
 1609SOL     OW 5725   2.381   6.610   1.547
 1609SOL    HW1 5726   2.466   6.660   1.564
 1609SOL    HW2 5727   2.322   6.617   1.627
 1610SOL     OW 5728   5.751   6.962   0.960
 1610SOL    HW1 5729   5.727   6.919   0.873
 1610SOL    HW2 5730   5.814   6.903   1.011
 1611SOL     OW 5731   1.346   4.222   0.314
 1611SOL    HW1 5732   1.328   4.133   0.356
 1611SOL    HW2 5733   1.336   4.215   0.215
 1612SOL     OW 5734   4.568   1.012   2.482
 1612SOL    HW1 5735   4.574   1.027   2.383
 1612SOL    HW2 5736   4.535   0.920   2.499
 1613SOL     OW 5737   6.778   5.479   2.506
 1613SOL    HW1 5738   6.795   5.385   2.535
 1613SOL    HW2 5739   6.853   5.510   2.448
 1614SOL     OW 5740   6.096   1.514   6.058
 1614SOL    HW1 5741   6.017   1.548   6.008
 1614SOL    HW2 5742   6.100   1.414   6.050
 1615SOL     OW 5743   0.210   3.719   5.978
 1615SOL    HW1 5744   0.131   3.780   5.973
 1615SOL    HW2 5745   0.262   3.739   6.061
 1616SOL     OW 5746   0.890   0.210   4.044
 1616SOL    HW1 5747   0.869   0.256   3.958
 1616SOL    HW2 5748   0.881   0.111   4.032
 1617SOL     OW 5749   6.704   5.546   3.292
 1617SOL    HW1 5750   6.604   5.543   3.286
 1617SOL    HW2 5751   6.737   5.630   3.250
 1618SOL     OW 5752   3.397   5.535   3.185
 1618SOL    HW1 5753   3.369   5.548   3.090
 1618SOL    HW2 5754   3.316   5.529   3.243
 1619SOL     OW 5755   0.632   4.539   6.459
 1619SOL    HW1 5756   0.591   4.452   6.486
 1619SOL    HW2 5757   0.670   4.584   6.540
 1620SOL     OW 5758   3.190   6.159   4.113
 1620SOL    HW1 5759   3.186   6.176   4.211
 1620SOL    HW2 5760   3.133   6.080   4.090
 1621SOL     OW 5761   4.601   5.504   0.614
 1621SOL    HW1 5762   4.643   5.416   0.634
 1621SOL    HW2 5763   4.616   5.567   0.690
 1622SOL     OW 5764   6.346   4.139   4.410
 1622SOL    HW1 5765   6.380   4.211   4.470
 1622SOL    HW2 5766   6.339   4.174   4.316
 1623SOL     OW 5767   0.221   2.230   2.847
 1623SOL    HW1 5768   0.227   2.149   2.905
 1623SOL    HW2 5769   0.205   2.203   2.753
 1624SOL     OW 5770   3.786   3.098   0.236
 1624SOL    HW1 5771   3.829   3.188   0.236
 1624SOL    HW2 5772   3.701   3.101   0.289
 1625SOL     OW 5773   0.583   6.703   0.905
 1625SOL    HW1 5774   0.651   6.773   0.887
 1625SOL    HW2 5775   0.491   6.741   0.891
 1626SOL     OW 5776   2.897   1.895   1.796
 1626SOL    HW1 5777   2.870   1.952   1.874
 1626SOL    HW2 5778   2.816   1.873   1.742
 1627SOL     OW 5779   4.081   2.391   5.949
 1627SOL    HW1 5780   4.013   2.415   5.879
 1627SOL    HW2 5781   4.142   2.469   5.963
 1628SOL     OW 5782   5.618   6.823   0.731
 1628SOL    HW1 5783   5.561   6.750   0.770
 1628SOL    HW2 5784   5.563   6.880   0.671
 1629SOL     OW 5785   1.095   0.028   3.648
 1629SOL    HW1 5786   1.029   0.098   3.621
 1629SOL    HW2 5787   1.122   0.043   3.743
 1630SOL     OW 5788   0.553   3.442   6.441
 1630SOL    HW1 5789   0.637   3.413   6.395
 1630SOL    HW2 5790   0.504   3.362   6.475
 1631SOL     OW 5791   6.885   3.650   0.649
 1631SOL    HW1 5792   6.839   3.703   0.720
 1631SOL    HW2 5793   6.974   3.620   0.683
 1632SOL     OW 5794   6.577   5.559   2.256
 1632SOL    HW1 5795   6.648   5.553   2.186
 1632SOL    HW2 5796   6.606   5.511   2.338
 1633SOL     OW 5797   5.434   3.440   5.115
 1633SOL    HW1 5798   5.373   3.365   5.142
 1633SOL    HW2 5799   5.489   3.411   5.037
 1634SOL     OW 5800   0.163   2.543   5.521
 1634SOL    HW1 5801   0.162   2.458   5.572
 1634SOL    HW2 5802   0.070   2.571   5.500
 1635SOL     OW 5803   3.296   6.491   3.720
 1635SOL    HW1 5804   3.360   6.446   3.657
 1635SOL    HW2 5805   3.285   6.434   3.802
 1636SOL     OW 5806   6.206   5.849   1.351
 1636SOL    HW1 5807   6.247   5.939   1.333
 1636SOL    HW2 5808   6.268   5.777   1.317
 1637SOL     OW 5809   0.993   1.000   3.062
 1637SOL    HW1 5810   0.960   1.088   3.096
 1637SOL    HW2 5811   0.966   0.989   2.966
 1638SOL     OW 5812   5.371   2.563   2.117
 1638SOL    HW1 5813   5.384   2.651   2.072
 1638SOL    HW2 5814   5.451   2.505   2.101
 1639SOL     OW 5815   4.945   2.069   2.499
 1639SOL    HW1 5816   4.929   2.006   2.574
 1639SOL    HW2 5817   5.043   2.074   2.479
 1640SOL     OW 5818   5.566   0.569   6.198
 1640SOL    HW1 5819   5.600   0.644   6.254
 1640SOL    HW2 5820   5.639   0.503   6.182
 1641SOL     OW 5821   6.266   1.939   3.211
 1641SOL    HW1 5822   6.266   2.033   3.245
 1641SOL    HW2 5823   6.249   1.877   3.288
 1642SOL     OW 5824   6.848   3.478   6.183
 1642SOL    HW1 5825   6.852   3.526   6.096
 1642SOL    HW2 5826   6.938   3.439   6.203
 1643SOL     OW 5827   2.305   5.384   4.276
 1643SOL    HW1 5828   2.253   5.442   4.212
 1643SOL    HW2 5829   2.376   5.336   4.225
 1644SOL     OW 5830   6.128   2.009   1.826
 1644SOL    HW1 5831   6.050   2.070   1.814
 1644SOL    HW2 5832   6.198   2.054   1.881
 1645SOL     OW 5833   2.183   0.889   5.187
 1645SOL    HW1 5834   2.093   0.879   5.145
 1645SOL    HW2 5835   2.192   0.981   5.225
 1646SOL     OW 5836   1.391   4.910   0.833
 1646SOL    HW1 5837   1.333   4.964   0.894
 1646SOL    HW2 5838   1.335   4.847   0.779
 1647SOL     OW 5839   5.621   3.052   4.476
 1647SOL    HW1 5840   5.571   3.000   4.408
 1647SOL    HW2 5841   5.582   3.145   4.482
 1648SOL     OW 5842   6.005   6.291   1.483
 1648SOL    HW1 5843   5.910   6.288   1.515
 1648SOL    HW2 5844   6.027   6.384   1.453
 1649SOL     OW 5845   3.580   1.937   3.563
 1649SOL    HW1 5846   3.514   1.870   3.599
 1649SOL    HW2 5847   3.581   1.932   3.463
 1650SOL     OW 5848   3.000   3.784   5.607
 1650SOL    HW1 5849   2.953   3.791   5.695
 1650SOL    HW2 5850   2.953   3.841   5.539
 1651SOL     OW 5851   0.925   2.188   3.731
 1651SOL    HW1 5852   0.903   2.249   3.655
 1651SOL    HW2 5853   0.993   2.121   3.701
 1652SOL     OW 5854   0.315   3.301   1.770
 1652SOL    HW1 5855   0.314   3.271   1.674
 1652SOL    HW2 5856   0.251   3.376   1.783
 1653SOL     OW 5857   0.521   4.721   2.202
 1653SOL    HW1 5858   0.503   4.632   2.243
 1653SOL    HW2 5859   0.525   4.791   2.273
 1654SOL     OW 5860   7.009   3.035   2.132
 1654SOL    HW1 5861   0.021   3.001   2.220
 1654SOL    HW2 5862   6.932   2.981   2.099
 1655SOL     OW 5863   0.393   0.527   5.748
 1655SOL    HW1 5864   0.382   0.626   5.734
 1655SOL    HW2 5865   0.307   0.481   5.731
 1656SOL     OW 5866   2.275   4.096   3.183
 1656SOL    HW1 5867   2.221   4.092   3.099
 1656SOL    HW2 5868   2.300   4.191   3.201
 1657SOL     OW 5869   0.083   6.897   5.839
 1657SOL    HW1 5870   0.119   6.985   5.808
 1657SOL    HW2 5871   0.079   6.833   5.763
 1658SOL     OW 5872   5.383   6.363   5.943
 1658SOL    HW1 5873   5.344   6.300   6.010
 1658SOL    HW2 5874   5.311   6.423   5.908
 1659SOL     OW 5875   3.813   6.772   5.752
 1659SOL    HW1 5876   3.843   6.864   5.781
 1659SOL    HW2 5877   3.755   6.732   5.823
 1660SOL     OW 5878   2.492   0.798   2.116
 1660SOL    HW1 5879   2.529   0.713   2.078
 1660SOL    HW2 5880   2.392   0.791   2.121
 1661SOL     OW 5881   4.810   3.985   2.745
 1661SOL    HW1 5882   4.801   3.980   2.646
 1661SOL    HW2 5883   4.779   3.899   2.786
 1662SOL     OW 5884   0.490   2.061   3.838
 1662SOL    HW1 5885   0.576   2.011   3.825
 1662SOL    HW2 5886   0.414   1.996   3.841
 1663SOL     OW 5887   5.051   4.353   0.956
 1663SOL    HW1 5888   5.130   4.323   0.902
 1663SOL    HW2 5889   5.078   4.429   1.014
 1664SOL     OW 5890   1.331   0.364   6.374
 1664SOL    HW1 5891   1.231   0.358   6.363
 1664SOL    HW2 5892   1.369   0.272   6.382
 1665SOL     OW 5893   2.901   4.407   6.773
 1665SOL    HW1 5894   2.915   4.501   6.805
 1665SOL    HW2 5895   2.860   4.408   6.682
 1666SOL     OW 5896   4.779   6.781   6.220
 1666SOL    HW1 5897   4.766   6.691   6.261
 1666SOL    HW2 5898   4.697   6.805   6.167
 1667SOL     OW 5899   6.647   6.072   0.741
 1667SOL    HW1 5900   6.741   6.065   0.773
 1667SOL    HW2 5901   6.610   5.981   0.722
 1668SOL     OW 5902   5.847   3.779   2.351
 1668SOL    HW1 5903   5.823   3.876   2.345
 1668SOL    HW2 5904   5.887   3.760   2.441
 1669SOL     OW 5905   6.890   3.350   5.181
 1669SOL    HW1 5906   6.794   3.359   5.153
 1669SOL    HW2 5907   6.940   3.431   5.150
 1670SOL     OW 5908   2.629   4.496   5.586
 1670SOL    HW1 5909   2.671   4.464   5.671
 1670SOL    HW2 5910   2.596   4.589   5.598
 1671SOL     OW 5911   5.748   2.322   0.523
 1671SOL    HW1 5912   5.775   2.407   0.568
 1671SOL    HW2 5913   5.678   2.342   0.454
 1672SOL     OW 5914   0.872   2.527   1.229
 1672SOL    HW1 5915   0.871   2.479   1.317
 1672SOL    HW2 5916   0.856   2.462   1.155
 1673SOL     OW 5917   1.554   0.858   4.608
 1673SOL    HW1 5918   1.626   0.887   4.545
 1673SOL    HW2 5919   1.540   0.759   4.600
 1674SOL     OW 5920   4.937   1.894   2.737
 1674SOL    HW1 5921   4.853   1.841   2.726
 1674SOL    HW2 5922   4.916   1.979   2.786
 1675SOL     OW 5923   5.028   0.518   1.651
 1675SOL    HW1 5924   5.057   0.597   1.705
 1675SOL    HW2 5925   5.004   0.443   1.712
 1676SOL     OW 5926   0.943   2.553   3.719
 1676SOL    HW1 5927   0.877   2.478   3.718
 1676SOL    HW2 5928   0.930   2.610   3.637
 1677SOL     OW 5929   3.361   3.413   3.238
 1677SOL    HW1 5930   3.385   3.342   3.172
 1677SOL    HW2 5931   3.286   3.468   3.201
 1678SOL     OW 5932   1.263   0.489   0.731
 1678SOL    HW1 5933   1.348   0.539   0.746
 1678SOL    HW2 5934   1.272   0.432   0.649
 1679SOL     OW 5935   6.524   1.480   6.776
 1679SOL    HW1 5936   6.435   1.511   6.809
 1679SOL    HW2 5937   6.590   1.481   6.851
 1680SOL     OW 5938   5.717   2.528   3.517
 1680SOL    HW1 5939   5.621   2.501   3.505
 1680SOL    HW2 5940   5.761   2.467   3.582
 1681SOL     OW 5941   3.048   6.111   5.113
 1681SOL    HW1 5942   3.129   6.082   5.061
 1681SOL    HW2 5943   3.030   6.045   5.186
 1682SOL     OW 5944   3.746   0.573   4.104
 1682SOL    HW1 5945   3.784   0.603   4.191
 1682SOL    HW2 5946   3.798   0.615   4.029
 1683SOL     OW 5947   5.811   3.015   2.978
 1683SOL    HW1 5948   5.736   2.976   2.925
 1683SOL    HW2 5949   5.799   2.994   3.075
 1684SOL     OW 5950   2.534   4.910   1.980
 1684SOL    HW1 5951   2.549   4.968   2.061
 1684SOL    HW2 5952   2.555   4.815   2.003
 1685SOL     OW 5953   0.144   1.439   5.766
 1685SOL    HW1 5954   0.088   1.381   5.707
 1685SOL    HW2 5955   0.154   1.530   5.724
 1686SOL     OW 5956   4.612   5.393   2.690
 1686SOL    HW1 5957   4.576   5.384   2.597
 1686SOL    HW2 5958   4.562   5.333   2.751
 1687SOL     OW 5959   5.122   4.688   0.830
 1687SOL    HW1 5960   5.196   4.643   0.881
 1687SOL    HW2 5961   5.086   4.764   0.885
 1688SOL     OW 5962   1.166   0.198   3.132
 1688SOL    HW1 5963   1.101   0.128   3.102
 1688SOL    HW2 5964   1.254   0.156   3.151
 1689SOL     OW 5965   4.614   0.658   1.394
 1689SOL    HW1 5966   4.571   0.646   1.305
 1689SOL    HW2 5967   4.713   0.654   1.385
 1690SOL     OW 5968   0.020   4.931   3.520
 1690SOL    HW1 5969   6.940   4.940   3.522
 1690SOL    HW2 5970   0.047   4.837   3.542
 1691SOL     OW 5971   4.437   2.428   5.168
 1691SOL    HW1 5972   4.507   2.450   5.101
 1691SOL    HW2 5973   4.348   2.427   5.124
 1692SOL     OW 5974   5.149   5.092   1.301
 1692SOL    HW1 5975   5.061   5.081   1.348
 1692SOL    HW2 5976   5.214   5.138   1.362
 1693SOL     OW 5977   5.609   6.851   5.979
 1693SOL    HW1 5978   5.640   6.921   5.914
 1693SOL    HW2 5979   5.511   6.835   5.966
 1694SOL     OW 5980   4.815   1.948   6.256
 1694SOL    HW1 5981   4.854   1.865   6.217
 1694SOL    HW2 5982   4.884   2.021   6.257
 1695SOL     OW 5983   3.142   0.661   5.999
 1695SOL    HW1 5984   3.131   0.717   6.081
 1695SOL    HW2 5985   3.200   0.708   5.934
 1696SOL     OW 5986   4.270   5.923   0.436
 1696SOL    HW1 5987   4.184   5.944   0.481
 1696SOL    HW2 5988   4.339   5.990   0.462
 1697SOL     OW 5989   4.847   2.841   1.895
 1697SOL    HW1 5990   4.760   2.794   1.884
 1697SOL    HW2 5991   4.831   2.936   1.923
 1698SOL     OW 5992   3.949   1.439   1.216
 1698SOL    HW1 5993   4.023   1.372   1.219
 1698SOL    HW2 5994   3.910   1.450   1.307
 1699SOL     OW 5995   2.283   0.063   0.304
 1699SOL    HW1 5996   2.240   0.152   0.291
 1699SOL    HW2 5997   2.355   0.071   0.373
 1700SOL     OW 5998   5.576   2.936   2.908
 1700SOL    HW1 5999   5.481   2.949   2.880
 1700SOL    HW2 6000   5.616   2.858   2.860
 1701SOL     OW 6001   0.164   6.126   5.125
 1701SOL    HW1 6002   0.169   6.026   5.131
 1701SOL    HW2 6003   0.068   6.154   5.125
 1702SOL     OW 6004   2.176   2.337   0.018
 1702SOL    HW1 6005   2.176   2.256   0.078
 1702SOL    HW2 6006   2.131   2.413   0.065
 1703SOL     OW 6007   1.439   1.733   1.892
 1703SOL    HW1 6008   1.341   1.715   1.888
 1703SOL    HW2 6009   1.488   1.659   1.845
 1704SOL     OW 6010   3.154   2.435   0.695
 1704SOL    HW1 6011   3.082   2.368   0.710
 1704SOL    HW2 6012   3.196   2.458   0.783
 1705SOL     OW 6013   4.673   2.727   0.726
 1705SOL    HW1 6014   4.701   2.722   0.822
 1705SOL    HW2 6015   4.697   2.641   0.680
 1706SOL     OW 6016   6.076   2.280   6.507
 1706SOL    HW1 6017   6.002   2.215   6.492
 1706SOL    HW2 6018   6.048   2.370   6.476
 1707SOL     OW 6019   4.178   1.176   2.251
 1707SOL    HW1 6020   4.231   1.166   2.335
 1707SOL    HW2 6021   4.155   1.272   2.236
 1708SOL     OW 6022   2.975   4.795   2.110
 1708SOL    HW1 6023   2.927   4.714   2.076
 1708SOL    HW2 6024   2.964   4.870   2.045
 1709SOL     OW 6025   5.150   5.034   0.744
 1709SOL    HW1 6026   5.094   4.961   0.705
 1709SOL    HW2 6027   5.130   5.120   0.698
 1710SOL     OW 6028   4.770   4.199   2.296
 1710SOL    HW1 6029   4.767   4.263   2.219
 1710SOL    HW2 6030   4.727   4.241   2.376
 1711SOL     OW 6031   3.658   5.218   6.977
 1711SOL    HW1 6032   3.735   5.199   6.916
 1711SOL    HW2 6033   3.667   5.164   0.042
 1712SOL     OW 6034   0.699   1.432   1.997
 1712SOL    HW1 6035   0.784   1.398   1.957
 1712SOL    HW2 6036   0.721   1.492   2.075
 1713SOL     OW 6037   3.308   1.383   2.630
 1713SOL    HW1 6038   3.342   1.477   2.635
 1713SOL    HW2 6039   3.385   1.320   2.637
 1714SOL     OW 6040   2.795   3.737   0.998
 1714SOL    HW1 6041   2.804   3.654   0.943
 1714SOL    HW2 6042   2.867   3.739   1.067
 1715SOL     OW 6043   1.547   6.061   1.840
 1715SOL    HW1 6044   1.525   5.991   1.772
 1715SOL    HW2 6045   1.642   6.089   1.830
 1716SOL     OW 6046   3.506   1.410   2.883
 1716SOL    HW1 6047   3.406   1.414   2.894
 1716SOL    HW2 6048   3.549   1.471   2.950
 1717SOL     OW 6049   3.104   5.785   4.555
 1717SOL    HW1 6050   3.078   5.807   4.460
 1717SOL    HW2 6051   3.197   5.817   4.572
 1718SOL     OW 6052   2.003   2.754   1.495
 1718SOL    HW1 6053   2.067   2.824   1.465
 1718SOL    HW2 6054   1.923   2.798   1.538
 1719SOL     OW 6055   1.206   5.317   2.349
 1719SOL    HW1 6056   1.211   5.387   2.278
 1719SOL    HW2 6057   1.285   5.256   2.342
 1720SOL     OW 6058   0.884   3.354   5.266
 1720SOL    HW1 6059   0.830   3.286   5.217
 1720SOL    HW2 6060   0.924   3.313   5.348
 1721SOL     OW 6061   2.190   2.823   0.208
 1721SOL    HW1 6062   2.258   2.763   0.166
 1721SOL    HW2 6063   2.131   2.862   0.137
 1722SOL     OW 6064   2.328   2.451   4.448
 1722SOL    HW1 6065   2.364   2.534   4.491
 1722SOL    HW2 6066   2.311   2.382   4.518
 1723SOL     OW 6067   5.836   4.389   1.116
 1723SOL    HW1 6068   5.890   4.304   1.119
 1723SOL    HW2 6069   5.866   4.450   1.189
 1724SOL     OW 6070   5.274   2.590   0.966
 1724SOL    HW1 6071   5.346   2.614   0.901
 1724SOL    HW2 6072   5.198   2.546   0.918
 1725SOL     OW 6073   1.695   6.202   6.161
 1725SOL    HW1 6074   1.702   6.222   6.259
 1725SOL    HW2 6075   1.620   6.254   6.121
 1726SOL     OW 6076   5.257   4.160   2.921
 1726SOL    HW1 6077   5.173   4.167   2.867
 1726SOL    HW2 6078   5.332   4.205   2.873
 1727SOL     OW 6079   3.051   3.958   3.055
 1727SOL    HW1 6080   3.097   4.042   3.026
 1727SOL    HW2 6081   3.083   3.932   3.147
 1728SOL     OW 6082   5.834   2.196   4.060
 1728SOL    HW1 6083   5.853   2.241   4.147
 1728SOL    HW2 6084   5.735   2.200   4.042
 1729SOL     OW 6085   1.016   2.707   2.851
 1729SOL    HW1 6086   0.942   2.771   2.829
 1729SOL    HW2 6087   0.980   2.614   2.849
 1730SOL     OW 6088   1.730   6.423   4.349
 1730SOL    HW1 6089   1.645   6.405   4.300
 1730SOL    HW2 6090   1.771   6.336   4.378
 1731SOL     OW 6091   5.078   5.417   3.669
 1731SOL    HW1 6092   5.097   5.498   3.724
 1731SOL    HW2 6093   5.154   5.352   3.678
 1732SOL     OW 6094   2.818   3.691   5.334
 1732SOL    HW1 6095   2.746   3.667   5.399
 1732SOL    HW2 6096   2.811   3.631   5.254
 1733SOL     OW 6097   2.009   2.761   6.318
 1733SOL    HW1 6098   2.094   2.767   6.266
 1733SOL    HW2 6099   1.993   2.849   6.365
 1734SOL     OW 6100   6.445   2.894   0.985
 1734SOL    HW1 6101   6.385   2.959   0.939
 1734SOL    HW2 6102   6.461   2.924   1.079
 1735SOL     OW 6103   3.691   5.601   6.277
 1735SOL    HW1 6104   3.787   5.590   6.303
 1735SOL    HW2 6105   3.656   5.686   6.316
 1736SOL     OW 6106   5.259   2.382   6.311
 1736SOL    HW1 6107   5.281   2.295   6.267
 1736SOL    HW2 6108   5.317   2.455   6.272
 1737SOL     OW 6109   3.377   1.248   6.188
 1737SOL    HW1 6110   3.341   1.163   6.149
 1737SOL    HW2 6111   3.473   1.258   6.162
 1738SOL     OW 6112   1.955   3.442   2.481
 1738SOL    HW1 6113   2.009   3.428   2.398
 1738SOL    HW2 6114   1.859   3.422   2.461
 1739SOL     OW 6115   5.293   6.987   3.152
 1739SOL    HW1 6116   5.228   0.004   3.084
 1739SOL    HW2 6117   5.340   6.907   3.115
 1740SOL     OW 6118   6.102   2.906   4.940
 1740SOL    HW1 6119   6.091   2.980   4.874
 1740SOL    HW2 6120   6.161   2.936   5.015
 1741SOL     OW 6121   0.676   2.162   4.838
 1741SOL    HW1 6122   0.614   2.234   4.807
 1741SOL    HW2 6123   0.728   2.127   4.759
 1742SOL     OW 6124   6.146   6.515   6.890
 1742SOL    HW1 6125   6.117   6.538   6.797
 1742SOL    HW2 6126   6.170   6.599   6.939
 1743SOL     OW 6127   1.863   2.112   2.235
 1743SOL    HW1 6128   1.842   2.196   2.184
 1743SOL    HW2 6129   1.916   2.135   2.316
 1744SOL     OW 6130   3.584   2.301   5.426
 1744SOL    HW1 6131   3.609   2.216   5.474
 1744SOL    HW2 6132   3.509   2.282   5.363
 1745SOL     OW 6133   6.123   6.172   1.092
 1745SOL    HW1 6134   6.181   6.091   1.108
 1745SOL    HW2 6135   6.034   6.158   1.135
 1746SOL     OW 6136   2.724   4.749   3.187
 1746SOL    HW1 6137   2.691   4.684   3.256
 1746SOL    HW2 6138   2.671   4.833   3.193
 1747SOL     OW 6139   3.905   0.050   2.425
 1747SOL    HW1 6140   3.895   7.001   2.352
 1747SOL    HW2 6141   3.857   0.134   2.399
 1748SOL     OW 6142   6.875   2.259   4.492
 1748SOL    HW1 6143   6.835   2.177   4.451
 1748SOL    HW2 6144   6.870   2.334   4.427
 1749SOL     OW 6145   6.843   5.551   1.460
 1749SOL    HW1 6146   6.914   5.525   1.396
 1749SOL    HW2 6147   6.829   5.478   1.527
 1750SOL     OW 6148   3.174   0.631   0.082
 1750SOL    HW1 6149   3.182   0.678   7.013
 1750SOL    HW2 6150   3.248   0.564   0.091
 1751SOL     OW 6151   5.433   3.447   4.706
 1751SOL    HW1 6152   5.375   3.529   4.697
 1751SOL    HW2 6153   5.381   3.366   4.679
 1752SOL     OW 6154   0.225   0.749   2.181
 1752SOL    HW1 6155   0.234   0.715   2.275
 1752SOL    HW2 6156   0.131   0.781   2.166
 1753SOL     OW 6157   6.786   1.312   1.328
 1753SOL    HW1 6158   6.795   1.410   1.343
 1753SOL    HW2 6159   6.860   1.280   1.269
 1754SOL     OW 6160   3.114   5.278   3.449
 1754SOL    HW1 6161   3.173   5.219   3.504
 1754SOL    HW2 6162   3.061   5.221   3.385
 1755SOL     OW 6163   6.690   0.355   5.661
 1755SOL    HW1 6164   6.674   0.311   5.749
 1755SOL    HW2 6165   6.606   0.352   5.606
 1756SOL     OW 6166   4.617   5.715   0.844
 1756SOL    HW1 6167   4.697   5.775   0.837
 1756SOL    HW2 6168   4.539   5.768   0.876
 1757SOL     OW 6169   2.867   4.800   5.238
 1757SOL    HW1 6170   2.812   4.783   5.320
 1757SOL    HW2 6171   2.863   4.720   5.179
 1758SOL     OW 6172   1.457   6.041   3.911
 1758SOL    HW1 6173   1.451   6.081   4.003
 1758SOL    HW2 6174   1.490   6.109   3.846
 1759SOL     OW 6175   1.261   5.989   0.367
 1759SOL    HW1 6176   1.178   5.943   0.336
 1759SOL    HW2 6177   1.298   6.044   0.292
 1760SOL     OW 6178   6.919   1.596   4.708
 1760SOL    HW1 6179   6.932   1.675   4.648
 1760SOL    HW2 6180   6.981   1.602   4.785
 1761SOL     OW 6181   5.351   1.012   2.751
 1761SOL    HW1 6182   5.379   1.100   2.789
 1761SOL    HW2 6183   5.381   1.007   2.656
 1762SOL     OW 6184   0.625   1.771   5.730
 1762SOL    HW1 6185   0.633   1.787   5.829
 1762SOL    HW2 6186   0.607   1.858   5.684
 1763SOL     OW 6187   1.302   4.955   3.888
 1763SOL    HW1 6188   1.269   5.047   3.910
 1763SOL    HW2 6189   1.397   4.945   3.920
 1764SOL     OW 6190   0.772   6.134   3.760
 1764SOL    HW1 6191   0.768   6.205   3.690
 1764SOL    HW2 6192   0.861   6.090   3.757
 1765SOL     OW 6193   5.624   4.142   2.072
 1765SOL    HW1 6194   5.533   4.121   2.107
 1765SOL    HW2 6195   5.660   4.062   2.024
 1766SOL     OW 6196   4.481   4.457   4.001
 1766SOL    HW1 6197   4.430   4.478   4.084
 1766SOL    HW2 6198   4.578   4.479   4.014
 1767SOL     OW 6199   0.367   4.985   1.623
 1767SOL    HW1 6200   0.304   5.002   1.548
 1767SOL    HW2 6201   0.327   5.017   1.708
 1768SOL     OW 6202   5.329   4.525   2.711
 1768SOL    HW1 6203   5.305   4.496   2.619
 1768SOL    HW2 6204   5.267   4.598   2.740
 1769SOL     OW 6205   5.396   0.333   0.814
 1769SOL    HW1 6206   5.461   0.311   0.741
 1769SOL    HW2 6207   5.414   0.273   0.893
 1770SOL     OW 6208   1.861   5.097   0.553
 1770SOL    HW1 6209   1.948   5.061   0.518
 1770SOL    HW2 6210   1.841   5.055   0.642
 1771SOL     OW 6211   2.090   3.368   6.129
 1771SOL    HW1 6212   1.994   3.386   6.151
 1771SOL    HW2 6213   2.095   3.317   6.043
 1772SOL     OW 6214   2.280   4.062   2.198
 1772SOL    HW1 6215   2.227   4.124   2.140
 1772SOL    HW2 6216   2.272   3.969   2.162
 1773SOL     OW 6217   2.396   6.344   5.835
 1773SOL    HW1 6218   2.467   6.287   5.875
 1773SOL    HW2 6219   2.309   6.327   5.881
 1774SOL     OW 6220   5.568   5.712   1.550
 1774SOL    HW1 6221   5.556   5.811   1.539
 1774SOL    HW2 6222   5.483   5.665   1.525
 1775SOL     OW 6223   2.112   5.044   0.979
 1775SOL    HW1 6224   2.054   4.963   0.984
 1775SOL    HW2 6225   2.199   5.020   0.936
 1776SOL     OW 6226   4.459   2.827   5.908
 1776SOL    HW1 6227   4.367   2.792   5.929
 1776SOL    HW2 6228   4.523   2.793   5.977
 1777SOL     OW 6229   4.279   6.323   6.940
 1777SOL    HW1 6230   4.215   6.397   6.965
 1777SOL    HW2 6231   4.352   6.318   7.007
 1778SOL     OW 6232   5.929   0.158   4.330
 1778SOL    HW1 6233   5.951   0.070   4.371
 1778SOL    HW2 6234   5.903   0.144   4.234
 1779SOL     OW 6235   5.506   0.553   4.669
 1779SOL    HW1 6236   5.422   0.563   4.616
 1779SOL    HW2 6237   5.569   0.627   4.646
 1780SOL     OW 6238   2.288   5.734   5.577
 1780SOL    HW1 6239   2.386   5.731   5.556
 1780SOL    HW2 6240   2.259   5.647   5.615
 1781SOL     OW 6241   3.830   0.951   5.704
 1781SOL    HW1 6242   3.855   0.995   5.617
 1781SOL    HW2 6243   3.879   0.995   5.779
 1782SOL     OW 6244   5.079   1.329   2.621
 1782SOL    HW1 6245   5.072   1.361   2.715
 1782SOL    HW2 6246   5.131   1.395   2.566
 1783SOL     OW 6247   1.718   4.352   0.154
 1783SOL    HW1 6248   1.796   4.399   0.112
 1783SOL    HW2 6249   1.750   4.269   0.200
 1784SOL     OW 6250   2.930   6.893   1.587
 1784SOL    HW1 6251   2.938   6.830   1.511
 1784SOL    HW2 6252   2.910   6.985   1.553
 1785SOL     OW 6253   1.647   6.917   4.397
 1785SOL    HW1 6254   1.661   6.920   4.298
 1785SOL    HW2 6255   1.675   6.827   4.432
 1786SOL     OW 6256   0.625   6.012   1.664
 1786SOL    HW1 6257   0.615   6.040   1.569
 1786SOL    HW2 6258   0.718   5.979   1.680
 1787SOL     OW 6259   1.967   3.427   5.546
 1787SOL    HW1 6260   1.929   3.367   5.475
 1787SOL    HW2 6261   2.062   3.401   5.564
 1788SOL     OW 6262   3.908   3.289   0.615
 1788SOL    HW1 6263   3.949   3.258   0.529
 1788SOL    HW2 6264   3.955   3.372   0.646
 1789SOL     OW 6265   6.161   3.164   2.278
 1789SOL    HW1 6266   6.066   3.193   2.284
 1789SOL    HW2 6267   6.214   3.232   2.227
 1790SOL     OW 6268   1.571   2.503   4.965
 1790SOL    HW1 6269   1.484   2.465   4.995
 1790SOL    HW2 6270   1.566   2.524   4.867
 1791SOL     OW 6271   4.959   0.418   3.711
 1791SOL    HW1 6272   4.997   0.351   3.647
 1791SOL    HW2 6273   4.995   0.509   3.689
 1792SOL     OW 6274   6.853   2.827   6.611
 1792SOL    HW1 6275   6.850   2.744   6.556
 1792SOL    HW2 6276   6.861   2.804   6.708
 1793SOL     OW 6277   6.641   1.440   5.059
 1793SOL    HW1 6278   6.740   1.434   5.075
 1793SOL    HW2 6279   6.609   1.532   5.082
 1794SOL     OW 6280   0.125   1.389   6.277
 1794SOL    HW1 6281   0.203   1.327   6.284
 1794SOL    HW2 6282   0.081   1.377   6.187
 1795SOL     OW 6283   5.328   4.532   0.953
 1795SOL    HW1 6284   5.403   4.540   0.887
 1795SOL    HW2 6285   5.357   4.566   1.042
 1796SOL     OW 6286   6.722   0.254   0.357
 1796SOL    HW1 6287   6.705   0.157   0.376
 1796SOL    HW2 6288   6.820   0.270   0.351
 1797SOL     OW 6289   2.948   5.439   5.602
 1797SOL    HW1 6290   2.968   5.534   5.576
 1797SOL    HW2 6291   3.032   5.393   5.630
 1798SOL     OW 6292   2.092   3.933   5.452
 1798SOL    HW1 6293   2.137   3.878   5.381
 1798SOL    HW2 6294   2.135   3.914   5.540
 1799SOL     OW 6295   2.639   1.325   1.680
 1799SOL    HW1 6296   2.657   1.377   1.763
 1799SOL    HW2 6297   2.685   1.368   1.602
 1800SOL     OW 6298   6.319   3.337   5.570
 1800SOL    HW1 6299   6.324   3.334   5.670
 1800SOL    HW2 6300   6.230   3.302   5.540
 1801SOL     OW 6301   0.501   0.303   3.264
 1801SOL    HW1 6302   0.460   0.389   3.234
 1801SOL    HW2 6303   0.432   0.248   3.312
 1802SOL     OW 6304   6.311   4.648   4.041
 1802SOL    HW1 6305   6.378   4.719   4.022
 1802SOL    HW2 6306   6.330   4.605   4.129
 1803SOL     OW 6307   6.825   0.136   4.019
 1803SOL    HW1 6308   6.803   0.231   4.037
 1803SOL    HW2 6309   6.860   0.126   3.926
 1804SOL     OW 6310   2.202   2.418   6.333
 1804SOL    HW1 6311   2.220   2.495   6.272
 1804SOL    HW2 6312   2.105   2.393   6.329
 1805SOL     OW 6313   6.572   4.895   0.950
 1805SOL    HW1 6314   6.526   4.809   0.975
 1805SOL    HW2 6315   6.514   4.972   0.973
 1806SOL     OW 6316   0.294   1.671   0.782
 1806SOL    HW1 6317   0.336   1.756   0.751
 1806SOL    HW2 6318   0.364   1.612   0.824
 1807SOL     OW 6319   6.266   2.652   2.985
 1807SOL    HW1 6320   6.228   2.736   3.023
 1807SOL    HW2 6321   6.346   2.673   2.929
 1808SOL     OW 6322   5.536   0.975   6.324
 1808SOL    HW1 6323   5.555   1.038   6.400
 1808SOL    HW2 6324   5.590   0.892   6.335
 1809SOL     OW 6325   5.853   0.535   5.575
 1809SOL    HW1 6326   5.947   0.549   5.546
 1809SOL    HW2 6327   5.792   0.589   5.517
 1810SOL     OW 6328   1.158   0.803   4.494
 1810SOL    HW1 6329   1.256   0.786   4.484
 1810SOL    HW2 6330   1.108   0.752   4.424
 1811SOL     OW 6331   3.284   6.116   2.148
 1811SOL    HW1 6332   3.352   6.148   2.082
 1811SOL    HW2 6333   3.216   6.059   2.102
 1812SOL     OW 6334   3.810   6.567   6.770
 1812SOL    HW1 6335   3.910   6.565   6.775
 1812SOL    HW2 6336   3.775   6.474   6.757
 1813SOL     OW 6337   4.886   4.103   2.031
 1813SOL    HW1 6338   4.807   4.113   1.970
 1813SOL    HW2 6339   4.858   4.052   2.113
 1814SOL     OW 6340   6.283   6.145   0.322
 1814SOL    HW1 6341   6.296   6.129   0.420
 1814SOL    HW2 6342   6.310   6.063   0.271
 1815SOL     OW 6343   5.094   5.942   1.260
 1815SOL    HW1 6344   5.164   5.872   1.277
 1815SOL    HW2 6345   5.031   5.945   1.338
 1816SOL     OW 6346   4.313   4.747   5.390
 1816SOL    HW1 6347   4.254   4.758   5.310
 1816SOL    HW2 6348   4.271   4.792   5.469
 1817SOL     OW 6349   0.452   2.663   3.423
 1817SOL    HW1 6350   0.498   2.689   3.338
 1817SOL    HW2 6351   0.355   2.688   3.417
 1818SOL     OW 6352   2.364   1.015   0.286
 1818SOL    HW1 6353   2.412   0.991   0.201
 1818SOL    HW2 6354   2.374   0.941   0.352
 1819SOL     OW 6355   1.442   4.187   1.989
 1819SOL    HW1 6356   1.379   4.198   2.066
 1819SOL    HW2 6357   1.535   4.177   2.025
 1820SOL     OW 6358   3.783   0.387   4.427
 1820SOL    HW1 6359   3.883   0.392   4.433
 1820SOL    HW2 6360   3.757   0.327   4.351
 1821SOL     OW 6361   3.281   1.528   2.218
 1821SOL    HW1 6362   3.376   1.507   2.194
 1821SOL    HW2 6363   3.279   1.576   2.306
 1822SOL     OW 6364   1.040   3.907   3.774
 1822SOL    HW1 6365   1.064   3.936   3.682
 1822SOL    HW2 6366   0.973   3.833   3.769
 1823SOL     OW 6367   4.152   7.007   3.134
 1823SOL    HW1 6368   4.073   0.046   3.154
 1823SOL    HW2 6369   4.144   6.921   3.184
 1824SOL     OW 6370   4.343   3.151   1.747
 1824SOL    HW1 6371   4.369   3.177   1.654
 1824SOL    HW2 6372   4.424   3.151   1.805
 1825SOL     OW 6373   1.061   3.264   6.052
 1825SOL    HW1 6374   1.112   3.283   6.136
 1825SOL    HW2 6375   0.978   3.320   6.049
 1826SOL     OW 6376   3.619   2.172   1.306
 1826SOL    HW1 6377   3.653   2.242   1.369
 1826SOL    HW2 6378   3.679   2.169   1.225
 1827SOL     OW 6379   5.462   4.435   0.559
 1827SOL    HW1 6380   5.399   4.498   0.513
 1827SOL    HW2 6381   5.470   4.461   0.656
 1828SOL     OW 6382   1.536   4.321   4.409
 1828SOL    HW1 6383   1.527   4.416   4.439
 1828SOL    HW2 6384   1.564   4.264   4.486
 1829SOL     OW 6385   3.157   6.287   1.924
 1829SOL    HW1 6386   3.172   6.334   2.011
 1829SOL    HW2 6387   3.060   6.265   1.915
 1830SOL     OW 6388   4.174   1.302   6.111
 1830SOL    HW1 6389   4.225   1.218   6.092
 1830SOL    HW2 6390   4.171   1.359   6.029
 1831SOL     OW 6391   3.398   4.623   0.602
 1831SOL    HW1 6392   3.461   4.546   0.594
 1831SOL    HW2 6393   3.319   4.597   0.656
 1832SOL     OW 6394   2.113   3.282   5.888
 1832SOL    HW1 6395   2.093   3.325   5.800
 1832SOL    HW2 6396   2.082   3.187   5.886
 1833SOL     OW 6397   6.440   1.106   6.890
 1833SOL    HW1 6398   6.458   1.010   6.868
 1833SOL    HW2 6399   6.437   1.117   6.989
 1834SOL     OW 6400   0.740   3.468   6.121
 1834SOL    HW1 6401   0.744   3.468   6.021
 1834SOL    HW2 6402   0.699   3.553   6.153
 1835SOL     OW 6403   7.003   5.954   1.225
 1835SOL    HW1 6404   7.007   5.921   1.130
 1835SOL    HW2 6405   0.042   6.034   1.234
 1836SOL     OW 6406   5.375   1.492   2.793
 1836SOL    HW1 6407   5.317   1.558   2.744
 1836SOL    HW2 6408   5.318   1.438   2.854
 1837SOL     OW 6409   2.429   2.190   6.909
 1837SOL    HW1 6410   2.487   2.247   6.850
 1837SOL    HW2 6411   2.423   2.232   7.000
 1838SOL     OW 6412   4.859   1.184   0.263
 1838SOL    HW1 6413   4.949   1.151   0.292
 1838SOL    HW2 6414   4.811   1.223   0.342
 1839SOL     OW 6415   6.216   0.709   0.430
 1839SOL    HW1 6416   6.143   0.753   0.377
 1839SOL    HW2 6417   6.275   0.657   0.368
 1840SOL     OW 6418   4.392   6.488   4.074
 1840SOL    HW1 6419   4.476   6.535   4.100
 1840SOL    HW2 6420   4.315   6.526   4.126
 1841SOL     OW 6421   1.840   0.462   1.463
 1841SOL    HW1 6422   1.865   0.500   1.552
 1841SOL    HW2 6423   1.828   0.537   1.397
 1842SOL     OW 6424   0.164   5.163   1.032
 1842SOL    HW1 6425   0.255   5.192   1.061
 1842SOL    HW2 6426   0.160   5.063   1.029
 1843SOL     OW 6427   2.434   1.212   6.951
 1843SOL    HW1 6428   2.457   1.115   6.950
 1843SOL    HW2 6429   2.387   1.236   6.867
 1844SOL     OW 6430   5.672   2.756   6.415
 1844SOL    HW1 6431   5.684   2.686   6.486
 1844SOL    HW2 6432   5.714   2.725   6.330
 1845SOL     OW 6433   1.149   2.678   3.865
 1845SOL    HW1 6434   1.212   2.618   3.913
 1845SOL    HW2 6435   1.081   2.624   3.816
 1846SOL     OW 6436   2.689   1.036   1.696
 1846SOL    HW1 6437   2.666   1.129   1.724
 1846SOL    HW2 6438   2.648   0.971   1.760
 1847SOL     OW 6439   2.129   5.556   6.308
 1847SOL    HW1 6440   2.100   5.562   6.213
 1847SOL    HW2 6441   2.228   5.564   6.313
 1848SOL     OW 6442   4.129   6.485   3.285
 1848SOL    HW1 6443   4.153   6.510   3.379
 1848SOL    HW2 6444   4.031   6.464   3.280
 1849SOL     OW 6445   4.541   2.537   2.402
 1849SOL    HW1 6446   4.571   2.454   2.356
 1849SOL    HW2 6447   4.609   2.609   2.389
 1850SOL     OW 6448   3.943   1.964   1.157
 1850SOL    HW1 6449   3.945   2.049   1.105
 1850SOL    HW2 6450   4.023   1.909   1.133
 1851SOL     OW 6451   0.272   4.669   4.510
 1851SOL    HW1 6452   0.228   4.735   4.570
 1851SOL    HW2 6453   0.308   4.716   4.429
 1852SOL     OW 6454   0.567   6.983   3.459
 1852SOL    HW1 6455   0.580   6.993   3.360
 1852SOL    HW2 6456   0.469   6.973   3.479
 1853SOL     OW 6457   0.574   2.219   5.383
 1853SOL    HW1 6458   0.595   2.126   5.416
 1853SOL    HW2 6459   0.481   2.221   5.347
 1854SOL     OW 6460   6.860   0.451   3.747
 1854SOL    HW1 6461   6.808   0.473   3.665
 1854SOL    HW2 6462   6.809   0.481   3.828
 1855SOL     OW 6463   5.484   2.364   5.206
 1855SOL    HW1 6464   5.481   2.271   5.243
 1855SOL    HW2 6465   5.405   2.416   5.240
 1856SOL     OW 6466   4.685   3.384   0.338
 1856SOL    HW1 6467   4.648   3.308   0.285
 1856SOL    HW2 6468   4.663   3.373   0.434
 1857SOL     OW 6469   3.890   0.784   6.584
 1857SOL    HW1 6470   3.948   0.804   6.663
 1857SOL    HW2 6471   3.846   0.695   6.597
 1858SOL     OW 6472   5.616   1.822   4.426
 1858SOL    HW1 6473   5.659   1.731   4.420
 1858SOL    HW2 6474   5.546   1.821   4.497
 1859SOL     OW 6475   6.951   0.817   3.457
 1859SOL    HW1 6476   6.908   0.829   3.368
 1859SOL    HW2 6477   6.882   0.793   3.525
 1860SOL     OW 6478   2.613   1.077   6.677
 1860SOL    HW1 6479   2.650   1.166   6.652
 1860SOL    HW2 6480   2.617   1.066   6.776
 1861SOL     OW 6481   6.095   6.288   4.835
 1861SOL    HW1 6482   6.153   6.334   4.903
 1861SOL    HW2 6483   6.004   6.275   4.873
 1862SOL     OW 6484   3.191   5.939   5.750
 1862SOL    HW1 6485   3.145   5.938   5.661
 1862SOL    HW2 6486   3.242   6.025   5.760
 1863SOL     OW 6487   6.829   1.593   1.314
 1863SOL    HW1 6488   6.891   1.655   1.268
 1863SOL    HW2 6489   6.851   1.591   1.412
 1864SOL     OW 6490   2.921   6.599   2.015
 1864SOL    HW1 6491   2.946   6.571   1.922
 1864SOL    HW2 6492   2.960   6.535   2.081
 1865SOL     OW 6493   6.237   2.330   5.925
 1865SOL    HW1 6494   6.327   2.336   5.881
 1865SOL    HW2 6495   6.248   2.314   6.023
 1866SOL     OW 6496   0.498   5.652   3.371
 1866SOL    HW1 6497   0.420   5.675   3.429
 1866SOL    HW2 6498   0.470   5.587   3.301
 1867SOL     OW 6499   1.057   1.562   1.466
 1867SOL    HW1 6500   1.011   1.638   1.510
 1867SOL    HW2 6501   1.155   1.583   1.456
 1868SOL     OW 6502   5.555   3.541   6.202
 1868SOL    HW1 6503   5.476   3.481   6.210
 1868SOL    HW2 6504   5.600   3.525   6.114
 1869SOL     OW 6505   4.994   0.718   5.357
 1869SOL    HW1 6506   4.998   0.757   5.449
 1869SOL    HW2 6507   5.043   0.777   5.293
 1870SOL     OW 6508   6.046   0.353   6.079
 1870SOL    HW1 6509   5.999   0.267   6.062
 1870SOL    HW2 6510   6.125   0.337   6.138
 1871SOL     OW 6511   0.948   6.320   6.964
 1871SOL    HW1 6512   1.001   6.286   0.023
 1871SOL    HW2 6513   0.894   6.246   6.925
 1872SOL     OW 6514   2.380   2.810   1.437
 1872SOL    HW1 6515   2.407   2.826   1.532
 1872SOL    HW2 6516   2.309   2.874   1.410
 1873SOL     OW 6517   5.772   1.355   1.410
 1873SOL    HW1 6518   5.842   1.374   1.479
 1873SOL    HW2 6519   5.686   1.332   1.455
 1874SOL     OW 6520   1.478   5.867   6.587
 1874SOL    HW1 6521   1.436   5.953   6.557
 1874SOL    HW2 6522   1.488   5.806   6.509
 1875SOL     OW 6523   0.293   6.405   2.155
 1875SOL    HW1 6524   0.304   6.481   2.219
 1875SOL    HW2 6525   0.381   6.382   2.115
 1876SOL     OW 6526   0.345   4.842   0.714
 1876SOL    HW1 6527   0.434   4.875   0.681
 1876SOL    HW2 6528   0.320   4.759   0.665
 1877SOL     OW 6529   1.411   1.830   2.371
 1877SOL    HW1 6530   1.324   1.802   2.411
 1877SOL    HW2 6531   1.480   1.836   2.443
 1878SOL     OW 6532   4.874   3.723   4.225
 1878SOL    HW1 6533   4.825   3.732   4.312
 1878SOL    HW2 6534   4.972   3.716   4.243
 1879SOL     OW 6535   4.594   6.332   4.675
 1879SOL    HW1 6536   4.543   6.341   4.761
 1879SOL    HW2 6537   4.681   6.286   4.693
 1880SOL     OW 6538   0.952   1.898   4.294
 1880SOL    HW1 6539   0.996   1.811   4.318
 1880SOL    HW2 6540   0.946   1.905   4.194
 1881SOL     OW 6541   2.234   1.125   3.512
 1881SOL    HW1 6542   2.331   1.141   3.530
 1881SOL    HW2 6543   2.218   1.027   3.502
 1882SOL     OW 6544   2.815   5.458   0.451
 1882SOL    HW1 6545   2.756   5.379   0.435
 1882SOL    HW2 6546   2.839   5.499   0.363
 1883SOL     OW 6547   2.374   2.497   2.459
 1883SOL    HW1 6548   2.414   2.523   2.371
 1883SOL    HW2 6549   2.331   2.576   2.501
 1884SOL     OW 6550   4.811   0.881   0.416
 1884SOL    HW1 6551   4.792   0.785   0.433
 1884SOL    HW2 6552   4.905   0.892   0.385
 1885SOL     OW 6553   0.042   1.828   0.390
 1885SOL    HW1 6554   0.034   1.919   0.349
 1885SOL    HW2 6555   0.136   1.814   0.422
 1886SOL     OW 6556   3.644   2.724   5.681
 1886SOL    HW1 6557   3.648   2.630   5.714
 1886SOL    HW2 6558   3.552   2.744   5.647
 1887SOL     OW 6559   0.770   6.281   4.985
 1887SOL    HW1 6560   0.836   6.339   4.938
 1887SOL    HW2 6561   0.757   6.197   4.934
 1888SOL     OW 6562   1.862   2.297   5.963
 1888SOL    HW1 6563   1.804   2.215   5.970
 1888SOL    HW2 6564   1.829   2.367   6.026
 1889SOL     OW 6565   2.921   3.476   0.323
 1889SOL    HW1 6566   3.010   3.490   0.280
 1889SOL    HW2 6567   2.865   3.558   0.311
 1890SOL     OW 6568   5.910   5.946   6.779
 1890SOL    HW1 6569   5.822   5.993   6.781
 1890SOL    HW2 6570   5.978   6.004   6.735
 1891SOL     OW 6571   5.119   3.491   6.712
 1891SOL    HW1 6572   5.190   3.561   6.706
 1891SOL    HW2 6573   5.097   3.474   6.808
 1892SOL     OW 6574   4.140   0.110   2.519
 1892SOL    HW1 6575   4.148   0.042   2.592
 1892SOL    HW2 6576   4.053   0.097   2.471
 1893SOL     OW 6577   2.822   1.170   5.940
 1893SOL    HW1 6578   2.910   1.176   5.987
 1893SOL    HW2 6579   2.753   1.134   6.004
 1894SOL     OW 6580   4.965   3.787   1.324
 1894SOL    HW1 6581   5.054   3.740   1.330
 1894SOL    HW2 6582   4.936   3.814   1.415
 1895SOL     OW 6583   4.326   6.170   3.546
 1895SOL    HW1 6584   4.340   6.263   3.511
 1895SOL    HW2 6585   4.414   6.131   3.572
 1896SOL     OW 6586   6.127   2.216   5.302
 1896SOL    HW1 6587   6.186   2.155   5.249
 1896SOL    HW2 6588   6.127   2.188   5.398
 1897SOL     OW 6589   5.799   4.735   3.182
 1897SOL    HW1 6590   5.896   4.735   3.207
 1897SOL    HW2 6591   5.787   4.691   3.093
 1898SOL     OW 6592   5.919   6.862   6.788
 1898SOL    HW1 6593   6.009   6.834   6.754
 1898SOL    HW2 6594   5.877   6.785   6.838
 1899SOL     OW 6595   1.662   2.634   3.539
 1899SOL    HW1 6596   1.664   2.726   3.577
 1899SOL    HW2 6597   1.735   2.579   3.579
 1900SOL     OW 6598   2.647   6.112   1.737
 1900SOL    HW1 6599   2.704   6.036   1.706
 1900SOL    HW2 6600   2.558   6.078   1.768
 1901SOL     OW 6601   1.276   0.706   5.961
 1901SOL    HW1 6602   1.269   0.620   6.012
 1901SOL    HW2 6603   1.195   0.719   5.905
 1902SOL     OW 6604   1.427   2.690   5.205
 1902SOL    HW1 6605   1.351   2.652   5.152
 1902SOL    HW2 6606   1.511   2.684   5.150
 1903SOL     OW 6607   6.612   4.776   3.970
 1903SOL    HW1 6608   6.600   4.793   3.872
 1903SOL    HW2 6609   6.684   4.708   3.984
 1904SOL     OW 6610   0.255   0.276   4.174
 1904SOL    HW1 6611   0.180   0.270   4.240
 1904SOL    HW2 6612   0.341   0.286   4.223
 1905SOL     OW 6613   6.409   2.747   4.258
 1905SOL    HW1 6614   6.348   2.731   4.180
 1905SOL    HW2 6615   6.359   2.796   4.330
 1906SOL     OW 6616   2.901   5.999   6.312
 1906SOL    HW1 6617   2.853   6.086   6.313
 1906SOL    HW2 6618   2.835   5.924   6.306
 1907SOL     OW 6619   4.694   6.297   3.855
 1907SOL    HW1 6620   4.707   6.237   3.935
 1907SOL    HW2 6621   4.597   6.319   3.846
 1908SOL     OW 6622   5.192   6.369   0.669
 1908SOL    HW1 6623   5.157   6.392   0.578
 1908SOL    HW2 6624   5.287   6.340   0.662
 1909SOL     OW 6625   4.611   5.598   3.689
 1909SOL    HW1 6626   4.551   5.606   3.768
 1909SOL    HW2 6627   4.706   5.597   3.719
 1910SOL     OW 6628   4.913   3.349   5.035
 1910SOL    HW1 6629   4.857   3.432   5.035
 1910SOL    HW2 6630   4.983   3.357   4.964
 1911SOL     OW 6631   0.269   3.473   5.551
 1911SOL    HW1 6632   0.330   3.438   5.480
 1911SOL    HW2 6633   0.318   3.538   5.609
 1912SOL     OW 6634   2.778   5.962   3.180
 1912SOL    HW1 6635   2.694   6.001   3.218
 1912SOL    HW2 6636   2.845   5.951   3.253
 1913SOL     OW 6637   1.741   4.485   5.496
 1913SOL    HW1 6638   1.835   4.497   5.462
 1913SOL    HW2 6639   1.677   4.528   5.431
 1914SOL     OW 6640   4.300   1.163   5.571
 1914SOL    HW1 6641   4.310   1.173   5.670
 1914SOL    HW2 6642   4.262   1.247   5.533
 1915SOL     OW 6643   2.941   0.599   5.208
 1915SOL    HW1 6644   2.965   0.578   5.113
 1915SOL    HW2 6645   2.881   0.680   5.210
 1916SOL     OW 6646   3.866   6.137   2.978
 1916SOL    HW1 6647   3.942   6.181   3.026
 1916SOL    HW2 6648   3.819   6.205   2.921
 1917SOL     OW 6649   3.311   3.657   4.355
 1917SOL    HW1 6650   3.379   3.717   4.397
 1917SOL    HW2 6651   3.292   3.690   4.262
 1918SOL     OW 6652   6.792   6.850   5.638
 1918SOL    HW1 6653   6.693   6.844   5.647
 1918SOL    HW2 6654   6.816   6.862   5.542
 1919SOL     OW 6655   6.451   6.972   2.794
 1919SOL    HW1 6656   6.400   7.014   2.869
 1919SOL    HW2 6657   6.546   6.959   2.822
 1920SOL     OW 6658   6.522   6.156   5.192
 1920SOL    HW1 6659   6.424   6.148   5.172
 1920SOL    HW2 6660   6.536   6.156   5.291
 1921SOL     OW 6661   1.720   6.755   0.029
 1921SOL    HW1 6662   1.705   6.716   6.957
 1921SOL    HW2 6663   1.801   6.814   0.028
 1922SOL     OW 6664   4.195   3.827   0.836
 1922SOL    HW1 6665   4.293   3.811   0.849
 1922SOL    HW2 6666   4.148   3.821   0.924
 1923SOL     OW 6667   1.770   2.990   0.167
 1923SOL    HW1 6668   1.681   2.962   0.130
 1923SOL    HW2 6669   1.784   3.087   0.148
 1924SOL     OW 6670   0.441   4.311   1.064
 1924SOL    HW1 6671   0.391   4.384   1.018
 1924SOL    HW2 6672   0.395   4.288   1.150
 1925SOL     OW 6673   3.367   4.504   0.101
 1925SOL    HW1 6674   3.347   4.482   0.197
 1925SOL    HW2 6675   3.428   4.583   0.098
 1926SOL     OW 6676   0.559   0.289   3.875
 1926SOL    HW1 6677   0.462   0.314   3.868
 1926SOL    HW2 6678   0.580   0.218   3.808
 1927SOL     OW 6679   4.502   3.298   1.077
 1927SOL    HW1 6680   4.585   3.243   1.071
 1927SOL    HW2 6681   4.454   3.277   1.162
 1928SOL     OW 6682   0.209   5.634   4.985
 1928SOL    HW1 6683   0.282   5.585   5.032
 1928SOL    HW2 6684   0.196   5.595   4.894
 1929SOL     OW 6685   1.641   5.803   3.482
 1929SOL    HW1 6686   1.701   5.814   3.402
 1929SOL    HW2 6687   1.651   5.710   3.518
 1930SOL     OW 6688   6.986   5.110   6.736
 1930SOL    HW1 6689   6.899   5.113   6.785
 1930SOL    HW2 6690   6.983   5.176   6.660
 1931SOL     OW 6691   0.514   1.970   4.975
 1931SOL    HW1 6692   0.416   1.990   4.987
 1931SOL    HW2 6693   0.560   2.052   4.940
 1932SOL     OW 6694   6.225   2.798   2.665
 1932SOL    HW1 6695   6.208   2.846   2.579
 1932SOL    HW2 6696   6.311   2.829   2.704
 1933SOL     OW 6697   2.502   5.099   0.605
 1933SOL    HW1 6698   2.410   5.061   0.618
 1933SOL    HW2 6699   2.563   5.062   0.675
 1934SOL     OW 6700   6.785   6.357   3.825
 1934SOL    HW1 6701   6.766   6.390   3.918
 1934SOL    HW2 6702   6.724   6.404   3.761
 1935SOL     OW 6703   2.059   0.743   3.089
 1935SOL    HW1 6704   1.963   0.721   3.107
 1935SOL    HW2 6705   2.074   0.744   2.990
 1936SOL     OW 6706   6.957   6.277   5.374
 1936SOL    HW1 6707   6.940   6.247   5.280
 1936SOL    HW2 6708   0.028   6.246   5.404
 1937SOL     OW 6709   3.899   1.154   2.762
 1937SOL    HW1 6710   3.880   1.102   2.678
 1937SOL    HW2 6711   3.979   1.114   2.808
 1938SOL     OW 6712   5.013   1.199   4.387
 1938SOL    HW1 6713   5.027   1.256   4.467
 1938SOL    HW2 6714   5.074   1.228   4.313
 1939SOL     OW 6715   2.753   0.866   4.056
 1939SOL    HW1 6716   2.752   0.804   4.134
 1939SOL    HW2 6717   2.847   0.888   4.032
 1940SOL     OW 6718   6.117   4.977   6.279
 1940SOL    HW1 6719   6.134   5.071   6.248
 1940SOL    HW2 6720   6.084   4.979   6.373
 1941SOL     OW 6721   5.411   5.095   2.844
 1941SOL    HW1 6722   5.360   5.142   2.916
 1941SOL    HW2 6723   5.423   4.999   2.869
 1942SOL     OW 6724   6.926   4.421   3.433
 1942SOL    HW1 6725   6.934   4.509   3.387
 1942SOL    HW2 6726   7.004   4.409   3.495
 1943SOL     OW 6727   3.031   5.733   2.705
 1943SOL    HW1 6728   3.113   5.691   2.666
 1943SOL    HW2 6729   3.022   5.705   2.800
 1944SOL     OW 6730   0.039   0.178   2.007
 1944SOL    HW1 6731   0.136   0.172   1.981
 1944SOL    HW2 6732   7.001   0.143   1.932
 1945SOL     OW 6733   3.398   4.975   3.744
 1945SOL    HW1 6734   3.349   4.951   3.828
 1945SOL    HW2 6735   3.490   5.007   3.767
 1946SOL     OW 6736   1.771   6.023   0.054
 1946SOL    HW1 6737   1.706   6.065   0.117
 1946SOL    HW2 6738   1.863   6.027   0.093
 1947SOL     OW 6739   5.260   0.022   3.815
 1947SOL    HW1 6740   5.183   7.016   3.874
 1947SOL    HW2 6741   5.277   6.967   3.750
 1948SOL     OW 6742   0.067   3.827   5.543
 1948SOL    HW1 6743   0.068   3.858   5.448
 1948SOL    HW2 6744   0.156   3.791   5.568
 1949SOL     OW 6745   4.749   3.973   6.251
 1949SOL    HW1 6746   4.802   4.025   6.317
 1949SOL    HW2 6747   4.802   3.894   6.220
 1950SOL     OW 6748   3.106   5.108   1.108
 1950SOL    HW1 6749   3.058   5.133   1.024
 1950SOL    HW2 6750   3.203   5.097   1.089
 1951SOL     OW 6751   6.675   3.070   0.352
 1951SOL    HW1 6752   6.725   3.066   0.438
 1951SOL    HW2 6753   6.644   2.978   0.327
 1952SOL     OW 6754   3.600   2.982   5.171
 1952SOL    HW1 6755   3.670   2.943   5.111
 1952SOL    HW2 6756   3.517   2.928   5.166
 1953SOL     OW 6757   0.108   2.626   4.488
 1953SOL    HW1 6758   0.044   2.684   4.439
 1953SOL    HW2 6759   0.058   2.560   4.544
 1954SOL     OW 6760   2.491   2.023   3.334
 1954SOL    HW1 6761   2.534   1.963   3.402
 1954SOL    HW2 6762   2.416   2.073   3.377
 1955SOL     OW 6763   5.919   5.241   2.080
 1955SOL    HW1 6764   6.008   5.231   2.034
 1955SOL    HW2 6765   5.916   5.180   2.159
 1956SOL     OW 6766   5.468   6.336   2.268
 1956SOL    HW1 6767   5.403   6.384   2.327
 1956SOL    HW2 6768   5.507   6.258   2.318
 1957SOL     OW 6769   0.929   6.630   5.554
 1957SOL    HW1 6770   0.836   6.604   5.577
 1957SOL    HW2 6771   0.960   6.704   5.613
 1958SOL     OW 6772   4.590   3.229   5.931
 1958SOL    HW1 6773   4.539   3.234   6.016
 1958SOL    HW2 6774   4.564   3.147   5.881
 1959SOL     OW 6775   2.368   1.884   0.243
 1959SOL    HW1 6776   2.466   1.890   0.224
 1959SOL    HW2 6777   2.340   1.787   0.248
 1960SOL     OW 6778   5.438   6.302   2.798
 1960SOL    HW1 6779   5.423   6.401   2.795
 1960SOL    HW2 6780   5.536   6.283   2.795
 1961SOL     OW 6781   6.109   4.690   5.403
 1961SOL    HW1 6782   6.195   4.732   5.434
 1961SOL    HW2 6783   6.078   4.736   5.320
 1962SOL     OW 6784   6.682   6.801   3.833
 1962SOL    HW1 6785   6.688   6.767   3.927
 1962SOL    HW2 6786   6.627   6.885   3.831
 1963SOL     OW 6787   2.856   0.237   3.205
 1963SOL    HW1 6788   2.770   0.223   3.155
 1963SOL    HW2 6789   2.853   0.326   3.251
 1964SOL     OW 6790   5.779   4.348   2.119
 1964SOL    HW1 6791   5.844   4.314   2.187
 1964SOL    HW2 6792   5.734   4.270   2.074
 1965SOL     OW 6793   2.390   5.729   3.727
 1965SOL    HW1 6794   2.410   5.709   3.823
 1965SOL    HW2 6795   2.377   5.643   3.677
 1966SOL     OW 6796   5.987   6.323   6.595
 1966SOL    HW1 6797   5.901   6.311   6.545
 1966SOL    HW2 6798   6.019   6.417   6.585
 1967SOL     OW 6799   4.859   3.333   4.627
 1967SOL    HW1 6800   4.868   3.418   4.680
 1967SOL    HW2 6801   4.829   3.260   4.688
 1968SOL     OW 6802   3.718   5.618   5.082
 1968SOL    HW1 6803   3.767   5.564   5.014
 1968SOL    HW2 6804   3.752   5.595   5.173
 1969SOL     OW 6805   6.900   1.850   1.567
 1969SOL    HW1 6806   6.963   1.899   1.627
 1969SOL    HW2 6807   6.821   1.908   1.546
 1970SOL     OW 6808   1.754   6.909   3.748
 1970SOL    HW1 6809   1.710   6.992   3.716
 1970SOL    HW2 6810   1.731   6.893   3.844
 1971SOL     OW 6811   0.199   1.055   6.073
 1971SOL    HW1 6812   0.235   1.147   6.057
 1971SOL    HW2 6813   0.267   1.002   6.124
 1972SOL     OW 6814   1.671   5.922   3.722
 1972SOL    HW1 6815   1.629   5.874   3.645
 1972SOL    HW2 6816   1.602   5.980   3.766
 1973SOL     OW 6817   2.528   2.833   6.667
 1973SOL    HW1 6818   2.537   2.891   6.748
 1973SOL    HW2 6819   2.529   2.737   6.695
 1974SOL     OW 6820   5.553   6.697   4.624
 1974SOL    HW1 6821   5.644   6.656   4.620
 1974SOL    HW2 6822   5.548   6.774   4.559
 1975SOL     OW 6823   3.060   0.136   3.347
 1975SOL    HW1 6824   3.126   0.202   3.384
 1975SOL    HW2 6825   2.988   0.184   3.298
 1976SOL     OW 6826   6.780   4.435   6.869
 1976SOL    HW1 6827   6.850   4.383   6.820
 1976SOL    HW2 6828   6.764   4.393   6.958
 1977SOL     OW 6829   2.883   2.082   5.233
 1977SOL    HW1 6830   2.925   2.151   5.293
 1977SOL    HW2 6831   2.952   2.043   5.173
 1978SOL     OW 6832   6.952   2.000   4.891
 1978SOL    HW1 6833   6.940   2.096   4.862
 1978SOL    HW2 6834   6.864   1.965   4.925
 1979SOL     OW 6835   5.693   4.452   3.286
 1979SOL    HW1 6836   5.716   4.548   3.302
 1979SOL    HW2 6837   5.777   4.398   3.282
 1980SOL     OW 6838   3.486   0.973   1.156
 1980SOL    HW1 6839   3.465   1.027   1.238
 1980SOL    HW2 6840   3.576   0.930   1.167
 1981SOL     OW 6841   4.961   3.460   1.806
 1981SOL    HW1 6842   4.944   3.363   1.787
 1981SOL    HW2 6843   4.892   3.516   1.759
 1982SOL     OW 6844   6.072   0.036   5.435
 1982SOL    HW1 6845   6.062   0.134   5.419
 1982SOL    HW2 6846   6.090   7.009   5.348
 1983SOL     OW 6847   0.503   4.473   2.333
 1983SOL    HW1 6848   0.526   4.414   2.256
 1983SOL    HW2 6849   0.519   4.424   2.418
 1984SOL     OW 6850   4.456   0.843   5.414
 1984SOL    HW1 6851   4.404   0.898   5.481
 1984SOL    HW2 6852   4.551   0.835   5.444
 1985SOL     OW 6853   1.867   6.433   1.309
 1985SOL    HW1 6854   1.920   6.504   1.263
 1985SOL    HW2 6855   1.851   6.357   1.245
 1986SOL     OW 6856   0.238   2.133   6.888
 1986SOL    HW1 6857   0.260   2.224   6.922
 1986SOL    HW2 6858   0.250   2.130   6.789
 1987SOL     OW 6859   3.074   4.153   0.597
 1987SOL    HW1 6860   3.033   4.062   0.599
 1987SOL    HW2 6861   3.017   4.218   0.647
 1988SOL     OW 6862   4.828   3.214   0.569
 1988SOL    HW1 6863   4.824   3.213   0.669
 1988SOL    HW2 6864   4.847   3.122   0.535
 1989SOL     OW 6865   2.473   1.191   3.958
 1989SOL    HW1 6866   2.531   1.270   3.938
 1989SOL    HW2 6867   2.381   1.223   3.981
 1990SOL     OW 6868   2.292   1.429   2.766
 1990SOL    HW1 6869   2.379   1.393   2.731
 1990SOL    HW2 6870   2.296   1.529   2.769
 1991SOL     OW 6871   4.883   5.693   3.391
 1991SOL    HW1 6872   4.858   5.778   3.438
 1991SOL    HW2 6873   4.981   5.678   3.401
 1992SOL     OW 6874   2.161   6.525   5.334
 1992SOL    HW1 6875   2.074   6.477   5.341
 1992SOL    HW2 6876   2.205   6.528   5.423
 1993SOL     OW 6877   3.266   3.281   4.131
 1993SOL    HW1 6878   3.285   3.257   4.036
 1993SOL    HW2 6879   3.185   3.231   4.162
 1994SOL     OW 6880   5.853   2.529   2.082
 1994SOL    HW1 6881   5.932   2.487   2.126
 1994SOL    HW2 6882   5.830   2.614   2.129
 1995SOL     OW 6883   4.236   2.515   1.408
 1995SOL    HW1 6884   4.156   2.498   1.467
 1995SOL    HW2 6885   4.318   2.480   1.453
 1996SOL     OW 6886   2.823   3.941   5.455
 1996SOL    HW1 6887   2.823   3.854   5.404
 1996SOL    HW2 6888   2.730   3.965   5.479
 1997SOL     OW 6889   5.699   0.227   4.101
 1997SOL    HW1 6890   5.705   0.158   4.029
 1997SOL    HW2 6891   5.732   0.315   4.065
 1998SOL     OW 6892   3.109   4.874   5.080
 1998SOL    HW1 6893   3.203   4.869   5.114
 1998SOL    HW2 6894   3.050   4.816   5.136
 1999SOL     OW 6895   2.541   0.594   1.941
 1999SOL    HW1 6896   2.455   0.545   1.956
 1999SOL    HW2 6897   2.618   0.532   1.957
 2000SOL     OW 6898   3.567   1.678   4.629
 2000SOL    HW1 6899   3.494   1.734   4.669
 2000SOL    HW2 6900   3.527   1.612   4.565
 2001SOL     OW 6901   2.415   3.318   6.835
 2001SOL    HW1 6902   2.329   3.272   6.859
 2001SOL    HW2 6903   2.406   3.361   6.745
 2002SOL     OW 6904   1.341   5.498   4.892
 2002SOL    HW1 6905   1.381   5.547   4.970
 2002SOL    HW2 6906   1.289   5.562   4.835
 2003SOL     OW 6907   6.284   4.788   3.327
 2003SOL    HW1 6908   6.298   4.880   3.292
 2003SOL    HW2 6909   6.360   4.729   3.298
 2004SOL     OW 6910   3.424   0.227   6.615
 2004SOL    HW1 6911   3.330   0.237   6.646
 2004SOL    HW2 6912   3.429   0.155   6.546
 2005SOL     OW 6913   2.644   6.366   4.936
 2005SOL    HW1 6914   2.551   6.331   4.940
 2005SOL    HW2 6915   2.707   6.293   4.911
 2006SOL     OW 6916   4.506   6.008   3.366
 2006SOL    HW1 6917   4.492   6.106   3.370
 2006SOL    HW2 6918   4.566   5.980   3.442
 2007SOL     OW 6919   6.263   5.206   6.952
 2007SOL    HW1 6920   6.294   5.111   6.950
 2007SOL    HW2 6921   6.288   5.248   0.020
 2008SOL     OW 6922   6.800   6.464   4.312
 2008SOL    HW1 6923   6.781   6.367   4.325
 2008SOL    HW2 6924   6.883   6.475   4.256
 2009SOL     OW 6925   0.767   0.325   0.447
 2009SOL    HW1 6926   0.796   0.358   0.537
 2009SOL    HW2 6927   0.796   0.389   0.376
 2010SOL     OW 6928   1.116   0.046   1.063
 2010SOL    HW1 6929   1.127   0.132   1.013
 2010SOL    HW2 6930   1.148   6.989   1.007
 2011SOL     OW 6931   6.900   2.258   4.821
 2011SOL    HW1 6932   6.809   2.280   4.786
 2011SOL    HW2 6933   6.969   2.307   4.767
 2012SOL     OW 6934   0.125   3.564   0.826
 2012SOL    HW1 6935   0.213   3.596   0.862
 2012SOL    HW2 6936   0.108   3.471   0.859
 2013SOL     OW 6937   4.693   1.199   2.634
 2013SOL    HW1 6938   4.638   1.135   2.580
 2013SOL    HW2 6939   4.716   1.278   2.577
 2014SOL     OW 6940   2.436   5.436   3.433
 2014SOL    HW1 6941   2.453   5.345   3.397
 2014SOL    HW2 6942   2.424   5.500   3.357
 2015SOL     OW 6943   3.556   6.421   0.091
 2015SOL    HW1 6944   3.504   6.378   0.017
 2015SOL    HW2 6945   3.654   6.419   0.069
 2016SOL     OW 6946   6.232   5.120   3.647
 2016SOL    HW1 6947   6.163   5.163   3.588
 2016SOL    HW2 6948   6.320   5.166   3.634
 2017SOL     OW 6949   2.132   4.960   1.856
 2017SOL    HW1 6950   2.112   4.882   1.915
 2017SOL    HW2 6951   2.189   4.930   1.779
 2018SOL     OW 6952   0.431   4.325   6.474
 2018SOL    HW1 6953   0.477   4.267   6.408
 2018SOL    HW2 6954   0.358   4.376   6.428
 2019SOL     OW 6955   5.537   1.661   2.986
 2019SOL    HW1 6956   5.579   1.605   2.915
 2019SOL    HW2 6957   5.440   1.673   2.965
 2020SOL     OW 6958   1.439   5.038   3.411
 2020SOL    HW1 6959   1.391   4.970   3.356
 2020SOL    HW2 6960   1.381   5.119   3.423
 2021SOL     OW 6961   1.700   6.386   2.004
 2021SOL    HW1 6962   1.655   6.456   1.950
 2021SOL    HW2 6963   1.721   6.307   1.946
 2022SOL     OW 6964   2.859   4.566   1.063
 2022SOL    HW1 6965   2.934   4.622   1.028
 2022SOL    HW2 6966   2.772   4.613   1.046
 2023SOL     OW 6967   6.240   1.505   6.492
 2023SOL    HW1 6968   6.273   1.559   6.568
 2023SOL    HW2 6969   6.225   1.564   6.413
 2024SOL     OW 6970   6.116   0.345   2.923
 2024SOL    HW1 6971   6.156   0.429   2.887
 2024SOL    HW2 6972   6.031   0.366   2.971
 2025SOL     OW 6973   6.530   0.836   0.738
 2025SOL    HW1 6974   6.624   0.835   0.706
 2025SOL    HW2 6975   6.485   0.751   0.713
 2026SOL     OW 6976   1.300   2.269   5.687
 2026SOL    HW1 6977   1.329   2.365   5.692
 2026SOL    HW2 6978   1.379   2.210   5.675
 2027SOL     OW 6979   0.722   1.099   2.308
 2027SOL    HW1 6980   0.745   1.059   2.397
 2027SOL    HW2 6981   0.676   1.187   2.322
 2028SOL     OW 6982   3.477   4.020   5.824
 2028SOL    HW1 6983   3.423   3.979   5.751
 2028SOL    HW2 6984   3.526   3.948   5.873
 2029SOL     OW 6985   1.823   0.293   0.478
 2029SOL    HW1 6986   1.760   0.340   0.540
 2029SOL    HW2 6987   1.810   0.327   0.385
 2030SOL     OW 6988   1.476   1.638   2.870
 2030SOL    HW1 6989   1.520   1.628   2.960
 2030SOL    HW2 6990   1.464   1.735   2.849
 2031SOL     OW 6991   4.790   6.792   2.786
 2031SOL    HW1 6992   4.715   6.728   2.766
 2031SOL    HW2 6993   4.842   6.809   2.702
 2032SOL     OW 6994   5.570   6.573   1.496
 2032SOL    HW1 6995   5.527   6.485   1.475
 2032SOL    HW2 6996   5.521   6.618   1.571
 2033SOL     OW 6997   6.872   5.746   6.712
 2033SOL    HW1 6998   6.921   5.781   6.793
 2033SOL    HW2 6999   6.783   5.710   6.741
 2034SOL     OW 7000   2.908   6.880   3.311
 2034SOL    HW1 7001   2.903   6.980   3.320
 2034SOL    HW2 7002   2.886   6.854   3.217
 2035SOL     OW 7003   0.889   3.005   1.369
 2035SOL    HW1 7004   0.861   3.059   1.289
 2035SOL    HW2 7005   0.824   2.929   1.381
 2036SOL     OW 7006   1.096   4.437   0.416
 2036SOL    HW1 7007   1.051   4.504   0.476
 2036SOL    HW2 7008   1.067   4.345   0.443
 2037SOL     OW 7009   0.016   1.349   6.025
 2037SOL    HW1 7010   0.104   1.326   5.985
 2037SOL    HW2 7011   6.974   1.387   5.955
 2038SOL     OW 7012   0.732   0.059   5.301
 2038SOL    HW1 7013   0.653   0.032   5.356
 2038SOL    HW2 7014   0.804   0.096   5.360
 2039SOL     OW 7015   1.528   5.233   1.957
 2039SOL    HW1 7016   1.562   5.328   1.954
 2039SOL    HW2 7017   1.581   5.177   1.893
 2040SOL     OW 7018   3.049   3.754   4.156
 2040SOL    HW1 7019   3.085   3.719   4.070
 2040SOL    HW2 7020   3.056   3.854   4.157
 2041SOL     OW 7021   6.479   3.863   6.868
 2041SOL    HW1 7022   6.441   3.793   6.929
 2041SOL    HW2 7023   6.406   3.902   6.812
 2042SOL     OW 7024   3.319   5.308   0.497
 2042SOL    HW1 7025   3.220   5.317   0.509
 2042SOL    HW2 7026   3.341   5.306   0.400
 2043SOL     OW 7027   4.481   4.493   2.384
 2043SOL    HW1 7028   4.438   4.403   2.377
 2043SOL    HW2 7029   4.578   4.481   2.406
 2044SOL     OW 7030   6.470   0.323   1.856
 2044SOL    HW1 7031   6.417   0.247   1.896
 2044SOL    HW2 7032   6.458   0.405   1.912
 2045SOL     OW 7033   2.086   5.648   6.048
 2045SOL    HW1 7034   2.085   5.719   6.118
 2045SOL    HW2 7035   2.044   5.683   5.965
 2046SOL     OW 7036   6.008   0.242   4.839
 2046SOL    HW1 7037   5.922   0.279   4.873
 2046SOL    HW2 7038   6.068   0.222   4.916
 2047SOL     OW 7039   5.514   2.518   0.015
 2047SOL    HW1 7040   5.456   2.526   6.953
 2047SOL    HW2 7041   5.571   2.600   0.023
 2048SOL     OW 7042   3.959   6.804   5.394
 2048SOL    HW1 7043   3.869   6.816   5.352
 2048SOL    HW2 7044   3.964   6.858   5.479
 2049SOL     OW 7045   4.773   5.916   0.681
 2049SOL    HW1 7046   4.685   5.963   0.688
 2049SOL    HW2 7047   4.840   5.977   0.638
 2050SOL     OW 7048   5.338   1.059   4.181
 2050SOL    HW1 7049   5.255   1.112   4.165
 2050SOL    HW2 7050   5.390   1.099   4.257
 2051SOL     OW 7051   2.635   5.254   0.395
 2051SOL    HW1 7052   2.618   5.193   0.473
 2051SOL    HW2 7053   2.553   5.258   0.338
 2052SOL     OW 7054   1.391   2.620   0.753
 2052SOL    HW1 7055   1.352   2.538   0.710
 2052SOL    HW2 7056   1.332   2.650   0.827
 2053SOL     OW 7057   5.379   0.999   0.554
 2053SOL    HW1 7058   5.460   1.034   0.601
 2053SOL    HW2 7059   5.303   1.064   0.566
 2054SOL     OW 7060   6.830   3.542   1.560
 2054SOL    HW1 7061   6.912   3.486   1.545
 2054SOL    HW2 7062   6.749   3.484   1.550
 2055SOL     OW 7063   6.272   1.741   3.966
 2055SOL    HW1 7064   6.205   1.786   3.906
 2055SOL    HW2 7065   6.322   1.811   4.017
 2056SOL     OW 7066   1.306   0.473   2.512
 2056SOL    HW1 7067   1.357   0.389   2.491
 2056SOL    HW2 7068   1.208   0.457   2.497
 2057SOL     OW 7069   6.709   2.399   3.917
 2057SOL    HW1 7070   6.668   2.320   3.871
 2057SOL    HW2 7071   6.638   2.448   3.968
 2058SOL     OW 7072   0.457   1.905   1.804
 2058SOL    HW1 7073   0.378   1.845   1.788
 2058SOL    HW2 7074   0.533   1.877   1.746
 2059SOL     OW 7075   1.399   1.198   6.534
 2059SOL    HW1 7076   1.446   1.204   6.446
 2059SOL    HW2 7077   1.320   1.260   6.534
 2060SOL     OW 7078   0.791   5.339   2.034
 2060SOL    HW1 7079   0.791   5.267   2.103
 2060SOL    HW2 7080   0.727   5.315   1.961
 2061SOL     OW 7081   0.623   1.609   1.271
 2061SOL    HW1 7082   0.575   1.615   1.183
 2061SOL    HW2 7083   0.556   1.597   1.344
 2062SOL     OW 7084   4.215   0.338   3.013
 2062SOL    HW1 7085   4.212   0.347   2.913
 2062SOL    HW2 7086   4.310   0.343   3.044
 2063SOL     OW 7087   2.734   1.829   0.535
 2063SOL    HW1 7088   2.719   1.732   0.517
 2063SOL    HW2 7089   2.801   1.840   0.609
 2064SOL     OW 7090   0.835   2.474   0.327
 2064SOL    HW1 7091   0.792   2.388   0.299
 2064SOL    HW2 7092   0.802   2.501   0.417
 2065SOL     OW 7093   6.031   3.134   1.768
 2065SOL    HW1 7094   6.032   3.078   1.686
 2065SOL    HW2 7095   5.952   3.111   1.824
 2066SOL     OW 7096   2.028   6.882   3.457
 2066SOL    HW1 7097   2.057   6.939   3.534
 2066SOL    HW2 7098   1.983   6.800   3.491
 2067SOL     OW 7099   0.110   6.895   1.008
 2067SOL    HW1 7100   0.187   6.858   0.958
 2067SOL    HW2 7101   0.136   6.982   1.050
 2068SOL     OW 7102   1.981   1.250   5.132
 2068SOL    HW1 7103   2.054   1.186   5.111
 2068SOL    HW2 7104   1.984   1.275   5.229
 2069SOL     OW 7105   0.644   1.655   1.756
 2069SOL    HW1 7106   0.730   1.686   1.796
 2069SOL    HW2 7107   0.574   1.648   1.827
 2070SOL     OW 7108   0.613   1.560   3.233
 2070SOL    HW1 7109   0.677   1.498   3.278
 2070SOL    HW2 7110   0.663   1.627   3.179
 2071SOL     OW 7111   1.697   6.453   4.944
 2071SOL    HW1 7112   1.741   6.428   4.858
 2071SOL    HW2 7113   1.631   6.382   4.969
 2072SOL     OW 7114   4.877   4.850   2.209
 2072SOL    HW1 7115   4.908   4.781   2.144
 2072SOL    HW2 7116   4.808   4.811   2.270
 2073SOL     OW 7117   3.316   6.504   5.485
 2073SOL    HW1 7118   3.374   6.490   5.405
 2073SOL    HW2 7119   3.245   6.571   5.464
 2074SOL     OW 7120   6.503   1.997   1.789
 2074SOL    HW1 7121   6.479   1.942   1.710
 2074SOL    HW2 7122   6.561   1.943   1.851
 2075SOL     OW 7123   3.951   3.597   5.972
 2075SOL    HW1 7124   3.874   3.606   6.036
 2075SOL    HW2 7125   4.028   3.554   6.018
 2076SOL     OW 7126   4.812   0.689   1.093
 2076SOL    HW1 7127   4.720   0.651   1.108
 2076SOL    HW2 7128   4.819   0.777   1.139
 2077SOL     OW 7129   5.290   1.805   3.058
 2077SOL    HW1 7130   5.334   1.793   3.147
 2077SOL    HW2 7131   5.211   1.745   3.051
 2078SOL     OW 7132   4.305   5.719   5.497
 2078SOL    HW1 7133   4.283   5.625   5.469
 2078SOL    HW2 7134   4.404   5.727   5.511
 2079SOL     OW 7135   5.779   1.399   3.507
 2079SOL    HW1 7136   5.707   1.438   3.564
 2079SOL    HW2 7137   5.864   1.451   3.520
 2080SOL     OW 7138   3.127   2.210   4.465
 2080SOL    HW1 7139   3.137   2.214   4.565
 2080SOL    HW2 7140   3.042   2.255   4.439
 2081SOL     OW 7141   0.505   6.350   5.127
 2081SOL    HW1 7142   0.579   6.394   5.076
 2081SOL    HW2 7143   0.462   6.416   5.188
 2082SOL     OW 7144   4.780   0.491   2.026
 2082SOL    HW1 7145   4.850   0.559   2.003
 2082SOL    HW2 7146   4.702   0.537   2.070
 2083SOL     OW 7147   3.383   5.003   5.505
 2083SOL    HW1 7148   3.302   5.049   5.469
 2083SOL    HW2 7149   3.368   4.904   5.506
 2084SOL     OW 7150   6.982   3.235   2.892
 2084SOL    HW1 7151   7.014   3.254   2.984
 2084SOL    HW2 7152   6.884   3.215   2.894
 2085SOL     OW 7153   5.345   6.424   6.402
 2085SOL    HW1 7154   5.262   6.443   6.453
 2085SOL    HW2 7155   5.407   6.370   6.459
 2086SOL     OW 7156   2.683   5.007   0.793
 2086SOL    HW1 7157   2.754   5.056   0.741
 2086SOL    HW2 7158   2.712   4.999   0.888
 2087SOL     OW 7159   6.023   5.924   3.539
 2087SOL    HW1 7160   6.047   6.018   3.562
 2087SOL    HW2 7161   6.016   5.870   3.622
 2088SOL     OW 7162   2.695   0.192   0.996
 2088SOL    HW1 7163   2.616   0.253   1.005
 2088SOL    HW2 7164   2.746   0.215   0.914
 2089SOL     OW 7165   2.813   0.397   6.240
 2089SOL    HW1 7166   2.714   0.383   6.251
 2089SOL    HW2 7167   2.861   0.314   6.266
 2090SOL     OW 7168   3.560   2.943   3.881
 2090SOL    HW1 7169   3.594   3.037   3.890
 2090SOL    HW2 7170   3.493   2.924   3.953
 2091SOL     OW 7171   2.057   4.773   0.123
 2091SOL    HW1 7172   2.069   4.836   0.200
 2091SOL    HW2 7173   1.961   4.769   0.098
 2092SOL     OW 7174   6.405   6.366   0.579
 2092SOL    HW1 7175   6.332   6.434   0.587
 2092SOL    HW2 7176   6.368   6.275   0.593
 2093SOL     OW 7177   1.499   2.487   1.565
 2093SOL    HW1 7178   1.463   2.517   1.477
 2093SOL    HW2 7179   1.516   2.567   1.623
 2094SOL     OW 7180   5.967   0.357   2.419
 2094SOL    HW1 7181   5.907   0.371   2.340
 2094SOL    HW2 7182   5.967   0.439   2.476
 2095SOL     OW 7183   0.120   4.906   5.060
 2095SOL    HW1 7184   0.166   4.819   5.075
 2095SOL    HW2 7185   0.110   4.922   4.962
 2096SOL     OW 7186   4.895   3.625   3.142
 2096SOL    HW1 7187   4.908   3.722   3.119
 2096SOL    HW2 7188   4.865   3.575   3.061
 2097SOL     OW 7189   6.826   3.432   0.174
 2097SOL    HW1 7190   6.746   3.376   0.195
 2097SOL    HW2 7191   6.882   3.443   0.256
 2098SOL     OW 7192   4.839   0.460   4.270
 2098SOL    HW1 7193   4.819   0.474   4.173
 2098SOL    HW2 7194   4.935   0.480   4.288
 2099SOL     OW 7195   2.602   1.442   3.930
 2099SOL    HW1 7196   2.662   1.469   3.854
 2099SOL    HW2 7197   2.609   1.511   4.002
 2100SOL     OW 7198   3.474   3.957   6.466
 2100SOL    HW1 7199   3.376   3.976   6.470
 2100SOL    HW2 7200   3.507   3.969   6.372
 2101SOL     OW 7201   6.414   0.564   3.125
 2101SOL    HW1 7202   6.319   0.591   3.140
 2101SOL    HW2 7203   6.418   0.466   3.105
 2102SOL     OW 7204   0.485   5.102   1.907
 2102SOL    HW1 7205   0.462   5.006   1.894
 2102SOL    HW2 7206   0.424   5.142   1.976
 2103SOL     OW 7207   2.727   3.938   6.802
 2103SOL    HW1 7208   2.695   3.863   6.744
 2103SOL    HW2 7209   2.812   3.975   6.765
 2104SOL     OW 7210   1.296   3.648   4.866
 2104SOL    HW1 7211   1.362   3.722   4.872
 2104SOL    HW2 7212   1.288   3.603   4.955
 2105SOL     OW 7213   6.163   5.643   1.600
 2105SOL    HW1 7214   6.161   5.616   1.504
 2105SOL    HW2 7215   6.083   5.605   1.647
 2106SOL     OW 7216   5.156   6.008   6.800
 2106SOL    HW1 7217   5.060   6.010   6.827
 2106SOL    HW2 7218   5.163   5.972   6.706
 2107SOL     OW 7219   3.580   4.122   6.912
 2107SOL    HW1 7220   3.506   4.180   6.945
 2107SOL    HW2 7221   3.584   4.126   6.812
 2108SOL     OW 7222   5.403   4.933   5.472
 2108SOL    HW1 7223   5.462   4.973   5.542
 2108SOL    HW2 7224   5.421   4.835   5.464
 2109SOL     OW 7225   5.346   6.901   2.515
 2109SOL    HW1 7226   5.381   6.808   2.525
 2109SOL    HW2 7227   5.314   6.935   2.604
 2110SOL     OW 7228   2.514   4.968   5.164
 2110SOL    HW1 7229   2.608   4.998   5.178
 2110SOL    HW2 7230   2.513   4.875   5.127
 2111SOL     OW 7231   1.247   2.499   6.576
 2111SOL    HW1 7232   1.182   2.528   6.647
 2111SOL    HW2 7233   1.227   2.404   6.550
 2112SOL     OW 7234   5.273   3.342   1.411
 2112SOL    HW1 7235   5.334   3.269   1.381
 2112SOL    HW2 7236   5.252   3.330   1.508
 2113SOL     OW 7237   6.913   1.193   2.989
 2113SOL    HW1 7238   6.982   1.231   2.927
 2113SOL    HW2 7239   6.898   1.257   3.064
 2114SOL     OW 7240   1.644   4.039   6.572
 2114SOL    HW1 7241   1.625   4.020   6.476
 2114SOL    HW2 7242   1.617   4.132   6.595
 2115SOL     OW 7243   2.913   5.035   1.928
 2115SOL    HW1 7244   3.003   5.047   1.971
 2115SOL    HW2 7245   2.855   5.113   1.950
 2116SOL     OW 7246   6.879   3.956   3.374
 2116SOL    HW1 7247   6.832   3.868   3.370
 2116SOL    HW2 7248   6.908   3.982   3.281
 2117SOL     OW 7249   6.764   4.867   0.550
 2117SOL    HW1 7250   6.698   4.931   0.508
 2117SOL    HW2 7251   6.854   4.910   0.554
 2118SOL     OW 7252   6.935   3.951   2.019
 2118SOL    HW1 7253   6.897   3.917   1.933
 2118SOL    HW2 7254   7.009   4.016   1.999
 2119SOL     OW 7255   3.255   5.586   1.176
 2119SOL    HW1 7256   3.157   5.598   1.158
 2119SOL    HW2 7257   3.275   5.612   1.271
 2120SOL     OW 7258   0.430   5.600   2.124
 2120SOL    HW1 7259   0.499   5.626   2.192
 2120SOL    HW2 7260   0.475   5.566   2.042
 2121SOL     OW 7261   0.697   4.135   5.045
 2121SOL    HW1 7262   0.685   4.058   4.982
 2121SOL    HW2 7263   0.755   4.107   5.121
 2122SOL     OW 7264   4.392   4.337   5.391
 2122SOL    HW1 7265   4.469   4.300   5.339
 2122SOL    HW2 7266   4.315   4.355   5.329
 2123SOL     OW 7267   4.900   4.538   3.555
 2123SOL    HW1 7268   4.935   4.451   3.521
 2123SOL    HW2 7269   4.861   4.591   3.480
 2124SOL     OW 7270   2.479   1.169   1.307
 2124SOL    HW1 7271   2.578   1.163   1.305
 2124SOL    HW2 7272   2.448   1.191   1.399
 2125SOL     OW 7273   2.852   0.109   1.480
 2125SOL    HW1 7274   2.917   0.184   1.490
 2125SOL    HW2 7275   2.780   0.136   1.415
 2126SOL     OW 7276   3.033   0.747   1.996
 2126SOL    HW1 7277   3.018   0.756   2.095
 2126SOL    HW2 7278   2.980   0.817   1.948
 2127SOL     OW 7279   5.621   3.105   4.919
 2127SOL    HW1 7280   5.653   3.059   4.836
 2127SOL    HW2 7281   5.688   3.094   4.991
 2128SOL     OW 7282   0.788   4.638   4.328
 2128SOL    HW1 7283   0.873   4.686   4.307
 2128SOL    HW2 7284   0.778   4.560   4.265
 2129SOL     OW 7285   3.646   2.445   5.668
 2129SOL    HW1 7286   3.646   2.391   5.583
 2129SOL    HW2 7287   3.552   2.468   5.692
 2130SOL     OW 7288   4.318   6.533   3.505
 2130SOL    HW1 7289   4.295   6.601   3.574
 2130SOL    HW2 7290   4.417   6.526   3.497
 2131SOL     OW 7291   5.555   2.315   6.758
 2131SOL    HW1 7292   5.557   2.274   6.848
 2131SOL    HW2 7293   5.553   2.415   6.766
 2132SOL     OW 7294   2.238   3.254   0.443
 2132SOL    HW1 7295   2.239   3.155   0.457
 2132SOL    HW2 7296   2.322   3.294   0.478
 2133SOL     OW 7297   3.251   3.464   5.871
 2133SOL    HW1 7298   3.326   3.486   5.934
 2133SOL    HW2 7299   3.254   3.527   5.793
 2134SOL     OW 7300   0.902   6.907   1.177
 2134SOL    HW1 7301   0.827   6.967   1.150
 2134SOL    HW2 7302   0.989   6.954   1.163
 2135SOL     OW 7303   6.707   4.228   4.644
 2135SOL    HW1 7304   6.782   4.269   4.696
 2135SOL    HW2 7305   6.743   4.159   4.582
 2136SOL     OW 7306   1.296   5.071   1.050
 2136SOL    HW1 7307   1.216   5.113   1.093
 2136SOL    HW2 7308   1.353   5.028   1.120
 2137SOL     OW 7309   1.527   6.069   4.511
 2137SOL    HW1 7310   1.441   6.119   4.522
 2137SOL    HW2 7311   1.562   6.043   4.601
 2138SOL     OW 7312   5.107   1.358   1.486
 2138SOL    HW1 7313   5.087   1.325   1.578
 2138SOL    HW2 7314   5.057   1.443   1.470
 2139SOL     OW 7315   2.652   6.992   5.548
 2139SOL    HW1 7316   2.693   6.969   5.460
 2139SOL    HW2 7317   2.708   0.042   5.594
 2140SOL     OW 7318   2.370   1.750   4.767
 2140SOL    HW1 7319   2.408   1.809   4.838
 2140SOL    HW2 7320   2.445   1.707   4.716
 2141SOL     OW 7321   6.617   3.484   2.934
 2141SOL    HW1 7322   6.523   3.471   2.903
 2141SOL    HW2 7323   6.619   3.492   3.034
 2142SOL     OW 7324   1.610   2.401   2.850
 2142SOL    HW1 7325   1.658   2.401   2.762
 2142SOL    HW2 7326   1.512   2.389   2.835
 2143SOL     OW 7327   0.861   4.559   6.279
 2143SOL    HW1 7328   0.799   4.618   6.228
 2143SOL    HW2 7329   0.811   4.513   6.352
 2144SOL     OW 7330   6.187   4.591   3.686
 2144SOL    HW1 7331   6.207   4.688   3.675
 2144SOL    HW2 7332   6.092   4.574   3.659
 2145SOL     OW 7333   4.567   0.917   3.590
 2145SOL    HW1 7334   4.546   1.002   3.542
 2145SOL    HW2 7335   4.485   0.884   3.638
 2146SOL     OW 7336   2.451   3.091   0.200
 2146SOL    HW1 7337   2.373   3.115   0.258
 2146SOL    HW2 7338   2.490   3.004   0.230
 2147SOL     OW 7339   6.066   6.952   4.473
 2147SOL    HW1 7340   6.015   6.877   4.431
 2147SOL    HW2 7341   6.023   6.977   4.560
 2148SOL     OW 7342   0.625   3.368   5.774
 2148SOL    HW1 7343   0.657   3.389   5.682
 2148SOL    HW2 7344   0.584   3.449   5.815
 2149SOL     OW 7345   0.986   0.140   0.443
 2149SOL    HW1 7346   0.900   0.183   0.471
 2149SOL    HW2 7347   1.045   0.208   0.400
 2150SOL     OW 7348   1.896   2.526   1.758
 2150SOL    HW1 7349   1.908   2.428   1.742
 2150SOL    HW2 7350   1.983   2.573   1.742
 2151SOL     OW 7351   0.975   5.547   0.190
 2151SOL    HW1 7352   0.909   5.546   0.115
 2151SOL    HW2 7353   1.057   5.596   0.161
 2152SOL     OW 7354   5.217   5.663   4.496
 2152SOL    HW1 7355   5.226   5.693   4.402
 2152SOL    HW2 7356   5.183   5.568   4.498
 2153SOL     OW 7357   4.961   1.419   3.691
 2153SOL    HW1 7358   4.946   1.500   3.634
 2153SOL    HW2 7359   5.002   1.347   3.636
 2154SOL     OW 7360   3.516   0.519   2.970
 2154SOL    HW1 7361   3.513   0.501   2.871
 2154SOL    HW2 7362   3.510   0.618   2.985
 2155SOL     OW 7363   4.061   0.784   0.767
 2155SOL    HW1 7364   4.034   0.693   0.736
 2155SOL    HW2 7365   4.123   0.776   0.846
 2156SOL     OW 7366   5.247   1.670   4.948
 2156SOL    HW1 7367   5.258   1.765   4.918
 2156SOL    HW2 7368   5.247   1.610   4.868
 2157SOL     OW 7369   3.484   6.172   4.301
 2157SOL    HW1 7370   3.524   6.184   4.210
 2157SOL    HW2 7371   3.503   6.078   4.333
 2158SOL     OW 7372   3.847   6.813   0.533
 2158SOL    HW1 7373   3.902   6.884   0.487
 2158SOL    HW2 7374   3.908   6.752   0.583
 2159SOL     OW 7375   0.524   0.918   5.876
 2159SOL    HW1 7376   0.575   0.927   5.791
 2159SOL    HW2 7377   0.574   0.859   5.939
 2160SOL     OW 7378   5.596   0.359   0.638
 2160SOL    HW1 7379   5.677   0.307   0.666
 2160SOL    HW2 7380   5.615   0.405   0.551
 2161SOL     OW 7381   1.495   2.701   1.759
 2161SOL    HW1 7382   1.581   2.710   1.809
 2161SOL    HW2 7383   1.481   2.781   1.701
 2162SOL     OW 7384   1.403   6.466   1.575
 2162SOL    HW1 7385   1.377   6.389   1.633
 2162SOL    HW2 7386   1.493   6.449   1.534
 2163SOL     OW 7387   2.000   2.680   2.876
 2163SOL    HW1 7388   1.998   2.777   2.902
 2163SOL    HW2 7389   2.093   2.646   2.881
 2164SOL     OW 7390   2.202   2.920   2.408
 2164SOL    HW1 7391   2.226   2.843   2.349
 2164SOL    HW2 7392   2.260   2.919   2.490
 2165SOL     OW 7393   6.670   1.471   3.721
 2165SOL    HW1 7394   6.666   1.457   3.820
 2165SOL    HW2 7395   6.739   1.410   3.682
 2166SOL     OW 7396   6.940   3.938   2.591
 2166SOL    HW1 7397   6.870   3.909   2.657
 2166SOL    HW2 7398   6.936   3.878   2.510
 2167SOL     OW 7399   2.466   1.802   3.108
 2167SOL    HW1 7400   2.504   1.763   3.191
 2167SOL    HW2 7401   2.370   1.827   3.124
 2168SOL     OW 7402   1.496   1.897   2.936
 2168SOL    HW1 7403   1.576   1.882   2.994
 2168SOL    HW2 7404   1.424   1.943   2.989
 2169SOL     OW 7405   0.770   0.029   1.662
 2169SOL    HW1 7406   0.787   6.986   1.585
 2169SOL    HW2 7407   0.737   0.117   1.627
 2170SOL     OW 7408   1.251   3.852   5.837
 2170SOL    HW1 7409   1.316   3.874   5.764
 2170SOL    HW2 7410   1.158   3.867   5.805
 2171SOL     OW 7411   6.619   5.721   1.384
 2171SOL    HW1 7412   6.659   5.806   1.352
 2171SOL    HW2 7413   6.692   5.658   1.410
 2172SOL     OW 7414   1.541   1.444   5.480
 2172SOL    HW1 7415   1.583   1.460   5.391
 2172SOL    HW2 7416   1.577   1.510   5.546
 2173SOL     OW 7417   5.755   0.681   5.326
 2173SOL    HW1 7418   5.677   0.732   5.362
 2173SOL    HW2 7419   5.829   0.745   5.302
 2174SOL     OW 7420   5.572   0.338   5.900
 2174SOL    HW1 7421   5.477   0.359   5.922
 2174SOL    HW2 7422   5.577   0.291   5.812
 2175SOL     OW 7423   2.545   3.914   5.358
 2175SOL    HW1 7424   2.526   3.817   5.347
 2175SOL    HW2 7425   2.518   3.963   5.274
 2176SOL     OW 7426   5.226   2.500   2.648
 2176SOL    HW1 7427   5.275   2.535   2.727
 2176SOL    HW2 7428   5.184   2.412   2.670
 2177SOL     OW 7429   0.400   0.374   4.802
 2177SOL    HW1 7430   0.470   0.444   4.788
 2177SOL    HW2 7431   0.440   0.295   4.850
 2178SOL     OW 7432   0.775   2.132   2.935
 2178SOL    HW1 7433   0.776   2.049   2.991
 2178SOL    HW2 7434   0.768   2.212   2.995
 2179SOL     OW 7435   1.661   4.389   5.931
 2179SOL    HW1 7436   1.668   4.299   5.888
 2179SOL    HW2 7437   1.706   4.387   6.019
 2180SOL     OW 7438   0.351   6.423   2.891
 2180SOL    HW1 7439   0.344   6.421   2.991
 2180SOL    HW2 7440   0.331   6.515   2.858
 2181SOL     OW 7441   3.036   4.947   4.608
 2181SOL    HW1 7442   2.965   4.878   4.596
 2181SOL    HW2 7443   3.079   4.935   4.698
 2182SOL     OW 7444   6.764   6.586   2.728
 2182SOL    HW1 7445   6.736   6.654   2.661
 2182SOL    HW2 7446   6.761   6.495   2.686
 2183SOL     OW 7447   3.375   3.278   6.218
 2183SOL    HW1 7448   3.464   3.302   6.178
 2183SOL    HW2 7449   3.357   3.182   6.202
 2184SOL     OW 7450   6.640   1.553   7.007
 2184SOL    HW1 7451   6.547   1.589   7.001
 2184SOL    HW2 7452   6.667   1.547   0.084
 2185SOL     OW 7453   1.284   7.013   6.575
 2185SOL    HW1 7454   1.326   0.027   6.490
 2185SOL    HW2 7455   1.268   0.072   6.636
 2186SOL     OW 7456   0.200   5.455   5.324
 2186SOL    HW1 7457   0.273   5.465   5.257
 2186SOL    HW2 7458   0.128   5.396   5.287
 2187SOL     OW 7459   0.610   5.719   2.324
 2187SOL    HW1 7460   0.682   5.663   2.366
 2187SOL    HW2 7461   0.651   5.788   2.265
 2188SOL     OW 7462   2.781   0.571   0.909
 2188SOL    HW1 7463   2.765   0.582   0.811
 2188SOL    HW2 7464   2.878   0.553   0.925
 2189SOL     OW 7465   1.809   1.440   1.694
 2189SOL    HW1 7466   1.751   1.407   1.619
 2189SOL    HW2 7467   1.755   1.449   1.777
 2190SOL     OW 7468   6.313   4.059   1.923
 2190SOL    HW1 7469   6.236   4.109   1.884
 2190SOL    HW2 7470   6.392   4.120   1.930
 2191SOL     OW 7471   2.731   0.309   6.906
 2191SOL    HW1 7472   2.710   0.304   6.808
 2191SOL    HW2 7473   2.759   0.219   6.939
 2192SOL     OW 7474   5.104   2.004   1.923
 2192SOL    HW1 7475   5.166   2.007   1.845
 2192SOL    HW2 7476   5.053   2.089   1.929
 2193SOL     OW 7477   1.617   0.047   5.588
 2193SOL    HW1 7478   1.623   0.005   5.497
 2193SOL    HW2 7479   1.630   0.146   5.580
 2194SOL     OW 7480   0.941   3.953   6.382
 2194SOL    HW1 7481   1.033   3.926   6.354
 2194SOL    HW2 7482   0.914   3.901   6.463
 2195SOL     OW 7483   0.504   3.667   4.759
 2195SOL    HW1 7484   0.490   3.609   4.839
 2195SOL    HW2 7485   0.475   3.619   4.677
 2196SOL     OW 7486   2.456   0.446   6.753
 2196SOL    HW1 7487   2.416   0.387   6.682
 2196SOL    HW2 7488   2.430   0.411   6.843
 2197SOL     OW 7489   3.629   5.298   5.803
 2197SOL    HW1 7490   3.719   5.253   5.810
 2197SOL    HW2 7491   3.613   5.354   5.884
 2198SOL     OW 7492   0.950   0.450   0.187
 2198SOL    HW1 7493   1.014   0.524   0.165
 2198SOL    HW2 7494   0.858   0.487   0.194
 2199SOL     OW 7495   3.873   6.586   4.808
 2199SOL    HW1 7496   3.925   6.523   4.866
 2199SOL    HW2 7497   3.885   6.680   4.843
 2200SOL     OW 7498   2.543   2.108   3.890
 2200SOL    HW1 7499   2.549   2.109   3.990
 2200SOL    HW2 7500   2.500   2.193   3.859
 2201SOL     OW 7501   6.164   3.760   5.037
 2201SOL    HW1 7502   6.127   3.828   5.099
 2201SOL    HW2 7503   6.231   3.704   5.085
 2202SOL     OW 7504   3.605   0.246   1.990
 2202SOL    HW1 7505   3.650   0.248   1.901
 2202SOL    HW2 7506   3.673   0.240   2.063
 2203SOL     OW 7507   2.117   4.592   1.246
 2203SOL    HW1 7508   2.128   4.646   1.162
 2203SOL    HW2 7509   2.020   4.585   1.268
 2204SOL     OW 7510   5.920   3.383   0.572
 2204SOL    HW1 7511   5.843   3.372   0.509
 2204SOL    HW2 7512   5.933   3.299   0.624
 2205SOL     OW 7513   0.270   5.476   0.418
 2205SOL    HW1 7514   0.338   5.538   0.458
 2205SOL    HW2 7515   0.214   5.435   0.490
 2206SOL     OW 7516   3.900   2.481   5.778
 2206SOL    HW1 7517   3.803   2.477   5.754
 2206SOL    HW2 7518   3.952   2.516   5.700
 2207SOL     OW 7519   4.868   5.374   0.868
 2207SOL    HW1 7520   4.899   5.434   0.942
 2207SOL    HW2 7521   4.777   5.339   0.891
 2208SOL     OW 7522   6.526   6.349   3.571
 2208SOL    HW1 7523   6.586   6.277   3.537
 2208SOL    HW2 7524   6.493   6.404   3.494
 2209SOL     OW 7525   2.327   6.032   4.145
 2209SOL    HW1 7526   2.255   5.966   4.164
 2209SOL    HW2 7527   2.297   6.095   4.073
 2210SOL     OW 7528   4.417   0.271   1.387
 2210SOL    HW1 7529   4.450   0.339   1.322
 2210SOL    HW2 7530   4.490   0.247   1.451
 2211SOL     OW 7531   0.531   1.880   1.027
 2211SOL    HW1 7532   0.599   1.896   1.099
 2211SOL    HW2 7533   0.549   1.942   0.950
 2212SOL     OW 7534   3.009   5.730   6.843
 2212SOL    HW1 7535   3.017   5.630   6.842
 2212SOL    HW2 7536   2.922   5.757   6.801
 2213SOL     OW 7537   3.399   1.903   4.697
 2213SOL    HW1 7538   3.375   1.955   4.778
 2213SOL    HW2 7539   3.318   1.856   4.661
 2214SOL     OW 7540   4.269   3.804   6.965
 2214SOL    HW1 7541   4.257   3.705   6.970
 2214SOL    HW2 7542   4.311   3.836   0.031
 2215SOL     OW 7543   3.876   0.079   0.125
 2215SOL    HW1 7544   3.926   7.011   0.125
 2215SOL    HW2 7545   3.875   0.117   0.032
 2216SOL     OW 7546   0.697   6.832   6.428
 2216SOL    HW1 7547   0.743   6.832   6.517
 2216SOL    HW2 7548   0.744   6.893   6.365
 2217SOL     OW 7549   4.354   0.759   3.881
 2217SOL    HW1 7550   4.312   0.824   3.817
 2217SOL    HW2 7551   4.368   0.803   3.969
 2218SOL     OW 7552   0.607   6.044   5.644
 2218SOL    HW1 7553   0.520   5.995   5.639
 2218SOL    HW2 7554   0.666   6.014   5.568
 2219SOL     OW 7555   5.849   0.913   1.029
 2219SOL    HW1 7556   5.776   0.982   1.030
 2219SOL    HW2 7557   5.905   0.925   0.947
 2220SOL     OW 7558   0.518   6.016   4.780
 2220SOL    HW1 7559   0.438   6.007   4.839
 2220SOL    HW2 7560   0.505   6.093   4.718
 2221SOL     OW 7561   6.536   1.559   4.114
 2221SOL    HW1 7562   6.438   1.549   4.128
 2221SOL    HW2 7563   6.575   1.471   4.085
 2222SOL     OW 7564   5.032   0.392   2.361
 2222SOL    HW1 7565   5.039   0.491   2.351
 2222SOL    HW2 7566   4.979   0.354   2.285
 2223SOL     OW 7567   0.478   6.335   5.653
 2223SOL    HW1 7568   0.424   6.415   5.680
 2223SOL    HW2 7569   0.433   6.252   5.684
 2224SOL     OW 7570   6.320   4.027   0.467
 2224SOL    HW1 7571   6.319   4.028   0.367
 2224SOL    HW2 7572   6.360   3.941   0.500
 2225SOL     OW 7573   6.613   6.181   2.290
 2225SOL    HW1 7574   6.699   6.174   2.240
 2225SOL    HW2 7575   6.627   6.237   2.372
 2226SOL     OW 7576   2.538   4.880   0.332
 2226SOL    HW1 7577   2.489   4.967   0.336
 2226SOL    HW2 7578   2.494   4.814   0.393
 2227SOL     OW 7579   3.798   1.986   1.952
 2227SOL    HW1 7580   3.762   1.942   1.870
 2227SOL    HW2 7581   3.741   2.064   1.976
 2228SOL     OW 7582   5.498   5.541   6.807
 2228SOL    HW1 7583   5.448   5.608   6.753
 2228SOL    HW2 7584   5.495   5.568   6.904
 2229SOL     OW 7585   3.544   3.461   3.427
 2229SOL    HW1 7586   3.552   3.377   3.481
 2229SOL    HW2 7587   3.465   3.455   3.367
 2230SOL     OW 7588   5.762   0.383   6.880
 2230SOL    HW1 7589   5.774   0.402   6.783
 2230SOL    HW2 7590   5.668   0.405   6.907
 2231SOL     OW 7591   1.461   6.815   6.662
 2231SOL    HW1 7592   1.506   6.766   6.587
 2231SOL    HW2 7593   1.400   6.884   6.624
 2232SOL     OW 7594   1.254   0.950   5.054
 2232SOL    HW1 7595   1.287   1.044   5.068
 2232SOL    HW2 7596   1.269   0.923   4.959
 2233SOL     OW 7597   3.040   4.787   1.071
 2233SOL    HW1 7598   3.096   4.819   0.995
 2233SOL    HW2 7599   3.092   4.721   1.126
 2234SOL     OW 7600   4.742   1.519   1.556
 2234SOL    HW1 7601   4.657   1.467   1.545
 2234SOL    HW2 7602   4.731   1.585   1.631
 2235SOL     OW 7603   1.097   1.901   3.220
 2235SOL    HW1 7604   1.050   1.953   3.148
 2235SOL    HW2 7605   1.183   1.866   3.184
 2236SOL     OW 7606   2.081   4.816   5.405
 2236SOL    HW1 7607   2.175   4.787   5.388
 2236SOL    HW2 7608   2.060   4.896   5.349
 2237SOL     OW 7609   6.598   4.959   5.852
 2237SOL    HW1 7610   6.523   5.020   5.829
 2237SOL    HW2 7611   6.658   5.003   5.918
 2238SOL     OW 7612   5.767   3.965   1.933
 2238SOL    HW1 7613   5.783   3.895   2.002
 2238SOL    HW2 7614   5.837   3.958   1.862
 2239SOL     OW 7615   4.784   6.605   3.085
 2239SOL    HW1 7616   4.871   6.650   3.106
 2239SOL    HW2 7617   4.731   6.663   3.024
 2240SOL     OW 7618   5.031   4.886   2.994
 2240SOL    HW1 7619   5.067   4.872   3.087
 2240SOL    HW2 7620   5.013   4.984   2.980
 2241SOL     OW 7621   0.439   1.410   1.678
 2241SOL    HW1 7622   0.511   1.342   1.663
 2241SOL    HW2 7623   0.467   1.498   1.639
 2242SOL     OW 7624   5.107   2.563   3.413
 2242SOL    HW1 7625   5.115   2.629   3.338
 2242SOL    HW2 7626   5.175   2.490   3.399
 2243SOL     OW 7627   2.087   6.692   0.738
 2243SOL    HW1 7628   2.030   6.751   0.796
 2243SOL    HW2 7629   2.099   6.603   0.783
 2244SOL     OW 7630   2.448   0.809   0.484
 2244SOL    HW1 7631   2.514   0.734   0.484
 2244SOL    HW2 7632   2.371   0.786   0.543
 2245SOL     OW 7633   0.181   0.549   6.871
 2245SOL    HW1 7634   0.127   0.518   6.793
 2245SOL    HW2 7635   0.137   0.520   6.956
 2246SOL     OW 7636   2.780   1.178   5.274
 2246SOL    HW1 7637   2.815   1.268   5.302
 2246SOL    HW2 7638   2.683   1.186   5.250
 2247SOL     OW 7639   3.007   3.430   2.598
 2247SOL    HW1 7640   2.957   3.445   2.683
 2247SOL    HW2 7641   3.045   3.337   2.597
 2248SOL     OW 7642   4.786   4.037   5.099
 2248SOL    HW1 7643   4.733   4.107   5.145
 2248SOL    HW2 7644   4.782   3.951   5.151
 2249SOL     OW 7645   1.351   6.189   3.373
 2249SOL    HW1 7646   1.394   6.275   3.399
 2249SOL    HW2 7647   1.276   6.206   3.309
 2250SOL     OW 7648   4.578   5.444   6.282
 2250SOL    HW1 7649   4.585   5.447   6.381
 2250SOL    HW2 7650   4.661   5.483   6.242
 2251SOL     OW 7651   5.845   6.385   5.593
 2251SOL    HW1 7652   5.863   6.289   5.575
 2251SOL    HW2 7653   5.835   6.400   5.691
 2252SOL     OW 7654   4.137   1.836   2.885
 2252SOL    HW1 7655   4.152   1.738   2.871
 2252SOL    HW2 7656   4.051   1.850   2.933
 2253SOL     OW 7657   0.344   3.394   1.349
 2253SOL    HW1 7658   0.413   3.402   1.420
 2253SOL    HW2 7659   0.257   3.428   1.383
 2254SOL     OW 7660   3.960   3.512   2.689
 2254SOL    HW1 7661   3.998   3.597   2.727
 2254SOL    HW2 7662   3.945   3.447   2.763
 2255SOL     OW 7663   2.894   3.277   6.391
 2255SOL    HW1 7664   2.966   3.279   6.323
 2255SOL    HW2 7665   2.831   3.353   6.376
 2256SOL     OW 7666   5.110   0.096   1.448
 2256SOL    HW1 7667   5.099   0.094   1.349
 2256SOL    HW2 7668   5.186   0.157   1.472
 2257SOL     OW 7669   0.502   1.286   5.261
 2257SOL    HW1 7670   0.548   1.328   5.183
 2257SOL    HW2 7671   0.404   1.309   5.258
 2258SOL     OW 7672   2.217   5.545   4.033
 2258SOL    HW1 7673   2.128   5.527   3.991
 2258SOL    HW2 7674   2.287   5.547   3.962
 2259SOL     OW 7675   5.963   2.398   4.752
 2259SOL    HW1 7676   6.052   2.428   4.788
 2259SOL    HW2 7677   5.975   2.315   4.698
 2260SOL     OW 7678   0.868   4.147   1.160
 2260SOL    HW1 7679   0.964   4.159   1.185
 2260SOL    HW2 7680   0.847   4.206   1.081
 2261SOL     OW 7681   5.376   4.025   6.814
 2261SOL    HW1 7682   5.326   4.111   6.804
 2261SOL    HW2 7683   5.404   3.993   6.723
 2262SOL     OW 7684   6.759   0.424   4.763
 2262SOL    HW1 7685   6.823   0.366   4.813
 2262SOL    HW2 7686   6.734   0.503   4.819
 2263SOL     OW 7687   2.246   4.234   6.532
 2263SOL    HW1 7688   2.314   4.290   6.579
 2263SOL    HW2 7689   2.154   4.262   6.562
 2264SOL     OW 7690   2.378   6.897   5.612
 2264SOL    HW1 7691   2.476   6.904   5.594
 2264SOL    HW2 7692   2.328   6.953   5.547
 2265SOL     OW 7693   0.508   6.368   4.548
 2265SOL    HW1 7694   0.466   6.430   4.614
 2265SOL    HW2 7695   0.575   6.418   4.492
 2266SOL     OW 7696   3.691   2.444   6.979
 2266SOL    HW1 7697   3.709   2.537   7.013
 2266SOL    HW2 7698   3.768   2.385   7.001
 2267SOL     OW 7699   4.835   2.431   4.204
 2267SOL    HW1 7700   4.927   2.449   4.238
 2267SOL    HW2 7701   4.775   2.508   4.227
 2268SOL     OW 7702   0.855   5.867   5.002
 2268SOL    HW1 7703   0.937   5.831   4.956
 2268SOL    HW2 7704   0.778   5.807   4.984
 2269SOL     OW 7705   1.752   2.412   5.134
 2269SOL    HW1 7706   1.763   2.464   5.218
 2269SOL    HW2 7707   1.684   2.457   5.076
 2270SOL     OW 7708   5.177   1.862   5.904
 2270SOL    HW1 7709   5.105   1.836   5.839
 2270SOL    HW2 7710   5.210   1.953   5.882
 2271SOL     OW 7711   5.071   5.440   5.845
 2271SOL    HW1 7712   4.981   5.458   5.803
 2271SOL    HW2 7713   5.066   5.459   5.943
 2272SOL     OW 7714   5.470   0.947   6.045
 2272SOL    HW1 7715   5.528   0.936   6.126
 2272SOL    HW2 7716   5.495   0.878   5.977
 2273SOL     OW 7717   0.932   2.452   2.909
 2273SOL    HW1 7718   0.901   2.438   3.003
 2273SOL    HW2 7719   1.028   2.425   2.902
 2274SOL     OW 7720   0.201   1.855   6.959
 2274SOL    HW1 7721   0.228   1.949   6.937
 2274SOL    HW2 7722   0.208   1.798   6.878
 2275SOL     OW 7723   5.687   4.976   3.030
 2275SOL    HW1 7724   5.707   5.074   3.037
 2275SOL    HW2 7725   5.675   4.938   3.122
 2276SOL     OW 7726   1.583   2.845   1.004
 2276SOL    HW1 7727   1.502   2.792   0.980
 2276SOL    HW2 7728   1.561   2.942   1.002
 2277SOL     OW 7729   3.847   3.379   3.676
 2277SOL    HW1 7730   3.917   3.342   3.615
 2277SOL    HW2 7731   3.889   3.406   3.763
 2278SOL     OW 7732   0.329   2.814   4.126
 2278SOL    HW1 7733   0.292   2.854   4.042
 2278SOL    HW2 7734   0.426   2.796   4.115
 2279SOL     OW 7735   0.708   5.886   5.438
 2279SOL    HW1 7736   0.623   5.841   5.411
 2279SOL    HW2 7737   0.760   5.911   5.356
 2280SOL     OW 7738   5.018   1.653   5.544
 2280SOL    HW1 7739   5.061   1.732   5.501
 2280SOL    HW2 7740   5.006   1.580   5.476
 2281SOL     OW 7741   5.714   6.906   2.705
 2281SOL    HW1 7742   5.791   6.918   2.768
 2281SOL    HW2 7743   5.716   6.979   2.637
 2282SOL     OW 7744   4.124   6.331   5.027
 2282SOL    HW1 7745   4.092   6.423   5.007
 2282SOL    HW2 7746   4.113   6.312   5.125
 2283SOL     OW 7747   0.295   0.338   3.877
 2283SOL    HW1 7748   0.270   0.246   3.845
 2283SOL    HW2 7749   0.272   0.347   3.973
 2284SOL     OW 7750   1.111   2.794   6.986
 2284SOL    HW1 7751   1.107   2.702   6.947
 2284SOL    HW2 7752   1.183   2.846   6.941
 2285SOL     OW 7753   1.787   4.327   6.219
 2285SOL    HW1 7754   1.772   4.231   6.243
 2285SOL    HW2 7755   1.880   4.354   6.244
 2286SOL     OW 7756   4.881   5.624   3.790
 2286SOL    HW1 7757   4.915   5.680   3.715
 2286SOL    HW2 7758   4.915   5.660   3.877
 2287SOL     OW 7759   1.869   0.946   3.281
 2287SOL    HW1 7760   1.842   1.016   3.346
 2287SOL    HW2 7761   1.876   0.986   3.190
 2288SOL     OW 7762   0.011   6.585   2.803
 2288SOL    HW1 7763   6.931   6.598   2.789
 2288SOL    HW2 7764   0.033   6.488   2.799
 2289SOL     OW 7765   0.783   5.257   1.546
 2289SOL    HW1 7766   0.747   5.165   1.528
 2289SOL    HW2 7767   0.714   5.325   1.522
 2290SOL     OW 7768   0.331   6.031   0.462
 2290SOL    HW1 7769   0.406   6.061   0.521
 2290SOL    HW2 7770   0.353   5.941   0.424
 2291SOL     OW 7771   2.244   1.968   6.608
 2291SOL    HW1 7772   2.239   1.874   6.574
 2291SOL    HW2 7773   2.215   1.971   6.704
 2292SOL     OW 7774   1.228   1.392   5.005
 2292SOL    HW1 7775   1.214   1.396   4.906
 2292SOL    HW2 7776   1.312   1.441   5.028
 2293SOL     OW 7777   5.449   4.722   2.435
 2293SOL    HW1 7778   5.535   4.699   2.389
 2293SOL    HW2 7779   5.468   4.776   2.517
 2294SOL     OW 7780   3.450   6.385   6.859
 2294SOL    HW1 7781   3.456   6.480   6.828
 2294SOL    HW2 7782   3.372   6.341   6.815
 2295SOL     OW 7783   0.847   2.432   1.461
 2295SOL    HW1 7784   0.793   2.509   1.494
 2295SOL    HW2 7785   0.831   2.352   1.520
 2296SOL     OW 7786   3.270   6.309   0.128
 2296SOL    HW1 7787   3.343   6.338   0.190
 2296SOL    HW2 7788   3.202   6.381   0.120
 2297SOL     OW 7789   4.531   5.891   5.689
 2297SOL    HW1 7790   4.535   5.987   5.660
 2297SOL    HW2 7791   4.550   5.832   5.611
 2298SOL     OW 7792   3.839   3.079   6.981
 2298SOL    HW1 7793   3.910   3.025   6.936
 2298SOL    HW2 7794   3.826   3.046   0.055
 2299SOL     OW 7795   4.646   6.047   0.446
 2299SOL    HW1 7796   4.635   5.950   0.427
 2299SOL    HW2 7797   4.734   6.079   0.410
 2300SOL     OW 7798   1.721   5.121   1.158
 2300SOL    HW1 7799   1.792   5.144   1.225
 2300SOL    HW2 7800   1.714   5.194   1.090
 2301SOL     OW 7801   4.044   3.395   2.459
 2301SOL    HW1 7802   4.019   3.457   2.534
 2301SOL    HW2 7803   4.036   3.444   2.372
 2302SOL     OW 7804   2.710   5.378   2.825
 2302SOL    HW1 7805   2.720   5.367   2.924
 2302SOL    HW2 7806   2.796   5.409   2.786
 2303SOL     OW 7807   1.411   3.006   4.514
 2303SOL    HW1 7808   1.448   3.088   4.469
 2303SOL    HW2 7809   1.431   2.925   4.458
 2304SOL     OW 7810   2.495   1.154   3.560
 2304SOL    HW1 7811   2.531   1.109   3.642
 2304SOL    HW2 7812   2.484   1.252   3.577
 2305SOL     OW 7813   3.931   5.330   1.647
 2305SOL    HW1 7814   3.918   5.243   1.695
 2305SOL    HW2 7815   3.857   5.393   1.671
 2306SOL     OW 7816   1.027   3.295   1.143
 2306SOL    HW1 7817   1.034   3.303   1.243
 2306SOL    HW2 7818   0.934   3.265   1.119
 2307SOL     OW 7819   0.670   2.486   2.786
 2307SOL    HW1 7820   0.765   2.454   2.783
 2307SOL    HW2 7821   0.617   2.427   2.846
 2308SOL     OW 7822   0.277   0.029   0.713
 2308SOL    HW1 7823   0.255   0.113   0.763
 2308SOL    HW2 7824   0.213   0.019   0.636
 2309SOL     OW 7825   3.430   5.199   6.012
 2309SOL    HW1 7826   3.457   5.136   5.939
 2309SOL    HW2 7827   3.333   5.185   6.034
 2310SOL     OW 7828   5.613   0.728   2.249
 2310SOL    HW1 7829   5.581   0.816   2.215
 2310SOL    HW2 7830   5.587   0.718   2.345
 2311SOL     OW 7831   3.402   0.239   2.844
 2311SOL    HW1 7832   3.304   0.243   2.867
 2311SOL    HW2 7833   3.451   0.190   2.915
 2312SOL     OW 7834   3.537   1.188   2.644
 2312SOL    HW1 7835   3.620   1.133   2.639
 2312SOL    HW2 7836   3.514   1.206   2.740
 2313SOL     OW 7837   5.026   4.063   1.689
 2313SOL    HW1 7838   5.083   4.111   1.623
 2313SOL    HW2 7839   5.065   4.073   1.780
 2314SOL     OW 7840   6.293   0.111   2.970
 2314SOL    HW1 7841   6.245   0.194   2.943
 2314SOL    HW2 7842   6.245   0.069   3.048
 2315SOL     OW 7843   4.549   5.356   5.654
 2315SOL    HW1 7844   4.588   5.267   5.674
 2315SOL    HW2 7845   4.505   5.392   5.736
 2316SOL     OW 7846   3.224   1.742   6.171
 2316SOL    HW1 7847   3.224   1.681   6.250
 2316SOL    HW2 7848   3.163   1.820   6.188
 2317SOL     OW 7849   6.553   5.543   3.639
 2317SOL    HW1 7850   6.594   5.627   3.603
 2317SOL    HW2 7851   6.454   5.554   3.642
 2318SOL     OW 7852   1.827   4.751   5.010
 2318SOL    HW1 7853   1.814   4.654   4.993
 2318SOL    HW2 7854   1.924   4.772   5.014
 2319SOL     OW 7855   2.653   4.987   3.847
 2319SOL    HW1 7856   2.745   4.987   3.806
 2319SOL    HW2 7857   2.661   4.975   3.946
 2320SOL     OW 7858   1.519   3.512   5.055
 2320SOL    HW1 7859   1.597   3.515   4.992
 2320SOL    HW2 7860   1.454   3.442   5.024
 2321SOL     OW 7861   2.845   5.376   6.053
 2321SOL    HW1 7862   2.757   5.417   6.028
 2321SOL    HW2 7863   2.833   5.277   6.064
 2322SOL     OW 7864   1.037   3.522   2.166
 2322SOL    HW1 7865   1.119   3.577   2.148
 2322SOL    HW2 7866   1.032   3.448   2.100
 2323SOL     OW 7867   2.281   4.746   1.684
 2323SOL    HW1 7868   2.305   4.666   1.739
 2323SOL    HW2 7869   2.364   4.798   1.664
 2324SOL     OW 7870   0.158   5.729   1.630
 2324SOL    HW1 7871   0.065   5.742   1.664
 2324SOL    HW2 7872   0.210   5.813   1.641
 2325SOL     OW 7873   6.912   5.314   1.589
 2325SOL    HW1 7874   6.934   5.276   1.679
 2325SOL    HW2 7875   6.978   5.281   1.522
 2326SOL     OW 7876   1.089   0.835   6.486
 2326SOL    HW1 7877   1.180   0.797   6.466
 2326SOL    HW2 7878   1.092   0.880   6.576
 2327SOL     OW 7879   6.615   0.632   2.822
 2327SOL    HW1 7880   6.640   0.632   2.726
 2327SOL    HW2 7881   6.697   0.635   2.879
 2328SOL     OW 7882   2.026   2.513   2.395
 2328SOL    HW1 7883   1.964   2.480   2.467
 2328SOL    HW2 7884   2.073   2.595   2.428
 2329SOL     OW 7885   0.505   6.007   3.748
 2329SOL    HW1 7886   0.581   6.070   3.766
 2329SOL    HW2 7887   0.488   5.950   3.828
 2330SOL     OW 7888   6.196   2.733   0.222
 2330SOL    HW1 7889   6.266   2.775   0.164
 2330SOL    HW2 7890   6.227   2.644   0.253
 2331SOL     OW 7891   4.246   6.170   0.274
 2331SOL    HW1 7892   4.252   6.087   0.217
 2331SOL    HW2 7893   4.299   6.157   0.358
 2332SOL     OW 7894   5.419   6.610   6.229
 2332SOL    HW1 7895   5.400   6.528   6.283
 2332SOL    HW2 7896   5.333   6.660   6.215
 2333SOL     OW 7897   0.198   5.140   2.251
 2333SOL    HW1 7898   0.253   5.083   2.313
 2333SOL    HW2 7899   0.259   5.193   2.193
 2334SOL     OW 7900   2.618   0.857   5.541
 2334SOL    HW1 7901   2.646   0.952   5.559
 2334SOL    HW2 7902   2.519   0.849   5.550
 2335SOL     OW 7903   6.267   1.292   3.484
 2335SOL    HW1 7904   6.316   1.211   3.516
 2335SOL    HW2 7905   6.251   1.284   3.386
 2336SOL     OW 7906   2.333   1.563   2.442
 2336SOL    HW1 7907   2.418   1.613   2.423
 2336SOL    HW2 7908   2.344   1.467   2.414
 2337SOL     OW 7909   3.912   1.840   1.573
 2337SOL    HW1 7910   3.837   1.832   1.639
 2337SOL    HW2 7911   3.913   1.933   1.535
 2338SOL     OW 7912   0.455   4.035   4.148
 2338SOL    HW1 7913   0.442   4.074   4.239
 2338SOL    HW2 7914   0.368   4.037   4.098
 2339SOL     OW 7915   3.307   2.886   2.729
 2339SOL    HW1 7916   3.339   2.841   2.812
 2339SOL    HW2 7917   3.208   2.878   2.722
 2340SOL     OW 7918   1.023   5.077   6.356
 2340SOL    HW1 7919   0.941   5.133   6.366
 2340SOL    HW2 7920   1.072   5.104   6.273
 2341SOL     OW 7921   2.566   4.569   3.365
 2341SOL    HW1 7922   2.513   4.555   3.281
 2341SOL    HW2 7923   2.567   4.485   3.419
 2342SOL     OW 7924   3.217   6.894   3.957
 2342SOL    HW1 7925   3.275   6.947   4.019
 2342SOL    HW2 7926   3.270   6.819   3.918
 2343SOL     OW 7927   1.799   6.432   2.610
 2343SOL    HW1 7928   1.728   6.502   2.602
 2343SOL    HW2 7929   1.881   6.463   2.562
 2344SOL     OW 7930   6.250   4.410   1.111
 2344SOL    HW1 7931   6.258   4.360   1.024
 2344SOL    HW2 7932   6.161   4.391   1.152
 2345SOL     OW 7933   2.831   5.911   5.003
 2345SOL    HW1 7934   2.761   5.944   4.940
 2345SOL    HW2 7935   2.803   5.929   5.097
 2346SOL     OW 7936   3.819   3.833   6.221
 2346SOL    HW1 7937   3.754   3.908   6.232
 2346SOL    HW2 7938   3.843   3.823   6.124
 2347SOL     OW 7939   0.962   2.437   1.846
 2347SOL    HW1 7940   1.012   2.470   1.766
 2347SOL    HW2 7941   0.990   2.343   1.866
 2348SOL     OW 7942   0.854   5.355   3.053
 2348SOL    HW1 7943   0.949   5.344   3.082
 2348SOL    HW2 7944   0.813   5.431   3.103
 2349SOL     OW 7945   0.268   4.713   6.578
 2349SOL    HW1 7946   0.246   4.811   6.573
 2349SOL    HW2 7947   0.224   4.674   6.659
 2350SOL     OW 7948   6.638   4.354   6.316
 2350SOL    HW1 7949   6.671   4.438   6.360
 2350SOL    HW2 7950   6.648   4.277   6.379
 2351SOL     OW 7951   2.877   4.756   2.940
 2351SOL    HW1 7952   2.809   4.705   2.887
 2351SOL    HW2 7953   2.873   4.728   3.036
 2352SOL     OW 7954   0.227   3.138   3.341
 2352SOL    HW1 7955   0.187   3.049   3.318
 2352SOL    HW2 7956   0.175   3.180   3.416
 2353SOL     OW 7957   4.078   5.638   5.197
 2353SOL    HW1 7958   3.989   5.594   5.185
 2353SOL    HW2 7959   4.072   5.706   5.271
 2354SOL     OW 7960   2.652   1.584   4.145
 2354SOL    HW1 7961   2.563   1.631   4.146
 2354SOL    HW2 7962   2.718   1.638   4.093
 2355SOL     OW 7963   2.155   6.243   4.755
 2355SOL    HW1 7964   2.246   6.280   4.737
 2355SOL    HW2 7965   2.164   6.152   4.796
 2356SOL     OW 7966   0.257   3.011   6.757
 2356SOL    HW1 7967   0.205   3.021   6.842
 2356SOL    HW2 7968   0.310   2.926   6.760
 2357SOL     OW 7969   3.337   0.602   2.357
 2357SOL    HW1 7970   3.246   0.616   2.395
 2357SOL    HW2 7971   3.406   0.637   2.421
 2358SOL     OW 7972   3.621   4.703   6.437
 2358SOL    HW1 7973   3.640   4.800   6.452
 2358SOL    HW2 7974   3.522   4.688   6.440
 2359SOL     OW 7975   0.836   0.447   5.448
 2359SOL    HW1 7976   0.741   0.429   5.422
 2359SOL    HW2 7977   0.897   0.419   5.374
 2360SOL     OW 7978   6.604   3.292   0.982
 2360SOL    HW1 7979   6.666   3.352   0.932
 2360SOL    HW2 7980   6.642   3.199   0.983
 2361SOL     OW 7981   3.692   1.865   5.863
 2361SOL    HW1 7982   3.609   1.819   5.896
 2361SOL    HW2 7983   3.745   1.801   5.808
 2362SOL     OW 7984   3.341   5.248   3.660
 2362SOL    HW1 7985   3.355   5.161   3.706
 2362SOL    HW2 7986   3.412   5.261   3.591
 2363SOL     OW 7987   3.837   1.494   4.105
 2363SOL    HW1 7988   3.794   1.503   4.194
 2363SOL    HW2 7989   3.812   1.571   4.047
 2364SOL     OW 7990   1.099   2.303   1.340
 2364SOL    HW1 7991   1.170   2.331   1.276
 2364SOL    HW2 7992   1.057   2.385   1.381
 2365SOL     OW 7993   5.825   2.128   6.814
 2365SOL    HW1 7994   5.729   2.126   6.788
 2365SOL    HW2 7995   5.850   2.220   6.844
 2366SOL     OW 7996   3.893   5.293   1.063
 2366SOL    HW1 7997   3.990   5.295   1.087
 2366SOL    HW2 7998   3.868   5.201   1.035
 2367SOL     OW 7999   2.110   3.277   6.557
 2367SOL    HW1 8000   2.026   3.329   6.541
 2367SOL    HW2 8001   2.107   3.236   6.648
 2368SOL     OW 8002   5.856   6.561   3.886
 2368SOL    HW1 8003   5.784   6.615   3.929
 2368SOL    HW2 8004   5.853   6.467   3.922
 2369SOL     OW 8005   1.994   0.372   3.860
 2369SOL    HW1 8006   2.005   0.397   3.763
 2369SOL    HW2 8007   2.035   0.444   3.917
 2370SOL     OW 8008   5.603   2.916   6.657
 2370SOL    HW1 8009   5.661   2.894   6.579
 2370SOL    HW2 8010   5.630   3.004   6.696
 2371SOL     OW 8011   2.996   0.337   1.570
 2371SOL    HW1 8012   2.974   0.419   1.623
 2371SOL    HW2 8013   3.029   0.265   1.631
 2372SOL     OW 8014   6.816   2.846   2.030
 2372SOL    HW1 8015   6.736   2.787   2.024
 2372SOL    HW2 8016   6.893   2.804   1.982
 2373SOL     OW 8017   1.848   3.501   6.227
 2373SOL    HW1 8018   1.842   3.598   6.202
 2373SOL    HW2 8019   1.800   3.486   6.314
 2374SOL     OW 8020   6.197   2.455   4.884
 2374SOL    HW1 8021   6.277   2.398   4.864
 2374SOL    HW2 8022   6.186   2.464   4.983
 2375SOL     OW 8023   3.435   5.880   5.369
 2375SOL    HW1 8024   3.478   5.918   5.287
 2375SOL    HW2 8025   3.476   5.922   5.450
 2376SOL     OW 8026   6.300   2.931   3.801
 2376SOL    HW1 8027   6.227   2.917   3.869
 2376SOL    HW2 8028   6.386   2.897   3.837
 2377SOL     OW 8029   3.082   3.053   4.067
 2377SOL    HW1 8030   3.065   3.095   3.978
 2377SOL    HW2 8031   3.032   2.966   4.074
 2378SOL     OW 8032   5.469   2.511   6.512
 2378SOL    HW1 8033   5.418   2.426   6.501
 2378SOL    HW2 8034   5.462   2.566   6.428
 2379SOL     OW 8035   6.553   0.432   0.894
 2379SOL    HW1 8036   6.511   0.479   0.816
 2379SOL    HW2 8037   6.481   0.402   0.957
 2380SOL     OW 8038   5.673   2.650   1.267
 2380SOL    HW1 8039   5.719   2.568   1.235
 2380SOL    HW2 8040   5.575   2.642   1.253
 2381SOL     OW 8041   2.044   6.035   3.108
 2381SOL    HW1 8042   1.993   6.038   3.022
 2381SOL    HW2 8043   2.119   5.969   3.100
 2382SOL     OW 8044   2.129   3.205   5.042
 2382SOL    HW1 8045   2.121   3.267   5.121
 2382SOL    HW2 8046   2.211   3.148   5.053
 2383SOL     OW 8047   7.011   6.054   1.612
 2383SOL    HW1 8048   6.944   6.128   1.615
 2383SOL    HW2 8049   6.964   5.966   1.617
 2384SOL     OW 8050   4.741   2.008   1.996
 2384SOL    HW1 8051   4.644   1.995   1.976
 2384SOL    HW2 8052   4.760   1.978   2.090
 2385SOL     OW 8053   0.494   1.549   6.930
 2385SOL    HW1 8054   0.438   1.474   6.964
 2385SOL    HW2 8055   0.553   1.515   6.855
 2386SOL     OW 8056   5.320   5.664   4.819
 2386SOL    HW1 8057   5.356   5.573   4.837
 2386SOL    HW2 8058   5.224   5.657   4.792
 2387SOL     OW 8059   2.196   0.974   3.845
 2387SOL    HW1 8060   2.137   0.943   3.771
 2387SOL    HW2 8061   2.163   1.063   3.877
 2388SOL     OW 8062   6.367   2.554   3.668
 2388SOL    HW1 8063   6.420   2.537   3.584
 2388SOL    HW2 8064   6.309   2.634   3.655
 2389SOL     OW 8065   3.966   4.808   3.210
 2389SOL    HW1 8066   3.890   4.749   3.238
 2389SOL    HW2 8067   3.945   4.849   3.121
 2390SOL     OW 8068   3.612   4.121   2.755
 2390SOL    HW1 8069   3.522   4.126   2.712
 2390SOL    HW2 8070   3.675   4.073   2.693
 2391SOL     OW 8071   4.639   5.121   5.981
 2391SOL    HW1 8072   4.657   5.135   5.883
 2391SOL    HW2 8073   4.548   5.080   5.992
 2392SOL     OW 8074   3.113   0.340   6.652
 2392SOL    HW1 8075   3.127   0.321   6.749
 2392SOL    HW2 8076   3.035   0.287   6.618
 2393SOL     OW 8077   4.271   4.663   6.033
 2393SOL    HW1 8078   4.340   4.716   6.081
 2393SOL    HW2 8079   4.315   4.588   5.982
 2394SOL     OW 8080   0.256   4.164   4.705
 2394SOL    HW1 8081   0.236   4.255   4.668
 2394SOL    HW2 8082   0.343   4.167   4.754
 2395SOL     OW 8083   4.028   6.409   6.103
 2395SOL    HW1 8084   4.086   6.467   6.159
 2395SOL    HW2 8085   4.084   6.345   6.052
 2396SOL     OW 8086   4.222   4.580   0.328
 2396SOL    HW1 8087   4.318   4.566   0.353
 2396SOL    HW2 8088   4.195   4.673   0.352
 2397SOL     OW 8089   0.615   4.333   4.612
 2397SOL    HW1 8090   0.608   4.433   4.609
 2397SOL    HW2 8091   0.706   4.304   4.583
 2398SOL     OW 8092   4.555   4.731   5.924
 2398SOL    HW1 8093   4.623   4.747   5.995
 2398SOL    HW2 8094   4.569   4.640   5.885
 2399SOL     OW 8095   4.853   1.899   1.764
 2399SOL    HW1 8096   4.945   1.933   1.748
 2399SOL    HW2 8097   4.815   1.944   1.845
 2400SOL     OW 8098   2.325   4.901   0.870
 2400SOL    HW1 8099   2.368   4.983   0.907
 2400SOL    HW2 8100   2.394   4.845   0.826
 2401SOL     OW 8101   6.289   5.939   6.186
 2401SOL    HW1 8102   6.387   5.954   6.177
 2401SOL    HW2 8103   6.251   6.001   6.255
 2402SOL     OW 8104   0.408   6.843   4.421
 2402SOL    HW1 8105   0.425   6.824   4.325
 2402SOL    HW2 8106   0.361   6.765   4.463
 2403SOL     OW 8107   0.757   2.661   5.039
 2403SOL    HW1 8108   0.686   2.645   4.970
 2403SOL    HW2 8109   0.793   2.573   5.070
 2404SOL     OW 8110   1.783   0.709   0.660
 2404SOL    HW1 8111   1.845   0.680   0.733
 2404SOL    HW2 8112   1.826   0.693   0.571
 2405SOL     OW 8113   3.126   3.992   2.258
 2405SOL    HW1 8114   3.109   3.914   2.319
 2405SOL    HW2 8115   3.130   4.076   2.313
 2406SOL     OW 8116   4.492   1.715   0.470
 2406SOL    HW1 8117   4.439   1.800   0.472
 2406SOL    HW2 8118   4.588   1.736   0.452
 2407SOL     OW 8119   6.048   1.442   3.572
 2407SOL    HW1 8120   6.011   1.394   3.651
 2407SOL    HW2 8121   6.126   1.391   3.535
 2408SOL     OW 8122   4.681   4.472   1.812
 2408SOL    HW1 8123   4.658   4.533   1.736
 2408SOL    HW2 8124   4.597   4.433   1.850
 2409SOL     OW 8125   2.313   3.936   0.713
 2409SOL    HW1 8126   2.270   4.006   0.770
 2409SOL    HW2 8127   2.245   3.896   0.652
 2410SOL     OW 8128   3.329   3.166   3.369
 2410SOL    HW1 8129   3.298   3.262   3.366
 2410SOL    HW2 8130   3.428   3.164   3.385
 2411SOL     OW 8131   5.701   0.087   4.927
 2411SOL    HW1 8132   5.627   0.040   4.879
 2411SOL    HW2 8133   5.680   0.184   4.936
 2412SOL     OW 8134   4.754   3.318   0.867
 2412SOL    HW1 8135   4.849   3.345   0.877
 2412SOL    HW2 8136   4.732   3.245   0.932
 2413SOL     OW 8137   5.348   0.887   1.915
 2413SOL    HW1 8138   5.389   0.817   1.856
 2413SOL    HW2 8139   5.332   0.848   2.006
 2414SOL     OW 8140   4.896   3.299   3.893
 2414SOL    HW1 8141   4.850   3.276   3.808
 2414SOL    HW2 8142   4.973   3.237   3.908
 2415SOL     OW 8143   4.601   1.308   3.283
 2415SOL    HW1 8144   4.594   1.250   3.202
 2415SOL    HW2 8145   4.681   1.368   3.274
 2416SOL     OW 8146   4.918   1.441   5.727
 2416SOL    HW1 8147   4.975   1.366   5.763
 2416SOL    HW2 8148   4.976   1.505   5.677
 2417SOL     OW 8149   3.099   3.024   4.666
 2417SOL    HW1 8150   3.076   3.099   4.603
 2417SOL    HW2 8151   3.152   2.955   4.617
 2418SOL     OW 8152   3.423   2.849   2.966
 2418SOL    HW1 8153   3.439   2.871   3.062
 2418SOL    HW2 8154   3.504   2.806   2.927
 2419SOL     OW 8155   0.468   0.086   2.658
 2419SOL    HW1 8156   0.435   0.129   2.574
 2419SOL    HW2 8157   0.485   7.008   2.641
 2420SOL     OW 8158   2.353   6.919   1.556
 2420SOL    HW1 8159   2.375   6.848   1.623
 2420SOL    HW2 8160   2.373   7.009   1.595
 2421SOL     OW 8161   2.291   2.147   5.003
 2421SOL    HW1 8162   2.266   2.233   4.958
 2421SOL    HW2 8163   2.336   2.166   5.090
 2422SOL     OW 8164   5.109   1.634   0.936
 2422SOL    HW1 8165   5.139   1.548   0.896
 2422SOL    HW2 8166   5.031   1.669   0.884
 2423SOL     OW 8167   2.215   5.688   2.664
 2423SOL    HW1 8168   2.298   5.667   2.716
 2423SOL    HW2 8169   2.219   5.643   2.575
 2424SOL     OW 8170   5.848   0.809   0.478
 2424SOL    HW1 8171   5.846   0.728   0.420
 2424SOL    HW2 8172   5.821   0.784   0.571
 2425SOL     OW 8173   6.635   0.310   4.269
 2425SOL    HW1 8174   6.720   0.315   4.218
 2425SOL    HW2 8175   6.562   0.276   4.210
 2426SOL     OW 8176   2.387   4.774   4.046
 2426SOL    HW1 8177   2.458   4.790   4.115
 2426SOL    HW2 8178   2.363   4.860   4.001
 2427SOL     OW 8179   6.066   6.870   5.906
 2427SOL    HW1 8180   6.108   6.875   5.816
 2427SOL    HW2 8181   6.078   6.957   5.954
 2428SOL     OW 8182   0.401   0.685   0.569
 2428SOL    HW1 8183   0.311   0.712   0.534
 2428SOL    HW2 8184   0.404   0.698   0.668
 2429SOL     OW 8185   5.234   6.023   2.234
 2429SOL    HW1 8186   5.198   5.930   2.246
 2429SOL    HW2 8187   5.248   6.041   2.137
 2430SOL     OW 8188   5.758   0.908   2.732
 2430SOL    HW1 8189   5.838   0.933   2.787
 2430SOL    HW2 8190   5.781   0.832   2.672
 2431SOL     OW 8191   4.167   0.545   2.088
 2431SOL    HW1 8192   4.262   0.547   2.120
 2431SOL    HW2 8193   4.161   0.488   2.006
 2432SOL     OW 8194   2.878   6.139   2.280
 2432SOL    HW1 8195   2.801   6.198   2.304
 2432SOL    HW2 8196   2.945   6.139   2.355
 2433SOL     OW 8197   4.225   0.059   0.231
 2433SOL    HW1 8198   4.198   0.147   0.193
 2433SOL    HW2 8199   4.315   0.033   0.196
 2434SOL     OW 8200   4.291   2.589   5.993
 2434SOL    HW1 8201   4.220   2.658   6.010
 2434SOL    HW2 8202   4.310   2.539   6.077
 2435SOL     OW 8203   5.875   5.485   5.056
 2435SOL    HW1 8204   5.945   5.513   4.991
 2435SOL    HW2 8205   5.853   5.388   5.042
 2436SOL     OW 8206   2.927   5.584   0.235
 2436SOL    HW1 8207   2.890   5.652   0.172
 2436SOL    HW2 8208   3.006   5.623   0.283
 2437SOL     OW 8209   0.241   0.252   6.147
 2437SOL    HW1 8210   0.301   0.176   6.172
 2437SOL    HW2 8211   0.176   0.222   6.077
 2438SOL     OW 8212   2.844   2.923   1.378
 2438SOL    HW1 8213   2.853   2.940   1.477
 2438SOL    HW2 8214   2.761   2.967   1.345
 2439SOL     OW 8215   6.175   4.469   5.304
 2439SOL    HW1 8216   6.139   4.555   5.338
 2439SOL    HW2 8217   6.217   4.417   5.378
 2440SOL     OW 8218   5.744   4.912   6.197
 2440SOL    HW1 8219   5.759   4.893   6.294
 2440SOL    HW2 8220   5.681   4.990   6.188
 2441SOL     OW 8221   5.748   2.391   1.190
 2441SOL    HW1 8222   5.739   2.308   1.135
 2441SOL    HW2 8223   5.791   2.368   1.278
 2442SOL     OW 8224   6.799   3.633   4.511
 2442SOL    HW1 8225   6.892   3.597   4.505
 2442SOL    HW2 8226   6.791   3.692   4.591
 2443SOL     OW 8227   2.911   5.122   5.807
 2443SOL    HW1 8228   2.842   5.183   5.766
 2443SOL    HW2 8229   2.865   5.048   5.856
 2444SOL     OW 8230   2.806   3.447   5.142
 2444SOL    HW1 8231   2.726   3.396   5.172
 2444SOL    HW2 8232   2.888   3.390   5.153
 2445SOL     OW 8233   0.680   0.544   0.881
 2445SOL    HW1 8234   0.764   0.499   0.911
 2445SOL    HW2 8235   0.698   0.641   0.864
 2446SOL     OW 8236   5.664   3.485   5.967
 2446SOL    HW1 8237   5.756   3.518   5.947
 2446SOL    HW2 8238   5.608   3.489   5.884
 2447SOL     OW 8239   0.554   1.945   6.958
 2447SOL    HW1 8240   0.471   1.939   7.014
 2447SOL    HW2 8241   0.602   2.030   6.981
 2448SOL     OW 8242   0.753   0.220   4.518
 2448SOL    HW1 8243   0.712   0.129   4.519
 2448SOL    HW2 8244   0.711   0.275   4.446
 2449SOL     OW 8245   0.297   2.643   4.896
 2449SOL    HW1 8246   0.293   2.543   4.893
 2449SOL    HW2 8247   0.308   2.673   4.990
 2450SOL     OW 8248   2.108   3.408   2.263
 2450SOL    HW1 8249   2.141   3.335   2.323
 2450SOL    HW2 8250   2.185   3.450   2.215
 2451SOL     OW 8251   2.608   6.648   4.396
 2451SOL    HW1 8252   2.545   6.640   4.320
 2451SOL    HW2 8253   2.702   6.657   4.361
 2452SOL     OW 8254   1.624   2.512   4.410
 2452SOL    HW1 8255   1.549   2.485   4.350
 2452SOL    HW2 8256   1.591   2.518   4.504
 2453SOL     OW 8257   6.960   3.332   1.110
 2453SOL    HW1 8258   7.013   3.325   1.195
 2453SOL    HW2 8259   6.865   3.305   1.128
 2454SOL     OW 8260   2.354   0.657   2.602
 2454SOL    HW1 8261   2.282   0.592   2.626
 2454SOL    HW2 8262   2.443   0.612   2.608
 2455SOL     OW 8263   4.933   4.206   0.489
 2455SOL    HW1 8264   4.953   4.108   0.492
 2455SOL    HW2 8265   4.991   4.250   0.420
 2456SOL     OW 8266   3.020   6.393   1.160
 2456SOL    HW1 8267   2.941   6.418   1.104
 2456SOL    HW2 8268   3.101   6.439   1.124
 2457SOL     OW 8269   5.909   6.135   1.273
 2457SOL    HW1 8270   5.920   6.195   1.352
 2457SOL    HW2 8271   5.816   6.144   1.237
 2458SOL     OW 8272   0.432   6.041   2.846
 2458SOL    HW1 8273   0.461   5.946   2.838
 2458SOL    HW2 8274   0.336   6.050   2.821
 2459SOL     OW 8275   1.077   0.809   0.621
 2459SOL    HW1 8276   1.002   0.869   0.648
 2459SOL    HW2 8277   1.104   0.751   0.698
 2460SOL     OW 8278   3.642   5.156   1.520
 2460SOL    HW1 8279   3.560   5.197   1.480
 2460SOL    HW2 8280   3.658   5.194   1.611
 2461SOL     OW 8281   5.022   1.273   3.298
 2461SOL    HW1 8282   5.028   1.225   3.385
 2461SOL    HW2 8283   5.023   1.207   3.223
 2462SOL     OW 8284   2.436   4.614   6.299
 2462SOL    HW1 8285   2.419   4.710   6.275
 2462SOL    HW2 8286   2.424   4.557   6.218
 2463SOL     OW 8287   0.088   2.086   4.411
 2463SOL    HW1 8288   0.058   2.012   4.349
 2463SOL    HW2 8289   0.008   2.136   4.444
 2464SOL     OW 8290   1.031   3.302   1.408
 2464SOL    HW1 8291   0.989   3.375   1.463
 2464SOL    HW2 8292   1.023   3.215   1.457
 2465SOL     OW 8293   6.093   4.733   3.147
 2465SOL    HW1 8294   6.151   4.652   3.137
 2465SOL    HW2 8295   6.119   4.782   3.230
 2466SOL     OW 8296   3.464   1.783   2.169
 2466SOL    HW1 8297   3.516   1.748   2.246
 2466SOL    HW2 8298   3.373   1.812   2.200
 2467SOL     OW 8299   6.817   1.641   5.696
 2467SOL    HW1 8300   6.765   1.572   5.647
 2467SOL    HW2 8301   6.766   1.727   5.697
 2468SOL     OW 8302   6.863   4.030   0.242
 2468SOL    HW1 8303   6.793   4.014   0.173
 2468SOL    HW2 8304   6.953   4.032   0.199
 2469SOL     OW 8305   3.261   3.038   5.602
 2469SOL    HW1 8306   3.181   3.099   5.608
 2469SOL    HW2 8307   3.330   3.068   5.668
 2470SOL     OW 8308   5.627   2.896   0.652
 2470SOL    HW1 8309   5.585   2.852   0.572
 2470SOL    HW2 8310   5.623   2.995   0.641
 2471SOL     OW 8311   0.371   0.426   3.597
 2471SOL    HW1 8312   0.404   0.412   3.690
 2471SOL    HW2 8313   0.284   0.378   3.584
 2472SOL     OW 8314   5.594   1.496   3.678
 2472SOL    HW1 8315   5.535   1.573   3.654
 2472SOL    HW2 8316   5.540   1.427   3.726
 2473SOL     OW 8317   0.493   6.840   5.605
 2473SOL    HW1 8318   0.567   6.903   5.626
 2473SOL    HW2 8319   0.430   6.834   5.683
 2474SOL     OW 8320   6.255   5.722   4.717
 2474SOL    HW1 8321   6.229   5.765   4.631
 2474SOL    HW2 8322   6.219   5.776   4.793
 2475SOL     OW 8323   4.789   2.451   6.332
 2475SOL    HW1 8324   4.692   2.430   6.338
 2475SOL    HW2 8325   4.808   2.535   6.382
 2476SOL     OW 8326   0.729   1.612   3.616
 2476SOL    HW1 8327   0.822   1.583   3.593
 2476SOL    HW2 8328   0.713   1.704   3.579
 2477SOL     OW 8329   4.557   5.064   2.740
 2477SOL    HW1 8330   4.595   5.088   2.829
 2477SOL    HW2 8331   4.629   5.067   2.671
 2478SOL     OW 8332   6.491   6.849   3.452
 2478SOL    HW1 8333   6.562   6.780   3.467
 2478SOL    HW2 8334   6.531   6.929   3.408
 2479SOL     OW 8335   0.720   2.448   0.012
 2479SOL    HW1 8336   0.664   2.470   0.092
 2479SOL    HW2 8337   0.707   2.517   6.960
 2480SOL     OW 8338   0.743   4.831   2.103
 2480SOL    HW1 8339   0.806   4.761   2.071
 2480SOL    HW2 8340   0.658   4.788   2.135
 2481SOL     OW 8341   3.917   4.910   2.570
 2481SOL    HW1 8342   3.877   4.906   2.478
 2481SOL    HW2 8343   3.844   4.927   2.637
 2482SOL     OW 8344   4.842   2.423   3.909
 2482SOL    HW1 8345   4.889   2.504   3.874
 2482SOL    HW2 8346   4.852   2.419   4.009
 2483SOL     OW 8347   0.697   3.069   6.854
 2483SOL    HW1 8348   0.645   3.119   6.923
 2483SOL    HW2 8349   0.634   3.017   6.795
 2484SOL     OW 8350   3.665   3.082   6.110
 2484SOL    HW1 8351   3.716   3.130   6.181
 2484SOL    HW2 8352   3.692   3.117   6.020
 2485SOL     OW 8353   1.198   5.838   1.063
 2485SOL    HW1 8354   1.293   5.843   1.032
 2485SOL    HW2 8355   1.167   5.929   1.090
 2486SOL     OW 8356   0.730   5.126   3.290
 2486SOL    HW1 8357   0.743   5.180   3.207
 2486SOL    HW2 8358   0.702   5.033   3.266
 2487SOL     OW 8359   3.015   1.247   1.191
 2487SOL    HW1 8360   3.036   1.151   1.210
 2487SOL    HW2 8361   2.923   1.269   1.224
 2488SOL     OW 8362   3.128   6.616   6.435
 2488SOL    HW1 8363   3.054   6.554   6.411
 2488SOL    HW2 8364   3.147   6.610   6.533
 2489SOL     OW 8365   6.599   5.992   4.797
 2489SOL    HW1 8366   6.514   6.045   4.793
 2489SOL    HW2 8367   6.578   5.894   4.787
 2490SOL     OW 8368   5.490   3.260   1.737
 2490SOL    HW1 8369   5.456   3.211   1.657
 2490SOL    HW2 8370   5.414   3.305   1.784
 2491SOL     OW 8371   6.853   4.207   2.534
 2491SOL    HW1 8372   6.767   4.242   2.570
 2491SOL    HW2 8373   6.871   4.116   2.573
 2492SOL     OW 8374   4.365   1.800   6.042
 2492SOL    HW1 8375   4.275   1.787   6.085
 2492SOL    HW2 8376   4.423   1.721   6.061
 2493SOL     OW 8377   6.723   1.165   4.589
 2493SOL    HW1 8378   6.633   1.122   4.585
 2493SOL    HW2 8379   6.741   1.196   4.682
 2494SOL     OW 8380   4.434   4.383   1.236
 2494SOL    HW1 8381   4.435   4.467   1.182
 2494SOL    HW2 8382   4.479   4.399   1.324
 2495SOL     OW 8383   6.388   0.778   3.354
 2495SOL    HW1 8384   6.347   0.812   3.269
 2495SOL    HW2 8385   6.466   0.836   3.378
 2496SOL     OW 8386   1.873   5.633   6.879
 2496SOL    HW1 8387   1.970   5.622   6.900
 2496SOL    HW2 8388   1.858   5.720   6.832
 2497SOL     OW 8389   5.575   0.716   6.907
 2497SOL    HW1 8390   5.579   0.619   6.933
 2497SOL    HW2 8391   5.507   0.763   6.963
 2498SOL     OW 8392   0.391   3.151   4.908
 2498SOL    HW1 8393   0.428   3.091   4.837
 2498SOL    HW2 8394   0.459   3.220   4.931
 2499SOL     OW 8395   4.993   0.604   0.064
 2499SOL    HW1 8396   5.071   0.666   0.075
 2499SOL    HW2 8397   4.914   0.656   0.032
 2500SOL     OW 8398   4.236   3.477   6.644
 2500SOL    HW1 8399   4.312   3.476   6.578
 2500SOL    HW2 8400   4.181   3.559   6.632
 2501SOL     OW 8401   6.073   4.924   1.000
 2501SOL    HW1 8402   6.098   5.004   1.053
 2501SOL    HW2 8403   6.137   4.849   1.020
 2502SOL     OW 8404   1.045   6.493   2.775
 2502SOL    HW1 8405   0.976   6.547   2.726
 2502SOL    HW2 8406   1.116   6.554   2.810
 2503SOL     OW 8407   4.955   0.061   4.432
 2503SOL    HW1 8408   5.023   7.009   4.447
 2503SOL    HW2 8409   4.979   0.143   4.485
 2504SOL     OW 8410   2.111   4.056   2.937
 2504SOL    HW1 8411   2.015   4.080   2.928
 2504SOL    HW2 8412   2.145   4.024   2.849
 2505SOL     OW 8413   5.183   4.215   4.660
 2505SOL    HW1 8414   5.108   4.199   4.597
 2505SOL    HW2 8415   5.171   4.158   4.741
 2506SOL     OW 8416   1.105   1.800   1.023
 2506SOL    HW1 8417   1.092   1.709   1.061
 2506SOL    HW2 8418   1.114   1.866   1.098
 2507SOL     OW 8419   6.692   6.253   0.539
 2507SOL    HW1 8420   6.683   6.190   0.616
 2507SOL    HW2 8421   6.601   6.287   0.514
 2508SOL     OW 8422   2.345   2.307   1.836
 2508SOL    HW1 8423   2.416   2.374   1.816
 2508SOL    HW2 8424   2.382   2.215   1.826
 2509SOL     OW 8425   5.333   1.203   3.609
 2509SOL    HW1 8426   5.408   1.163   3.556
 2509SOL    HW2 8427   5.370   1.242   3.694
 2510SOL     OW 8428   3.968   6.258   2.144
 2510SOL    HW1 8429   4.029   6.243   2.222
 2510SOL    HW2 8430   3.900   6.328   2.167
 2511SOL     OW 8431   0.661   6.588   3.640
 2511SOL    HW1 8432   0.616   6.609   3.727
 2511SOL    HW2 8433   0.701   6.672   3.602
 2512SOL     OW 8434   5.714   2.691   4.317
 2512SOL    HW1 8435   5.733   2.609   4.371
 2512SOL    HW2 8436   5.777   2.764   4.344
 2513SOL     OW 8437   0.180   4.710   1.176
 2513SOL    HW1 8438   0.200   4.771   1.099
 2513SOL    HW2 8439   0.083   4.686   1.176
 2514SOL     OW 8440   0.559   2.782   3.186
 2514SOL    HW1 8441   0.629   2.743   3.127
 2514SOL    HW2 8442   0.572   2.881   3.191
 2515SOL     OW 8443   0.942   4.819   7.003
 2515SOL    HW1 8444   0.982   4.730   6.979
 2515SOL    HW2 8445   1.007   4.871   0.041
 2516SOL     OW 8446   5.332   6.257   4.338
 2516SOL    HW1 8447   5.393   6.181   4.362
 2516SOL    HW2 8448   5.383   6.343   4.346
 2517SOL     OW 8449   2.918   5.610   0.841
 2517SOL    HW1 8450   2.819   5.602   0.829
 2517SOL    HW2 8451   2.956   5.663   0.765
 2518SOL     OW 8452   1.931   3.012   6.446
 2518SOL    HW1 8453   1.866   2.999   6.522
 2518SOL    HW2 8454   2.014   3.056   6.481
 2519SOL     OW 8455   5.753   4.238   5.403
 2519SOL    HW1 8456   5.841   4.232   5.354
 2519SOL    HW2 8457   5.734   4.333   5.425
 2520SOL     OW 8458   3.374   5.623   1.730
 2520SOL    HW1 8459   3.330   5.669   1.807
 2520SOL    HW2 8460   3.459   5.670   1.707
 2521SOL     OW 8461   5.775   0.036   5.808
 2521SOL    HW1 8462   5.781   0.123   5.760
 2521SOL    HW2 8463   5.791   6.979   5.744
 2522SOL     OW 8464   2.217   4.606   4.159
 2522SOL    HW1 8465   2.278   4.668   4.110
 2522SOL    HW2 8466   2.258   4.515   4.163
 2523SOL     OW 8467   0.662   2.470   5.475
 2523SOL    HW1 8468   0.634   2.378   5.446
 2523SOL    HW2 8469   0.713   2.465   5.561
 2524SOL     OW 8470   1.030   0.020   5.128
 2524SOL    HW1 8471   0.994   0.050   5.216
 2524SOL    HW2 8472   1.130   0.030   5.128
 2525SOL     OW 8473   1.867   4.201   2.830
 2525SOL    HW1 8474   1.790   4.263   2.844
 2525SOL    HW2 8475   1.907   4.217   2.739
 2526SOL     OW 8476   1.234   2.644   5.019
 2526SOL    HW1 8477   1.151   2.589   5.033
 2526SOL    HW2 8478   1.266   2.632   4.925
 2527SOL     OW 8479   6.499   6.999   3.824
 2527SOL    HW1 8480   6.544   0.034   3.752
 2527SOL    HW2 8481   6.401   7.018   3.825
 2528SOL     OW 8482   5.889   5.215   0.099
 2528SOL    HW1 8483   5.916   5.133   0.149
 2528SOL    HW2 8484   5.926   5.209   0.006
 2529SOL     OW 8485   5.298   3.754   4.932
 2529SOL    HW1 8486   5.230   3.796   4.992
 2529SOL    HW2 8487   5.385   3.747   4.980
 2530SOL     OW 8488   0.594   6.224   3.963
 2530SOL    HW1 8489   0.521   6.281   3.925
 2530SOL    HW2 8490   0.664   6.208   3.894
 2531SOL     OW 8491   5.006   1.116   0.013
 2531SOL    HW1 8492   5.049   1.090   0.100
 2531SOL    HW2 8493   4.919   1.162   0.031
 2532SOL     OW 8494   0.639   4.675   6.114
 2532SOL    HW1 8495   0.564   4.718   6.165
 2532SOL    HW2 8496   0.703   4.745   6.083
 2533SOL     OW 8497   6.162   6.905   5.651
 2533SOL    HW1 8498   6.174   6.808   5.631
 2533SOL    HW2 8499   6.133   6.952   5.567
 2534SOL     OW 8500   0.044   1.669   2.827
 2534SOL    HW1 8501   0.125   1.719   2.859
 2534SOL    HW2 8502   7.000   1.654   2.903
 2535SOL     OW 8503   2.025   1.416   3.170
 2535SOL    HW1 8504   2.086   1.406   3.248
 2535SOL    HW2 8505   1.931   1.397   3.199
 2536SOL     OW 8506   0.678   0.531   3.858
 2536SOL    HW1 8507   0.649   0.436   3.848
 2536SOL    HW2 8508   0.666   0.560   3.952
 2537SOL     OW 8509   3.886   5.633   2.060
 2537SOL    HW1 8510   3.915   5.719   2.018
 2537SOL    HW2 8511   3.959   5.565   2.051
 2538SOL     OW 8512   1.259   4.545   4.983
 2538SOL    HW1 8513   1.326   4.538   4.909
 2538SOL    HW2 8514   1.270   4.633   5.029
 2539SOL     OW 8515   2.901   0.946   5.320
 2539SOL    HW1 8516   2.862   1.023   5.268
 2539SOL    HW2 8517   2.908   0.971   5.416
 2540SOL     OW 8518   5.208   1.996   2.517
 2540SOL    HW1 8519   5.270   2.042   2.453
 2540SOL    HW2 8520   5.261   1.946   2.584
 2541SOL     OW 8521   0.394   0.950   6.263
 2541SOL    HW1 8522   0.392   0.924   6.359
 2541SOL    HW2 8523   0.471   0.906   6.217
 2542SOL     OW 8524   3.787   2.080   3.572
 2542SOL    HW1 8525   3.810   2.095   3.668
 2542SOL    HW2 8526   3.706   2.021   3.566
 2543SOL     OW 8527   0.068   1.559   4.242
 2543SOL    HW1 8528   7.005   1.524   4.198
 2543SOL    HW2 8529   0.076   1.519   4.334
 2544SOL     OW 8530   6.987   6.056   1.885
 2544SOL    HW1 8531   7.008   6.062   1.788
 2544SOL    HW2 8532   6.987   6.148   1.925
 2545SOL     OW 8533   6.278   1.926   0.360
 2545SOL    HW1 8534   6.260   2.024   0.354
 2545SOL    HW2 8535   6.376   1.911   0.377
 2546SOL     OW 8536   6.313   2.918   1.821
 2546SOL    HW1 8537   6.216   2.893   1.822
 2546SOL    HW2 8538   6.345   2.934   1.914
 2547SOL     OW 8539   5.421   4.156   1.046
 2547SOL    HW1 8540   5.335   4.105   1.052
 2547SOL    HW2 8541   5.413   4.241   1.100
 2548SOL     OW 8542   6.146   0.591   5.560
 2548SOL    HW1 8543   6.098   0.619   5.643
 2548SOL    HW2 8544   6.200   0.509   5.578
 2549SOL     OW 8545   2.603   4.365   0.629
 2549SOL    HW1 8546   2.618   4.300   0.703
 2549SOL    HW2 8547   2.569   4.316   0.548
 2550SOL     OW 8548   3.832   6.195   0.531
 2550SOL    HW1 8549   3.804   6.267   0.468
 2550SOL    HW2 8550   3.752   6.162   0.581
 2551SOL     OW 8551   3.734   4.776   1.186
 2551SOL    HW1 8552   3.742   4.680   1.162
 2551SOL    HW2 8553   3.653   4.790   1.243
 2552SOL     OW 8554   2.407   4.248   1.823
 2552SOL    HW1 8555   2.469   4.176   1.853
 2552SOL    HW2 8556   2.460   4.328   1.795
 2553SOL     OW 8557   4.716   1.424   0.151
 2553SOL    HW1 8558   4.757   1.363   0.219
 2553SOL    HW2 8559   4.691   1.371   0.069
 2554SOL     OW 8560   1.740   5.247   0.913
 2554SOL    HW1 8561   1.748   5.347   0.914
 2554SOL    HW2 8562   1.648   5.222   0.884
 2555SOL     OW 8563   6.469   0.143   5.162
 2555SOL    HW1 8564   6.386   0.091   5.184
 2555SOL    HW2 8565   6.479   0.151   5.063
 2556SOL     OW 8566   4.615   6.828   0.791
 2556SOL    HW1 8567   4.592   6.864   0.700
 2556SOL    HW2 8568   4.538   6.774   0.825
 2557SOL     OW 8569   2.876   0.714   6.735
 2557SOL    HW1 8570   2.947   0.706   6.665
 2557SOL    HW2 8571   2.802   0.649   6.716
 2558SOL     OW 8572   5.454   1.830   1.639
 2558SOL    HW1 8573   5.369   1.782   1.662
 2558SOL    HW2 8574   5.466   1.908   1.699
 2559SOL     OW 8575   0.107   5.236   2.923
 2559SOL    HW1 8576   0.063   5.167   2.866
 2559SOL    HW2 8577   0.127   5.318   2.869
 2560SOL     OW 8578   5.069   2.291   2.655
 2560SOL    HW1 8579   5.039   2.223   2.721
 2560SOL    HW2 8580   4.992   2.351   2.632
 2561SOL     OW 8581   3.123   0.070   4.364
 2561SOL    HW1 8582   3.115   0.134   4.287
 2561SOL    HW2 8583   3.146   0.121   4.447
 2562SOL     OW 8584   1.410   6.843   5.294
 2562SOL    HW1 8585   1.497   6.892   5.299
 2562SOL    HW2 8586   1.404   6.777   5.369
 2563SOL     OW 8587   3.508   2.645   6.525
 2563SOL    HW1 8588   3.530   2.737   6.494
 2563SOL    HW2 8589   3.575   2.616   6.594
 2564SOL     OW 8590   1.312   2.325   0.093
 2564SOL    HW1 8591   1.406   2.312   0.063
 2564SOL    HW2 8592   1.250   2.283   0.027
 2565SOL     OW 8593   0.811   0.792   0.884
 2565SOL    HW1 8594   0.862   0.707   0.872
 2565SOL    HW2 8595   0.840   0.858   0.815
 2566SOL     OW 8596   3.018   1.029   0.959
 2566SOL    HW1 8597   3.099   1.006   1.012
 2566SOL    HW2 8598   2.936   1.002   1.009
 2567SOL     OW 8599   1.364   0.787   6.405
 2567SOL    HW1 8600   1.367   0.830   6.314
 2567SOL    HW2 8601   1.423   0.706   6.406
 2568SOL     OW 8602   2.185   5.593   1.192
 2568SOL    HW1 8603   2.175   5.500   1.155
 2568SOL    HW2 8604   2.157   5.594   1.288
 2569SOL     OW 8605   1.904   6.983   0.040
 2569SOL    HW1 8606   1.983   6.989   0.101
 2569SOL    HW2 8607   1.934   6.953   6.968
 2570SOL     OW 8608   0.662   5.983   4.465
 2570SOL    HW1 8609   0.696   6.069   4.425
 2570SOL    HW2 8610   0.715   5.961   4.547
 2571SOL     OW 8611   3.380   4.108   3.563
 2571SOL    HW1 8612   3.400   4.158   3.648
 2571SOL    HW2 8613   3.352   4.015   3.586
 2572SOL     OW 8614   2.444   4.982   2.363
 2572SOL    HW1 8615   2.466   4.946   2.454
 2572SOL    HW2 8616   2.527   5.014   2.319
 2573SOL     OW 8617   6.927   1.383   3.182
 2573SOL    HW1 8618   6.990   1.453   3.215
 2573SOL    HW2 8619   6.919   1.311   3.250
 2574SOL     OW 8620   0.528   3.343   1.923
 2574SOL    HW1 8621   0.457   3.341   1.852
 2574SOL    HW2 8622   0.618   3.334   1.880
 2575SOL     OW 8623   4.843   3.640   6.023
 2575SOL    HW1 8624   4.744   3.637   6.009
 2575SOL    HW2 8625   4.884   3.555   5.991
 2576SOL     OW 8626   1.405   7.017   3.502
 2576SOL    HW1 8627   1.411   0.001   3.402
 2576SOL    HW2 8628   1.314   0.027   3.531
 2577SOL     OW 8629   1.889   5.182   1.353
 2577SOL    HW1 8630   1.908   5.252   1.422
 2577SOL    HW2 8631   1.910   5.092   1.390
 2578SOL     OW 8632   4.595   2.190   4.553
 2578SOL    HW1 8633   4.601   2.182   4.453
 2578SOL    HW2 8634   4.502   2.170   4.582
 2579SOL     OW 8635   6.886   1.409   6.396
 2579SOL    HW1 8636   6.892   1.450   6.305
 2579SOL    HW2 8637   6.976   1.408   6.439
 2580SOL     OW 8638   1.294   1.508   5.846
 2580SOL    HW1 8639   1.225   1.519   5.918
 2580SOL    HW2 8640   1.290   1.414   5.811
 2581SOL     OW 8641   6.295   6.737   4.969
 2581SOL    HW1 8642   6.204   6.773   4.950
 2581SOL    HW2 8643   6.331   6.691   4.888
 2582SOL     OW 8644   0.406   4.993   2.702
 2582SOL    HW1 8645   0.334   5.022   2.639
 2582SOL    HW2 8646   0.483   5.057   2.697
 2583SOL     OW 8647   2.125   0.865   6.406
 2583SOL    HW1 8648   2.133   0.898   6.312
 2583SOL    HW2 8649   2.159   0.771   6.411
 2584SOL     OW 8650   4.872   0.280   2.575
 2584SOL    HW1 8651   4.917   0.211   2.631
 2584SOL    HW2 8652   4.934   0.310   2.502
 2585SOL     OW 8653   4.168   1.439   2.116
 2585SOL    HW1 8654   4.069   1.430   2.121
 2585SOL    HW2 8655   4.193   1.497   2.038
 2586SOL     OW 8656   0.100   1.270   4.423
 2586SOL    HW1 8657   0.117   1.341   4.492
 2586SOL    HW2 8658   0.060   1.190   4.468
 2587SOL     OW 8659   6.676   6.028   2.577
 2587SOL    HW1 8660   6.762   6.070   2.550
 2587SOL    HW2 8661   6.612   6.098   2.607
 2588SOL     OW 8662   5.012   0.057   2.048
 2588SOL    HW1 8663   4.963   0.107   2.119
 2588SOL    HW2 8664   4.957   6.998   2.018
 2589SOL     OW 8665   5.299   5.916   0.960
 2589SOL    HW1 8666   5.308   5.949   0.866
 2589SOL    HW2 8667   5.294   5.994   1.023
 2590SOL     OW 8668   3.184   6.359   3.145
 2590SOL    HW1 8669   3.227   6.449   3.155
 2590SOL    HW2 8670   3.096   6.369   3.099
 2591SOL     OW 8671   6.586   0.138   1.171
 2591SOL    HW1 8672   6.564   0.054   1.221
 2591SOL    HW2 8673   6.560   0.128   1.075
 2592SOL     OW 8674   3.316   4.782   1.609
 2592SOL    HW1 8675   3.358   4.814   1.524
 2592SOL    HW2 8676   3.332   4.684   1.620
 2593SOL     OW 8677   3.736   6.964   2.718
 2593SOL    HW1 8678   3.660   6.914   2.677
 2593SOL    HW2 8679   3.777   0.006   2.650
 2594SOL     OW 8680   1.279   6.064   6.485
 2594SOL    HW1 8681   1.281   6.155   6.527
 2594SOL    HW2 8682   1.188   6.047   6.446
 2595SOL     OW 8683   6.369   2.301   3.768
 2595SOL    HW1 8684   6.337   2.281   3.861
 2595SOL    HW2 8685   6.345   2.395   3.744
 2596SOL     OW 8686   4.080   2.238   1.331
 2596SOL    HW1 8687   3.998   2.288   1.302
 2596SOL    HW2 8688   4.142   2.301   1.378
 2597SOL     OW 8689   1.920   2.057   6.447
 2597SOL    HW1 8690   2.006   2.050   6.396
 2597SOL    HW2 8691   1.887   2.152   6.443
 2598SOL     OW 8692   6.316   1.516   2.665
 2598SOL    HW1 8693   6.223   1.502   2.630
 2598SOL    HW2 8694   6.314   1.518   2.764
 2599SOL     OW 8695   4.301   4.840   6.459
 2599SOL    HW1 8696   4.205   4.822   6.437
 2599SOL    HW2 8697   4.313   4.839   6.558
 2600SOL     OW 8698   6.647   2.628   4.144
 2600SOL    HW1 8699   6.730   2.683   4.151
 2600SOL    HW2 8700   6.577   2.667   4.204
 2601SOL     OW 8701   3.737   3.674   4.890
 2601SOL    HW1 8702   3.731   3.736   4.969
 2601SOL    HW2 8703   3.762   3.582   4.921
 2602SOL     OW 8704   6.388   5.733   5.775
 2602SOL    HW1 8705   6.316   5.715   5.841
 2602SOL    HW2 8706   6.361   5.697   5.685
 2603SOL     OW 8707   1.691   2.568   6.651
 2603SOL    HW1 8708   1.782   2.579   6.690
 2603SOL    HW2 8709   1.689   2.606   6.559
 2604SOL     OW 8710   5.914   1.342   0.639
 2604SOL    HW1 8711   5.937   1.360   0.543
 2604SOL    HW2 8712   5.972   1.267   0.673
 2605SOL     OW 8713   5.201   3.500   4.094
 2605SOL    HW1 8714   5.233   3.580   4.144
 2605SOL    HW2 8715   5.278   3.441   4.070
 2606SOL     OW 8716   6.761   4.353   1.227
 2606SOL    HW1 8717   6.845   4.300   1.215
 2606SOL    HW2 8718   6.730   4.344   1.321
 2607SOL     OW 8719   1.077   1.693   4.442
 2607SOL    HW1 8720   1.173   1.720   4.434
 2607SOL    HW2 8721   1.069   1.595   4.423
 2608SOL     OW 8722   5.228   0.040   0.429
 2608SOL    HW1 8723   5.182   0.049   0.518
 2608SOL    HW2 8724   5.267   0.128   0.403
 2609SOL     OW 8725   0.781   2.960   3.647
 2609SOL    HW1 8726   0.718   2.911   3.585
 2609SOL    HW2 8727   0.792   2.907   3.731
 2610SOL     OW 8728   5.720   5.504   4.698
 2610SOL    HW1 8729   5.803   5.523   4.751
 2610SOL    HW2 8730   5.681   5.416   4.727
 2611SOL     OW 8731   3.006   5.519   2.315
 2611SOL    HW1 8732   3.059   5.489   2.395
 2611SOL    HW2 8733   2.945   5.593   2.342
 2612SOL     OW 8734   6.636   0.036   4.904
 2612SOL    HW1 8735   6.636   7.010   4.814
 2612SOL    HW2 8736   6.715   0.004   4.957
 2613SOL     OW 8737   3.356   0.890   0.384
 2613SOL    HW1 8738   3.274   0.919   0.434
 2613SOL    HW2 8739   3.383   0.799   0.416
 2614SOL     OW 8740   6.060   6.048   0.058
 2614SOL    HW1 8741   6.065   5.990   6.996
 2614SOL    HW2 8742   6.094   6.139   0.036
 2615SOL     OW 8743   5.431   4.743   2.076
 2615SOL    HW1 8744   5.473   4.661   2.038
 2615SOL    HW2 8745   5.332   4.733   2.078
 2616SOL     OW 8746   4.059   3.558   2.218
 2616SOL    HW1 8747   4.139   3.595   2.172
 2616SOL    HW2 8748   3.994   3.524   2.149
 2617SOL     OW 8749   3.026   0.498   0.946
 2617SOL    HW1 8750   3.123   0.522   0.947
 2617SOL    HW2 8751   3.001   0.458   1.034
 2618SOL     OW 8752   1.291   6.925   0.351
 2618SOL    HW1 8753   1.286   6.848   0.288
 2618SOL    HW2 8754   1.351   6.996   0.314
 2619SOL     OW 8755   5.899   1.730   1.127
 2619SOL    HW1 8756   5.872   1.639   1.158
 2619SOL    HW2 8757   5.930   1.724   1.032
 2620SOL     OW 8758   1.560   5.237   3.771
 2620SOL    HW1 8759   1.515   5.324   3.788
 2620SOL    HW2 8760   1.493   5.170   3.740
 2621SOL     OW 8761   0.479   5.700   3.705
 2621SOL    HW1 8762   0.408   5.770   3.713
 2621SOL    HW2 8763   0.438   5.614   3.674
 2622SOL     OW 8764   2.397   3.005   5.849
 2622SOL    HW1 8765   2.301   2.993   5.823
 2622SOL    HW2 8766   2.455   2.992   5.769
 2623SOL     OW 8767   3.286   0.744   6.862
 2623SOL    HW1 8768   3.238   0.726   6.776
 2623SOL    HW2 8769   3.384   0.758   6.843
 2624SOL     OW 8770   6.493   1.990   3.863
 2624SOL    HW1 8771   6.539   1.923   3.921
 2624SOL    HW2 8772   6.433   2.047   3.918
 2625SOL     OW 8773   4.166   0.078   5.441
 2625SOL    HW1 8774   4.149   0.155   5.380
 2625SOL    HW2 8775   4.174   7.013   5.387
 2626SOL     OW 8776   2.620   6.985   2.666
 2626SOL    HW1 8777   2.608   0.065   2.665
 2626SOL    HW2 8778   2.673   6.957   2.586
 2627SOL     OW 8779   0.420   1.374   4.467
 2627SOL    HW1 8780   0.485   1.326   4.527
 2627SOL    HW2 8781   0.391   1.312   4.394
 2628SOL     OW 8782   4.026   6.063   6.352
 2628SOL    HW1 8783   4.111   6.114   6.339
 2628SOL    HW2 8784   3.958   6.094   6.285
 2629SOL     OW 8785   3.000   3.739   1.187
 2629SOL    HW1 8786   3.006   3.648   1.228
 2629SOL    HW2 8787   3.026   3.808   1.254
 2630SOL     OW 8788   2.637   2.384   2.065
 2630SOL    HW1 8789   2.729   2.348   2.076
 2630SOL    HW2 8790   2.614   2.386   1.968
 2631SOL     OW 8791   4.515   6.709   4.692
 2631SOL    HW1 8792   4.519   6.636   4.624
 2631SOL    HW2 8793   4.587   6.776   4.674
 2632SOL     OW 8794   5.360   1.154   1.006
 2632SOL    HW1 8795   5.284   1.111   0.956
 2632SOL    HW2 8796   5.327   1.238   1.051
 2633SOL     OW 8797   0.114   2.793   6.210
 2633SOL    HW1 8798   0.073   2.872   6.164
 2633SOL    HW2 8799   0.127   2.813   6.306
 2634SOL     OW 8800   3.123   5.244   1.363
 2634SOL    HW1 8801   3.110   5.200   1.274
 2634SOL    HW2 8802   3.057   5.208   1.428
 2635SOL     OW 8803   5.991   4.674   3.490
 2635SOL    HW1 8804   6.018   4.770   3.491
 2635SOL    HW2 8805   5.892   4.666   3.484
 2636SOL     OW 8806   6.005   7.017   4.724
 2636SOL    HW1 8807   6.007   0.094   4.753
 2636SOL    HW2 8808   6.063   6.962   4.785
 2637SOL     OW 8809   4.972   6.858   2.570
 2637SOL    HW1 8810   5.014   6.783   2.519
 2637SOL    HW2 8811   4.923   6.918   2.506
 2638SOL     OW 8812   5.092   5.755   0.845
 2638SOL    HW1 8813   5.014   5.808   0.880
 2638SOL    HW2 8814   5.176   5.787   0.889
 2639SOL     OW 8815   6.456   6.451   6.826
 2639SOL    HW1 8816   6.376   6.445   6.886
 2639SOL    HW2 8817   6.518   6.375   6.845
 2640SOL     OW 8818   5.899   6.949   6.297
 2640SOL    HW1 8819   5.853   6.979   6.380
 2640SOL    HW2 8820   5.853   6.867   6.261
 2641SOL     OW 8821   5.924   5.029   0.290
 2641SOL    HW1 8822   5.905   5.125   0.310
 2641SOL    HW2 8823   5.970   4.987   0.368
 2642SOL     OW 8824   6.601   0.185   3.623
 2642SOL    HW1 8825   6.624   0.243   3.544
 2642SOL    HW2 8826   6.518   0.219   3.666
 2643SOL     OW 8827   1.388   0.927   2.074
 2643SOL    HW1 8828   1.402   0.849   2.136
 2643SOL    HW2 8829   1.292   0.930   2.047
 2644SOL     OW 8830   6.945   5.674   5.663
 2644SOL    HW1 8831   7.007   5.625   5.602
 2644SOL    HW2 8832   6.866   5.616   5.684
 2645SOL     OW 8833   5.846   5.416   6.084
 2645SOL    HW1 8834   5.799   5.357   6.149
 2645SOL    HW2 8835   5.809   5.509   6.092
 2646SOL     OW 8836   6.194   6.268   6.983
 2646SOL    HW1 8837   6.169   6.347   6.927
 2646SOL    HW2 8838   6.264   6.295   0.031
 2647SOL     OW 8839   3.352   3.072   0.461
 2647SOL    HW1 8840   3.424   3.091   0.394
 2647SOL    HW2 8841   3.391   3.024   0.539
 2648SOL     OW 8842   3.886   0.954   3.688
 2648SOL    HW1 8843   3.791   0.971   3.711
 2648SOL    HW2 8844   3.919   1.027   3.628
 2649SOL     OW 8845   3.444   2.737   5.294
 2649SOL    HW1 8846   3.379   2.813   5.290
 2649SOL    HW2 8847   3.394   2.652   5.307
 2650SOL     OW 8848   6.869   6.405   2.358
 2650SOL    HW1 8849   6.838   6.483   2.304
 2650SOL    HW2 8850   6.860   6.321   2.304
 2651SOL     OW 8851   0.623   0.100   3.710
 2651SOL    HW1 8852   0.718   0.129   3.698
 2651SOL    HW2 8853   0.589   0.061   3.625
 2652SOL     OW 8854   3.271   3.220   2.842
 2652SOL    HW1 8855   3.233   3.230   2.750
 2652SOL    HW2 8856   3.351   3.161   2.840
 2653SOL     OW 8857   6.257   5.410   0.200
 2653SOL    HW1 8858   6.315   5.455   0.268
 2653SOL    HW2 8859   6.199   5.343   0.245
 2654SOL     OW 8860   5.745   1.514   5.906
 2654SOL    HW1 8861   5.747   1.479   5.999
 2654SOL    HW2 8862   5.838   1.518   5.869
 2655SOL     OW 8863   4.515   5.409   5.388
 2655SOL    HW1 8864   4.419   5.414   5.362
 2655SOL    HW2 8865   4.523   5.393   5.486
 2656SOL     OW 8866   5.217   3.612   4.446
 2656SOL    HW1 8867   5.279   3.618   4.368
 2656SOL    HW2 8868   5.191   3.517   4.461
 2657SOL     OW 8869   3.054   2.170   5.932
 2657SOL    HW1 8870   3.039   2.214   6.021
 2657SOL    HW2 8871   3.019   2.077   5.934
 2658SOL     OW 8872   5.730   4.515   5.430
 2658SOL    HW1 8873   5.752   4.548   5.338
 2658SOL    HW2 8874   5.814   4.510   5.484
 2659SOL     OW 8875   6.592   1.837   2.878
 2659SOL    HW1 8876   6.511   1.781   2.899
 2659SOL    HW2 8877   6.575   1.889   2.794
 2660SOL     OW 8878   6.577   1.998   2.635
 2660SOL    HW1 8879   6.627   2.070   2.683
 2660SOL    HW2 8880   6.520   2.039   2.563
 2661SOL     OW 8881   3.628   6.659   1.967
 2661SOL    HW1 8882   3.608   6.727   1.897
 2661SOL    HW2 8883   3.723   6.668   1.997
 2662SOL     OW 8884   3.860   0.037   3.539
 2662SOL    HW1 8885   3.877   0.032   3.637
 2662SOL    HW2 8886   3.803   6.979   3.511
 2663SOL     OW 8887   0.853   4.452   3.364
 2663SOL    HW1 8888   0.778   4.500   3.317
 2663SOL    HW2 8889   0.839   4.457   3.463
 2664SOL     OW 8890   4.202   3.763   1.750
 2664SOL    HW1 8891   4.267   3.837   1.733
 2664SOL    HW2 8892   4.133   3.794   1.816
 2665SOL     OW 8893   4.442   1.088   4.824
 2665SOL    HW1 8894   4.461   1.078   4.727
 2665SOL    HW2 8895   4.467   1.004   4.873
 2666SOL     OW 8896   4.998   6.069   2.040
 2666SOL    HW1 8897   4.988   6.017   2.124
 2666SOL    HW2 8898   4.921   6.050   1.979
 2667SOL     OW 8899   1.511   4.842   3.644
 2667SOL    HW1 8900   1.457   4.923   3.618
 2667SOL    HW2 8901   1.540   4.851   3.739
 2668SOL     OW 8902   6.059   2.545   5.895
 2668SOL    HW1 8903   6.113   2.462   5.912
 2668SOL    HW2 8904   6.113   2.608   5.838
 2669SOL     OW 8905   4.241   5.470   5.549
 2669SOL    HW1 8906   4.197   5.385   5.578
 2669SOL    HW2 8907   4.233   5.538   5.623
 2670SOL     OW 8908   1.952   7.000   5.680
 2670SOL    HW1 8909   2.020   6.999   5.606
 2670SOL    HW2 8910   1.874   0.036   5.653
 2671SOL     OW 8911   3.358   4.423   5.970
 2671SOL    HW1 8912   3.333   4.327   5.958
 2671SOL    HW2 8913   3.289   4.481   5.927
 2672SOL     OW 8914   1.021   4.210   0.654
 2672SOL    HW1 8915   1.074   4.161   0.724
 2672SOL    HW2 8916   1.024   4.158   0.568
 2673SOL     OW 8917   4.531   2.278   4.007
 2673SOL    HW1 8918   4.432   2.266   4.015
 2673SOL    HW2 8919   4.556   2.370   4.036
 2674SOL     OW 8920   5.939   5.256   5.456
 2674SOL    HW1 8921   6.035   5.236   5.438
 2674SOL    HW2 8922   5.905   5.321   5.388
 2675SOL     OW 8923   0.413   3.811   5.057
 2675SOL    HW1 8924   0.348   3.793   4.983
 2675SOL    HW2 8925   0.486   3.871   5.024
 2676SOL     OW 8926   4.490   0.572   2.123
 2676SOL    HW1 8927   4.479   0.474   2.137
 2676SOL    HW2 8928   4.499   0.618   2.211
 2677SOL     OW 8929   2.848   4.784   2.377
 2677SOL    HW1 8930   2.752   4.755   2.385
 2677SOL    HW2 8931   2.874   4.787   2.280
 2678SOL     OW 8932   0.144   6.393   6.473
 2678SOL    HW1 8933   0.122   6.296   6.474
 2678SOL    HW2 8934   0.113   6.436   6.557
 2679SOL     OW 8935   2.820   4.949   1.060
 2679SOL    HW1 8936   2.907   4.899   1.061
 2679SOL    HW2 8937   2.749   4.891   1.100
 2680SOL     OW 8938   1.371   2.075   2.129
 2680SOL    HW1 8939   1.321   1.988   2.124
 2680SOL    HW2 8940   1.470   2.056   2.130
 2681SOL     OW 8941   1.662   1.451   2.770
 2681SOL    HW1 8942   1.673   1.477   2.674
 2681SOL    HW2 8943   1.606   1.519   2.817
 2682SOL     OW 8944   6.645   2.452   3.614
 2682SOL    HW1 8945   6.659   2.381   3.683
 2682SOL    HW2 8946   6.613   2.536   3.659
 2683SOL     OW 8947   1.684   0.232   1.877
 2683SOL    HW1 8948   1.688   0.162   1.948
 2683SOL    HW2 8949   1.723   0.196   1.792
 2684SOL     OW 8950   2.610   5.709   3.064
 2684SOL    HW1 8951   2.680   5.767   3.107
 2684SOL    HW2 8952   2.652   5.621   3.039
 2685SOL     OW 8953   5.851   6.171   5.263
 2685SOL    HW1 8954   5.862   6.172   5.362
 2685SOL    HW2 8955   5.825   6.079   5.233
 2686SOL     OW 8956   1.138   3.102   4.587
 2686SOL    HW1 8957   1.134   3.194   4.625
 2686SOL    HW2 8958   1.231   3.068   4.590
 2687SOL     OW 8959   4.797   4.697   3.363
 2687SOL    HW1 8960   4.724   4.763   3.377
 2687SOL    HW2 8961   4.790   4.658   3.271
 2688SOL     OW 8962   3.917   5.136   5.743
 2688SOL    HW1 8963   4.000   5.151   5.798
 2688SOL    HW2 8964   3.863   5.063   5.784
 2689SOL     OW 8965   0.335   3.170   3.968
 2689SOL    HW1 8966   0.326   3.118   3.884
 2689SOL    HW2 8967   0.396   3.122   4.031
 2690SOL     OW 8968   2.927   3.295   3.090
 2690SOL    HW1 8969   2.971   3.220   3.042
 2690SOL    HW2 8970   2.948   3.289   3.188
 2691SOL     OW 8971   1.495   5.736   1.307
 2691SOL    HW1 8972   1.540   5.822   1.282
 2691SOL    HW2 8973   1.464   5.741   1.402
 2692SOL     OW 8974   6.959   5.585   3.128
 2692SOL    HW1 8975   6.902   5.536   3.062
 2692SOL    HW2 8976   6.987   5.523   3.201
 2693SOL     OW 8977   1.746   3.595   3.178
 2693SOL    HW1 8978   1.824   3.632   3.229
 2693SOL    HW2 8979   1.663   3.605   3.232
 2694SOL     OW 8980   2.205   0.774   2.825
 2694SOL    HW1 8981   2.294   0.786   2.870
 2694SOL    HW2 8982   2.220   0.751   2.729
 2695SOL     OW 8983   4.035   2.128   3.122
 2695SOL    HW1 8984   3.990   2.061   3.063
 2695SOL    HW2 8985   3.976   2.149   3.200
 2696SOL     OW 8986   4.275   3.634   5.215
 2696SOL    HW1 8987   4.241   3.712   5.268
 2696SOL    HW2 8988   4.375   3.631   5.221
 2697SOL     OW 8989   2.399   1.922   4.265
 2697SOL    HW1 8990   2.435   1.906   4.357
 2697SOL    HW2 8991   2.331   1.995   4.268
 2698SOL     OW 8992   2.375   3.408   6.568
 2698SOL    HW1 8993   2.399   3.501   6.540
 2698SOL    HW2 8994   2.277   3.392   6.554
 2699SOL     OW 8995   2.887   5.733   2.439
 2699SOL    HW1 8996   2.971   5.782   2.462
 2699SOL    HW2 8997   2.863   5.671   2.513
 2700SOL     OW 8998   1.273   3.928   2.840
 2700SOL    HW1 8999   1.195   3.960   2.785
 2700SOL    HW2 9000   1.291   3.993   2.914
 2701SOL     OW 9001   3.122   0.169   5.909
 2701SOL    HW1 9002   3.171   0.119   5.981
 2701SOL    HW2 9003   3.148   0.265   5.912
 2702SOL     OW 9004   7.000   6.910   2.764
 2702SOL    HW1 9005   0.014   6.875   2.677
 2702SOL    HW2 9006   0.040   6.876   2.838
 2703SOL     OW 9007   1.273   1.718   3.094
 2703SOL    HW1 9008   1.225   1.638   3.058
 2703SOL    HW2 9009   1.303   1.700   3.187
 2704SOL     OW 9010   1.851   5.887   0.407
 2704SOL    HW1 9011   1.899   5.948   0.343
 2704SOL    HW2 9012   1.880   5.792   0.391
 2705SOL     OW 9013   0.254   4.886   2.462
 2705SOL    HW1 9014   0.222   4.830   2.385
 2705SOL    HW2 9015   0.231   4.840   2.548
 2706SOL     OW 9016   6.870   2.192   2.020
 2706SOL    HW1 9017   6.797   2.154   2.076
 2706SOL    HW2 9018   6.857   2.163   1.925
 2707SOL     OW 9019   1.969   1.660   5.979
 2707SOL    HW1 9020   2.008   1.751   5.964
 2707SOL    HW2 9021   2.019   1.615   6.053
 2708SOL     OW 9022   1.897   3.755   0.357
 2708SOL    HW1 9023   1.902   3.722   0.262
 2708SOL    HW2 9024   1.853   3.685   0.413
 2709SOL     OW 9025   4.348   0.026   1.596
 2709SOL    HW1 9026   4.345   0.110   1.650
 2709SOL    HW2 9027   4.265   0.018   1.541
 2710SOL     OW 9028   6.046   4.257   2.503
 2710SOL    HW1 9029   6.137   4.293   2.522
 2710SOL    HW2 9030   5.977   4.327   2.521
 2711SOL     OW 9031   1.281   6.664   1.692
 2711SOL    HW1 9032   1.224   6.723   1.634
 2711SOL    HW2 9033   1.313   6.586   1.638
 2712SOL     OW 9034   3.125   5.399   1.683
 2712SOL    HW1 9035   3.224   5.386   1.695
 2712SOL    HW2 9036   3.081   5.310   1.672
 2713SOL     OW 9037   2.153   2.356   4.919
 2713SOL    HW1 9038   2.112   2.404   4.996
 2713SOL    HW2 9039   2.084   2.300   4.873
 2714SOL     OW 9040   5.578   6.653   5.664
 2714SOL    HW1 9041   5.540   6.623   5.752
 2714SOL    HW2 9042   5.643   6.727   5.680
 2715SOL     OW 9043   6.910   0.405   7.000
 2715SOL    HW1 9044   6.845   0.337   0.016
 2715SOL    HW2 9045   6.860   0.480   6.956
 2716SOL     OW 9046   0.305   6.668   2.753
 2716SOL    HW1 9047   0.309   6.706   2.661
 2716SOL    HW2 9048   0.214   6.631   2.771
 2717SOL     OW 9049   1.233   0.812   2.706
 2717SOL    HW1 9050   1.322   0.844   2.737
 2717SOL    HW2 9051   1.224   0.714   2.724
 2718SOL     OW 9052   1.057   4.524   3.152
 2718SOL    HW1 9053   1.030   4.475   3.235
 2718SOL    HW2 9054   1.078   4.458   3.079
 2719SOL     OW 9055   4.019   4.823   2.819
 2719SOL    HW1 9056   3.940   4.815   2.879
 2719SOL    HW2 9057   3.989   4.822   2.724
 2720SOL     OW 9058   0.429   5.882   4.007
 2720SOL    HW1 9059   0.371   5.801   4.002
 2720SOL    HW2 9060   0.485   5.877   4.090
 2721SOL     OW 9061   5.007   0.310   4.936
 2721SOL    HW1 9062   5.027   0.223   4.981
 2721SOL    HW2 9063   4.939   0.361   4.989
 2722SOL     OW 9064   1.530   5.535   1.123
 2722SOL    HW1 9065   1.482   5.458   1.165
 2722SOL    HW2 9066   1.536   5.610   1.188
 2723SOL     OW 9067   1.616   1.225   5.170
 2723SOL    HW1 9068   1.715   1.235   5.178
 2723SOL    HW2 9069   1.594   1.131   5.144
 2724SOL     OW 9070   3.031   5.546   6.567
 2724SOL    HW1 9071   3.043   5.471   6.632
 2724SOL    HW2 9072   3.119   5.570   6.528
 2725SOL     OW 9073   3.151   4.968   3.248
 2725SOL    HW1 9074   3.167   4.967   3.346
 2725SOL    HW2 9075   3.054   4.983   3.230
 2726SOL     OW 9076   4.772   6.299   2.372
 2726SOL    HW1 9077   4.803   6.348   2.291
 2726SOL    HW2 9078   4.768   6.201   2.352
 2727SOL     OW 9079   1.798   5.572   2.937
 2727SOL    HW1 9080   1.874   5.518   2.901
 2727SOL    HW2 9081   1.755   5.622   2.861
 2728SOL     OW 9082   3.698   6.819   5.216
 2728SOL    HW1 9083   3.600   6.825   5.238
 2728SOL    HW2 9084   3.714   6.863   5.127
 2729SOL     OW 9085   6.687   5.078   2.468
 2729SOL    HW1 9086   6.730   4.988   2.465
 2729SOL    HW2 9087   6.643   5.092   2.557
 2730SOL     OW 9088   1.198   4.412   1.284
 2730SOL    HW1 9089   1.152   4.463   1.212
 2730SOL    HW2 9090   1.283   4.458   1.308
 2731SOL     OW 9091   2.921   3.682   1.612
 2731SOL    HW1 9092   2.993   3.653   1.549
 2731SOL    HW2 9093   2.961   3.712   1.698
 2732SOL     OW 9094   5.404   2.423   4.091
 2732SOL    HW1 9095   5.379   2.343   4.036
 2732SOL    HW2 9096   5.373   2.410   4.185
 2733SOL     OW 9097   2.002   0.831   5.831
 2733SOL    HW1 9098   2.086   0.780   5.811
 2733SOL    HW2 9099   1.928   0.796   5.774
 2734SOL     OW 9100   2.241   6.458   3.639
 2734SOL    HW1 9101   2.198   6.382   3.687
 2734SOL    HW2 9102   2.231   6.446   3.540
 2735SOL     OW 9103   2.318   5.010   1.374
 2735SOL    HW1 9104   2.333   5.083   1.307
 2735SOL    HW2 9105   2.394   4.945   1.371
 2736SOL     OW 9106   3.585   6.905   6.617
 2736SOL    HW1 9107   3.604   6.925   6.521
 2736SOL    HW2 9108   3.629   6.973   6.675
 2737SOL     OW 9109   4.237   3.556   5.549
 2737SOL    HW1 9110   4.271   3.561   5.455
 2737SOL    HW2 9111   4.156   3.614   5.558
 2738SOL     OW 9112   6.122   4.331   4.284
 2738SOL    HW1 9113   6.056   4.400   4.253
 2738SOL    HW2 9114   6.082   4.279   4.359
 2739SOL     OW 9115   5.650   3.549   0.677
 2739SOL    HW1 9116   5.678   3.589   0.765
 2739SOL    HW2 9117   5.731   3.516   0.629
 2740SOL     OW 9118   6.706   2.644   3.288
 2740SOL    HW1 9119   6.798   2.608   3.306
 2740SOL    HW2 9120   6.653   2.575   3.239
 2741SOL     OW 9121   1.390   2.648   5.665
 2741SOL    HW1 9122   1.453   2.571   5.657
 2741SOL    HW2 9123   1.342   2.661   5.578
 2742SOL     OW 9124   2.607   6.478   5.300
 2742SOL    HW1 9125   2.603   6.464   5.398
 2742SOL    HW2 9126   2.645   6.397   5.255
 2743SOL     OW 9127   6.188   4.520   0.564
 2743SOL    HW1 9128   6.150   4.559   0.648
 2743SOL    HW2 9129   6.113   4.495   0.502
 2744SOL     OW 9130   4.284   0.251   6.881
 2744SOL    HW1 9131   4.238   0.312   6.817
 2744SOL    HW2 9132   4.381   0.275   6.885
 2745SOL     OW 9133   2.446   5.858   1.570
 2745SOL    HW1 9134   2.435   5.924   1.645
 2745SOL    HW2 9135   2.377   5.877   1.500
 2746SOL     OW 9136   1.264   2.236   6.466
 2746SOL    HW1 9137   1.213   2.176   6.528
 2746SOL    HW2 9138   1.333   2.182   6.418
 2747SOL     OW 9139   5.341   5.549   3.950
 2747SOL    HW1 9140   5.386   5.468   3.912
 2747SOL    HW2 9141   5.392   5.582   4.029
 2748SOL     OW 9142   4.140   1.429   4.866
 2748SOL    HW1 9143   4.175   1.335   4.861
 2748SOL    HW2 9144   4.197   1.482   4.928
 2749SOL     OW 9145   4.914   4.252   3.586
 2749SOL    HW1 9146   4.999   4.248   3.638
 2749SOL    HW2 9147   4.855   4.175   3.612
 2750SOL     OW 9148   0.025   6.224   1.310
 2750SOL    HW1 9149   0.035   6.155   1.382
 2750SOL    HW2 9150   0.008   6.313   1.352
 2751SOL     OW 9151   1.594   0.477   0.492
 2751SOL    HW1 9152   1.625   0.540   0.563
 2751SOL    HW2 9153   1.535   0.526   0.427
 2752SOL     OW 9154   6.478   6.335   5.853
 2752SOL    HW1 9155   6.557   6.314   5.795
 2752SOL    HW2 9156   6.507   6.343   5.948
 2753SOL     OW 9157   2.984   5.386   5.088
 2753SOL    HW1 9158   3.012   5.329   5.165
 2753SOL    HW2 9159   2.887   5.407   5.095
 2754SOL     OW 9160   0.957   5.898   4.167
 2754SOL    HW1 9161   0.901   5.979   4.148
 2754SOL    HW2 9162   0.962   5.884   4.266
 2755SOL     OW 9163   4.038   5.386   2.233
 2755SOL    HW1 9164   4.007   5.461   2.292
 2755SOL    HW2 9165   4.125   5.410   2.192
 2756SOL     OW 9166   0.056   3.609   5.130
 2756SOL    HW1 9167   0.079   3.696   5.174
 2756SOL    HW2 9168   0.066   3.618   5.031
 2757SOL     OW 9169   4.641   3.607   6.864
 2757SOL    HW1 9170   4.583   3.526   6.868
 2757SOL    HW2 9171   4.734   3.583   6.891
 2758SOL     OW 9172   0.333   6.621   1.915
 2758SOL    HW1 9173   0.359   6.526   1.897
 2758SOL    HW2 9174   0.234   6.627   1.928
 2759SOL     OW 9175   3.717   3.650   5.219
 2759SOL    HW1 9176   3.645   3.701   5.172
 2759SOL    HW2 9177   3.766   3.711   5.281
 2760SOL     OW 9178   5.852   5.898   2.425
 2760SOL    HW1 9179   5.803   5.860   2.347
 2760SOL    HW2 9180   5.950   5.905   2.403
 2761SOL     OW 9181   1.194   3.185   3.278
 2761SOL    HW1 9182   1.293   3.197   3.272
 2761SOL    HW2 9183   1.166   3.112   3.216
 2762SOL     OW 9184   3.199   2.090   0.930
 2762SOL    HW1 9185   3.159   2.040   1.007
 2762SOL    HW2 9186   3.202   2.030   0.850
 2763SOL     OW 9187   6.340   1.734   4.482
 2763SOL    HW1 9188   6.377   1.749   4.573
 2763SOL    HW2 9189   6.336   1.635   4.464
 2764SOL     OW 9190   0.071   3.257   3.161
 2764SOL    HW1 9191   7.002   3.214   3.181
 2764SOL    HW2 9192   0.141   3.220   3.222
 2765SOL     OW 9193   5.597   6.416   6.098
 2765SOL    HW1 9194   5.523   6.403   6.032
 2765SOL    HW2 9195   5.564   6.470   6.175
 2766SOL     OW 9196   4.497   6.989   0.060
 2766SOL    HW1 9197   4.586   6.944   0.066
 2766SOL    HW2 9198   4.487   0.034   0.137
 2767SOL     OW 9199   0.930   5.435   6.627
 2767SOL    HW1 9200   0.904   5.528   6.603
 2767SOL    HW2 9201   0.861   5.371   6.592
 2768SOL     OW 9202   4.189   7.005   1.213
 2768SOL    HW1 9203   4.288   6.989   1.220
 2768SOL    HW2 9204   4.152   0.007   1.303
 2769SOL     OW 9205   1.216   4.995   5.243
 2769SOL    HW1 9206   1.133   5.031   5.286
 2769SOL    HW2 9207   1.281   5.069   5.228
 2770SOL     OW 9208   2.288   6.858   0.674
 2770SOL    HW1 9209   2.271   6.927   0.745
 2770SOL    HW2 9210   2.214   6.791   0.676
 2771SOL     OW 9211   4.409   0.091   5.256
 2771SOL    HW1 9212   4.322   0.128   5.288
 2771SOL    HW2 9213   4.398   7.012   5.237
 2772SOL     OW 9214   4.595   1.554   4.049
 2772SOL    HW1 9215   4.579   1.459   4.073
 2772SOL    HW2 9216   4.663   1.559   3.976
 2773SOL     OW 9217   6.164   2.699   4.682
 2773SOL    HW1 9218   6.189   2.605   4.704
 2773SOL    HW2 9219   6.160   2.753   4.766
 2774SOL     OW 9220   5.992   1.632   3.992
 2774SOL    HW1 9221   6.044   1.549   4.014
 2774SOL    HW2 9222   5.937   1.616   3.910
 2775SOL     OW 9223   6.938   3.679   4.034
 2775SOL    HW1 9224   0.014   3.647   4.026
 2775SOL    HW2 9225   6.897   3.642   4.118
 2776SOL     OW 9226   4.811   4.716   6.021
 2776SOL    HW1 9227   4.838   4.624   6.047
 2776SOL    HW2 9228   4.886   4.780   6.041
 2777SOL     OW 9229   1.979   2.246   6.806
 2777SOL    HW1 9230   1.998   2.327   6.860
 2777SOL    HW2 9231   1.885   2.248   6.773
 2778SOL     OW 9232   2.908   0.912   6.052
 2778SOL    HW1 9233   2.889   0.992   6.110
 2778SOL    HW2 9234   2.901   0.829   6.107
 2779SOL     OW 9235   4.829   1.070   1.610
 2779SOL    HW1 9236   4.828   0.982   1.563
 2779SOL    HW2 9237   4.739   1.112   1.605
 2780SOL     OW 9238   6.797   1.220   4.853
 2780SOL    HW1 9239   6.858   1.151   4.891
 2780SOL    HW2 9240   6.836   1.311   4.866
 2781SOL     OW 9241   5.983   0.815   3.450
 2781SOL    HW1 9242   6.048   0.781   3.518
 2781SOL    HW2 9243   6.032   0.852   3.371
 2782SOL     OW 9244   5.249   0.703   5.812
 2782SOL    HW1 9245   5.333   0.699   5.867
 2782SOL    HW2 9246   5.171   0.684   5.871
 2783SOL     OW 9247   5.692   3.623   1.642
 2783SOL    HW1 9248   5.777   3.613   1.591
 2783SOL    HW2 9249   5.617   3.585   1.588
 2784SOL     OW 9250   0.242   2.952   1.030
 2784SOL    HW1 9251   0.218   2.927   0.937
 2784SOL    HW2 9252   0.242   2.870   1.087
 2785SOL     OW 9253   5.898   3.214   2.376
 2785SOL    HW1 9254   5.853   3.301   2.398
 2785SOL    HW2 9255   5.841   3.162   2.313
 2786SOL     OW 9256   1.360   6.421   0.077
 2786SOL    HW1 9257   1.437   6.473   0.114
 2786SOL    HW2 9258   1.295   6.483   0.033
 2787SOL     OW 9259   0.405   5.836   6.759
 2787SOL    HW1 9260   0.347   5.796   6.688
 2787SOL    HW2 9261   0.348   5.863   6.837
 2788SOL     OW 9262   2.420   0.017   6.557
 2788SOL    HW1 9263   2.392   0.056   6.646
 2788SOL    HW2 9264   2.348   6.976   6.523
 2789SOL     OW 9265   1.281   2.542   4.746
 2789SOL    HW1 9266   1.228   2.627   4.734
 2789SOL    HW2 9267   1.228   2.465   4.711
 2790SOL     OW 9268   0.574   5.475   1.476
 2790SOL    HW1 9269   0.491   5.437   1.516
 2790SOL    HW2 9270   0.590   5.567   1.512
 2791SOL     OW 9271   1.624   3.161   4.356
 2791SOL    HW1 9272   1.690   3.222   4.313
 2791SOL    HW2 9273   1.669   3.077   4.384
 2792SOL     OW 9274   3.658   1.554   5.997
 2792SOL    HW1 9275   3.727   1.542   5.926
 2792SOL    HW2 9276   3.690   1.621   6.064
 2793SOL     OW 9277   3.626   3.776   0.395
 2793SOL    HW1 9278   3.548   3.829   0.432
 2793SOL    HW2 9279   3.703   3.838   0.380
 2794SOL     OW 9280   1.682   2.356   0.080
 2794SOL    HW1 9281   1.657   2.433   0.138
 2794SOL    HW2 9282   1.747   2.297   0.129
 2795SOL     OW 9283   1.787   5.899   0.952
 2795SOL    HW1 9284   1.701   5.950   0.963
 2795SOL    HW2 9285   1.785   5.850   0.865
 2796SOL     OW 9286   1.620   6.037   6.748
 2796SOL    HW1 9287   1.583   5.960   6.697
 2796SOL    HW2 9288   1.709   6.062   6.710
 2797SOL     OW 9289   5.288   4.868   3.181
 2797SOL    HW1 9290   5.360   4.875   3.250
 2797SOL    HW2 9291   5.272   4.771   3.159
 2798SOL     OW 9292   5.412   1.379   1.930
 2798SOL    HW1 9293   5.348   1.302   1.922
 2798SOL    HW2 9294   5.505   1.347   1.911
 2799SOL     OW 9295   3.669   6.501   4.680
 2799SOL    HW1 9296   3.731   6.540   4.749
 2799SOL    HW2 9297   3.610   6.433   4.723
 2800SOL     OW 9298   4.688   0.463   6.242
 2800SOL    HW1 9299   4.788   0.454   6.248
 2800SOL    HW2 9300   4.651   0.386   6.191
 2801SOL     OW 9301   0.024   4.849   3.855
 2801SOL    HW1 9302   0.002   4.916   3.926
 2801SOL    HW2 9303   0.118   4.863   3.825
 2802SOL     OW 9304   1.798   5.097   4.788
 2802SOL    HW1 9305   1.715   5.131   4.743
 2802SOL    HW2 9306   1.875   5.103   4.726
 2803SOL     OW 9307   3.299   2.481   6.578
 2803SOL    HW1 9308   3.360   2.557   6.556
 2803SOL    HW2 9309   3.333   2.398   6.534
 2804SOL     OW 9310   6.674   2.914   3.359
 2804SOL    HW1 9311   6.580   2.939   3.384
 2804SOL    HW2 9312   6.677   2.817   3.336
 2805SOL     OW 9313   3.777   4.572   0.619
 2805SOL    HW1 9314   3.873   4.561   0.641
 2805SOL    HW2 9315   3.724   4.498   0.660
 2806SOL     OW 9316   0.273   2.938   5.567
 2806SOL    HW1 9317   0.318   2.923   5.479
 2806SOL    HW2 9318   0.184   2.981   5.552
 2807SOL     OW 9319   4.270   0.911   4.138
 2807SOL    HW1 9320   4.329   0.915   4.218
 2807SOL    HW2 9321   4.229   1.000   4.122
 2808SOL     OW 9322   0.768   5.587   5.787
 2808SOL    HW1 9323   0.847   5.526   5.788
 2808SOL    HW2 9324   0.761   5.634   5.875
 2809SOL     OW 9325   0.311   6.143   1.857
 2809SOL    HW1 9326   0.388   6.080   1.844
 2809SOL    HW2 9327   0.259   6.116   1.938
 2810SOL     OW 9328   1.672   6.335   2.894
 2810SOL    HW1 9329   1.678   6.242   2.930
 2810SOL    HW2 9330   1.764   6.376   2.893
 2811SOL     OW 9331   1.202   1.264   1.200
 2811SOL    HW1 9332   1.138   1.228   1.268
 2811SOL    HW2 9333   1.176   1.230   1.109
 2812SOL     OW 9334   1.340   2.267   0.359
 2812SOL    HW1 9335   1.329   2.292   0.263
 2812SOL    HW2 9336   1.375   2.173   0.365
 2813SOL     OW 9337   0.593   3.420   1.465
 2813SOL    HW1 9338   0.687   3.444   1.491
 2813SOL    HW2 9339   0.594   3.358   1.387
 2814SOL     OW 9340   2.656   4.398   6.925
 2814SOL    HW1 9341   2.748   4.387   6.887
 2814SOL    HW2 9342   2.600   4.318   6.900
 2815SOL     OW 9343   6.578   5.532   4.540
 2815SOL    HW1 9344   6.650   5.463   4.537
 2815SOL    HW2 9345   6.490   5.487   4.557
 2816SOL     OW 9346   1.022   5.365   4.740
 2816SOL    HW1 9347   1.070   5.379   4.826
 2816SOL    HW2 9348   0.924   5.354   4.758
 2817SOL     OW 9349   3.294   1.202   2.167
 2817SOL    HW1 9350   3.355   1.203   2.246
 2817SOL    HW2 9351   3.221   1.269   2.181
 2818SOL     OW 9352   1.428   0.582   0.278
 2818SOL    HW1 9353   1.328   0.583   0.282
 2818SOL    HW2 9354   1.459   0.664   0.230
 2819SOL     OW 9355   0.853   0.202   6.500
 2819SOL    HW1 9356   0.756   0.224   6.511
 2819SOL    HW2 9357   0.863   0.107   6.471
 2820SOL     OW 9358   1.331   2.051   6.951
 2820SOL    HW1 9359   1.383   2.000   7.019
 2820SOL    HW2 9360   1.383   2.131   6.922
 2821SOL     OW 9361   2.910   3.107   6.074
 2821SOL    HW1 9362   2.943   3.192   6.032
 2821SOL    HW2 9363   2.813   3.115   6.095
 2822SOL     OW 9364   4.728   2.869   0.480
 2822SOL    HW1 9365   4.749   2.858   0.577
 2822SOL    HW2 9366   4.773   2.795   0.429
 2823SOL     OW 9367   4.803   3.641   1.689
 2823SOL    HW1 9368   4.711   3.636   1.649
 2823SOL    HW2 9369   4.808   3.718   1.752
 2824SOL     OW 9370   0.821   4.598   5.146
 2824SOL    HW1 9371   0.892   4.583   5.215
 2824SOL    HW2 9372   0.801   4.512   5.099
 2825SOL     OW 9373   5.241   1.495   5.973
 2825SOL    HW1 9374   5.237   1.504   5.874
 2825SOL    HW2 9375   5.256   1.399   5.998
 2826SOL     OW 9376   2.929   3.120   6.750
 2826SOL    HW1 9377   2.972   3.157   6.668
 2826SOL    HW2 9378   2.833   3.101   6.731
 2827SOL     OW 9379   5.921   1.731   6.434
 2827SOL    HW1 9380   5.986   1.734   6.510
 2827SOL    HW2 9381   5.952   1.792   6.361
 2828SOL     OW 9382   1.440   3.777   1.141
 2828SOL    HW1 9383   1.527   3.732   1.162
 2828SOL    HW2 9384   1.457   3.852   1.077
 2829SOL     OW 9385   3.700   3.421   1.892
 2829SOL    HW1 9386   3.656   3.332   1.907
 2829SOL    HW2 9387   3.731   3.427   1.797
 2830SOL     OW 9388   2.943   5.722   4.853
 2830SOL    HW1 9389   2.938   5.814   4.894
 2830SOL    HW2 9390   2.880   5.662   4.902
 2831SOL     OW 9391   6.802   1.603   1.578
 2831SOL    HW1 9392   6.744   1.585   1.658
 2831SOL    HW2 9393   6.833   1.698   1.580
 2832SOL     OW 9394   0.773   3.816   2.439
 2832SOL    HW1 9395   0.796   3.830   2.535
 2832SOL    HW2 9396   0.728   3.728   2.428
 2833SOL     OW 9397   0.255   2.257   2.494
 2833SOL    HW1 9398   0.270   2.178   2.553
 2833SOL    HW2 9399   0.320   2.329   2.517
 2834SOL     OW 9400   3.873   0.046   3.814
 2834SOL    HW1 9401   3.911   0.125   3.861
 2834SOL    HW2 9402   3.896   6.982   3.865
 2835SOL     OW 9403   6.809   0.621   6.838
 2835SOL    HW1 9404   6.834   0.709   6.797
 2835SOL    HW2 9405   6.725   0.588   6.795
 2836SOL     OW 9406   3.312   5.564   2.929
 2836SOL    HW1 9407   3.384   5.591   2.866
 2836SOL    HW2 9408   3.240   5.634   2.931
 2837SOL     OW 9409   5.176   4.466   1.816
 2837SOL    HW1 9410   5.228   4.382   1.834
 2837SOL    HW2 9411   5.078   4.447   1.823
 2838SOL     OW 9412   6.788   3.908   6.173
 2838SOL    HW1 9413   6.701   3.949   6.147
 2838SOL    HW2 9414   6.843   3.975   6.224
 2839SOL     OW 9415   5.981   3.085   5.257
 2839SOL    HW1 9416   6.031   3.132   5.329
 2839SOL    HW2 9417   5.983   3.139   5.174
 2840SOL     OW 9418   6.183   6.310   4.567
 2840SOL    HW1 9419   6.265   6.367   4.568
 2840SOL    HW2 9420   6.133   6.323   4.652
 2841SOL     OW 9421   5.715   4.040   2.414
 2841SOL    HW1 9422   5.650   4.104   2.456
 2841SOL    HW2 9423   5.785   4.091   2.365
 2842SOL     OW 9424   0.764   6.813   3.514
 2842SOL    HW1 9425   0.699   6.882   3.482
 2842SOL    HW2 9426   0.853   6.829   3.473
 2843SOL     OW 9427   1.977   2.776   3.594
 2843SOL    HW1 9428   1.998   2.783   3.692
 2843SOL    HW2 9429   1.943   2.864   3.561
 2844SOL     OW 9430   5.155   3.327   0.635
 2844SOL    HW1 9431   5.243   3.372   0.620
 2844SOL    HW2 9432   5.114   3.304   0.547
 2845SOL     OW 9433   2.830   1.654   1.535
 2845SOL    HW1 9434   2.928   1.675   1.534
 2845SOL    HW2 9435   2.779   1.739   1.550
 2846SOL     OW 9436   6.097   0.056   0.042
 2846SOL    HW1 9437   6.073   0.057   6.964
 2846SOL    HW2 9438   6.037   0.120   0.092
 2847SOL     OW 9439   4.583   5.131   0.672
 2847SOL    HW1 9440   4.583   5.117   0.771
 2847SOL    HW2 9441   4.499   5.091   0.633
 2848SOL     OW 9442   0.438   4.162   6.185
 2848SOL    HW1 9443   0.501   4.085   6.197
 2848SOL    HW2 9444   0.491   4.246   6.170
 2849SOL     OW 9445   5.085   1.118   1.316
 2849SOL    HW1 9446   5.167   1.089   1.268
 2849SOL    HW2 9447   5.105   1.199   1.371
 2850SOL     OW 9448   1.044   0.336   1.962
 2850SOL    HW1 9449   0.998   0.253   1.930
 2850SOL    HW2 9450   1.114   0.363   1.896
 2851SOL     OW 9451   3.324   2.984   1.374
 2851SOL    HW1 9452   3.278   3.022   1.294
 2851SOL    HW2 9453   3.255   2.962   1.444
 2852SOL     OW 9454   0.589   5.508   5.542
 2852SOL    HW1 9455   0.540   5.422   5.552
 2852SOL    HW2 9456   0.660   5.515   5.612
 2853SOL     OW 9457   0.331   4.481   5.402
 2853SOL    HW1 9458   0.239   4.459   5.434
 2853SOL    HW2 9459   0.346   4.439   5.313
 2854SOL     OW 9460   2.791   0.500   5.939
 2854SOL    HW1 9461   2.850   0.440   5.993
 2854SOL    HW2 9462   2.839   0.529   5.856
 2855SOL     OW 9463   2.399   1.547   4.377
 2855SOL    HW1 9464   2.395   1.625   4.314
 2855SOL    HW2 9465   2.327   1.555   4.445
 2856SOL     OW 9466   0.296   5.731   4.284
 2856SOL    HW1 9467   0.297   5.831   4.280
 2856SOL    HW2 9468   0.230   5.701   4.353
 2857SOL     OW 9469   6.606   4.325   0.994
 2857SOL    HW1 9470   6.676   4.349   1.061
 2857SOL    HW2 9471   6.642   4.336   0.902
 2858SOL     OW 9472   5.277   4.374   2.476
 2858SOL    HW1 9473   5.313   4.393   2.385
 2858SOL    HW2 9474   5.178   4.383   2.476
 2859SOL     OW 9475   5.993   4.784   1.622
 2859SOL    HW1 9476   6.067   4.718   1.630
 2859SOL    HW2 9477   5.982   4.832   1.709
 2860SOL     OW 9478   1.285   0.292   2.863
 2860SOL    HW1 9479   1.269   0.243   2.949
 2860SOL    HW2 9480   1.242   0.242   2.788
 2861SOL     OW 9481   4.989   4.213   6.000
 2861SOL    HW1 9482   5.000   4.309   6.028
 2861SOL    HW2 9483   4.900   4.180   6.031
 2862SOL     OW 9484   4.830   1.518   0.682
 2862SOL    HW1 9485   4.880   1.585   0.736
 2862SOL    HW2 9486   4.794   1.446   0.742
 2863SOL     OW 9487   5.791   2.223   5.451
 2863SOL    HW1 9488   5.755   2.280   5.378
 2863SOL    HW2 9489   5.846   2.279   5.513
 2864SOL     OW 9490   3.705   4.299   0.873
 2864SOL    HW1 9491   3.749   4.343   0.951
 2864SOL    HW2 9492   3.685   4.203   0.896
 2865SOL     OW 9493   5.615   5.315   5.352
 2865SOL    HW1 9494   5.690   5.378   5.372
 2865SOL    HW2 9495   5.627   5.231   5.406
 2866SOL     OW 9496   3.794   4.958   0.574
 2866SOL    HW1 9497   3.760   4.969   0.480
 2866SOL    HW2 9498   3.746   4.882   0.617
 2867SOL     OW 9499   5.965   6.451   3.096
 2867SOL    HW1 9500   5.997   6.428   3.188
 2867SOL    HW2 9501   6.024   6.406   3.028
 2868SOL     OW 9502   0.212   0.154   5.841
 2868SOL    HW1 9503   0.300   0.117   5.813
 2868SOL    HW2 9504   0.191   0.236   5.788
 2869SOL     OW 9505   6.379   4.503   4.262
 2869SOL    HW1 9506   6.314   4.439   4.304
 2869SOL    HW2 9507   6.439   4.540   4.333
 2870SOL     OW 9508   7.018   1.966   1.768
 2870SOL    HW1 9509   7.008   1.884   1.823
 2870SOL    HW2 9510   0.084   2.013   1.792
 2871SOL     OW 9511   5.175   1.346   2.963
 2871SOL    HW1 9512   5.131   1.262   2.994
 2871SOL    HW2 9513   5.130   1.425   3.004
 2872SOL     OW 9514   2.494   2.062   2.544
 2872SOL    HW1 9515   2.421   2.131   2.546
 2872SOL    HW2 9516   2.462   1.979   2.589
 2873SOL     OW 9517   1.545   6.966   1.241
 2873SOL    HW1 9518   1.592   6.945   1.327
 2873SOL    HW2 9519   1.566   6.895   1.173
 2874SOL     OW 9520   2.212   1.348   3.363
 2874SOL    HW1 9521   2.307   1.377   3.351
 2874SOL    HW2 9522   2.210   1.252   3.392
 2875SOL     OW 9523   2.474   0.042   2.944
 2875SOL    HW1 9524   2.534   6.983   2.928
 2875SOL    HW2 9525   2.379   0.015   2.929
 2876SOL     OW 9526   1.564   6.126   0.982
 2876SOL    HW1 9527   1.514   6.114   0.896
 2876SOL    HW2 9528   1.508   6.177   1.047
 2877SOL     OW 9529   1.721   2.659   5.284
 2877SOL    HW1 9530   1.800   2.701   5.239
 2877SOL    HW2 9531   1.687   2.720   5.355
 2878SOL     OW 9532   4.007   3.130   4.544
 2878SOL    HW1 9533   4.074   3.176   4.485
 2878SOL    HW2 9534   4.023   3.157   4.639
 2879SOL     OW 9535   5.234   4.606   0.082
 2879SOL    HW1 9536   5.310   4.596   0.018
 2879SOL    HW2 9537   5.255   4.679   0.147
 2880SOL     OW 9538   1.864   1.387   3.658
 2880SOL    HW1 9539   1.874   1.431   3.569
 2880SOL    HW2 9540   1.825   1.452   3.724
 2881SOL     OW 9541   5.232   4.920   0.484
 2881SOL    HW1 9542   5.148   4.868   0.468
 2881SOL    HW2 9543   5.250   4.924   0.583
 2882SOL     OW 9544   4.707   6.616   0.168
 2882SOL    HW1 9545   4.732   6.711   0.148
 2882SOL    HW2 9546   4.684   6.569   0.083
 2883SOL     OW 9547   5.572   6.478   3.781
 2883SOL    HW1 9548   5.478   6.458   3.752
 2883SOL    HW2 9549   5.575   6.492   3.879
 2884SOL     OW 9550   6.285   5.533   3.551
 2884SOL    HW1 9551   6.244   5.597   3.486
 2884SOL    HW2 9552   6.327   5.457   3.501
 2885SOL     OW 9553   1.476   2.765   3.827
 2885SOL    HW1 9554   1.391   2.815   3.812
 2885SOL    HW2 9555   1.552   2.812   3.782
 2886SOL     OW 9556   2.534   4.871   5.673
 2886SOL    HW1 9557   2.554   4.931   5.751
 2886SOL    HW2 9558   2.575   4.910   5.590
 2887SOL     OW 9559   6.860   5.845   2.895
 2887SOL    HW1 9560   6.898   5.916   2.836
 2887SOL    HW2 9561   6.872   5.756   2.852
 2888SOL     OW 9562   4.982   6.964   6.260
 2888SOL    HW1 9563   5.053   6.922   6.316
 2888SOL    HW2 9564   4.921   6.893   6.225
 2889SOL     OW 9565   4.499   6.151   4.340
 2889SOL    HW1 9566   4.555   6.232   4.321
 2889SOL    HW2 9567   4.530   6.109   4.425
 2890SOL     OW 9568   1.077   2.441   0.475
 2890SOL    HW1 9569   1.090   2.342   0.475
 2890SOL    HW2 9570   0.995   2.464   0.422
 2891SOL     OW 9571   0.494   1.840   5.207
 2891SOL    HW1 9572   0.515   1.908   5.137
 2891SOL    HW2 9573   0.579   1.799   5.240
 2892SOL     OW 9574   5.400   4.608   1.776
 2892SOL    HW1 9575   5.460   4.545   1.825
 2892SOL    HW2 9576   5.305   4.593   1.804
 2893SOL     OW 9577   6.844   5.607   5.137
 2893SOL    HW1 9578   6.875   5.666   5.211
 2893SOL    HW2 9579   6.868   5.512   5.158
 2894SOL     OW 9580   2.661   5.342   1.429
 2894SOL    HW1 9581   2.727   5.400   1.477
 2894SOL    HW2 9582   2.709   5.283   1.364
 2895SOL     OW 9583   4.008   6.984   5.647
 2895SOL    HW1 9584   3.948   0.014   5.711
 2895SOL    HW2 9585   4.036   0.027   5.574
 2896SOL     OW 9586   6.231   0.372   5.062
 2896SOL    HW1 9587   6.186   0.428   5.132
 2896SOL    HW2 9588   6.286   0.430   5.003
 2897SOL     OW 9589   3.440   4.927   3.109
 2897SOL    HW1 9590   3.452   5.003   3.047
 2897SOL    HW2 9591   3.347   4.890   3.100
 2898SOL     OW 9592   4.715   2.346   2.253
 2898SOL    HW1 9593   4.686   2.257   2.288
 2898SOL    HW2 9594   4.807   2.338   2.215
 2899SOL     OW 9595   6.821   3.442   0.882
 2899SOL    HW1 9596   6.882   3.422   0.958
 2899SOL    HW2 9597   6.794   3.538   0.885
 2900SOL     OW 9598   2.318   2.596   6.172
 2900SOL    HW1 9599   2.299   2.694   6.181
 2900SOL    HW2 9600   2.346   2.575   6.078
 2901SOL     OW 9601   0.883   3.823   2.703
 2901SOL    HW1 9602   0.916   3.729   2.695
 2901SOL    HW2 9603   0.809   3.827   2.770
 2902SOL     OW 9604   5.908   5.149   3.568
 2902SOL    HW1 9605   5.815   5.188   3.572
 2902SOL    HW2 9606   5.960   5.196   3.497
 2903SOL     OW 9607   6.571   4.544   0.545
 2903SOL    HW1 9608   6.520   4.620   0.585
 2903SOL    HW2 9609   6.616   4.575   0.461
 2904SOL     OW 9610   2.478   4.533   4.825
 2904SOL    HW1 9611   2.467   4.464   4.897
 2904SOL    HW2 9612   2.424   4.507   4.745
 2905SOL     OW 9613   2.087   5.293   1.152
 2905SOL    HW1 9614   2.011   5.291   1.218
 2905SOL    HW2 9615   2.070   5.226   1.080
 2906SOL     OW 9616   6.227   6.147   5.323
 2906SOL    HW1 9617   6.166   6.225   5.335
 2906SOL    HW2 9618   6.190   6.068   5.371
 2907SOL     OW 9619   0.650   1.068   4.963
 2907SOL    HW1 9620   0.627   1.165   4.973
 2907SOL    HW2 9621   0.747   1.054   4.986
 2908SOL     OW 9622   4.147   6.971   3.543
 2908SOL    HW1 9623   4.206   0.008   3.484
 2908SOL    HW2 9624   4.056   7.011   3.546
 2909SOL     OW 9625   0.057   6.806   1.508
 2909SOL    HW1 9626   0.026   6.777   1.417
 2909SOL    HW2 9627   0.117   6.737   1.547
 2910SOL     OW 9628   0.643   1.393   4.212
 2910SOL    HW1 9629   0.711   1.360   4.278
 2910SOL    HW2 9630   0.563   1.333   4.213
 2911SOL     OW 9631   0.238   4.476   5.865
 2911SOL    HW1 9632   0.303   4.536   5.818
 2911SOL    HW2 9633   0.269   4.381   5.859
 2912SOL     OW 9634   0.809   0.929   1.385
 2912SOL    HW1 9635   0.781   0.944   1.480
 2912SOL    HW2 9636   0.859   0.843   1.378
 2913SOL     OW 9637   1.863   6.564   3.158
 2913SOL    HW1 9638   1.941   6.520   3.202
 2913SOL    HW2 9639   1.872   6.556   3.059
 2914SOL     OW 9640   3.969   4.910   1.229
 2914SOL    HW1 9641   3.895   4.850   1.196
 2914SOL    HW2 9642   3.929   4.992   1.270
 2915SOL     OW 9643   2.603   0.250   3.965
 2915SOL    HW1 9644   2.511   0.288   3.975
 2915SOL    HW2 9645   2.658   0.311   3.909
 2916SOL     OW 9646   1.196   5.688   0.119
 2916SOL    HW1 9647   1.208   5.777   0.164
 2916SOL    HW2 9648   1.286   5.643   0.111
 2917SOL     OW 9649   2.793   6.669   2.611
 2917SOL    HW1 9650   2.725   6.597   2.594
 2917SOL    HW2 9651   2.763   6.754   2.567
 2918SOL     OW 9652   5.466   2.531   1.825
 2918SOL    HW1 9653   5.485   2.619   1.782
 2918SOL    HW2 9654   5.553   2.488   1.850
 2919SOL     OW 9655   0.008   5.982   4.825
 2919SOL    HW1 9656   6.980   6.062   4.787
 2919SOL    HW2 9657   6.961   5.908   4.839
 2920SOL     OW 9658   2.748   2.209   1.483
 2920SOL    HW1 9659   2.730   2.305   1.463
 2920SOL    HW2 9660   2.841   2.199   1.521
 2921SOL     OW 9661   1.481   6.223   3.692
 2921SOL    HW1 9662   1.384   6.227   3.669
 2921SOL    HW2 9663   1.534   6.272   3.623
 2922SOL     OW 9664   4.034   5.142   4.062
 2922SOL    HW1 9665   4.030   5.043   4.056
 2922SOL    HW2 9666   4.057   5.181   3.973
 2923SOL     OW 9667   0.478   5.694   4.763
 2923SOL    HW1 9668   0.403   5.758   4.782
 2923SOL    HW2 9669   0.544   5.698   4.838
 2924SOL     OW 9670   5.504   1.881   6.191
 2924SOL    HW1 9671   5.573   1.921   6.131
 2924SOL    HW2 9672   5.502   1.782   6.179
 2925SOL     OW 9673   5.871   6.490   4.852
 2925SOL    HW1 9674   5.805   6.541   4.907
 2925SOL    HW2 9675   5.891   6.403   4.896
 2926SOL     OW 9676   6.324   2.159   4.003
 2926SOL    HW1 9677   6.226   2.144   3.993
 2926SOL    HW2 9678   6.340   2.241   4.058
 2927SOL     OW 9679   1.179   2.191   2.272
 2927SOL    HW1 9680   1.147   2.271   2.221
 2927SOL    HW2 9681   1.249   2.144   2.219
 2928SOL     OW 9682   5.808   2.963   0.121
 2928SOL    HW1 9683   5.906   2.963   0.098
 2928SOL    HW2 9684   5.773   3.056   0.120
 2929SOL     OW 9685   1.911   2.391   4.183
 2929SOL    HW1 9686   1.927   2.489   4.174
 2929SOL    HW2 9687   1.970   2.353   4.254
 2930SOL     OW 9688   0.480   3.774   4.173
 2930SOL    HW1 9689   0.549   3.738   4.236
 2930SOL    HW2 9690   0.485   3.874   4.173
 2931SOL     OW 9691   5.497   4.786   5.759
 2931SOL    HW1 9692   5.551   4.768   5.841
 2931SOL    HW2 9693   5.444   4.870   5.772
 2932SOL     OW 9694   5.943   5.092   1.518
 2932SOL    HW1 9695   5.999   5.026   1.567
 2932SOL    HW2 9696   5.994   5.178   1.508
 2933SOL     OW 9697   1.005   6.891   0.374
 2933SOL    HW1 9698   1.102   6.897   0.353
 2933SOL    HW2 9699   0.970   6.980   0.401
 2934SOL     OW 9700   4.527   5.210   1.809
 2934SOL    HW1 9701   4.578   5.147   1.867
 2934SOL    HW2 9702   4.443   5.166   1.779
 2935SOL     OW 9703   0.662   2.557   5.755
 2935SOL    HW1 9704   0.647   2.613   5.837
 2935SOL    HW2 9705   0.633   2.609   5.674
 2936SOL     OW 9706   4.934   6.884   2.254
 2936SOL    HW1 9707   5.031   6.909   2.249
 2936SOL    HW2 9708   4.911   6.823   2.179
 2937SOL     OW 9709   5.594   3.951   3.087
 2937SOL    HW1 9710   5.512   3.983   3.041
 2937SOL    HW2 9711   5.662   4.025   3.089
 2938SOL     OW 9712   0.465   5.486   6.855
 2938SOL    HW1 9713   0.479   5.583   6.871
 2938SOL    HW2 9714   0.481   5.435   6.940
 2939SOL     OW 9715   0.147   5.761   1.342
 2939SOL    HW1 9716   0.075   5.824   1.314
 2939SOL    HW2 9717   0.123   5.719   1.429
 2940SOL     OW 9718   4.882   6.583   3.700
 2940SOL    HW1 9719   4.791   6.542   3.692
 2940SOL    HW2 9720   4.951   6.515   3.673
 2941SOL     OW 9721   2.318   4.822   2.730
 2941SOL    HW1 9722   2.289   4.727   2.741
 2941SOL    HW2 9723   2.240   4.877   2.702
 2942SOL     OW 9724   3.640   2.125   1.692
 2942SOL    HW1 9725   3.675   2.180   1.768
 2942SOL    HW2 9726   3.546   2.152   1.672
 2943SOL     OW 9727   5.923   3.624   3.173
 2943SOL    HW1 9728   5.958   3.560   3.241
 2943SOL    HW2 9729   5.962   3.602   3.083
 2944SOL     OW 9730   1.874   5.861   2.294
 2944SOL    HW1 9731   1.963   5.853   2.250
 2944SOL    HW2 9732   1.821   5.934   2.250
 2945SOL     OW 9733   5.210   3.697   1.413
 2945SOL    HW1 9734   5.214   3.683   1.512
 2945SOL    HW2 9735   5.284   3.756   1.384
 2946SOL     OW 9736   3.604   2.868   4.317
 2946SOL    HW1 9737   3.658   2.884   4.235
 2946SOL    HW2 9738   3.658   2.893   4.398
 2947SOL     OW 9739   6.016   5.418   1.045
 2947SOL    HW1 9740   5.950   5.462   1.106
 2947SOL    HW2 9741   6.042   5.329   1.082
 2948SOL     OW 9742   0.065   3.735   1.838
 2948SOL    HW1 9743   0.098   3.706   1.928
 2948SOL    HW2 9744   0.128   3.802   1.799
 2949SOL     OW 9745   2.203   6.279   0.485
 2949SOL    HW1 9746   2.262   6.320   0.554
 2949SOL    HW2 9747   2.178   6.348   0.417
 2950SOL     OW 9748   6.100   5.824   2.366
 2950SOL    HW1 9749   6.139   5.779   2.446
 2950SOL    HW2 9750   6.150   5.795   2.284
 2951SOL     OW 9751   0.936   1.739   1.234
 2951SOL    HW1 9752   0.986   1.825   1.244
 2951SOL    HW2 9753   0.844   1.750   1.270
 2952SOL     OW 9754   6.901   1.929   5.346
 2952SOL    HW1 9755   6.902   2.018   5.302
 2952SOL    HW2 9756   6.910   1.940   5.445
 2953SOL     OW 9757   1.449   5.317   2.883
 2953SOL    HW1 9758   1.412   5.224   2.877
 2953SOL    HW2 9759   1.411   5.363   2.963
 2954SOL     OW 9760   0.657   4.003   6.246
 2954SOL    HW1 9761   0.749   3.999   6.284
 2954SOL    HW2 9762   0.590   3.998   6.319
 2955SOL     OW 9763   1.555   4.628   6.041
 2955SOL    HW1 9764   1.572   4.545   5.988
 2955SOL    HW2 9765   1.457   4.637   6.059
 2956SOL     OW 9766   5.300   4.645   4.325
 2956SOL    HW1 9767   5.316   4.552   4.358
 2956SOL    HW2 9768   5.224   4.687   4.376
 2957SOL     OW 9769   2.346   5.589   1.637
 2957SOL    HW1 9770   2.396   5.675   1.626
 2957SOL    HW2 9771   2.336   5.568   1.734
 2958SOL     OW 9772   1.622   4.017   2.287
 2958SOL    HW1 9773   1.607   4.007   2.385
 2958SOL    HW2 9774   1.534   4.036   2.242
 2959SOL     OW 9775   0.168   3.585   3.814
 2959SOL    HW1 9776   0.214   3.602   3.902
 2959SOL    HW2 9777   0.162   3.670   3.763
 2960SOL     OW 9778   5.210   6.779   1.258
 2960SOL    HW1 9779   5.154   6.861   1.250
 2960SOL    HW2 9780   5.231   6.744   1.167
 2961SOL     OW 9781   5.674   2.355   1.835
 2961SOL    HW1 9782   5.681   2.286   1.763
 2961SOL    HW2 9783   5.651   2.311   1.922
 2962SOL     OW 9784   6.851   0.185   3.754
 2962SOL    HW1 9785   6.893   0.275   3.766
 2962SOL    HW2 9786   6.763   0.195   3.707
 2963SOL     OW 9787   1.613   0.966   5.063
 2963SOL    HW1 9788   1.553   0.954   4.983
 2963SOL    HW2 9789   1.708   0.947   5.037
 2964SOL     OW 9790   1.569   0.654   6.530
 2964SOL    HW1 9791   1.563   0.642   6.629
 2964SOL    HW2 9792   1.643   0.598   6.494
 2965SOL     OW 9793   6.215   0.354   6.311
 2965SOL    HW1 9794   6.308   0.374   6.282
 2965SOL    HW2 9795   6.218   0.297   6.394
 2966SOL     OW 9796   2.808   5.315   2.451
 2966SOL    HW1 9797   2.814   5.348   2.357
 2966SOL    HW2 9798   2.878   5.245   2.466
 2967SOL     OW 9799   5.631   6.816   5.220
 2967SOL    HW1 9800   5.607   6.909   5.192
 2967SOL    HW2 9801   5.699   6.820   5.293
 2968SOL     OW 9802   0.942   3.772   0.846
 2968SOL    HW1 9803   0.960   3.684   0.889
 2968SOL    HW2 9804   0.851   3.804   0.872
 2969SOL     OW 9805   4.692   2.683   4.916
 2969SOL    HW1 9806   4.731   2.630   4.992
 2969SOL    HW2 9807   4.613   2.634   4.879
 2970SOL     OW 9808   2.678   2.610   5.607
 2970SOL    HW1 9809   2.674   2.637   5.511
 2970SOL    HW2 9810   2.735   2.675   5.658
 2971SOL     OW 9811   4.893   3.067   6.844
 2971SOL    HW1 9812   4.922   3.049   6.751
 2971SOL    HW2 9813   4.909   2.986   6.901
 2972SOL     OW 9814   6.825   5.464   6.024
 2972SOL    HW1 9815   6.897   5.407   5.984
 2972SOL    HW2 9816   6.841   5.559   5.999
 2973SOL     OW 9817   5.278   0.985   4.543
 2973SOL    HW1 9818   5.308   1.076   4.513
 2973SOL    HW2 9819   5.183   0.971   4.516
 2974SOL     OW 9820   4.906   6.718   2.051
 2974SOL    HW1 9821   4.960   6.636   2.035
 2974SOL    HW2 9822   4.871   6.753   1.964
 2975SOL     OW 9823   6.236   3.526   4.730
 2975SOL    HW1 9824   6.306   3.575   4.782
 2975SOL    HW2 9825   6.149   3.574   4.738
 2976SOL     OW 9826   3.439   1.178   1.417
 2976SOL    HW1 9827   3.457   1.118   1.495
 2976SOL    HW2 9828   3.525   1.205   1.375
 2977SOL     OW 9829   1.237   0.385   1.790
 2977SOL    HW1 9830   1.199   0.411   1.701
 2977SOL    HW2 9831   1.332   0.355   1.778
 2978SOL     OW 9832   3.988   5.431   6.605
 2978SOL    HW1 9833   4.059   5.497   6.633
 2978SOL    HW2 9834   3.936   5.403   6.685
 2979SOL     OW 9835   3.055   0.976   4.688
 2979SOL    HW1 9836   3.024   1.005   4.598
 2979SOL    HW2 9837   2.978   0.941   4.741
 2980SOL     OW 9838   3.184   3.007   4.314
 2980SOL    HW1 9839   3.150   3.021   4.221
 2980SOL    HW2 9840   3.159   3.086   4.370
 2981SOL     OW 9841   2.350   1.436   1.457
 2981SOL    HW1 9842   2.304   1.478   1.535
 2981SOL    HW2 9843   2.388   1.348   1.485
 2982SOL     OW 9844   1.871   0.903   1.189
 2982SOL    HW1 9845   1.964   0.926   1.218
 2982SOL    HW2 9846   1.844   0.960   1.112
 2983SOL     OW 9847   6.372   3.548   5.913
 2983SOL    HW1 9848   6.351   3.527   5.817
 2983SOL    HW2 9849   6.356   3.645   5.930
 2984SOL     OW 9850   0.495   6.050   1.411
 2984SOL    HW1 9851   0.501   6.016   1.318
 2984SOL    HW2 9852   0.424   6.000   1.461
 2985SOL     OW 9853   5.981   0.610   6.933
 2985SOL    HW1 9854   6.059   0.552   6.957
 2985SOL    HW2 9855   5.900   0.553   6.918
 2986SOL     OW 9856   3.581   3.174   1.969
 2986SOL    HW1 9857   3.629   3.100   1.922
 2986SOL    HW2 9858   3.568   3.149   2.065
 2987SOL     OW 9859   2.639   6.308   4.618
 2987SOL    HW1 9860   2.724   6.357   4.636
 2987SOL    HW2 9861   2.652   6.247   4.540
 2988SOL     OW 9862   6.376   1.709   5.736
 2988SOL    HW1 9863   6.396   1.680   5.830
 2988SOL    HW2 9864   6.290   1.761   5.735
 2989SOL     OW 9865   5.634   3.475   4.540
 2989SOL    HW1 9866   5.549   3.471   4.593
 2989SOL    HW2 9867   5.704   3.524   4.592
 2990SOL     OW 9868   5.294   2.062   5.126
 2990SOL    HW1 9869   5.331   2.082   5.217
 2990SOL    HW2 9870   5.205   2.105   5.115
 2991SOL     OW 9871   0.341   3.465   0.314
 2991SOL    HW1 9872   0.312   3.502   0.402
 2991SOL    HW2 9873   0.280   3.499   0.242
 2992SOL     OW 9874   0.597   3.936   4.861
 2992SOL    HW1 9875   0.582   3.848   4.817
 2992SOL    HW2 9876   0.541   4.006   4.815
 2993SOL     OW 9877   3.206   4.579   1.212
 2993SOL    HW1 9878   3.224   4.507   1.279
 2993SOL    HW2 9879   3.292   4.604   1.166
 2994SOL     OW 9880   3.110   5.227   4.574
 2994SOL    HW1 9881   3.062   5.140   4.563
 2994SOL    HW2 9882   3.054   5.291   4.626
 2995SOL     OW 9883   4.601   0.861   1.604
 2995SOL    HW1 9884   4.599   0.818   1.694
 2995SOL    HW2 9885   4.626   0.793   1.535
 2996SOL     OW 9886   6.563   0.864   3.923
 2996SOL    HW1 9887   6.657   0.836   3.902
 2996SOL    HW2 9888   6.508   0.783   3.943
 2997SOL     OW 9889   4.861   6.273   4.248
 2997SOL    HW1 9890   4.891   6.269   4.152
 2997SOL    HW2 9891   4.922   6.333   4.299
 2998SOL     OW 9892   2.531   0.868   1.826
 2998SOL    HW1 9893   2.433   0.885   1.831
 2998SOL    HW2 9894   2.556   0.796   1.891
 2999SOL     OW 9895   1.786   4.181   1.059
 2999SOL    HW1 9896   1.866   4.150   1.111
 2999SOL    HW2 9897   1.805   4.173   0.961
 3000SOL     OW 9898   2.209   4.334   5.466
 3000SOL    HW1 9899   2.126   4.281   5.486
 3000SOL    HW2 9900   2.280   4.273   5.433
 3001SOL     OW 9901   4.097   0.788   6.381
 3001SOL    HW1 9902   4.063   0.742   6.298
 3001SOL    HW2 9903   4.022   0.797   6.446
 3002SOL     OW 9904   1.570   1.976   1.832
 3002SOL    HW1 9905   1.629   2.033   1.890
 3002SOL    HW2 9906   1.529   1.904   1.888
 3003SOL     OW 9907   1.389   6.101   0.772
 3003SOL    HW1 9908   1.451   6.053   0.711
 3003SOL    HW2 9909   1.296   6.064   0.761
 3004SOL     OW 9910   2.859   6.857   3.977
 3004SOL    HW1 9911   2.922   6.934   3.964
 3004SOL    HW2 9912   2.765   6.890   3.977
 3005SOL     OW 9913   2.288   1.674   0.894
 3005SOL    HW1 9914   2.372   1.658   0.841
 3005SOL    HW2 9915   2.306   1.741   0.965
 3006SOL     OW 9916   5.262   1.314   5.733
 3006SOL    HW1 9917   5.359   1.317   5.756
 3006SOL    HW2 9918   5.242   1.231   5.681
 3007SOL     OW 9919   6.331   5.547   6.280
 3007SOL    HW1 9920   6.275   5.519   6.358
 3007SOL    HW2 9921   6.303   5.496   6.199
 3008SOL     OW 9922   4.785   3.884   5.511
 3008SOL    HW1 9923   4.823   3.881   5.419
 3008SOL    HW2 9924   4.827   3.813   5.567
 3009SOL     OW 9925   5.486   3.396   2.158
 3009SOL    HW1 9926   5.570   3.399   2.104
 3009SOL    HW2 9927   5.422   3.465   2.125
 3010SOL     OW 9928   4.736   4.964   1.867
 3010SOL    HW1 9929   4.775   4.921   1.948
 3010SOL    HW2 9930   4.638   4.947   1.863
 3011SOL     OW 9931   6.388   0.279   0.626
 3011SOL    HW1 9932   6.348   0.222   0.554
 3011SOL    HW2 9933   6.327   0.279   0.706
 3012SOL     OW 9934   1.966   1.788   4.804
 3012SOL    HW1 9935   1.997   1.871   4.849
 3012SOL    HW2 9936   1.994   1.709   4.859
 3013SOL     OW 9937   0.771   4.781   5.686
 3013SOL    HW1 9938   0.718   4.697   5.688
 3013SOL    HW2 9939   0.799   4.800   5.592
 3014SOL     OW 9940   4.894   0.266   6.529
 3014SOL    HW1 9941   4.798   0.241   6.521
 3014SOL    HW2 9942   4.914   0.293   6.623
 3015SOL     OW 9943   2.241   0.702   5.835
 3015SOL    HW1 9944   2.319   0.754   5.801
 3015SOL    HW2 9945   2.244   0.701   5.935
 3016SOL     OW 9946   2.148   0.580   4.024
 3016SOL    HW1 9947   2.143   0.680   4.026
 3016SOL    HW2 9948   2.180   0.546   4.112
 3017SOL     OW 9949   1.289   5.763   0.513
 3017SOL    HW1 9950   1.255   5.843   0.464
 3017SOL    HW2 9951   1.212   5.710   0.548
 3018SOL     OW 9952   3.305   1.658   1.800
 3018SOL    HW1 9953   3.298   1.586   1.870
 3018SOL    HW2 9954   3.393   1.704   1.808
 3019SOL     OW 9955   1.727   0.059   6.006
 3019SOL    HW1 9956   1.751   0.105   5.920
 3019SOL    HW2 9957   1.731   0.125   6.081
 3020SOL     OW 9958   5.403   4.805   6.977
 3020SOL    HW1 9959   5.424   4.782   6.882
 3020SOL    HW2 9960   5.487   4.833   0.005
 3021SOL     OW 9961   4.550   0.578   4.619
 3021SOL    HW1 9962   4.613   0.606   4.547
 3021SOL    HW2 9963   4.464   0.628   4.610
 3022SOL     OW 9964   4.187   6.127   3.922
 3022SOL    HW1 9965   4.165   6.190   3.848
 3022SOL    HW2 9966   4.157   6.166   4.009
 3023SOL     OW 9967   5.786   4.604   4.948
 3023SOL    HW1 9968   5.687   4.596   4.954
 3023SOL    HW2 9969   5.827   4.516   4.926
 3024SOL     OW 9970   0.268   0.784   0.190
 3024SOL    HW1 9971   0.210   0.865   0.180
 3024SOL    HW2 9972   0.351   0.809   0.241
 3025SOL     OW 9973   4.227   5.329   0.708
 3025SOL    HW1 9974   4.309   5.341   0.764
 3025SOL    HW2 9975   4.228   5.395   0.633
 3026SOL     OW 9976   0.479   0.497   2.195
 3026SOL    HW1 9977   0.411   0.499   2.268
 3026SOL    HW2 9978   0.436   0.519   2.108
 3027SOL     OW 9979   4.050   6.661   0.662
 3027SOL    HW1 9980   4.125   6.682   0.599
 3027SOL    HW2 9981   4.034   6.562   0.663
 3028SOL     OW 9982   3.340   3.447   4.768
 3028SOL    HW1 9983   3.263   3.457   4.705
 3028SOL    HW2 9984   3.417   3.502   4.736
 3029SOL     OW 9985   6.506   3.637   4.823
 3029SOL    HW1 9986   6.596   3.604   4.850
 3029SOL    HW2 9987   6.477   3.709   4.886
 3030SOL     OW 9988   1.685   2.907   6.557
 3030SOL    HW1 9989   1.599   2.948   6.586
 3030SOL    HW2 9990   1.668   2.843   6.482
 3031SOL     OW 9991   0.653   5.261   0.914
 3031SOL    HW1 9992   0.676   5.357   0.897
 3031SOL    HW2 9993   0.570   5.237   0.864
 3032SOL     OW 9994   2.508   6.793   3.549
 3032SOL    HW1 9995   2.467   6.863   3.607
 3032SOL    HW2 9996   2.604   6.782   3.575
 3033SOL     OW 9997   1.502   1.861   5.940
 3033SOL    HW1 9998   1.554   1.933   5.986
 3033SOL    HW2 9999   1.405   1.886   5.939
 3034SOL     OW10000   5.260   3.095   3.056
 3034SOL    HW110001   5.343   3.093   3.111
 3034SOL    HW210002   5.282   3.072   2.961
 3035SOL     OW10003   0.139   3.651   6.854
 3035SOL    HW110004   0.209   3.718   6.878
 3035SOL    HW210005   0.076   3.640   6.931
 3036SOL     OW10006   3.346   2.747   6.093
 3036SOL    HW110007   3.307   2.751   6.001
 3036SOL    HW210008   3.287   2.692   6.151
 3037SOL     OW10009   1.149   5.307   6.687
 3037SOL    HW110010   1.170   5.323   6.783
 3037SOL    HW210011   1.063   5.352   6.663
 3038SOL     OW10012   5.888   5.282   6.345
 3038SOL    HW110013   5.962   5.299   6.280
 3038SOL    HW210014   5.915   5.209   6.408
 3039SOL     OW10015   5.591   3.961   5.870
 3039SOL    HW110016   5.691   3.972   5.871
 3039SOL    HW210017   5.548   4.049   5.851
 3040SOL     OW10018   4.662   5.957   5.936
 3040SOL    HW110019   4.606   5.933   5.857
 3040SOL    HW210020   4.641   6.051   5.964
 3041SOL     OW10021   1.008   4.721   5.808
 3041SOL    HW110022   0.933   4.746   5.746
 3041SOL    HW210023   1.070   4.799   5.818
 3042SOL     OW10024   0.223   5.213   3.668
 3042SOL    HW110025   0.247   5.265   3.751
 3042SOL    HW210026   0.127   5.185   3.673
 3043SOL     OW10027   2.823   4.821   1.431
 3043SOL    HW110028   2.897   4.871   1.475
 3043SOL    HW210029   2.862   4.749   1.373
 3044SOL     OW10030   3.763   3.257   4.697
 3044SOL    HW110031   3.840   3.194   4.706
 3044SOL    HW210032   3.687   3.225   4.755
 3045SOL     OW10033   5.358   1.243   2.271
 3045SOL    HW110034   5.352   1.333   2.226
 3045SOL    HW210035   5.414   1.250   2.353
 3046SOL     OW10036   5.902   6.655   1.722
 3046SOL    HW110037   5.920   6.722   1.794
 3046SOL    HW210038   5.832   6.591   1.754
 3047SOL     OW10039   6.716   1.386   4.423
 3047SOL    HW110040   6.746   1.307   4.476
 3047SOL    HW210041   6.616   1.388   4.419
 3048SOL     OW10042   4.401   4.761   1.569
 3048SOL    HW110043   4.373   4.672   1.604
 3048SOL    HW210044   4.482   4.750   1.511
 3049SOL     OW10045   0.979   1.745   2.556
 3049SOL    HW110046   0.882   1.732   2.537
 3049SOL    HW210047   1.005   1.694   2.638
 3050SOL     OW10048   3.277   2.047   6.741
 3050SOL    HW110049   3.346   2.118   6.738
 3050SOL    HW210050   3.310   1.966   6.692
 3051SOL     OW10051   2.501   5.355   5.589
 3051SOL    HW110052   2.456   5.427   5.642
 3051SOL    HW210053   2.434   5.315   5.526
 3052SOL     OW10054   0.018   6.447   3.889
 3052SOL    HW110055   0.039   6.541   3.861
 3052SOL    HW210056   6.955   6.416   3.841
 3053SOL     OW10057   0.802   4.152   6.790
 3053SOL    HW110058   0.871   4.175   6.721
 3053SOL    HW210059   0.712   4.185   6.761
 3054SOL     OW10060   5.507   0.167   2.941
 3054SOL    HW110061   5.483   0.079   2.981
 3054SOL    HW210062   5.537   0.229   3.013
 3055SOL     OW10063   5.792   6.352   0.590
 3055SOL    HW110064   5.772   6.264   0.547
 3055SOL    HW210065   5.800   6.339   0.689
 3056SOL     OW10066   4.136   1.463   6.648
 3056SOL    HW110067   4.204   1.520   6.603
 3056SOL    HW210068   4.100   1.395   6.584
 3057SOL     OW10069   5.370   3.673   3.395
 3057SOL    HW110070   5.316   3.651   3.476
 3057SOL    HW210071   5.329   3.629   3.315
 3058SOL     OW10072   0.205   5.467   6.092
 3058SOL    HW110073   0.291   5.426   6.122
 3058SOL    HW210074   0.150   5.397   6.047
 3059SOL     OW10075   1.367   2.308   1.951
 3059SOL    HW110076   1.329   2.291   1.859
 3059SOL    HW210077   1.363   2.224   2.004
 3060SOL     OW10078   5.518   4.251   3.670
 3060SOL    HW110079   5.514   4.217   3.764
 3060SOL    HW210080   5.527   4.174   3.607
 3061SOL     OW10081   5.696   6.871   3.452
 3061SOL    HW110082   5.775   6.838   3.401
 3061SOL    HW210083   5.637   6.794   3.476
 3062SOL     OW10084   3.828   5.123   1.340
 3062SOL    HW110085   3.852   5.213   1.302
 3062SOL    HW210086   3.745   5.131   1.394
 3063SOL     OW10087   6.666   4.772   1.528
 3063SOL    HW110088   6.742   4.708   1.520
 3063SOL    HW210089   6.696   4.864   1.502
 3064SOL     OW10090   4.744   2.255   6.542
 3064SOL    HW110091   4.748   2.321   6.617
 3064SOL    HW210092   4.798   2.289   6.465
 3065SOL     OW10093   5.639   1.183   6.487
 3065SOL    HW110094   5.703   1.227   6.424
 3065SOL    HW210095   5.607   1.249   6.554
 3066SOL     OW10096   5.190   0.116   5.485
 3066SOL    HW110097   5.210   0.164   5.570
 3066SOL    HW210098   5.105   0.064   5.495
 3067SOL     OW10099   1.445   2.199   4.834
 3067SOL    HW110100   1.497   2.165   4.912
 3067SOL    HW210101   1.421   2.295   4.848
 3068SOL     OW10102   6.537   0.437   0.380
 3068SOL    HW110103   6.585   0.353   0.354
 3068SOL    HW210104   6.486   0.421   0.465
 3069SOL     OW10105   5.434   6.154   3.913
 3069SOL    HW110106   5.363   6.214   3.950
 3069SOL    HW210107   5.404   6.118   3.824
 3070SOL     OW10108   2.296   0.955   1.283
 3070SOL    HW110109   2.232   0.972   1.358
 3070SOL    HW210110   2.364   1.028   1.280
 3071SOL     OW10111   5.823   4.690   5.204
 3071SOL    HW110112   5.816   4.653   5.111
 3071SOL    HW210113   5.911   4.735   5.216
 3072SOL     OW10114   1.762   6.530   6.105
 3072SOL    HW110115   1.700   6.504   6.031
 3072SOL    HW210116   1.813   6.612   6.078
 3073SOL     OW10117   6.972   5.805   2.001
 3073SOL    HW110118   6.971   5.893   1.952
 3073SOL    HW210119   0.047   5.769   2.002
 3074SOL     OW10120   3.490   2.738   1.624
 3074SOL    HW110121   3.546   2.805   1.575
 3074SOL    HW210122   3.543   2.700   1.700
 3075SOL     OW10123   4.052   5.070   1.484
 3075SOL    HW110124   3.980   5.086   1.417
 3075SOL    HW210125   4.057   5.147   1.547
 3076SOL     OW10126   0.841   1.235   4.347
 3076SOL    HW110127   0.860   1.139   4.327
 3076SOL    HW210128   0.921   1.276   4.392
 3077SOL     OW10129   6.141   3.648   1.594
 3077SOL    HW110130   6.192   3.732   1.611
 3077SOL    HW210131   6.121   3.603   1.681
 3078SOL     OW10132   0.010   3.288   2.014
 3078SOL    HW110133   6.935   3.312   1.987
 3078SOL    HW210134   0.015   3.190   2.032
 3079SOL     OW10135   2.125   4.284   4.483
 3079SOL    HW110136   2.056   4.355   4.471
 3079SOL    HW210137   2.208   4.309   4.434
 3080SOL     OW10138   4.371   5.019   1.372
 3080SOL    HW110139   4.371   4.941   1.310
 3080SOL    HW210140   4.464   5.054   1.382
 3081SOL     OW10141   2.352   3.778   6.109
 3081SOL    HW110142   2.437   3.766   6.161
 3081SOL    HW210143   2.286   3.708   6.138
 3082SOL     OW10144   5.278   4.432   4.876
 3082SOL    HW110145   5.205   4.401   4.815
 3082SOL    HW210146   5.291   4.364   4.949
 3083SOL     OW10147   3.792   5.497   1.796
 3083SOL    HW110148   3.704   5.525   1.759
 3083SOL    HW210149   3.836   5.575   1.840
 3084SOL     OW10150   6.775   5.201   3.459
 3084SOL    HW110151   6.872   5.212   3.483
 3084SOL    HW210152   6.764   5.215   3.361
 3085SOL     OW10153   5.729   5.426   0.108
 3085SOL    HW110154   5.813   5.372   0.108
 3085SOL    HW210155   5.650   5.365   0.108
 3086SOL     OW10156   6.317   6.051   6.529
 3086SOL    HW110157   6.273   6.090   6.610
 3086SOL    HW210158   6.315   5.951   6.534
 3087SOL     OW10159   3.722   0.278   2.426
 3087SOL    HW110160   3.704   0.300   2.522
 3087SOL    HW210161   3.674   0.343   2.367
 3088SOL     OW10162   2.031   3.829   5.741
 3088SOL    HW110163   2.116   3.882   5.745
 3088SOL    HW210164   2.012   3.790   5.830
 3089SOL     OW10165   4.357   5.359   5.961
 3089SOL    HW110166   4.284   5.425   5.947
 3089SOL    HW210167   4.445   5.406   5.963
 3090SOL     OW10168   0.507   2.468   2.119
 3090SOL    HW110169   0.557   2.494   2.036
 3090SOL    HW210170   0.493   2.549   2.176
 3091SOL     OW10171   1.220   2.724   0.939
 3091SOL    HW110172   1.171   2.661   0.878
 3091SOL    HW210173   1.170   2.732   1.025
 3092SOL     OW10174   5.920   1.159   1.958
 3092SOL    HW110175   5.919   1.140   2.057
 3092SOL    HW210176   5.942   1.075   1.909
 3093SOL     OW10177   6.542   5.717   6.491
 3093SOL    HW110178   6.447   5.741   6.473
 3093SOL    HW210179   6.591   5.707   6.404
 3094SOL     OW10180   2.231   1.468   6.596
 3094SOL    HW110181   2.226   1.461   6.496
 3094SOL    HW210182   2.173   1.544   6.626
 3095SOL     OW10183   1.483   3.983   5.271
 3095SOL    HW110184   1.527   3.928   5.200
 3095SOL    HW210185   1.532   4.069   5.282
 3096SOL     OW10186   1.409   3.174   4.172
 3096SOL    HW110187   1.494   3.190   4.222
 3096SOL    HW210188   1.392   3.075   4.166
 3097SOL     OW10189   5.509   2.703   5.074
 3097SOL    HW110190   5.504   2.650   5.159
 3097SOL    HW210191   5.471   2.794   5.089
 3098SOL     OW10192   1.949   3.090   2.754
 3098SOL    HW110193   1.854   3.116   2.774
 3098SOL    HW210194   1.949   3.011   2.693
 3099SOL     OW10195   0.298   0.108   5.315
 3099SOL    HW110196   0.208   0.130   5.353
 3099SOL    HW210197   0.310   0.156   5.229
 3100SOL     OW10198   5.570   4.859   1.735
 3100SOL    HW110199   5.651   4.904   1.772
 3100SOL    HW210200   5.534   4.794   1.802
 3101SOL     OW10201   5.000   0.082   5.084
 3101SOL    HW110202   5.089   0.061   5.126
 3101SOL    HW210203   4.927   0.059   5.149
 3102SOL     OW10204   6.138   4.512   2.353
 3102SOL    HW110205   6.198   4.492   2.430
 3102SOL    HW210206   6.044   4.522   2.385
 3103SOL     OW10207   2.189   2.029   1.620
 3103SOL    HW110208   2.137   2.042   1.704
 3103SOL    HW210209   2.167   2.102   1.555
 3104SOL     OW10210   5.274   2.545   5.278
 3104SOL    HW110211   5.186   2.585   5.303
 3104SOL    HW210212   5.343   2.571   5.345
 3105SOL     OW10213   5.438   3.798   0.585
 3105SOL    HW110214   5.536   3.780   0.584
 3105SOL    HW210215   5.395   3.754   0.506
 3106SOL     OW10216   5.396   1.768   5.549
 3106SOL    HW110217   5.459   1.694   5.524
 3106SOL    HW210218   5.383   1.769   5.648
 3107SOL     OW10219   3.401   1.884   5.175
 3107SOL    HW110220   3.399   1.919   5.082
 3107SOL    HW210221   3.479   1.924   5.224
 3108SOL     OW10222   2.141   3.939   3.366
 3108SOL    HW110223   2.139   3.982   3.456
 3108SOL    HW210224   2.179   4.003   3.299
 3109SOL     OW10225   6.905   6.404   3.541
 3109SOL    HW110226   7.004   6.401   3.532
 3109SOL    HW210227   6.874   6.326   3.595
 3110SOL     OW10228   0.918   5.462   3.465
 3110SOL    HW110229   0.896   5.550   3.506
 3110SOL    HW210230   0.924   5.392   3.536
 3111SOL     OW10231   6.010   3.945   3.868
 3111SOL    HW110232   5.983   4.030   3.912
 3111SOL    HW210233   5.942   3.921   3.798
 3112SOL     OW10234   4.118   1.055   6.842
 3112SOL    HW110235   4.074   1.078   6.755
 3112SOL    HW210236   4.143   1.139   6.890
 3113SOL     OW10237   1.589   6.695   3.327
 3113SOL    HW110238   1.646   6.624   3.284
 3113SOL    HW210239   1.564   6.764   3.260
 3114SOL     OW10240   4.606   0.323   5.560
 3114SOL    HW110241   4.603   0.226   5.535
 3114SOL    HW210242   4.534   0.341   5.628
 3115SOL     OW10243   5.692   5.672   5.051
 3115SOL    HW110244   5.757   5.597   5.062
 3115SOL    HW210245   5.676   5.689   4.954
 3116SOL     OW10246   0.864   1.135   6.504
 3116SOL    HW110247   0.951   1.122   6.456
 3116SOL    HW210248   0.870   1.218   6.560
 3117SOL     OW10249   4.463   7.008   0.965
 3117SOL    HW110250   4.500   6.933   0.910
 3117SOL    HW210251   4.461   6.980   1.061
 3118SOL     OW10252   1.739   1.644   3.779
 3118SOL    HW110253   1.759   1.603   3.868
 3118SOL    HW210254   1.726   1.742   3.789
 3119SOL     OW10255   4.998   5.824   4.589
 3119SOL    HW110256   4.959   5.805   4.499
 3119SOL    HW210257   5.084   5.773   4.600
 3120SOL     OW10258   2.214   5.039   6.639
 3120SOL    HW110259   2.230   4.978   6.561
 3120SOL    HW210260   2.300   5.057   6.685
 3121SOL     OW10261   4.443   2.410   4.310
 3121SOL    HW110262   4.363   2.363   4.273
 3121SOL    HW210263   4.494   2.452   4.235
 3122SOL     OW10264   5.617   5.142   5.975
 3122SOL    HW110265   5.716   5.137   5.987
 3122SOL    HW210266   5.573   5.149   6.064
 3123SOL     OW10267   1.556   1.590   3.150
 3123SOL    HW110268   1.539   1.559   3.243
 3123SOL    HW210269   1.575   1.688   3.150
 3124SOL     OW10270   4.533   0.041   4.801
 3124SOL    HW110271   4.559   0.065   4.894
 3124SOL    HW210272   4.594   6.987   4.768
 3125SOL     OW10273   1.841   1.316   6.063
 3125SOL    HW110274   1.761   1.345   6.010
 3125SOL    HW210275   1.847   1.216   6.061
 3126SOL     OW10276   4.903   4.536   5.797
 3126SOL    HW110277   4.803   4.526   5.799
 3126SOL    HW210278   4.938   4.529   5.890
 3127SOL     OW10279   6.991   1.364   5.248
 3127SOL    HW110280   6.916   1.309   5.285
 3127SOL    HW210281   6.994   1.453   5.294
 3128SOL     OW10282   3.470   0.433   0.588
 3128SOL    HW110283   3.544   0.388   0.639
 3128SOL    HW210284   3.390   0.443   0.648
 3129SOL     OW10285   4.406   3.904   0.163
 3129SOL    HW110286   4.430   3.994   0.128
 3129SOL    HW210287   4.393   3.908   0.262
 3130SOL     OW10288   0.481   5.489   2.448
 3130SOL    HW110289   0.485   5.574   2.500
 3130SOL    HW210290   0.476   5.509   2.351
 3131SOL     OW10291   6.758   4.231   3.068
 3131SOL    HW110292   6.741   4.158   3.001
 3131SOL    HW210293   6.695   4.221   3.145
 3132SOL     OW10294   4.969   3.904   0.510
 3132SOL    HW110295   5.061   3.881   0.477
 3132SOL    HW210296   4.957   3.869   0.603
 3133SOL     OW10297   4.971   0.280   4.595
 3133SOL    HW110298   5.004   0.303   4.686
 3133SOL    HW210299   4.929   0.360   4.552
 3134SOL     OW10300   5.998   4.754   2.873
 3134SOL    HW110301   6.005   4.735   2.971
 3134SOL    HW210302   6.088   4.774   2.836
 3135SOL     OW10303   3.764   5.909   6.931
 3135SOL    HW110304   3.819   5.906   6.848
 3135SOL    HW210305   3.671   5.880   6.910
 3136SOL     OW10306   5.965   0.542   3.188
 3136SOL    HW110307   5.911   0.625   3.171
 3136SOL    HW210308   5.925   0.466   3.137
 3137SOL     OW10309   4.409   5.717   0.360
 3137SOL    HW110310   4.368   5.805   0.382
 3137SOL    HW210311   4.507   5.719   0.381
 3138SOL     OW10312   6.700   6.621   5.213
 3138SOL    HW110313   6.645   6.540   5.195
 3138SOL    HW210314   6.650   6.703   5.185
 3139SOL     OW10315   2.094   4.825   1.479
 3139SOL    HW110316   2.147   4.781   1.551
 3139SOL    HW210317   2.155   4.848   1.402
 3140SOL     OW10318   6.625   6.019   0.282
 3140SOL    HW110319   6.697   6.047   0.219
 3140SOL    HW210320   6.536   6.025   0.237
 3141SOL     OW10321   5.770   1.929   6.577
 3141SOL    HW110322   5.789   1.919   6.674
 3141SOL    HW210323   5.815   1.855   6.527
 3142SOL     OW10324   4.684   0.946   3.835
 3142SOL    HW110325   4.678   0.926   3.737
 3142SOL    HW210326   4.702   0.862   3.885
 3143SOL     OW10327   6.913   1.213   1.120
 3143SOL    HW110328   6.906   1.143   1.049
 3143SOL    HW210329   6.879   1.300   1.086
 3144SOL     OW10330   3.407   4.235   0.243
 3144SOL    HW110331   3.385   4.286   0.160
 3144SOL    HW210332   3.502   4.252   0.269
 3145SOL     OW10333   0.683   6.095   0.206
 3145SOL    HW110334   0.719   6.152   0.280
 3145SOL    HW210335   0.729   6.118   0.121
 3146SOL     OW10336   0.008   1.840   4.336
 3146SOL    HW110337   0.059   1.759   4.308
 3146SOL    HW210338   0.002   1.844   4.436
 3147SOL     OW10339   4.185   6.719   0.278
 3147SOL    HW110340   4.256   6.766   0.331
 3147SOL    HW210341   4.158   6.635   0.325
 3148SOL     OW10342   6.793   5.018   1.533
 3148SOL    HW110343   6.746   5.041   1.618
 3148SOL    HW210344   6.891   5.032   1.544
 3149SOL     OW10345   3.407   2.618   6.997
 3149SOL    HW110346   3.373   2.676   0.052
 3149SOL    HW210347   3.487   2.662   6.955
 3150SOL     OW10348   6.640   6.924   5.938
 3150SOL    HW110349   6.577   6.919   5.860
 3150SOL    HW210350   6.709   6.851   5.929
 3151SOL     OW10351   0.099   0.891   5.378
 3151SOL    HW110352   0.178   0.836   5.407
 3151SOL    HW210353   0.084   0.965   5.444
 3152SOL     OW10354   1.951   2.463   5.360
 3152SOL    HW110355   2.028   2.406   5.388
 3152SOL    HW210356   1.949   2.546   5.415
 3153SOL     OW10357   5.346   5.301   1.877
 3153SOL    HW110358   5.321   5.357   1.956
 3153SOL    HW210359   5.398   5.221   1.908
 3154SOL     OW10360   4.031   1.467   0.813
 3154SOL    HW110361   3.977   1.538   0.767
 3154SOL    HW210362   3.972   1.411   0.870
 3155SOL     OW10363   0.782   4.884   6.729
 3155SOL    HW110364   0.790   4.981   6.704
 3155SOL    HW210365   0.846   4.864   6.804
 3156SOL     OW10366   4.309   4.454   0.826
 3156SOL    HW110367   4.216   4.418   0.837
 3156SOL    HW210368   4.307   4.535   0.769
 3157SOL     OW10369   1.206   1.089   4.748
 3157SOL    HW110370   1.201   1.115   4.652
 3157SOL    HW210371   1.135   1.021   4.768
 3158SOL     OW10372   2.135   1.089   5.725
 3158SOL    HW110373   2.095   0.999   5.743
 3158SOL    HW210374   2.102   1.154   5.792
 3159SOL     OW10375   4.633   0.086   1.176
 3159SOL    HW110376   4.579   0.153   1.126
 3159SOL    HW210377   4.578   0.048   1.251
 3160SOL     OW10378   1.906   0.897   5.153
 3160SOL    HW110379   1.913   0.985   5.201
 3160SOL    HW210380   1.913   0.912   5.055
 3161SOL     OW10381   1.973   3.074   2.226
 3161SOL    HW110382   2.035   3.103   2.299
 3161SOL    HW210383   1.881   3.107   2.246
 3162SOL     OW10384   1.126   5.544   1.698
 3162SOL    HW110385   1.211   5.492   1.694
 3162SOL    HW210386   1.074   5.517   1.780
 3163SOL     OW10387   4.430   4.185   0.432
 3163SOL    HW110388   4.380   4.103   0.461
 3163SOL    HW210389   4.431   4.189   0.332
 3164SOL     OW10390   2.346   6.917   4.093
 3164SOL    HW110391   2.393   6.924   4.180
 3164SOL    HW210392   2.299   6.829   4.087
 3165SOL     OW10393   1.290   6.090   6.074
 3165SOL    HW110394   1.194   6.076   6.051
 3165SOL    HW210395   1.300   6.173   6.129
 3166SOL     OW10396   4.537   1.144   5.308
 3166SOL    HW110397   4.515   1.047   5.318
 3166SOL    HW210398   4.481   1.183   5.235
 3167SOL     OW10399   5.786   3.189   0.976
 3167SOL    HW110400   5.776   3.245   1.059
 3167SOL    HW210401   5.711   3.123   0.972
 3168SOL     OW10402   4.617   1.267   0.423
 3168SOL    HW110403   4.578   1.353   0.388
 3168SOL    HW210404   4.570   1.190   0.379
 3169SOL     OW10405   1.686   4.089   1.540
 3169SOL    HW110406   1.691   4.081   1.639
 3169SOL    HW210407   1.760   4.148   1.508
 3170SOL     OW10408   2.166   3.941   3.837
 3170SOL    HW110409   2.118   3.868   3.788
 3170SOL    HW210410   2.101   3.989   3.896
 3171SOL     OW10411   5.349   1.477   3.969
 3171SOL    HW110412   5.286   1.508   3.899
 3171SOL    HW210413   5.306   1.486   4.059
 3172SOL     OW10414   5.508   4.611   1.531
 3172SOL    HW110415   5.562   4.693   1.512
 3172SOL    HW210416   5.460   4.621   1.618
 3173SOL     OW10417   4.946   2.126   0.538
 3173SOL    HW110418   5.036   2.144   0.578
 3173SOL    HW210419   4.878   2.123   0.611
 3174SOL     OW10420   3.423   2.242   6.416
 3174SOL    HW110421   3.468   2.316   6.366
 3174SOL    HW210422   3.395   2.171   6.352
 3175SOL     OW10423   5.362   0.166   5.734
 3175SOL    HW110424   5.382   0.076   5.697
 3175SOL    HW210425   5.424   0.234   5.695
 3176SOL     OW10426   0.212   5.036   3.342
 3176SOL    HW110427   0.299   5.063   3.381
 3176SOL    HW210428   0.145   5.023   3.416
 3177SOL     OW10429   5.315   3.129   3.676
 3177SOL    HW110430   5.282   3.205   3.621
 3177SOL    HW210431   5.269   3.045   3.648
 3178SOL     OW10432   0.689   0.691   2.090
 3178SOL    HW110433   0.752   0.628   2.044
 3178SOL    HW210434   0.611   0.639   2.125
 3179SOL     OW10435   0.836   2.487   2.422
 3179SOL    HW110436   0.766   2.545   2.463
 3179SOL    HW210437   0.915   2.481   2.482
 3180SOL     OW10438   0.051   6.078   6.942
 3180SOL    HW110439   0.016   6.143   7.009
 3180SOL    HW210440   0.140   6.044   6.972
 3181SOL     OW10441   0.891   6.296   5.470
 3181SOL    HW110442   0.797   6.280   5.439
 3181SOL    HW210443   0.895   6.382   5.521
 3182SOL     OW10444   2.057   0.352   1.182
 3182SOL    HW110445   1.973   0.343   1.129
 3182SOL    HW210446   2.042   0.318   1.275
 3183SOL     OW10447   4.104   3.155   1.136
 3183SOL    HW110448   4.134   3.062   1.158
 3183SOL    HW210449   4.168   3.195   1.070
 3184SOL     OW10450   6.709   1.630   4.317
 3184SOL    HW110451   6.664   1.624   4.228
 3184SOL    HW210452   6.703   1.541   4.363
 3185SOL     OW10453   0.507   6.122   6.503
 3185SOL    HW110454   0.557   6.127   6.590
 3185SOL    HW210455   0.423   6.069   6.515
 3186SOL     OW10456   0.212   2.650   6.531
 3186SOL    HW110457   0.189   2.670   6.627
 3186SOL    HW210458   0.302   2.606   6.527
 3187SOL     OW10459   5.176   6.658   2.856
 3187SOL    HW110460   5.113   6.720   2.901
 3187SOL    HW210461   5.127   6.605   2.787
 3188SOL     OW10462   1.890   6.165   0.583
 3188SOL    HW110463   1.988   6.171   0.564
 3188SOL    HW210464   1.863   6.244   0.639
 3189SOL     OW10465   3.444   1.429   5.865
 3189SOL    HW110466   3.464   1.485   5.945
 3189SOL    HW210467   3.513   1.447   5.794
 3190SOL     OW10468   5.913   6.129   4.266
 3190SOL    HW110469   5.912   6.080   4.179
 3190SOL    HW210470   5.841   6.199   4.266
 3191SOL     OW10471   3.793   5.579   1.333
 3191SOL    HW110472   3.882   5.547   1.363
 3191SOL    HW210473   3.794   5.593   1.234
 3192SOL     OW10474   5.536   0.863   2.897
 3192SOL    HW110475   5.622   0.831   2.857
 3192SOL    HW210476   5.487   0.921   2.832
 3193SOL     OW10477   3.204   6.406   5.021
 3193SOL    HW110478   3.205   6.455   4.934
 3193SOL    HW210479   3.153   6.321   5.011
 3194SOL     OW10480   1.680   0.080   6.412
 3194SOL    HW110481   1.755   0.017   6.436
 3194SOL    HW210482   1.605   0.028   6.370
 3195SOL     OW10483   1.180   0.941   1.162
 3195SOL    HW110484   1.279   0.949   1.156
 3195SOL    HW210485   1.138   1.007   1.100
 3196SOL     OW10486   5.476   6.850   2.943
 3196SOL    HW110487   5.543   6.858   3.017
 3196SOL    HW210488   5.520   6.864   2.855
 3197SOL     OW10489   2.108   0.090   6.360
 3197SOL    HW110490   2.163   0.122   6.283
 3197SOL    HW210491   2.055   0.010   6.332
 3198SOL     OW10492   5.834   2.504   3.857
 3198SOL    HW110493   5.797   2.423   3.810
 3198SOL    HW210494   5.787   2.516   3.944
 3199SOL     OW10495   4.887   3.663   2.858
 3199SOL    HW110496   4.920   3.618   2.775
 3199SOL    HW210497   4.964   3.705   2.907
 3200SOL     OW10498   5.449   3.363   4.078
 3200SOL    HW110499   5.485   3.347   4.170
 3200SOL    HW210500   5.480   3.290   4.017
 3201SOL     OW10501   5.945   4.146   2.271
 3201SOL    HW110502   5.989   4.190   2.349
 3201SOL    HW210503   6.009   4.081   2.229
 3202SOL     OW10504   2.689   3.259   6.860
 3202SOL    HW110505   2.593   3.283   6.866
 3202SOL    HW210506   2.724   3.280   6.768
 3203SOL     OW10507   3.346   6.474   1.811
 3203SOL    HW110508   3.285   6.396   1.828
 3203SOL    HW210509   3.304   6.557   1.848
 3204SOL     OW10510   3.845   1.226   4.396
 3204SOL    HW110511   3.747   1.232   4.416
 3204SOL    HW210512   3.879   1.135   4.420
 3205SOL     OW10513   4.960   3.384   5.924
 3205SOL    HW110514   4.887   3.383   5.855
 3205SOL    HW210515   4.947   3.309   5.988
 3206SOL     OW10516   2.714   3.952   1.268
 3206SOL    HW110517   2.787   4.012   1.235
 3206SOL    HW210518   2.740   3.911   1.355
 3207SOL     OW10519   2.045   5.678   5.065
 3207SOL    HW110520   2.060   5.580   5.081
 3207SOL    HW210521   2.133   5.722   5.047
 3208SOL     OW10522   6.454   4.999   6.540
 3208SOL    HW110523   6.437   5.056   6.459
 3208SOL    HW210524   6.552   4.988   6.552
 3209SOL     OW10525   5.146   6.672   6.259
 3209SOL    HW110526   5.119   6.629   6.345
 3209SOL    HW210527   5.089   6.637   6.185
 3210SOL     OW10528   5.139   5.707   1.973
 3210SOL    HW110529   5.151   5.724   2.071
 3210SOL    HW210530   5.229   5.699   1.930
 3211SOL     OW10531   1.943   6.273   6.426
 3211SOL    HW110532   1.992   6.284   6.340
 3211SOL    HW210533   1.855   6.320   6.421
 3212SOL     OW10534   2.767   6.776   3.693
 3212SOL    HW110535   2.843   6.837   3.671
 3212SOL    HW210536   2.766   6.758   3.791
 3213SOL     OW10537   1.264   6.500   6.209
 3213SOL    HW110538   1.179   6.448   6.212
 3213SOL    HW210539   1.245   6.597   6.219
 3214SOL     OW10540   4.053   0.745   3.027
 3214SOL    HW110541   4.086   0.702   3.112
 3214SOL    HW210542   3.981   0.689   2.987
 3215SOL     OW10543   1.748   3.435   1.807
 3215SOL    HW110544   1.816   3.475   1.746
 3215SOL    HW210545   1.790   3.417   1.896
 3216SOL     OW10546   5.884   4.788   1.170
 3216SOL    HW110547   5.926   4.745   1.250
 3216SOL    HW210548   5.956   4.827   1.113
 3217SOL     OW10549   6.938   5.778   2.547
 3217SOL    HW110550   6.893   5.738   2.467
 3217SOL    HW210551   0.016   5.789   2.528
 3218SOL     OW10552   5.643   1.315   2.922
 3218SOL    HW110553   5.634   1.397   2.865
 3218SOL    HW210554   5.555   1.268   2.927
 3219SOL     OW10555   6.397   1.645   4.793
 3219SOL    HW110556   6.444   1.651   4.881
 3219SOL    HW210557   6.456   1.598   4.727
 3220SOL     OW10558   0.042   4.228   5.949
 3220SOL    HW110559   6.964   4.254   5.947
 3220SOL    HW210560   0.050   4.130   5.937
 3221SOL     OW10561   3.548   1.635   1.942
 3221SOL    HW110562   3.537   1.699   2.018
 3221SOL    HW210563   3.491   1.554   1.957
 3222SOL     OW10564   2.992   1.060   3.189
 3222SOL    HW110565   2.979   1.012   3.102
 3222SOL    HW210566   2.905   1.098   3.219
 3223SOL     OW10567   1.441   5.158   0.417
 3223SOL    HW110568   1.369   5.189   0.480
 3223SOL    HW210569   1.426   5.061   0.395
 3224SOL     OW10570   4.133   1.809   4.106
 3224SOL    HW110571   4.096   1.771   4.021
 3224SOL    HW210572   4.058   1.823   4.171
 3225SOL     OW10573   4.197   1.169   4.850
 3225SOL    HW110574   4.146   1.100   4.902
 3225SOL    HW210575   4.295   1.150   4.856
 3226SOL     OW10576   5.979   0.441   0.942
 3226SOL    HW110577   5.989   0.529   0.989
 3226SOL    HW210578   5.905   0.389   0.985
 3227SOL     OW10579   5.502   4.536   5.019
 3227SOL    HW110580   5.485   4.634   5.019
 3227SOL    HW210581   5.422   4.487   4.984
 3228SOL     OW10582   2.861   4.347   0.378
 3228SOL    HW110583   2.851   4.263   0.431
 3228SOL    HW210584   2.945   4.394   0.405
 3229SOL     OW10585   1.659   2.342   0.503
 3229SOL    HW110586   1.735   2.344   0.568
 3229SOL    HW210587   1.672   2.266   0.440
 3230SOL     OW10588   3.108   6.067   5.505
 3230SOL    HW110589   3.102   5.991   5.441
 3230SOL    HW210590   3.100   6.153   5.454
 3231SOL     OW10591   2.074   2.234   3.058
 3231SOL    HW110592   2.157   2.248   3.004
 3231SOL    HW210593   2.009   2.307   3.037
 3232SOL     OW10594   3.839   5.022   4.510
 3232SOL    HW110595   3.754   5.074   4.509
 3232SOL    HW210596   3.848   4.975   4.598
 3233SOL     OW10597   1.154   0.310   0.315
 3233SOL    HW110598   1.210   0.262   0.248
 3233SOL    HW210599   1.074   0.349   0.270
 3234SOL     OW10600   3.036   3.239   0.638
 3234SOL    HW110601   3.017   3.334   0.663
 3234SOL    HW210602   2.952   3.195   0.605
 3235SOL     OW10603   0.993   0.628   3.508
 3235SOL    HW110604   0.967   0.569   3.432
 3235SOL    HW210605   0.935   0.709   3.509
 3236SOL     OW10606   4.391   1.033   0.299
 3236SOL    HW110607   4.416   0.947   0.255
 3236SOL    HW210608   4.386   1.021   0.398
 3237SOL     OW10609   5.788   1.612   5.364
 3237SOL    HW110610   5.800   1.704   5.326
 3237SOL    HW210611   5.720   1.614   5.437
 3238SOL     OW10612   6.399   4.794   1.584
 3238SOL    HW110613   6.367   4.884   1.556
 3238SOL    HW210614   6.482   4.771   1.532
 3239SOL     OW10615   6.936   0.266   4.919
 3239SOL    HW110616   6.930   0.206   4.840
 3239SOL    HW210617   0.002   0.319   4.915
 3240SOL     OW10618   0.065   0.579   0.245
 3240SOL    HW110619   0.134   0.644   0.274
 3240SOL    HW210620   0.005   0.622   0.177
 3241SOL     OW10621   6.418   3.053   5.468
 3241SOL    HW110622   6.403   3.150   5.454
 3241SOL    HW210623   6.512   3.030   5.443
 3242SOL     OW10624   6.189   3.876   4.705
 3242SOL    HW110625   6.266   3.852   4.646
 3242SOL    HW210626   6.104   3.866   4.653
 3243SOL     OW10627   5.961   4.527   4.205
 3243SOL    HW110628   5.977   4.615   4.160
 3243SOL    HW210629   5.875   4.487   4.171
 3244SOL     OW10630   5.076   6.944   0.223
 3244SOL    HW110631   5.130   6.878   0.170
 3244SOL    HW210632   5.120   6.959   0.312
 3245SOL     OW10633   3.586   6.875   4.843
 3245SOL    HW110634   3.528   6.909   4.769
 3245SOL    HW210635   3.622   6.952   4.895
 3246SOL     OW10636   0.137   0.222   2.456
 3246SOL    HW110637   0.076   0.270   2.519
 3246SOL    HW210638   0.087   0.200   2.372
 3247SOL     OW10639   0.916   4.460   3.621
 3247SOL    HW110640   0.870   4.461   3.710
 3247SOL    HW210641   0.920   4.367   3.585
 3248SOL     OW10642   5.562   2.131   3.651
 3248SOL    HW110643   5.580   2.035   3.629
 3248SOL    HW210644   5.466   2.142   3.676
 3249SOL     OW10645   2.923   3.636   3.311
 3249SOL    HW110646   2.926   3.736   3.313
 3249SOL    HW210647   2.879   3.606   3.227
 3250SOL     OW10648   4.782   5.633   2.749
 3250SOL    HW110649   4.706   5.578   2.714
 3250SOL    HW210650   4.815   5.593   2.835
 3251SOL     OW10651   2.951   1.852   2.728
 3251SOL    HW110652   2.891   1.829   2.805
 3251SOL    HW210653   2.913   1.930   2.679
 3252SOL     OW10654   1.738   1.411   3.240
 3252SOL    HW110655   1.721   1.489   3.181
 3252SOL    HW210656   1.703   1.328   3.197
 3253SOL     OW10657   6.618   3.259   0.171
 3253SOL    HW110658   6.574   3.242   0.083
 3253SOL    HW210659   6.630   3.173   0.220
 3254SOL     OW10660   6.383   6.497   1.281
 3254SOL    HW110661   6.299   6.548   1.261
 3254SOL    HW210662   6.402   6.433   1.206
 3255SOL     OW10663   4.838   6.362   1.933
 3255SOL    HW110664   4.751   6.405   1.907
 3255SOL    HW210665   4.825   6.264   1.943
 3256SOL     OW10666   4.876   2.446   1.194
 3256SOL    HW110667   4.841   2.499   1.270
 3256SOL    HW210668   4.822   2.362   1.183
 3257SOL     OW10669   2.975   1.552   2.754
 3257SOL    HW110670   3.001   1.649   2.751
 3257SOL    HW210671   2.927   1.533   2.839
 3258SOL     OW10672   1.647   5.459   4.443
 3258SOL    HW110673   1.563   5.508   4.419
 3258SOL    HW210674   1.702   5.445   4.361
 3259SOL     OW10675   5.300   3.987   4.190
 3259SOL    HW110676   5.220   4.040   4.162
 3259SOL    HW210677   5.345   4.032   4.268
 3260SOL     OW10678   1.271   4.568   3.309
 3260SOL    HW110679   1.238   4.494   3.367
 3260SOL    HW210680   1.213   4.574   3.227
 3261SOL     OW10681   5.570   6.897   4.435
 3261SOL    HW110682   5.511   6.947   4.372
 3261SOL    HW210683   5.613   6.961   4.498
 3262SOL     OW10684   2.998   1.875   3.759
 3262SOL    HW110685   2.918   1.862   3.818
 3262SOL    HW210686   3.052   1.791   3.757
 3263SOL     OW10687   6.992   0.895   2.116
 3263SOL    HW110688   6.951   0.855   2.034
 3263SOL    HW210689   0.042   0.963   2.089
 3264SOL     OW10690   1.713   4.937   6.759
 3264SOL    HW110691   1.712   4.964   6.855
 3264SOL    HW210692   1.673   4.846   6.749
 3265SOL     OW10693   6.783   5.305   0.043
 3265SOL    HW110694   6.805   5.365   6.985
 3265SOL    HW210695   6.775   5.211   0.010
 3266SOL     OW10696   3.458   4.992   5.775
 3266SOL    HW110697   3.377   4.976   5.830
 3266SOL    HW210698   3.432   4.998   5.678
 3267SOL     OW10699   3.746   6.720   0.285
 3267SOL    HW110700   3.654   6.691   0.309
 3267SOL    HW210701   3.791   6.758   0.366
 3268SOL     OW10702   5.708   5.290   1.944
 3268SOL    HW110703   5.782   5.286   2.011
 3268SOL    HW210704   5.700   5.383   1.908
 3269SOL     OW10705   1.483   4.937   1.496
 3269SOL    HW110706   1.489   4.849   1.544
 3269SOL    HW210707   1.507   5.011   1.559
 3270SOL     OW10708   0.527   2.804   5.624
 3270SOL    HW110709   0.464   2.755   5.684
 3270SOL    HW210710   0.488   2.892   5.600
 3271SOL     OW10711   0.855   3.492   1.512
 3271SOL    HW110712   0.902   3.556   1.450
 3271SOL    HW210713   0.869   3.522   1.606
 3272SOL     OW10714   4.563   6.047   0.861
 3272SOL    HW110715   4.498   6.098   0.804
 3272SOL    HW210716   4.514   5.975   0.910
 3273SOL     OW10717   4.033   3.704   6.642
 3273SOL    HW110718   3.949   3.712   6.696
 3273SOL    HW210719   4.009   3.692   6.546
 3274SOL     OW10720   5.643   0.200   1.945
 3274SOL    HW110721   5.660   0.193   1.846
 3274SOL    HW210722   5.721   0.163   1.995
 3275SOL     OW10723   4.916   0.611   1.431
 3275SOL    HW110724   4.904   0.710   1.443
 3275SOL    HW210725   4.952   0.571   1.515
 3276SOL     OW10726   5.575   6.488   6.791
 3276SOL    HW110727   5.646   6.486   6.860
 3276SOL    HW210728   5.500   6.548   6.821
 3277SOL     OW10729   3.208   1.933   2.491
 3277SOL    HW110730   3.281   1.991   2.455
 3277SOL    HW210731   3.232   1.837   2.476
 3278SOL     OW10732   5.657   0.751   6.377
 3278SOL    HW110733   5.746   0.706   6.373
 3278SOL    HW210734   5.623   0.748   6.471
 3279SOL     OW10735   3.580   0.340   1.445
 3279SOL    HW110736   3.492   0.355   1.491
 3279SOL    HW210737   3.577   0.381   1.354
 3280SOL     OW10738   6.464   3.556   4.216
 3280SOL    HW110739   6.390   3.571   4.282
 3280SOL    HW210740   6.518   3.640   4.207
 3281SOL     OW10741   6.002   2.964   1.554
 3281SOL    HW110742   5.961   2.872   1.549
 3281SOL    HW210743   6.025   2.995   1.462
 3282SOL     OW10744   0.147   5.183   5.175
 3282SOL    HW110745   0.240   5.208   5.203
 3282SOL    HW210746   0.151   5.124   5.095
 3283SOL     OW10747   3.318   2.071   0.098
 3283SOL    HW110748   3.405   2.115   0.073
 3283SOL    HW210749   3.334   2.008   0.174
 3284SOL     OW10750   2.218   6.897   4.549
 3284SOL    HW110751   2.184   6.803   4.548
 3284SOL    HW210752   2.232   6.928   4.455
 3285SOL     OW10753   3.905   2.152   4.383
 3285SOL    HW110754   3.871   2.146   4.289
 3285SOL    HW210755   3.831   2.181   4.443
 3286SOL     OW10756   1.342   2.398   2.746
 3286SOL    HW110757   1.302   2.309   2.770
 3286SOL    HW210758   1.348   2.406   2.647
 3287SOL     OW10759   2.337   0.141   0.707
 3287SOL    HW110760   2.381   0.163   0.620
 3287SOL    HW210761   2.237   0.147   0.697
 3288SOL     OW10762   2.429   5.953   1.828
 3288SOL    HW110763   2.335   5.922   1.810
 3288SOL    HW210764   2.451   5.938   1.924
 3289SOL     OW10765   4.136   0.731   6.765
 3289SOL    HW110766   4.217   0.768   6.719
 3289SOL    HW210767   4.127   0.634   6.741
 3290SOL     OW10768   0.362   5.784   0.375
 3290SOL    HW110769   0.412   5.726   0.440
 3290SOL    HW210770   0.284   5.733   0.339
 3291SOL     OW10771   5.225   6.654   5.091
 3291SOL    HW110772   5.211   6.714   5.013
 3291SOL    HW210773   5.262   6.706   5.167
 3292SOL     OW10774   0.091   2.415   0.317
 3292SOL    HW110775   0.023   2.410   0.390
 3292SOL    HW210776   0.050   2.390   0.230
 3293SOL     OW10777   6.083   5.251   3.398
 3293SOL    HW110778   6.057   5.332   3.345
 3293SOL    HW210779   6.146   5.195   3.344
 3294SOL     OW10780   5.006   2.927   5.080
 3294SOL    HW110781   4.993   2.870   5.161
 3294SOL    HW210782   5.018   2.868   5.000
 3295SOL     OW10783   0.771   2.101   2.383
 3295SOL    HW110784   0.784   2.182   2.326
 3295SOL    HW210785   0.859   2.072   2.421
 3296SOL     OW10786   1.852   1.011   6.002
 3296SOL    HW110787   1.891   0.949   5.934
 3296SOL    HW210788   1.765   0.975   6.035
 3297SOL     OW10789   3.563   0.884   5.578
 3297SOL    HW110790   3.504   0.964   5.569
 3297SOL    HW210791   3.647   0.910   5.626
 3298SOL     OW10792   4.468   3.791   6.049
 3298SOL    HW110793   4.498   3.697   6.032
 3298SOL    HW210794   4.496   3.849   5.972
 3299SOL     OW10795   2.503   5.471   3.943
 3299SOL    HW110796   2.511   5.404   3.869
 3299SOL    HW210797   2.487   5.423   4.029
 3300SOL     OW10798   2.322   0.533   3.716
 3300SOL    HW110799   2.354   0.609   3.772
 3300SOL    HW210800   2.303   0.454   3.775
 3301SOL     OW10801   0.930   1.238   3.211
 3301SOL    HW110802   0.882   1.267   3.294
 3301SOL    HW210803   1.029   1.250   3.225
 3302SOL     OW10804   1.507   5.283   4.868
 3302SOL    HW110805   1.423   5.337   4.871
 3302SOL    HW210806   1.490   5.193   4.909
 3303SOL     OW10807   3.158   3.439   0.175
 3303SOL    HW110808   3.201   3.398   0.256
 3303SOL    HW210809   3.194   3.396   0.092
 3304SOL     OW10810   2.210   4.323   6.968
 3304SOL    HW110811   2.266   4.335   0.031
 3304SOL    HW210812   2.221   4.403   6.908
 3305SOL     OW10813   3.427   2.871   0.627
 3305SOL    HW110814   3.338   2.831   0.604
 3305SOL    HW210815   3.500   2.812   0.593
 3306SOL     OW10816   2.205   0.750   6.926
 3306SOL    HW110817   2.244   0.724   6.838
 3306SOL    HW210818   2.211   0.849   6.938
 3307SOL     OW10819   1.400   6.160   4.793
 3307SOL    HW110820   1.445   6.071   4.788
 3307SOL    HW210821   1.451   6.220   4.854
 3308SOL     OW10822   3.982   4.853   0.908
 3308SOL    HW110823   3.963   4.821   0.816
 3308SOL    HW210824   4.081   4.867   0.919
 3309SOL     OW10825   5.489   3.065   3.194
 3309SOL    HW110826   5.546   3.123   3.136
 3309SOL    HW210827   5.528   2.973   3.198
 3310SOL     OW10828   6.478   4.695   6.141
 3310SOL    HW110829   6.417   4.656   6.210
 3310SOL    HW210830   6.444   4.785   6.113
 3311SOL     OW10831   2.521   3.803   0.217
 3311SOL    HW110832   2.439   3.784   0.162
 3311SOL    HW210833   2.580   3.866   0.167
 3312SOL     OW10834   4.512   2.914   6.526
 3312SOL    HW110835   4.476   2.875   6.441
 3312SOL    HW210836   4.611   2.913   6.523
 3313SOL     OW10837   6.849   0.390   4.100
 3313SOL    HW110838   6.948   0.402   4.112
 3313SOL    HW210839   6.803   0.479   4.108
 3314SOL     OW10840   3.897   5.599   2.389
 3314SOL    HW110841   3.910   5.693   2.356
 3314SOL    HW210842   3.838   5.549   2.325
 3315SOL     OW10843   0.521   5.666   4.470
 3315SOL    HW110844   0.465   5.720   4.407
 3315SOL    HW210845   0.516   5.705   4.561
 3316SOL     OW10846   4.694   2.446   6.761
 3316SOL    HW110847   4.607   2.495   6.762
 3316SOL    HW210848   4.680   2.352   6.793
 3317SOL     OW10849   5.110   2.866   1.926
 3317SOL    HW110850   5.147   2.783   1.886
 3317SOL    HW210851   5.010   2.865   1.920
 3318SOL     OW10852   3.074   2.949   0.482
 3318SOL    HW110853   3.117   2.878   0.426
 3318SOL    HW210854   3.137   3.025   0.493
 3319SOL     OW10855   6.675   5.767   3.512
 3319SOL    HW110856   6.751   5.827   3.537
 3319SOL    HW210857   6.700   5.716   3.429
 3320SOL     OW10858   6.149   6.589   1.908
 3320SOL    HW110859   6.097   6.616   1.827
 3320SOL    HW210860   6.093   6.529   1.965
 3321SOL     OW10861   4.606   2.136   0.247
 3321SOL    HW110862   4.663   2.071   0.297
 3321SOL    HW210863   4.578   2.096   0.160
 3322SOL     OW10864   6.227   3.270   0.635
 3322SOL    HW110865   6.240   3.223   0.722
 3322SOL    HW210866   6.137   3.246   0.598
 3323SOL     OW10867   1.632   2.295   1.088
 3323SOL    HW110868   1.727   2.315   1.114
 3323SOL    HW210869   1.579   2.274   1.171
 3324SOL     OW10870   5.332   5.648   5.438
 3324SOL    HW110871   5.396   5.645   5.361
 3324SOL    HW210872   5.370   5.704   5.511
 3325SOL     OW10873   2.285   4.588   5.454
 3325SOL    HW110874   2.266   4.489   5.450
 3325SOL    HW210875   2.364   4.609   5.397
 3326SOL     OW10876   3.521   2.035   2.701
 3326SOL    HW110877   3.617   2.008   2.704
 3326SOL    HW210878   3.494   2.051   2.607
 3327SOL     OW10879   0.711   5.332   6.188
 3327SOL    HW110880   0.806   5.351   6.161
 3327SOL    HW210881   0.689   5.237   6.169
 3328SOL     OW10882   4.825   2.523   5.696
 3328SOL    HW110883   4.802   2.507   5.600
 3328SOL    HW210884   4.771   2.461   5.754
 3329SOL     OW10885   6.524   5.965   5.729
 3329SOL    HW110886   6.578   6.008   5.801
 3329SOL    HW210887   6.477   5.885   5.765
 3330SOL     OW10888   0.106   3.638   2.761
 3330SOL    HW110889   0.155   3.677   2.839
 3330SOL    HW210890   0.031   3.581   2.793
 3331SOL     OW10891   2.198   3.220   0.014
 3331SOL    HW110892   2.154   3.237   0.102
 3331SOL    HW210893   2.292   3.189   0.030
 3332SOL     OW10894   6.471   4.056   1.569
 3332SOL    HW110895   6.552   4.052   1.510
 3332SOL    HW210896   6.466   4.146   1.612
 3333SOL     OW10897   3.627   5.461   6.595
 3333SOL    HW110898   3.656   5.437   6.502
 3333SOL    HW210899   3.577   5.547   6.593
 3334SOL     OW10900   2.012   3.776   1.548
 3334SOL    HW110901   2.032   3.747   1.641
 3334SOL    HW210902   1.932   3.726   1.514
 3335SOL     OW10903   5.882   3.972   4.535
 3335SOL    HW110904   5.857   3.994   4.629
 3335SOL    HW210905   5.941   4.045   4.499
 3336SOL     OW10906   2.760   5.706   6.101
 3336SOL    HW110907   2.715   5.793   6.082
 3336SOL    HW210908   2.836   5.693   6.037
 3337SOL     OW10909   3.877   1.686   0.665
 3337SOL    HW110910   3.966   1.693   0.710
 3337SOL    HW210911   3.868   1.759   0.597
 3338SOL     OW10912   6.861   4.372   0.354
 3338SOL    HW110913   6.874   4.349   0.450
 3338SOL    HW210914   6.822   4.464   0.347
 3339SOL     OW10915   0.588   5.998   6.258
 3339SOL    HW110916   0.546   6.036   6.175
 3339SOL    HW210917   0.567   6.055   6.336
 3340SOL     OW10918   4.086   0.077   1.816
 3340SOL    HW110919   4.045   0.131   1.890
 3340SOL    HW210920   4.186   0.085   1.820
 3341SOL     OW10921   0.948   6.848   1.938
 3341SOL    HW110922   1.045   6.854   1.916
 3341SOL    HW210923   0.903   6.788   1.871
 3342SOL     OW10924   2.973   0.575   4.915
 3342SOL    HW110925   2.899   0.631   4.877
 3342SOL    HW210926   2.997   0.503   4.850
 3343SOL     OW10927   6.262   2.129   1.597
 3343SOL    HW110928   6.214   2.076   1.666
 3343SOL    HW210929   6.323   2.069   1.545
 3344SOL     OW10930   0.033   3.073   5.548
 3344SOL    HW110931   0.084   3.144   5.597
 3344SOL    HW210932   0.004   3.108   5.459
 3345SOL     OW10933   3.040   3.317   5.952
 3345SOL    HW110934   3.029   3.362   6.040
 3345SOL    HW210935   3.108   3.365   5.897
 3346SOL     OW10936   1.909   5.567   2.410
 3346SOL    HW110937   1.863   5.552   2.497
 3346SOL    HW210938   1.865   5.642   2.361
 3347SOL     OW10939   5.761   4.044   4.770
 3347SOL    HW110940   5.723   3.960   4.808
 3347SOL    HW210941   5.702   4.121   4.794
 3348SOL     OW10942   4.013   3.898   3.135
 3348SOL    HW110943   4.080   3.849   3.079
 3348SOL    HW210944   3.995   3.845   3.218
 3349SOL     OW10945   5.996   4.031   5.965
 3349SOL    HW110946   5.958   3.961   5.905
 3349SOL    HW210947   6.062   3.989   6.028
 3350SOL     OW10948   1.702   2.400   0.829
 3350SOL    HW110949   1.680   2.342   0.907
 3350SOL    HW210950   1.618   2.425   0.781
 3351SOL     OW10951   5.219   2.091   0.206
 3351SOL    HW110952   5.132   2.071   0.250
 3351SOL    HW210953   5.283   2.128   0.273
 3352SOL     OW10954   0.581   3.069   0.467
 3352SOL    HW110955   0.522   3.077   0.547
 3352SOL    HW210956   0.588   3.158   0.422
 3353SOL     OW10957   1.679   6.418   6.353
 3353SOL    HW110958   1.699   6.465   6.267
 3353SOL    HW210959   1.580   6.400   6.359
 3354SOL     OW10960   1.309   1.262   2.603
 3354SOL    HW110961   1.256   1.262   2.689
 3354SOL    HW210962   1.270   1.194   2.541
 3355SOL     OW10963   6.604   1.529   2.663
 3355SOL    HW110964   6.508   1.528   2.636
 3355SOL    HW210965   6.630   1.440   2.699
 3356SOL     OW10966   2.183   3.608   6.272
 3356SOL    HW110967   2.134   3.616   6.359
 3356SOL    HW210968   2.165   3.518   6.232
 3357SOL     OW10969   2.176   5.183   2.007
 3357SOL    HW110970   2.241   5.236   1.952
 3357SOL    HW210971   2.156   5.097   1.961
 3358SOL     OW10972   6.752   4.456   2.829
 3358SOL    HW110973   6.810   4.519   2.881
 3358SOL    HW210974   6.780   4.362   2.849
 3359SOL     OW10975   1.154   1.410   1.911
 3359SOL    HW110976   1.224   1.375   1.974
 3359SOL    HW210977   1.174   1.378   1.818
 3360SOL     OW10978   1.530   0.443   6.186
 3360SOL    HW110979   1.527   0.533   6.144
 3360SOL    HW210980   1.485   0.447   6.276
 3361SOL     OW10981   4.805   0.659   3.004
 3361SOL    HW110982   4.854   0.576   3.032
 3361SOL    HW210983   4.848   0.697   2.922
 3362SOL     OW10984   2.099   1.326   5.482
 3362SOL    HW110985   2.000   1.323   5.475
 3362SOL    HW210986   2.126   1.327   5.579
 3363SOL     OW10987   0.278   1.493   6.552
 3363SOL    HW110988   0.184   1.482   6.583
 3363SOL    HW210989   0.293   1.438   6.470
 3364SOL     OW10990   2.066   4.554   5.964
 3364SOL    HW110991   1.985   4.603   5.998
 3364SOL    HW210992   2.037   4.472   5.914
 3365SOL     OW10993   5.869   1.926   5.415
 3365SOL    HW110994   5.851   1.871   5.496
 3365SOL    HW210995   5.880   2.022   5.441
 3366SOL     OW10996   5.359   1.185   6.130
 3366SOL    HW110997   5.404   1.097   6.139
 3366SOL    HW210998   5.259   1.172   6.132
 3367SOL     OW10999   1.654   0.465   2.297
 3367SOL    HW111000   1.691   0.539   2.353
 3367SOL    HW211001   1.558   0.484   2.277
 3368SOL     OW11002   6.378   0.562   5.776
 3368SOL    HW111003   6.333   0.615   5.848
 3368SOL    HW211004   6.380   0.466   5.803
 3369SOL     OW11005   3.704   6.187   5.731
 3369SOL    HW111006   3.614   6.232   5.731
 3369SOL    HW211007   3.776   6.256   5.726
 3370SOL     OW11008   4.726   0.350   4.838
 3370SOL    HW111009   4.666   0.372   4.914
 3370SOL    HW211010   4.743   0.252   4.836
 3371SOL     OW11011   6.981   5.157   1.354
 3371SOL    HW111012   0.039   5.094   1.367
 3371SOL    HW211013   6.897   5.105   1.338
 3372SOL     OW11014   0.270   1.812   2.530
 3372SOL    HW111015   0.307   1.863   2.452
 3372SOL    HW211016   0.172   1.797   2.516
 3373SOL     OW11017   0.349   2.255   5.838
 3373SOL    HW111018   0.402   2.323   5.888
 3373SOL    HW211019   0.409   2.179   5.812
 3374SOL     OW11020   3.289   5.127   5.234
 3374SOL    HW111021   3.314   5.042   5.187
 3374SOL    HW211022   3.193   5.121   5.264
 3375SOL     OW11023   4.063   3.958   5.305
 3375SOL    HW111024   4.141   3.922   5.357
 3375SOL    HW211025   4.067   4.058   5.304
 3376SOL     OW11026   2.952   3.768   2.174
 3376SOL    HW111027   3.047   3.797   2.176
 3376SOL    HW211028   2.929   3.723   2.260
 3377SOL     OW11029   3.042   5.680   5.540
 3377SOL    HW111030   2.989   5.722   5.467
 3377SOL    HW211031   3.131   5.652   5.504
 3378SOL     OW11032   1.042   1.155   1.422
 3378SOL    HW111033   1.020   1.062   1.390
 3378SOL    HW211034   0.996   1.171   1.510
 3379SOL     OW11035   1.096   4.679   6.663
 3379SOL    HW111036   1.018   4.651   6.717
 3379SOL    HW211037   1.064   4.727   6.581
 3380SOL     OW11038   0.808   3.924   6.033
 3380SOL    HW111039   0.738   3.968   6.090
 3380SOL    HW211040   0.780   3.929   5.937
 3381SOL     OW11041   3.235   3.128   0.858
 3381SOL    HW111042   3.192   3.158   0.773
 3381SOL    HW211043   3.179   3.057   0.901
 3382SOL     OW11044   6.667   6.724   0.208
 3382SOL    HW111045   6.753   6.706   0.256
 3382SOL    HW211046   6.681   6.798   0.142
 3383SOL     OW11047   0.053   4.391   2.620
 3383SOL    HW111048   0.050   4.381   2.719
 3383SOL    HW211049   7.005   4.330   2.578
 3384SOL     OW11050   3.505   2.985   4.766
 3384SOL    HW111051   3.482   2.950   4.676
 3384SOL    HW211052   3.604   2.980   4.780
 3385SOL     OW11053   6.531   4.100   3.269
 3385SOL    HW111054   6.547   4.006   3.241
 3385SOL    HW211055   6.523   4.104   3.369
 3386SOL     OW11056   6.436   4.187   5.068
 3386SOL    HW111057   6.368   4.153   5.003
 3386SOL    HW211058   6.428   4.286   5.075
 3387SOL     OW11059   2.847   1.939   3.297
 3387SOL    HW111060   2.907   2.001   3.349
 3387SOL    HW211061   2.807   1.989   3.220
 3388SOL     OW11062   5.107   2.938   2.184
 3388SOL    HW111063   5.185   2.997   2.207
 3388SOL    HW211064   5.105   2.924   2.085
 3389SOL     OW11065   5.337   4.540   3.393
 3389SOL    HW111066   5.381   4.455   3.365
 3389SOL    HW211067   5.249   4.549   3.346
 3390SOL     OW11068   5.099   2.993   6.000
 3390SOL    HW111069   5.153   3.065   6.044
 3390SOL    HW211070   5.094   2.913   6.060
 3391SOL     OW11071   3.756   1.836   4.483
 3391SOL    HW111072   3.696   1.889   4.423
 3391SOL    HW211073   3.701   1.772   4.537
 3392SOL     OW11074   4.582   6.095   3.634
 3392SOL    HW111075   4.669   6.135   3.664
 3392SOL    HW211076   4.524   6.079   3.714
 3393SOL     OW11077   6.431   0.809   0.083
 3393SOL    HW111078   6.405   0.906   0.087
 3393SOL    HW211079   6.461   0.787   7.009
 3394SOL     OW11080   5.508   1.840   1.370
 3394SOL    HW111081   5.578   1.775   1.400
 3394SOL    HW211082   5.468   1.885   1.450
 3395SOL     OW11083   1.044   3.706   4.718
 3395SOL    HW111084   1.032   3.654   4.633
 3395SOL    HW211085   1.135   3.690   4.755
 3396SOL     OW11086   0.134   4.178   4.312
 3396SOL    HW111087   0.162   4.273   4.331
 3396SOL    HW211088   0.105   4.170   4.217
 3397SOL     OW11089   3.385   6.441   6.007
 3397SOL    HW111090   3.338   6.354   5.994
 3397SOL    HW211091   3.453   6.454   5.935
 3398SOL     OW11092   6.717   6.934   4.176
 3398SOL    HW111093   6.740   0.008   4.147
 3398SOL    HW211094   6.685   6.936   4.271
 3399SOL     OW11095   4.570   5.219   4.581
 3399SOL    HW111096   4.590   5.147   4.647
 3399SOL    HW211097   4.641   5.290   4.586
 3400SOL     OW11098   4.438   2.401   6.436
 3400SOL    HW111099   4.506   2.341   6.479
 3400SOL    HW211100   4.411   2.472   6.501
 3401SOL     OW11101   5.998   4.890   0.042
 3401SOL    HW111102   6.075   4.826   0.049
 3401SOL    HW211103   5.981   4.930   0.132
 3402SOL     OW11104   4.767   5.475   2.165
 3402SOL    HW111105   4.767   5.432   2.256
 3402SOL    HW211106   4.684   5.530   2.154
 3403SOL     OW11107   2.725   1.545   5.125
 3403SOL    HW111108   2.739   1.644   5.118
 3403SOL    HW211109   2.797   1.498   5.073
 3404SOL     OW11110   4.371   0.855   1.040
 3404SOL    HW111111   4.287   0.822   1.083
 3404SOL    HW211112   4.348   0.927   0.974
 3405SOL     OW11113   5.923   3.849   0.625
 3405SOL    HW111114   5.850   3.915   0.644
 3405SOL    HW211115   5.996   3.860   0.691
 3406SOL     OW11116   1.434   4.817   1.865
 3406SOL    HW111117   1.493   4.737   1.853
 3406SOL    HW211118   1.489   4.895   1.895
 3407SOL     OW11119   1.772   5.481   2.635
 3407SOL    HW111120   1.673   5.473   2.646
 3407SOL    HW211121   1.808   5.398   2.591
 3408SOL     OW11122   5.143   3.783   2.917
 3408SOL    HW111123   5.182   3.815   2.831
 3408SOL    HW211124   5.169   3.845   2.991
 3409SOL     OW11125   2.877   0.260   5.502
 3409SOL    HW111126   2.945   0.222   5.565
 3409SOL    HW211127   2.865   0.357   5.520
 3410SOL     OW11128   6.401   0.127   6.742
 3410SOL    HW111129   6.417   0.196   6.812
 3410SOL    HW211130   6.393   0.037   6.784
 3411SOL     OW11131   5.005   2.199   2.097
 3411SOL    HW111132   4.992   2.133   2.171
 3411SOL    HW211133   4.926   2.196   2.035
 3412SOL     OW11134   3.839   4.454   0.118
 3412SOL    HW111135   3.937   4.449   0.096
 3412SOL    HW211136   3.827   4.490   0.211
 3413SOL     OW11137   4.047   1.988   2.659
 3413SOL    HW111138   4.078   1.902   2.699
 3413SOL    HW211139   4.077   2.064   2.717
 3414SOL     OW11140   3.313   2.032   5.558
 3414SOL    HW111141   3.399   1.989   5.587
 3414SOL    HW211142   3.268   1.973   5.491
 3415SOL     OW11143   0.339   5.385   3.865
 3415SOL    HW111144   0.325   5.410   3.769
 3415SOL    HW211145   0.251   5.386   3.913
 3416SOL     OW11146   1.984   4.553   5.408
 3416SOL    HW111147   2.068   4.500   5.424
 3416SOL    HW211148   2.008   4.649   5.392
 3417SOL     OW11149   5.750   0.336   2.216
 3417SOL    HW111150   5.660   0.365   2.249
 3417SOL    HW211151   5.744   0.243   2.179
 3418SOL     OW11152   3.076   1.258   6.310
 3418SOL    HW111153   3.050   1.174   6.357
 3418SOL    HW211154   3.119   1.321   6.375
 3419SOL     OW11155   4.313   3.888   0.424
 3419SOL    HW111156   4.276   3.920   0.511
 3419SOL    HW211157   4.316   3.788   0.424
 3420SOL     OW11158   4.270   2.299   4.125
 3420SOL    HW111159   4.241   2.313   4.030
 3420SOL    HW211160   4.239   2.210   4.156
 3421SOL     OW11161   0.349   6.223   4.353
 3421SOL    HW111162   0.341   6.127   4.379
 3421SOL    HW211163   0.405   6.271   4.419
 3422SOL     OW11164   3.083   1.126   2.017
 3422SOL    HW111165   3.091   1.196   1.945
 3422SOL    HW211166   3.167   1.124   2.071
 3423SOL     OW11167   2.657   0.478   1.150
 3423SOL    HW111168   2.737   0.443   1.197
 3423SOL    HW211169   2.684   0.520   1.063
 3424SOL     OW11170   4.426   1.619   2.691
 3424SOL    HW111171   4.367   1.557   2.743
 3424SOL    HW211172   4.370   1.682   2.637
 3425SOL     OW11173   4.309   4.499   1.677
 3425SOL    HW111174   4.328   4.524   1.771
 3425SOL    HW211175   4.355   4.413   1.655
 3426SOL     OW11176   4.214   3.171   0.663
 3426SOL    HW111177   4.159   3.089   0.653
 3426SOL    HW211178   4.219   3.196   0.760
 3427SOL     OW11179   6.991   2.082   6.943
 3427SOL    HW111180   0.051   2.095   6.883
 3427SOL    HW211181   7.000   1.995   6.991
 3428SOL     OW11182   4.487   4.638   3.166
 3428SOL    HW111183   4.459   4.731   3.142
 3428SOL    HW211184   4.468   4.622   3.263
 3429SOL     OW11185   0.665   3.128   6.514
 3429SOL    HW111186   0.654   3.063   6.440
 3429SOL    HW211187   0.756   3.119   6.554
 3430SOL     OW11188   1.343   6.190   0.205
 3430SOL    HW111189   1.357   6.279   0.161
 3430SOL    HW211190   1.293   6.130   0.143
 3431SOL     OW11191   0.760   5.857   0.395
 3431SOL    HW111192   0.712   5.923   0.337
 3431SOL    HW211193   0.730   5.765   0.373
 3432SOL     OW11194   3.239   1.715   6.779
 3432SOL    HW111195   3.244   1.735   6.877
 3432SOL    HW211196   3.309   1.768   6.732
 3433SOL     OW11197   4.003   0.699   5.198
 3433SOL    HW111198   4.027   0.654   5.284
 3433SOL    HW211199   3.908   0.729   5.201
 3434SOL     OW11200   4.340   2.032   2.874
 3434SOL    HW111201   4.268   1.970   2.904
 3434SOL    HW211202   4.304   2.096   2.806
 3435SOL     OW11203   0.602   0.997   0.165
 3435SOL    HW111204   0.694   0.964   0.147
 3435SOL    HW211205   0.545   0.921   0.194
 3436SOL     OW11206   4.199   6.756   3.225
 3436SOL    HW111207   4.159   6.665   3.228
 3436SOL    HW211208   4.266   6.766   3.299
 3437SOL     OW11209   3.651   6.943   6.361
 3437SOL    HW111210   3.664   6.848   6.332
 3437SOL    HW211211   3.625   6.999   6.283
 3438SOL     OW11212   1.421   3.644   6.658
 3438SOL    HW111213   1.413   3.661   6.560
 3438SOL    HW211214   1.376   3.558   6.681
 3439SOL     OW11215   2.817   5.686   3.626
 3439SOL    HW111216   2.733   5.632   3.627
 3439SOL    HW211217   2.820   5.744   3.708
 3440SOL     OW11218   4.625   1.817   0.774
 3440SOL    HW111219   4.575   1.743   0.728
 3440SOL    HW211220   4.578   1.841   0.859
 3441SOL     OW11221   2.990   0.222   3.731
 3441SOL    HW111222   3.050   0.295   3.698
 3441SOL    HW211223   2.992   0.145   3.667
 3442SOL     OW11224   1.869   4.848   3.247
 3442SOL    HW111225   1.923   4.776   3.204
 3442SOL    HW211226   1.810   4.808   3.318
 3443SOL     OW11227   6.120   0.853   3.709
 3443SOL    HW111228   6.195   0.917   3.728
 3443SOL    HW211229   6.043   0.873   3.769
 3444SOL     OW11230   4.354   5.368   6.953
 3444SOL    HW111231   4.257   5.358   6.975
 3444SOL    HW211232   4.407   5.363   0.018
 3445SOL     OW11233   6.062   4.158   4.497
 3445SOL    HW111234   6.064   4.219   4.577
 3445SOL    HW211235   6.152   4.114   4.487
 3446SOL     OW11236   3.543   6.522   2.692
 3446SOL    HW111237   3.509   6.483   2.606
 3446SOL    HW211238   3.466   6.541   2.753
 3447SOL     OW11239   5.564   5.118   6.272
 3447SOL    HW111240   5.569   5.106   6.371
 3447SOL    HW211241   5.523   5.207   6.252
 3448SOL     OW11242   3.703   2.222   1.006
 3448SOL    HW111243   3.639   2.152   0.975
 3448SOL    HW211244   3.684   2.308   0.959
 3449SOL     OW11245   6.325   5.984   3.796
 3449SOL    HW111246   6.348   5.977   3.699
 3449SOL    HW211247   6.385   6.051   3.840
 3450SOL     OW11248   1.336   1.630   1.366
 3450SOL    HW111249   1.339   1.723   1.403
 3450SOL    HW211250   1.270   1.627   1.291
 3451SOL     OW11251   1.032   5.146   4.539
 3451SOL    HW111252   1.068   5.229   4.581
 3451SOL    HW211253   0.969   5.171   4.465
 3452SOL     OW11254   6.080   2.005   6.736
 3452SOL    HW111255   6.143   2.077   6.766
 3452SOL    HW211256   5.988   2.026   6.768
 3453SOL     OW11257   5.564   5.545   5.673
 3453SOL    HW111258   5.661   5.546   5.695
 3453SOL    HW211259   5.529   5.639   5.667
 3454SOL     OW11260   0.719   0.605   0.535
 3454SOL    HW111261   0.775   0.558   0.603
 3454SOL    HW211262   0.773   0.676   0.490
 3455SOL     OW11263   1.946   2.627   4.814
 3455SOL    HW111264   1.937   2.558   4.742
 3455SOL    HW211265   1.985   2.585   4.896
 3456SOL     OW11266   6.315   6.982   1.720
 3456SOL    HW111267   6.391   6.952   1.778
 3456SOL    HW211268   6.301   6.914   1.647
 3457SOL     OW11269   2.177   5.203   3.185
 3457SOL    HW111270   2.093   5.254   3.169
 3457SOL    HW211271   2.175   5.163   3.277
 3458SOL     OW11272   5.164   5.479   1.193
 3458SOL    HW111273   5.125   5.413   1.259
 3458SOL    HW211274   5.218   5.429   1.125
 3459SOL     OW11275   6.478   6.255   3.839
 3459SOL    HW111276   6.562   6.265   3.892
 3459SOL    HW211277   6.497   6.278   3.743
 3460SOL     OW11278   4.019   3.296   6.576
 3460SOL    HW111279   3.936   3.278   6.629
 3460SOL    HW211280   4.065   3.378   6.612
 3461SOL     OW11281   3.332   5.667   2.647
 3461SOL    HW111282   3.406   5.715   2.693
 3461SOL    HW211283   3.367   5.624   2.563
 3462SOL     OW11284   4.997   2.988   3.156
 3462SOL    HW111285   5.090   3.002   3.120
 3462SOL    HW211286   4.985   2.892   3.181
 3463SOL     OW11287   2.223   2.988   1.032
 3463SOL    HW111288   2.210   3.022   0.939
 3463SOL    HW211289   2.321   2.979   1.050
 3464SOL     OW11290   4.591   2.713   6.748
 3464SOL    HW111291   4.576   2.800   6.701
 3464SOL    HW211292   4.585   2.727   6.847
 3465SOL     OW11293   1.743   3.677   1.986
 3465SOL    HW111294   1.734   3.734   2.068
 3465SOL    HW211295   1.832   3.632   1.987
 3466SOL     OW11296   6.035   4.753   4.062
 3466SOL    HW111297   5.978   4.759   3.979
 3466SOL    HW211298   6.129   4.730   4.036
 3467SOL     OW11299   3.051   2.823   1.228
 3467SOL    HW111300   2.975   2.842   1.290
 3467SOL    HW211301   3.096   2.739   1.256
 3468SOL     OW11302   3.440   1.714   0.920
 3468SOL    HW111303   3.493   1.752   0.995
 3468SOL    HW211304   3.416   1.787   0.856
 3469SOL     OW11305   4.066   5.820   5.391
 3469SOL    HW111306   4.157   5.793   5.424
 3469SOL    HW211307   4.061   5.919   5.384
 3470SOL     OW11308   0.900   2.932   1.727
 3470SOL    HW111309   0.833   2.925   1.800
 3470SOL    HW211310   0.978   2.872   1.747
 3471SOL     OW11311   4.928   2.968   3.622
 3471SOL    HW111312   5.027   2.962   3.633
 3471SOL    HW211313   4.907   3.019   3.538
 3472SOL     OW11314   4.333   1.358   3.629
 3472SOL    HW111315   4.409   1.413   3.593
 3472SOL    HW211316   4.349   1.338   3.726
 3473SOL     OW11317   0.077   4.360   1.880
 3473SOL    HW111318   0.112   4.447   1.844
 3473SOL    HW211319   0.040   4.375   1.972
 3474SOL     OW11320   5.608   5.242   4.042
 3474SOL    HW111321   5.696   5.204   4.068
 3474SOL    HW211322   5.600   5.336   4.075
 3475SOL     OW11323   0.041   4.200   4.069
 3475SOL    HW111324   6.977   4.254   4.054
 3475SOL    HW211325   0.024   4.105   4.043
 3476SOL     OW11326   1.369   1.031   3.235
 3476SOL    HW111327   1.307   0.955   3.215
 3476SOL    HW211328   1.398   1.026   3.331
 3477SOL     OW11329   0.201   4.055   2.081
 3477SOL    HW111330   0.252   3.980   2.038
 3477SOL    HW211331   0.172   4.028   2.173
 3478SOL     OW11332   2.142   0.720   0.584
 3478SOL    HW111333   2.065   0.733   0.522
 3478SOL    HW211334   2.108   0.705   0.677
 3479SOL     OW11335   1.453   4.343   4.149
 3479SOL    HW111336   1.535   4.329   4.093
 3479SOL    HW211337   1.477   4.338   4.246
 3480SOL     OW11338   1.157   4.914   0.134
 3480SOL    HW111339   1.242   4.967   0.128
 3480SOL    HW211340   1.180   4.817   0.143
 3481SOL     OW11341   5.927   0.960   5.052
 3481SOL    HW111342   5.937   0.911   5.139
 3481SOL    HW211343   5.868   1.040   5.066
 3482SOL     OW11344   6.031   3.951   5.193
 3482SOL    HW111345   5.939   3.967   5.159
 3482SOL    HW211346   6.086   4.033   5.181
 3483SOL     OW11347   5.254   2.974   4.585
 3483SOL    HW111348   5.176   2.942   4.638
 3483SOL    HW211349   5.332   2.913   4.600
 3484SOL     OW11350   2.191   3.363   5.260
 3484SOL    HW111351   2.257   3.436   5.275
 3484SOL    HW211352   2.229   3.276   5.292
 3485SOL     OW11353   0.287   2.361   6.392
 3485SOL    HW111354   0.224   2.313   6.331
 3485SOL    HW211355   0.346   2.421   6.339
 3486SOL     OW11356   1.901   6.832   4.804
 3486SOL    HW111357   1.914   6.916   4.752
 3486SOL    HW211358   1.926   6.753   4.748
 3487SOL     OW11359   4.927   1.492   6.732
 3487SOL    HW111360   4.970   1.402   6.744
 3487SOL    HW211361   4.901   1.504   6.636
 3488SOL     OW11362   5.734   0.747   4.650
 3488SOL    HW111363   5.686   0.824   4.608
 3488SOL    HW211364   5.722   0.751   4.749
 3489SOL     OW11365   3.515   6.576   0.303
 3489SOL    HW111366   3.509   6.517   0.223
 3489SOL    HW211367   3.432   6.566   0.358
 3490SOL     OW11368   3.433   5.672   0.156
 3490SOL    HW111369   3.465   5.611   0.083
 3490SOL    HW211370   3.508   5.731   0.186
 3491SOL     OW11371   4.978   4.843   6.342
 3491SOL    HW111372   5.030   4.890   6.413
 3491SOL    HW211373   4.970   4.746   6.365
 3492SOL     OW11374   5.788   4.575   2.927
 3492SOL    HW111375   5.840   4.639   2.870
 3492SOL    HW211376   5.849   4.502   2.959
 3493SOL     OW11377   5.993   3.243   5.036
 3493SOL    HW111378   5.999   3.193   4.949
 3493SOL    HW211379   5.954   3.333   5.020
 3494SOL     OW11380   4.220   1.708   1.910
 3494SOL    HW111381   4.315   1.685   1.932
 3494SOL    HW211382   4.219   1.782   1.843
 3495SOL     OW11383   0.735   2.946   2.484
 3495SOL    HW111384   0.716   2.848   2.488
 3495SOL    HW211385   0.809   2.963   2.419
 3496SOL     OW11386   5.424   5.433   1.381
 3496SOL    HW111387   5.473   5.471   1.302
 3496SOL    HW211388   5.366   5.503   1.421
 3497SOL     OW11389   3.589   6.857   2.470
 3497SOL    HW111390   3.496   6.821   2.485
 3497SOL    HW211391   3.583   6.953   2.445
 3498SOL     OW11392   2.228   2.382   1.545
 3498SOL    HW111393   2.297   2.312   1.562
 3498SOL    HW211394   2.272   2.464   1.509
 3499SOL     OW11395   6.272   5.405   5.744
 3499SOL    HW111396   6.289   5.457   5.660
 3499SOL    HW211397   6.195   5.446   5.793
 3500SOL     OW11398   1.673   1.964   4.109
 3500SOL    HW111399   1.673   2.061   4.135
 3500SOL    HW211400   1.719   1.953   4.021
 3501SOL     OW11401   1.326   0.249   5.714
 3501SOL    HW111402   1.320   0.150   5.702
 3501SOL    HW211403   1.414   0.272   5.757
 3502SOL     OW11404   4.810   2.937   2.245
 3502SOL    HW111405   4.771   3.004   2.182
 3502SOL    HW211406   4.910   2.938   2.238
 3503SOL     OW11407   6.202   5.820   6.912
 3503SOL    HW111408   6.218   5.785   6.819
 3503SOL    HW211409   6.188   5.743   6.975
 3504SOL     OW11410   1.531   0.949   0.921
 3504SOL    HW111411   1.558   0.882   0.990
 3504SOL    HW211412   1.549   1.041   0.956
 3505SOL     OW11413   5.652   4.735   6.006
 3505SOL    HW111414   5.715   4.658   6.003
 3505SOL    HW211415   5.672   4.793   6.085
 3506SOL     OW11416   4.866   4.647   4.785
 3506SOL    HW111417   4.899   4.553   4.793
 3506SOL    HW211418   4.943   4.709   4.774
 3507SOL     OW11419   3.274   6.598   0.465
 3507SOL    HW111420   3.252   6.519   0.523
 3507SOL    HW211421   3.242   6.682   0.509
 3508SOL     OW11422   3.019   2.257   5.396
 3508SOL    HW111423   3.075   2.249   5.479
 3508SOL    HW211424   3.076   2.288   5.320
 3509SOL     OW11425   4.261   5.305   6.660
 3509SOL    HW111426   4.273   5.285   6.758
 3509SOL    HW211427   4.194   5.242   6.621
 3510SOL     OW11428   3.068   0.839   0.734
 3510SOL    HW111429   3.028   0.874   0.819
 3510SOL    HW211430   3.004   0.853   0.659
 3511SOL     OW11431   2.755   4.588   1.595
 3511SOL    HW111432   2.824   4.568   1.664
 3511SOL    HW211433   2.789   4.659   1.533
 3512SOL     OW11434   0.227   5.009   6.616
 3512SOL    HW111435   0.132   5.001   6.646
 3512SOL    HW211436   0.234   5.078   6.544
 3513SOL     OW11437   6.166   2.248   0.192
 3513SOL    HW111438   6.215   2.332   0.217
 3513SOL    HW211439   6.166   2.238   0.093
 3514SOL     OW11440   3.890   1.488   2.484
 3514SOL    HW111441   3.912   1.457   2.576
 3514SOL    HW211442   3.903   1.412   2.420
 3515SOL     OW11443   6.266   5.441   4.320
 3515SOL    HW111444   6.267   5.421   4.223
 3515SOL    HW211445   6.323   5.374   4.369
 3516SOL     OW11446   4.873   0.324   1.510
 3516SOL    HW111447   4.943   0.272   1.460
 3516SOL    HW211448   4.891   0.421   1.500
 3517SOL     OW11449   6.291   0.625   0.912
 3517SOL    HW111450   6.251   0.701   0.963
 3517SOL    HW211451   6.312   0.550   0.975
 3518SOL     OW11452   5.096   1.289   5.441
 3518SOL    HW111453   5.060   1.221   5.505
 3518SOL    HW211454   5.027   1.360   5.424
 3519SOL     OW11455   3.390   0.913   0.727
 3519SOL    HW111456   3.474   0.885   0.680
 3519SOL    HW211457   3.342   0.980   0.671
 3520SOL     OW11458   2.519   6.588   4.861
 3520SOL    HW111459   2.576   6.508   4.877
 3520SOL    HW211460   2.480   6.619   4.949
 3521SOL     OW11461   2.544   2.759   0.293
 3521SOL    HW111462   2.571   2.801   0.380
 3521SOL    HW211463   2.608   2.685   0.271
 3522SOL     OW11464   0.201   5.731   6.596
 3522SOL    HW111465   0.172   5.823   6.567
 3522SOL    HW211466   0.207   5.671   6.516
 3523SOL     OW11467   1.324   5.209   6.298
 3523SOL    HW111468   1.342   5.286   6.360
 3523SOL    HW211469   1.269   5.240   6.221
 3524SOL     OW11470   5.622   1.295   3.290
 3524SOL    HW111471   5.695   1.301   3.358
 3524SOL    HW211472   5.653   1.240   3.212
 3525SOL     OW11473   6.256   4.345   3.477
 3525SOL    HW111474   6.194   4.420   3.455
 3525SOL    HW211475   6.218   4.291   3.551
 3526SOL     OW11476   1.021   6.323   2.980
 3526SOL    HW111477   1.027   6.388   2.904
 3526SOL    HW211478   0.971   6.242   2.951
 3527SOL     OW11479   6.563   2.506   5.662
 3527SOL    HW111480   6.651   2.480   5.703
 3527SOL    HW211481   6.550   2.605   5.671
 3528SOL     OW11482   2.270   6.588   4.686
 3528SOL    HW111483   2.330   6.644   4.742
 3528SOL    HW211484   2.270   6.494   4.719
 3529SOL     OW11485   4.142   5.072   0.717
 3529SOL    HW111486   4.045   5.052   0.704
 3529SOL    HW211487   4.155   5.171   0.720
 3530SOL     OW11488   7.014   0.521   1.625
 3530SOL    HW111489   6.956   0.444   1.603
 3530SOL    HW211490   6.960   0.605   1.626
 3531SOL     OW11491   5.280   1.827   0.379
 3531SOL    HW111492   5.321   1.806   0.468
 3531SOL    HW211493   5.201   1.887   0.392
 3532SOL     OW11494   1.639   1.468   1.906
 3532SOL    HW111495   1.552   1.469   1.857
 3532SOL    HW211496   1.624   1.442   2.002
 3533SOL     OW11497   0.522   0.957   2.582
 3533SOL    HW111498   0.464   1.010   2.644
 3533SOL    HW211499   0.514   0.993   2.489
 3534SOL     OW11500   0.233   0.758   1.231
 3534SOL    HW111501   0.156   0.723   1.178
 3534SOL    HW211502   0.264   0.844   1.191
 3535SOL     OW11503   2.541   5.906   4.521
 3535SOL    HW111504   2.618   5.843   4.510
 3535SOL    HW211505   2.457   5.854   4.534
 3536SOL     OW11506   3.454   2.073   2.958
 3536SOL    HW111507   3.472   2.035   2.868
 3536SOL    HW211508   3.391   2.150   2.950
 3537SOL     OW11509   1.771   5.846   3.070
 3537SOL    HW111510   1.777   5.769   3.006
 3537SOL    HW211511   1.819   5.822   3.154
 3538SOL     OW11512   3.165   5.650   4.007
 3538SOL    HW111513   3.092   5.582   4.001
 3538SOL    HW211514   3.247   5.607   4.046
 3539SOL     OW11515   3.549   3.819   4.313
 3539SOL    HW111516   3.561   3.911   4.351
 3539SOL    HW211517   3.541   3.826   4.213
 3540SOL     OW11518   1.837   2.000   3.878
 3540SOL    HW111519   1.899   1.922   3.869
 3540SOL    HW211520   1.882   2.073   3.929
 3541SOL     OW11521   3.084   4.025   4.762
 3541SOL    HW111522   3.093   4.076   4.847
 3541SOL    HW211523   3.022   3.947   4.776
 3542SOL     OW11524   0.277   5.334   1.807
 3542SOL    HW111525   0.290   5.235   1.801
 3542SOL    HW211526   0.270   5.373   1.715
 3543SOL     OW11527   5.875   2.763   4.615
 3543SOL    HW111528   5.827   2.682   4.579
 3543SOL    HW211529   5.973   2.754   4.597
 3544SOL     OW11530   1.950   5.267   6.306
 3544SOL    HW111531   1.981   5.284   6.399
 3544SOL    HW211532   1.898   5.345   6.272
 3545SOL     OW11533   3.891   5.187   6.834
 3545SOL    HW111534   3.961   5.238   6.883
 3545SOL    HW211535   3.905   5.089   6.847
 3546SOL     OW11536   6.202   5.137   2.931
 3546SOL    HW111537   6.163   5.110   3.019
 3546SOL    HW211538   6.269   5.210   2.944
 3547SOL     OW11539   5.403   4.981   4.407
 3547SOL    HW111540   5.391   4.957   4.310
 3547SOL    HW211541   5.371   5.074   4.422
 3548SOL     OW11542   4.765   3.091   5.361
 3548SOL    HW111543   4.856   3.095   5.321
 3548SOL    HW211544   4.700   3.055   5.293
 3549SOL     OW11545   5.714   4.345   2.801
 3549SOL    HW111546   5.752   4.432   2.831
 3549SOL    HW211547   5.777   4.271   2.826
 3550SOL     OW11548   5.785   2.309   2.318
 3550SOL    HW111549   5.870   2.302   2.267
 3550SOL    HW211550   5.786   2.393   2.373
 3551SOL     OW11551   2.899   6.608   3.396
 3551SOL    HW111552   2.881   6.623   3.493
 3551SOL    HW211553   2.882   6.692   3.345
 3552SOL     OW11554   6.449   4.930   2.961
 3552SOL    HW111555   6.368   4.980   2.930
 3552SOL    HW211556   6.469   4.954   3.056
 3553SOL     OW11557   5.796   1.726   2.557
 3553SOL    HW111558   5.773   1.810   2.607
 3553SOL    HW211559   5.803   1.747   2.460
 3554SOL     OW11560   4.139   5.084   6.534
 3554SOL    HW111561   4.040   5.091   6.518
 3554SOL    HW211562   4.185   5.062   6.448
 3555SOL     OW11563   1.377   2.891   3.473
 3555SOL    HW111564   1.392   2.855   3.380
 3555SOL    HW211565   1.374   2.991   3.469
 3556SOL     OW11566   3.822   0.501   6.642
 3556SOL    HW111567   3.749   0.469   6.703
 3556SOL    HW211568   3.854   0.424   6.585
 3557SOL     OW11569   1.278   0.594   5.143
 3557SOL    HW111570   1.365   0.634   5.173
 3557SOL    HW211571   1.268   0.503   5.183
 3558SOL     OW11572   0.261   5.515   1.250
 3558SOL    HW111573   0.227   5.609   1.245
 3558SOL    HW211574   0.309   5.493   1.165
 3559SOL     OW11575   0.680   0.923   5.639
 3559SOL    HW111576   0.704   0.990   5.569
 3559SOL    HW211577   0.667   0.834   5.596
 3560SOL     OW11578   6.769   6.422   1.378
 3560SOL    HW111579   6.777   6.424   1.278
 3560SOL    HW211580   6.855   6.455   1.418
 3561SOL     OW11581   4.734   4.863   4.908
 3561SOL    HW111582   4.774   4.800   4.841
 3561SOL    HW211583   4.666   4.814   4.963
 3562SOL     OW11584   4.548   1.431   2.980
 3562SOL    HW111585   4.613   1.507   2.989
 3562SOL    HW211586   4.587   1.349   3.023
 3563SOL     OW11587   4.742   0.960   1.215
 3563SOL    HW111588   4.765   1.014   1.134
 3563SOL    HW211589   4.659   0.996   1.258
 3564SOL     OW11590   0.282   4.336   3.171
 3564SOL    HW111591   0.187   4.311   3.192
 3564SOL    HW211592   0.302   4.310   3.076
 3565SOL     OW11593   1.836   0.460   4.818
 3565SOL    HW111594   1.922   0.418   4.789
 3565SOL    HW211595   1.782   0.394   4.869
 3566SOL     OW11596   0.761   3.735   5.432
 3566SOL    HW111597   0.855   3.716   5.404
 3566SOL    HW211598   0.755   3.829   5.466
 3567SOL     OW11599   0.154   2.875   0.779
 3567SOL    HW111600   0.109   2.851   0.693
 3567SOL    HW211601   0.243   2.917   0.760
 3568SOL     OW11602   5.043   3.624   3.394
 3568SOL    HW111603   4.989   3.675   3.461
 3568SOL    HW211604   4.997   3.626   3.305
 3569SOL     OW11605   3.642   3.196   3.863
 3569SOL    HW111606   3.732   3.153   3.860
 3569SOL    HW211607   3.649   3.285   3.908
 3570SOL     OW11608   0.061   2.382   5.989
 3570SOL    HW111609   0.106   2.351   5.905
 3570SOL    HW211610   0.111   2.460   6.027
 3571SOL     OW11611   2.057   6.718   5.097
 3571SOL    HW111612   2.030   6.773   5.018
 3571SOL    HW211613   2.014   6.627   5.090
 3572SOL     OW11614   4.773   4.618   2.006
 3572SOL    HW111615   4.857   4.667   1.982
 3572SOL    HW211616   4.740   4.567   1.926
 3573SOL     OW11617   0.116   3.818   3.303
 3573SOL    HW111618   0.086   3.723   3.302
 3573SOL    HW211619   0.065   3.868   3.373
 3574SOL     OW11620   2.111   2.199   5.438
 3574SOL    HW111621   2.150   2.124   5.384
 3574SOL    HW211622   2.172   2.221   5.514
 3575SOL     OW11623   5.320   0.277   0.052
 3575SOL    HW111624   5.301   0.266   0.150
 3575SOL    HW211625   5.374   0.200   0.020
 3576SOL     OW11626   1.551   3.136   1.068
 3576SOL    HW111627   1.480   3.144   0.998
 3576SOL    HW211628   1.557   3.222   1.119
 3577SOL     OW11629   2.534   2.958   5.614
 3577SOL    HW111630   2.467   2.893   5.580
 3577SOL    HW211631   2.613   2.960   5.553
 3578SOL     OW11632   3.034   2.969   6.273
 3578SOL    HW111633   2.980   3.031   6.216
 3578SOL    HW211634   3.010   2.874   6.250
 3579SOL     OW11635   0.497   3.003   1.736
 3579SOL    HW111636   0.408   3.043   1.715
 3579SOL    HW211637   0.566   3.040   1.673
 3580SOL     OW11638   0.469   4.118   1.818
 3580SOL    HW111639   0.546   4.099   1.757
 3580SOL    HW211640   0.495   4.097   1.912
 3581SOL     OW11641   1.701   6.972   2.841
 3581SOL    HW111642   1.768   6.911   2.883
 3581SOL    HW211643   1.736   7.003   2.752
 3582SOL     OW11644   3.879   4.596   6.460
 3582SOL    HW111645   3.780   4.590   6.453
 3582SOL    HW211646   3.911   4.534   6.532
 3583SOL     OW11647   0.744   5.015   0.844
 3583SOL    HW111648   0.727   5.112   0.827
 3583SOL    HW211649   0.842   4.997   0.840
 3584SOL     OW11650   6.191   4.713   5.036
 3584SOL    HW111651   6.143   4.671   4.958
 3584SOL    HW211652   6.129   4.775   5.084
 3585SOL     OW11653   3.234   1.493   2.921
 3585SOL    HW111654   3.185   1.513   2.836
 3585SOL    HW211655   3.178   1.433   2.978
 3586SOL     OW11656   6.673   2.633   5.097
 3586SOL    HW111657   6.597   2.587   5.143
 3586SOL    HW211658   6.687   2.723   5.139
 3587SOL     OW11659   2.824   6.866   6.464
 3587SOL    HW111660   2.805   6.767   6.460
 3587SOL    HW211661   2.830   6.894   6.560
 3588SOL     OW11662   6.459   4.739   4.620
 3588SOL    HW111663   6.422   4.831   4.628
 3588SOL    HW211664   6.482   4.720   4.525
 3589SOL     OW11665   0.224   0.533   6.212
 3589SOL    HW111666   0.213   0.437   6.185
 3589SOL    HW211667   0.183   0.592   6.142
 3590SOL     OW11668   6.425   5.157   0.212
 3590SOL    HW111669   6.328   5.158   0.236
 3590SOL    HW211670   6.463   5.250   0.219
 3591SOL     OW11671   5.762   1.495   6.602
 3591SOL    HW111672   5.829   1.453   6.664
 3591SOL    HW211673   5.810   1.530   6.521
 3592SOL     OW11674   1.732   6.138   1.383
 3592SOL    HW111675   1.705   6.230   1.413
 3592SOL    HW211676   1.749   6.139   1.284
 3593SOL     OW11677   4.414   3.025   5.289
 3593SOL    HW111678   4.370   2.982   5.210
 3593SOL    HW211679   4.464   2.955   5.342
 3594SOL     OW11680   4.517   4.584   5.197
 3594SOL    HW111681   4.427   4.565   5.158
 3594SOL    HW211682   4.587   4.574   5.126
 3595SOL     OW11683   5.310   6.316   4.777
 3595SOL    HW111684   5.283   6.337   4.871
 3595SOL    HW211685   5.250   6.244   4.741
 3596SOL     OW11686   4.069   2.146   3.788
 3596SOL    HW111687   4.129   2.220   3.818
 3596SOL    HW211688   4.119   2.087   3.725
 3597SOL     OW11689   2.616   3.271   5.326
 3597SOL    HW111690   2.572   3.188   5.292
 3597SOL    HW211691   2.706   3.249   5.363
 3598SOL     OW11692   1.517   5.857   5.350
 3598SOL    HW111693   1.464   5.784   5.393
 3598SOL    HW211694   1.455   5.931   5.324
 3599SOL     OW11695   3.498   1.220   4.973
 3599SOL    HW111696   3.466   1.127   4.957
 3599SOL    HW211697   3.573   1.219   5.039
 3600SOL     OW11698   3.226   3.320   0.417
 3600SOL    HW111699   3.159   3.271   0.472
 3600SOL    HW211700   3.313   3.271   0.419
 3601SOL     OW11701   4.775   0.732   5.134
 3601SOL    HW111702   4.855   0.719   5.075
 3601SOL    HW211703   4.737   0.824   5.119
 3602SOL     OW11704   2.455   1.967   1.329
 3602SOL    HW111705   2.422   1.918   1.409
 3602SOL    HW211706   2.428   2.063   1.334
 3603SOL     OW11707   2.731   0.785   5.217
 3603SOL    HW111708   2.801   0.831   5.271
 3603SOL    HW211709   2.652   0.845   5.207
 3604SOL     OW11710   6.833   0.379   3.316
 3604SOL    HW111711   6.932   0.389   3.327
 3604SOL    HW211712   6.810   0.283   3.301
 3605SOL     OW11713   1.167   6.528   4.027
 3605SOL    HW111714   1.097   6.506   3.959
 3605SOL    HW211715   1.200   6.444   4.069
 3606SOL     OW11716   2.669   6.399   2.328
 3606SOL    HW111717   2.642   6.472   2.264
 3606SOL    HW211718   2.675   6.436   2.420
 3607SOL     OW11719   5.955   1.737   3.183
 3607SOL    HW111720   5.980   1.788   3.265
 3607SOL    HW211721   5.902   1.795   3.121
 3608SOL     OW11722   2.670   2.081   6.055
 3608SOL    HW111723   2.754   2.070   6.107
 3608SOL    HW211724   2.678   2.160   5.994
 3609SOL     OW11725   2.783   1.009   4.599
 3609SOL    HW111726   2.750   1.005   4.505
 3609SOL    HW211727   2.719   1.062   4.655
 3610SOL     OW11728   1.710   0.268   4.973
 3610SOL    HW111729   1.754   0.206   5.038
 3610SOL    HW211730   1.658   0.214   4.907
 3611SOL     OW11731   5.477   5.066   3.291
 3611SOL    HW111732   5.522   5.137   3.346
 3611SOL    HW211733   5.399   5.106   3.243
 3612SOL     OW11734   6.104   1.305   7.013
 3612SOL    HW111735   6.021   1.269   0.036
 3612SOL    HW211736   6.180   1.300   0.060
 3613SOL     OW11737   4.580   6.030   2.018
 3613SOL    HW111738   4.653   5.997   1.958
 3613SOL    HW211739   4.554   6.123   1.993
 3614SOL     OW11740   3.468   5.221   6.742
 3614SOL    HW111741   3.511   5.181   6.822
 3614SOL    HW211742   3.526   5.295   6.706
 3615SOL     OW11743   5.497   2.227   5.946
 3615SOL    HW111744   5.460   2.306   5.898
 3615SOL    HW211745   5.591   2.210   5.914
 3616SOL     OW11746   1.140   1.971   0.259
 3616SOL    HW111747   1.131   2.071   0.256
 3616SOL    HW211748   1.177   1.944   0.347
 3617SOL     OW11749   3.782   5.772   5.459
 3617SOL    HW111750   3.866   5.826   5.453
 3617SOL    HW211751   3.705   5.826   5.426
 3618SOL     OW11752   1.101   5.299   4.185
 3618SOL    HW111753   1.128   5.215   4.138
 3618SOL    HW211754   1.139   5.378   4.136
 3619SOL     OW11755   5.928   3.762   2.103
 3619SOL    HW111756   5.901   3.758   2.199
 3619SOL    HW211757   5.889   3.684   2.054
 3620SOL     OW11758   6.041   5.897   4.910
 3620SOL    HW111759   6.029   5.996   4.921
 3620SOL    HW211760   5.978   5.863   4.840
 3621SOL     OW11761   3.448   2.930   3.230
 3621SOL    HW111762   3.457   2.918   3.328
 3621SOL    HW211763   3.477   3.023   3.205
 3622SOL     OW11764   1.379   5.924   6.281
 3622SOL    HW111765   1.330   5.956   6.362
 3622SOL    HW211766   1.362   5.988   6.205
 3623SOL     OW11767   1.157   5.602   6.163
 3623SOL    HW111768   1.179   5.635   6.255
 3623SOL    HW211769   1.090   5.663   6.121
 3624SOL     OW11770   2.680   2.513   1.481
 3624SOL    HW111771   2.724   2.485   1.395
 3624SOL    HW211772   2.732   2.587   1.523
 3625SOL     OW11773   6.935   2.041   0.741
 3625SOL    HW111774   6.867   2.011   0.809
 3625SOL    HW211775   6.888   2.070   0.658
 3626SOL     OW11776   1.734   2.941   5.036
 3626SOL    HW111777   1.690   2.939   4.946
 3626SOL    HW211778   1.786   3.026   5.045
 3627SOL     OW11779   3.464   2.041   2.017
 3627SOL    HW111780   3.548   2.096   2.022
 3627SOL    HW211781   3.484   1.948   2.049
 3628SOL     OW11782   6.697   2.096   1.515
 3628SOL    HW111783   6.620   2.083   1.453
 3628SOL    HW211784   6.756   2.169   1.480
 3629SOL     OW11785   1.063   1.410   4.431
 3629SOL    HW111786   1.130   1.396   4.358
 3629SOL    HW211787   1.100   1.373   4.516
 3630SOL     OW11788   0.010   2.313   1.704
 3630SOL    HW111789   6.950   2.254   1.724
 3630SOL    HW211790   0.053   2.342   1.789
 3631SOL     OW11791   1.720   0.049   2.428
 3631SOL    HW111792   1.731   0.129   2.370
 3631SOL    HW211793   1.805   7.015   2.429
 3632SOL     OW11794   4.556   3.830   1.634
 3632SOL    HW111795   4.522   3.749   1.586
 3632SOL    HW211796   4.486   3.902   1.631
 3633SOL     OW11797   3.759   4.026   0.069
 3633SOL    HW111798   3.689   4.084   0.027
 3633SOL    HW211799   3.721   3.934   0.081
 3634SOL     OW11800   3.343   5.318   6.373
 3634SOL    HW111801   3.263   5.296   6.317
 3634SOL    HW211802   3.366   5.415   6.361
 3635SOL     OW11803   1.542   5.853   2.035
 3635SOL    HW111804   1.473   5.888   2.099
 3635SOL    HW211805   1.569   5.927   1.973
 3636SOL     OW11806   0.451   5.201   6.475
 3636SOL    HW111807   0.466   5.299   6.494
 3636SOL    HW211808   0.508   5.147   6.537
 3637SOL     OW11809   6.206   3.162   0.094
 3637SOL    HW111810   6.251   3.160   0.184
 3637SOL    HW211811   6.156   3.248   0.084
 3638SOL     OW11812   6.372   3.429   2.835
 3638SOL    HW111813   6.381   3.352   2.772
 3638SOL    HW211814   6.275   3.446   2.853
 3639SOL     OW11815   3.895   2.989   3.564
 3639SOL    HW111816   3.910   2.989   3.465
 3639SOL    HW211817   3.798   2.974   3.583
 3640SOL     OW11818   4.313   2.003   1.961
 3640SOL    HW111819   4.219   2.001   1.925
 3640SOL    HW211820   4.321   1.938   2.037
 3641SOL     OW11821   5.932   4.144   2.778
 3641SOL    HW111822   6.010   4.145   2.841
 3641SOL    HW211823   5.961   4.175   2.688
 3642SOL     OW11824   5.271   3.208   6.085
 3642SOL    HW111825   5.278   3.178   6.181
 3642SOL    HW211826   5.274   3.308   6.081
 3643SOL     OW11827   4.175   5.881   5.064
 3643SOL    HW111828   4.175   5.781   5.066
 3643SOL    HW211829   4.254   5.916   5.114
 3644SOL     OW11830   2.938   0.513   1.752
 3644SOL    HW111831   2.854   0.547   1.708
 3644SOL    HW211832   3.016   0.566   1.721
 3645SOL     OW11833   1.297   4.081   3.407
 3645SOL    HW111834   1.315   4.001   3.350
 3645SOL    HW211835   1.378   4.139   3.410
 3646SOL     OW11836   1.557   4.488   5.697
 3646SOL    HW111837   1.593   4.455   5.784
 3646SOL    HW211838   1.627   4.477   5.626
 3647SOL     OW11839   2.584   0.355   6.389
 3647SOL    HW111840   2.508   0.419   6.400
 3647SOL    HW211841   2.553   0.276   6.336
 3648SOL     OW11842   4.686   5.508   3.414
 3648SOL    HW111843   4.629   5.526   3.494
 3648SOL    HW211844   4.782   5.520   3.438
 3649SOL     OW11845   5.681   2.790   0.340
 3649SOL    HW111846   5.726   2.818   0.255
 3649SOL    HW211847   5.620   2.713   0.322
 3650SOL     OW11848   5.519   5.999   6.537
 3650SOL    HW111849   5.461   6.028   6.613
 3650SOL    HW211850   5.606   6.048   6.541
 3651SOL     OW11851   0.682   2.039   5.596
 3651SOL    HW111852   0.780   2.058   5.586
 3651SOL    HW211853   0.657   2.048   5.692
 3652SOL     OW11854   4.238   1.684   1.620
 3652SOL    HW111855   4.200   1.776   1.632
 3652SOL    HW211856   4.170   1.625   1.577
 3653SOL     OW11857   1.395   1.984   1.154
 3653SOL    HW111858   1.376   1.916   1.084
 3653SOL    HW211859   1.487   1.970   1.190
 3654SOL     OW11860   4.465   6.506   1.563
 3654SOL    HW111861   4.380   6.539   1.522
 3654SOL    HW211862   4.476   6.409   1.542
 3655SOL     OW11863   1.139   1.056   4.204
 3655SOL    HW111864   1.204   0.993   4.162
 3655SOL    HW211865   1.071   1.084   4.136
 3656SOL     OW11866   0.432   0.014   1.479
 3656SOL    HW111867   0.389   6.957   1.527
 3656SOL    HW211868   0.458   7.005   1.387
 3657SOL     OW11869   6.039   5.534   5.890
 3657SOL    HW111870   6.079   5.598   5.956
 3657SOL    HW211871   5.961   5.488   5.932
 3658SOL     OW11872   1.744   5.200   5.719
 3658SOL    HW111873   1.783   5.161   5.636
 3658SOL    HW211874   1.644   5.206   5.709
 3659SOL     OW11875   0.136   2.220   6.209
 3659SOL    HW111876   0.164   2.139   6.158
 3659SOL    HW211877   0.114   2.294   6.145
 3660SOL     OW11878   5.126   5.598   6.125
 3660SOL    HW111879   5.119   5.586   6.224
 3660SOL    HW211880   5.125   5.696   6.103
 3661SOL     OW11881   0.311   1.850   4.686
 3661SOL    HW111882   0.333   1.760   4.725
 3661SOL    HW211883   0.395   1.893   4.652
 3662SOL     OW11884   3.000   1.718   5.608
 3662SOL    HW111885   2.961   1.809   5.593
 3662SOL    HW211886   3.064   1.722   5.685
 3663SOL     OW11887   2.478   2.565   6.780
 3663SOL    HW111888   2.379   2.554   6.792
 3663SOL    HW211889   2.515   2.486   6.732
 3664SOL     OW11890   3.331   1.917   1.439
 3664SOL    HW111891   3.333   1.956   1.347
 3664SOL    HW211892   3.420   1.932   1.483
 3665SOL     OW11893   0.729   5.707   6.020
 3665SOL    HW111894   0.650   5.707   6.081
 3665SOL    HW211895   0.727   5.789   5.962
 3666SOL     OW11896   2.162   3.137   4.579
 3666SOL    HW111897   2.151   3.236   4.565
 3666SOL    HW211898   2.154   3.117   4.676
 3667SOL     OW11899   1.888   6.521   0.991
 3667SOL    HW111900   1.900   6.618   0.967
 3667SOL    HW211901   1.791   6.501   0.999
 3668SOL     OW11902   6.559   1.055   0.910
 3668SOL    HW111903   6.538   0.985   0.842
 3668SOL    HW211904   6.514   1.032   0.997
 3669SOL     OW11905   0.806   1.158   3.626
 3669SOL    HW111906   0.904   1.151   3.643
 3669SOL    HW211907   0.761   1.071   3.650
 3670SOL     OW11908   2.702   0.130   1.790
 3670SOL    HW111909   2.716   0.032   1.804
 3670SOL    HW211910   2.782   0.167   1.742
 3671SOL     OW11911   6.874   0.617   4.413
 3671SOL    HW111912   6.970   0.644   4.406
 3671SOL    HW211913   6.867   0.534   4.468
 3672SOL     OW11914   3.633   6.893   3.809
 3672SOL    HW111915   3.699   6.963   3.839
 3672SOL    HW211916   3.565   6.935   3.749
 3673SOL     OW11917   3.558   0.137   1.112
 3673SOL    HW111918   3.636   0.077   1.131
 3673SOL    HW211919   3.508   0.103   1.032
 3674SOL     OW11920   0.677   4.639   6.748
 3674SOL    HW111921   0.703   4.735   6.733
 3674SOL    HW211922   0.670   4.622   6.846
 3675SOL     OW11923   1.067   0.588   4.321
 3675SOL    HW111924   1.000   0.514   4.310
 3675SOL    HW211925   1.149   0.552   4.366
 3676SOL     OW11926   3.622   1.423   4.873
 3676SOL    HW111927   3.718   1.436   4.895
 3676SOL    HW211928   3.588   1.341   4.919
 3677SOL     OW11929   1.446   1.087   4.420
 3677SOL    HW111930   1.348   1.087   4.439
 3677SOL    HW211931   1.464   1.146   4.340
 3678SOL     OW11932   1.405   0.824   3.728
 3678SOL    HW111933   1.306   0.819   3.742
 3678SOL    HW211934   1.432   0.754   3.662
 3679SOL     OW11935   4.463   0.288   2.139
 3679SOL    HW111936   4.424   0.234   2.064
 3679SOL    HW211937   4.426   0.257   2.226
 3680SOL     OW11938   3.096   2.011   4.305
 3680SOL    HW111939   3.103   2.066   4.389
 3680SOL    HW211940   3.188   1.995   4.268
 3681SOL     OW11941   0.775   6.453   4.186
 3681SOL    HW111942   0.861   6.429   4.140
 3681SOL    HW211943   0.711   6.490   4.118
 3682SOL     OW11944   5.255   1.907   0.835
 3682SOL    HW111945   5.283   1.856   0.916
 3682SOL    HW211946   5.297   1.997   0.836
 3683SOL     OW11947   6.404   1.481   0.187
 3683SOL    HW111948   6.327   1.542   0.168
 3683SOL    HW211949   6.437   1.497   0.280
 3684SOL     OW11950   2.390   6.468   5.117
 3684SOL    HW111951   2.358   6.373   5.120
 3684SOL    HW211952   2.471   6.478   5.175
 3685SOL     OW11953   1.749   6.133   4.718
 3685SOL    HW111954   1.680   6.063   4.737
 3685SOL    HW211955   1.839   6.090   4.710
 3686SOL     OW11956   0.451   3.628   1.227
 3686SOL    HW111957   0.541   3.589   1.206
 3686SOL    HW211958   0.393   3.558   1.268
 3687SOL     OW11959   5.983   4.413   5.097
 3687SOL    HW111960   6.016   4.333   5.046
 3687SOL    HW211961   6.053   4.443   5.161
 3688SOL     OW11962   6.357   2.484   1.375
 3688SOL    HW111963   6.360   2.583   1.380
 3688SOL    HW211964   6.449   2.446   1.388
 3689SOL     OW11965   1.089   0.064   6.311
 3689SOL    HW111966   1.180   0.039   6.345
 3689SOL    HW211967   1.074   0.162   6.324
 3690SOL     OW11968   5.430   5.503   1.731
 3690SOL    HW111969   5.392   5.430   1.787
 3690SOL    HW211970   5.520   5.528   1.767
 3691SOL     OW11971   1.901   2.966   0.388
 3691SOL    HW111972   1.870   2.957   0.293
 3691SOL    HW211973   1.842   2.912   0.447
 3692SOL     OW11974   1.136   3.009   5.237
 3692SOL    HW111975   1.093   2.924   5.267
 3692SOL    HW211976   1.091   3.042   5.154
 3693SOL     OW11977   0.571   1.365   2.326
 3693SOL    HW111978   0.489   1.421   2.338
 3693SOL    HW211979   0.645   1.421   2.290
 3694SOL     OW11980   6.491   0.293   3.060
 3694SOL    HW111981   6.579   0.250   3.082
 3694SOL    HW211982   6.437   0.232   3.002
 3695SOL     OW11983   5.604   3.547   3.300
 3695SOL    HW111984   5.511   3.562   3.333
 3695SOL    HW211985   5.613   3.452   3.268
 3696SOL     OW11986   4.219   0.696   4.687
 3696SOL    HW111987   4.154   0.724   4.758
 3696SOL    HW211988   4.235   0.597   4.693
 3697SOL     OW11989   6.347   6.354   3.162
 3697SOL    HW111990   6.323   6.269   3.208
 3697SOL    HW211991   6.392   6.416   3.226
 3698SOL     OW11992   1.533   0.421   2.885
 3698SOL    HW111993   1.449   0.366   2.877
 3698SOL    HW211994   1.548   0.471   2.800
 3699SOL     OW11995   2.501   2.412   3.126
 3699SOL    HW111996   2.440   2.338   3.155
 3699SOL    HW211997   2.519   2.403   3.028
 3700SOL     OW11998   0.861   5.101   5.064
 3700SOL    HW111999   0.780   5.084   5.007
 3700SOL    HW212000   0.831   5.127   5.156
 3701SOL     OW12001   0.451   0.888   2.132
 3701SOL    HW112002   0.532   0.837   2.159
 3701SOL    HW212003   0.371   0.828   2.136
 3702SOL     OW12004   5.912   3.986   3.562
 3702SOL    HW112005   5.990   3.924   3.547
 3702SOL    HW212006   5.839   3.936   3.610
 3703SOL     OW12007   1.250   1.701   3.423
 3703SOL    HW112008   1.322   1.764   3.394
 3703SOL    HW212009   1.229   1.717   3.520
 3704SOL     OW12010   6.276   0.898   0.652
 3704SOL    HW112011   6.366   0.879   0.691
 3704SOL    HW212012   6.260   0.838   0.574
 3705SOL     OW12013   5.747   4.401   3.755
 3705SOL    HW112014   5.749   4.493   3.715
 3705SOL    HW212015   5.656   4.361   3.743
 3706SOL     OW12016   1.295   4.610   6.143
 3706SOL    HW112017   1.247   4.561   6.070
 3706SOL    HW212018   1.244   4.601   6.228
 3707SOL     OW12019   1.182   4.829   3.346
 3707SOL    HW112020   1.217   4.736   3.336
 3707SOL    HW212021   1.205   4.864   3.436
 3708SOL     OW12022   2.310   6.112   1.122
 3708SOL    HW112023   2.301   6.070   1.032
 3708SOL    HW212024   2.316   6.040   1.192
 3709SOL     OW12025   1.202   1.338   1.644
 3709SOL    HW112026   1.128   1.334   1.578
 3709SOL    HW212027   1.264   1.260   1.630
 3710SOL     OW12028   1.203   4.153   5.337
 3710SOL    HW112029   1.301   4.154   5.317
 3710SOL    HW212030   1.155   4.213   5.273
 3711SOL     OW12031   0.907   5.583   4.498
 3711SOL    HW112032   0.956   5.500   4.525
 3711SOL    HW212033   0.809   5.564   4.493
 3712SOL     OW12034   2.179   5.780   4.198
 3712SOL    HW112035   2.203   5.711   4.129
 3712SOL    HW212036   2.100   5.747   4.251
 3713SOL     OW12037   6.097   0.658   4.452
 3713SOL    HW112038   6.109   0.564   4.421
 3713SOL    HW212039   6.063   0.657   4.546
 3714SOL     OW12040   0.468   4.273   0.705
 3714SOL    HW112041   0.412   4.225   0.638
 3714SOL    HW212042   0.412   4.338   0.756
 3715SOL     OW12043   5.788   4.792   3.865
 3715SOL    HW112044   5.704   4.788   3.918
 3715SOL    HW212045   5.818   4.888   3.856
 3716SOL     OW12046   5.562   5.739   4.758
 3716SOL    HW112047   5.611   5.660   4.722
 3716SOL    HW212048   5.468   5.711   4.782
 3717SOL     OW12049   4.593   1.043   0.598
 3717SOL    HW112050   4.685   1.061   0.564
 3717SOL    HW212051   4.535   1.123   0.583
 3718SOL     OW12052   6.030   6.602   6.653
 3718SOL    HW112053   6.095   6.657   6.601
 3718SOL    HW212054   5.937   6.622   6.622
 3719SOL     OW12055   3.430   3.956   0.303
 3719SOL    HW112056   3.441   4.055   0.310
 3719SOL    HW212057   3.444   3.927   0.208
 3720SOL     OW12058   0.417   3.130   0.755
 3720SOL    HW112059   0.467   3.211   0.726
 3720SOL    HW212060   0.479   3.065   0.798
 3721SOL     OW12061   6.481   0.074   5.521
 3721SOL    HW112062   6.457   0.047   5.615
 3721SOL    HW212063   6.420   0.028   5.457
 3722SOL     OW12064   5.824   6.984   2.343
 3722SOL    HW112065   5.848   0.022   2.422
 3722SOL    HW212066   5.725   6.973   2.340
 3723SOL     OW12067   4.456   3.389   6.863
 3723SOL    HW112068   4.519   3.314   6.880
 3723SOL    HW212069   4.416   3.379   6.772
 3724SOL     OW12070   0.545   4.600   4.589
 3724SOL    HW112071   0.446   4.595   4.580
 3724SOL    HW212072   0.575   4.694   4.574
 3725SOL     OW12073   1.637   6.129   0.506
 3725SOL    HW112074   1.618   6.034   0.532
 3725SOL    HW212075   1.731   6.152   0.532
 3726SOL     OW12076   6.048   4.182   5.734
 3726SOL    HW112077   6.104   4.124   5.675
 3726SOL    HW212078   6.022   4.131   5.816
 3727SOL     OW12079   6.556   2.891   3.936
 3727SOL    HW112080   6.518   2.839   4.013
 3727SOL    HW212081   6.633   2.840   3.896
 3728SOL     OW12082   2.540   4.074   0.768
 3728SOL    HW112083   2.471   4.004   0.748
 3728SOL    HW212084   2.611   4.035   0.826
 3729SOL     OW12085   0.284   0.778   5.757
 3729SOL    HW112086   0.363   0.832   5.787
 3729SOL    HW212087   0.203   0.836   5.753
 3730SOL     OW12088   5.115   5.269   4.772
 3730SOL    HW112089   5.022   5.245   4.800
 3730SOL    HW212090   5.179   5.203   4.811
 3731SOL     OW12091   6.825   2.041   0.259
 3731SOL    HW112092   6.783   1.995   0.181
 3731SOL    HW212093   6.924   2.031   0.254
 3732SOL     OW12094   3.572   3.057   6.930
 3732SOL    HW112095   3.665   3.093   6.936
 3732SOL    HW212096   3.524   3.073   7.016
 3733SOL     OW12097   1.604   0.079   3.974
 3733SOL    HW112098   1.658   0.158   4.006
 3733SOL    HW212099   1.567   0.099   3.884
 3734SOL     OW12100   3.970   0.414   1.246
 3734SOL    HW112101   3.927   0.482   1.186
 3734SOL    HW212102   3.909   0.336   1.256
 3735SOL     OW12103   4.633   6.866   2.997
 3735SOL    HW112104   4.686   6.872   2.912
 3735SOL    HW212105   4.536   6.854   2.975
 3736SOL     OW12106   6.947   1.206   6.853
 3736SOL    HW112107   0.008   1.180   6.909
 3736SOL    HW212108   6.867   1.215   6.912
 3737SOL     OW12109   6.124   1.880   2.515
 3737SOL    HW112110   6.049   1.944   2.529
 3737SOL    HW212111   6.144   1.833   2.602
 3738SOL     OW12112   0.226   0.205   1.399
 3738SOL    HW112113   0.217   0.300   1.430
 3738SOL    HW212114   0.310   0.166   1.437
 3739SOL     OW12115   3.294   3.780   6.877
 3739SOL    HW112116   3.271   3.695   6.830
 3739SOL    HW212117   3.210   3.828   6.902
 3740SOL     OW12118   4.450   5.771   6.917
 3740SOL    HW112119   4.431   5.709   6.841
 3740SOL    HW212120   4.444   5.721   7.003
 3741SOL     OW12121   5.601   3.210   0.673
 3741SOL    HW112122   5.655   3.239   0.752
 3741SOL    HW212123   5.504   3.223   0.694
 3742SOL     OW12124   4.531   5.825   1.216
 3742SOL    HW112125   4.546   5.923   1.229
 3742SOL    HW212126   4.513   5.808   1.119
 3743SOL     OW12127   3.608   4.154   1.186
 3743SOL    HW112128   3.541   4.210   1.137
 3743SOL    HW212129   3.616   4.065   1.141
 3744SOL     OW12130   6.620   6.354   2.496
 3744SOL    HW112131   6.549   6.424   2.495
 3744SOL    HW212132   6.710   6.398   2.502
 3745SOL     OW12133   4.752   2.691   2.346
 3745SOL    HW112134   4.760   2.775   2.293
 3745SOL    HW212135   4.838   2.639   2.340
 3746SOL     OW12136   6.385   0.633   4.707
 3746SOL    HW112137   6.451   0.707   4.718
 3746SOL    HW212138   6.388   0.599   4.613
 3747SOL     OW12139   3.585   6.057   5.519
 3747SOL    HW112140   3.605   6.091   5.427
 3747SOL    HW212141   3.636   6.110   5.586
 3748SOL     OW12142   5.170   2.448   3.706
 3748SOL    HW112143   5.162   2.538   3.749
 3748SOL    HW212144   5.083   2.422   3.665
 3749SOL     OW12145   6.344   6.258   2.456
 3749SOL    HW112146   6.372   6.167   2.425
 3749SOL    HW212147   6.425   6.314   2.473
 3750SOL     OW12148   5.196   4.012   0.926
 3750SOL    HW112149   5.143   3.996   1.009
 3750SOL    HW212150   5.197   3.928   0.871
 3751SOL     OW12151   1.022   4.434   2.003
 3751SOL    HW112152   1.120   4.436   1.986
 3751SOL    HW212153   1.002   4.373   2.080
 3752SOL     OW12154   0.450   6.268   5.953
 3752SOL    HW112155   0.433   6.171   5.933
 3752SOL    HW212156   0.536   6.296   5.909
 3753SOL     OW12157   6.972   1.070   4.532
 3753SOL    HW112158   6.892   1.123   4.562
 3753SOL    HW212159   6.941   0.984   4.492
 3754SOL     OW12160   6.676   6.239   1.906
 3754SOL    HW112161   6.598   6.275   1.854
 3754SOL    HW212162   6.660   6.142   1.926
 3755SOL     OW12163   5.319   2.895   2.782
 3755SOL    HW112164   5.289   2.912   2.688
 3755SOL    HW212165   5.287   2.805   2.812
 3756SOL     OW12166   3.137   0.285   6.906
 3756SOL    HW112167   3.051   0.291   6.957
 3756SOL    HW212168   3.213   0.279   6.970
 3757SOL     OW12169   3.556   4.625   6.860
 3757SOL    HW112170   3.611   4.702   6.829
 3757SOL    HW212171   3.540   4.632   6.958
 3758SOL     OW12172   0.385   0.536   3.171
 3758SOL    HW112173   0.431   0.557   3.086
 3758SOL    HW212174   0.286   0.542   3.158
 3759SOL     OW12175   4.733   5.100   0.135
 3759SOL    HW112176   4.815   5.066   0.181
 3759SOL    HW212177   4.742   5.084   0.036
 3760SOL     OW12178   2.392   2.426   5.374
 3760SOL    HW112179   2.336   2.506   5.349
 3760SOL    HW212180   2.356   2.385   5.458
 3761SOL     OW12181   0.113   6.736   4.260
 3761SOL    HW112182   0.080   6.650   4.220
 3761SOL    HW212183   0.100   6.733   4.359
 3762SOL     OW12184   0.751   3.620   6.760
 3762SOL    HW112185   0.823   3.579   6.705
 3762SOL    HW212186   0.779   3.623   6.856
 3763SOL     OW12187   6.355   3.811   5.976
 3763SOL    HW112188   6.272   3.816   6.031
 3763SOL    HW212189   6.429   3.858   6.023
 3764SOL     OW12190   2.580   6.970   3.952
 3764SOL    HW112191   2.491   6.946   3.990
 3764SOL    HW212192   2.589   0.051   3.947
 3765SOL     OW12193   6.367   1.068   3.547
 3765SOL    HW112194   6.390   1.065   3.645
 3765SOL    HW212195   6.436   1.018   3.495
 3766SOL     OW12196   1.610   0.576   4.649
 3766SOL    HW112197   1.664   0.534   4.722
 3766SOL    HW212198   1.592   0.508   4.578
 3767SOL     OW12199   1.539   4.011   0.969
 3767SOL    HW112200   1.608   4.053   0.910
 3767SOL    HW212201   1.544   4.052   1.060
 3768SOL     OW12202   4.811   6.524   1.004
 3768SOL    HW112203   4.805   6.608   0.949
 3768SOL    HW212204   4.896   6.476   0.982
 3769SOL     OW12205   4.630   6.434   5.017
 3769SOL    HW112206   4.652   6.338   5.034
 3769SOL    HW212207   4.536   6.441   4.983
 3770SOL     OW12208   2.241   1.154   0.583
 3770SOL    HW112209   2.224   1.137   0.486
 3770SOL    HW212210   2.269   1.250   0.595
 3771SOL     OW12211   4.914   1.487   5.364
 3771SOL    HW112212   4.924   1.497   5.265
 3771SOL    HW212213   4.824   1.450   5.385
 3772SOL     OW12214   4.845   1.208   2.868
 3772SOL    HW112215   4.886   1.298   2.849
 3772SOL    HW212216   4.792   1.179   2.789
 3773SOL     OW12217   6.588   2.539   6.852
 3773SOL    HW112218   6.594   2.447   6.813
 3773SOL    HW212219   6.553   2.534   6.945
 3774SOL     OW12220   0.870   1.741   1.892
 3774SOL    HW112221   0.901   1.816   1.833
 3774SOL    HW212222   0.859   1.775   1.986
 3775SOL     OW12223   5.898   2.966   3.550
 3775SOL    HW112224   5.942   2.970   3.640
 3775SOL    HW212225   5.887   3.059   3.515
 3776SOL     OW12226   3.045   2.550   6.506
 3776SOL    HW112227   3.126   2.546   6.565
 3776SOL    HW212228   2.997   2.637   6.521
 3777SOL     OW12229   1.554   4.145   3.467
 3777SOL    HW112230   1.577   4.159   3.371
 3777SOL    HW212231   1.634   4.166   3.524
 3778SOL     OW12232   2.607   6.839   2.044
 3778SOL    HW112233   2.543   6.916   2.045
 3778SOL    HW212234   2.663   6.845   1.962
 3779SOL     OW12235   2.914   5.083   6.833
 3779SOL    HW112236   2.926   5.147   6.758
 3779SOL    HW212237   3.003   5.059   6.872
 3780SOL     OW12238   2.693   0.208   4.836
 3780SOL    HW112239   2.607   0.249   4.806
 3780SOL    HW212240   2.698   0.209   4.935
 3781SOL     OW12241   2.905   5.562   4.630
 3781SOL    HW112242   2.991   5.513   4.617
 3781SOL    HW212243   2.913   5.624   4.708
 3782SOL     OW12244   2.430   1.415   3.065
 3782SOL    HW112245   2.430   1.497   3.008
 3782SOL    HW212246   2.341   1.370   3.058
 3783SOL     OW12247   4.996   5.825   6.040
 3783SOL    HW112248   5.052   5.869   6.110
 3783SOL    HW212249   4.946   5.894   5.988
 3784SOL     OW12250   4.749   1.547   3.841
 3784SOL    HW112251   4.694   1.545   3.757
 3784SOL    HW212252   4.838   1.505   3.823
 3785SOL     OW12253   1.432   1.485   1.723
 3785SOL    HW112254   1.333   1.472   1.729
 3785SOL    HW212255   1.462   1.470   1.629
 3786SOL     OW12256   3.551   5.447   2.797
 3786SOL    HW112257   3.638   5.400   2.780
 3786SOL    HW212258   3.497   5.394   2.862
 3787SOL     OW12259   4.187   1.173   4.578
 3787SOL    HW112260   4.185   1.159   4.677
 3787SOL    HW212261   4.228   1.262   4.558
 3788SOL     OW12262   5.810   3.628   1.906
 3788SOL    HW112263   5.819   3.539   1.952
 3788SOL    HW212264   5.752   3.617   1.825
 3789SOL     OW12265   0.999   4.983   2.686
 3789SOL    HW112266   0.987   5.082   2.701
 3789SOL    HW212267   1.075   4.967   2.624
 3790SOL     OW12268   2.104   3.034   3.806
 3790SOL    HW112269   2.010   3.014   3.830
 3790SOL    HW212270   2.166   2.976   3.860
 3791SOL     OW12271   5.514   0.472   2.483
 3791SOL    HW112272   5.569   0.428   2.554
 3791SOL    HW212273   5.428   0.424   2.473
 3792SOL     OW12274   0.030   6.855   6.201
 3792SOL    HW112275   0.043   6.808   6.113
 3792SOL    HW212276   0.118   6.863   6.248
 3793SOL     OW12277   2.128   6.431   3.068
 3793SOL    HW112278   2.107   6.381   3.152
 3793SOL    HW212279   2.122   6.368   2.990
 3794SOL     OW12280   4.170   5.983   2.302
 3794SOL    HW112281   4.216   5.981   2.214
 3794SOL    HW212282   4.151   6.078   2.327
 3795SOL     OW12283   4.835   0.328   0.783
 3795SOL    HW112284   4.773   0.274   0.726
 3795SOL    HW212285   4.892   0.385   0.724
 3796SOL     OW12286   2.028   2.631   1.256
 3796SOL    HW112287   2.057   2.535   1.258
 3796SOL    HW212288   2.028   2.668   1.349
 3797SOL     OW12289   0.362   5.262   2.535
 3797SOL    HW112290   0.275   5.305   2.512
 3797SOL    HW212291   0.436   5.330   2.531
 3798SOL     OW12292   0.910   4.333   1.540
 3798SOL    HW112293   0.819   4.335   1.498
 3798SOL    HW212294   0.967   4.265   1.493
 3799SOL     OW12295   1.498   0.731   5.210
 3799SOL    HW112296   1.573   0.665   5.203
 3799SOL    HW212297   1.527   0.819   5.172
 3800SOL     OW12298   5.039   2.206   5.107
 3800SOL    HW112299   4.990   2.280   5.152
 3800SOL    HW212300   5.019   2.206   5.009
 3801SOL     OW12301   6.852   0.371   6.486
 3801SOL    HW112302   6.825   0.382   6.390
 3801SOL    HW212303   6.898   0.455   6.517
 3802SOL     OW12304   1.514   2.316   5.884
 3802SOL    HW112305   1.572   2.374   5.827
 3802SOL    HW212306   1.446   2.373   5.931
 3803SOL     OW12307   3.688   1.578   1.253
 3803SOL    HW112308   3.745   1.580   1.171
 3803SOL    HW212309   3.726   1.640   1.321
 3804SOL     OW12310   4.651   2.679   5.267
 3804SOL    HW112311   4.622   2.763   5.221
 3804SOL    HW212312   4.645   2.602   5.203
 3805SOL     OW12313   2.216   3.789   1.257
 3805SOL    HW112314   2.285   3.861   1.242
 3805SOL    HW212315   2.204   3.774   1.355
 3806SOL     OW12316   3.091   1.649   0.485
 3806SOL    HW112317   3.084   1.723   0.418
 3806SOL    HW212318   3.000   1.611   0.502
 3807SOL     OW12319   1.360   6.759   3.056
 3807SOL    HW112320   1.437   6.695   3.054
 3807SOL    HW212321   1.393   6.852   3.042
 3808SOL     OW12322   3.486   0.636   0.385
 3808SOL    HW112323   3.577   0.676   0.390
 3808SOL    HW212324   3.476   0.565   0.454
 3809SOL     OW12325   4.496   0.243   6.273
 3809SOL    HW112326   4.587   0.204   6.256
 3809SOL    HW212327   4.500   0.303   6.353
 3810SOL     OW12328   2.896   3.170   5.382
 3810SOL    HW112329   2.961   3.178   5.458
 3810SOL    HW212330   2.942   3.191   5.296
 3811SOL     OW12331   0.245   0.597   6.484
 3811SOL    HW112332   0.250   0.566   6.390
 3811SOL    HW212333   0.296   0.682   6.494
 3812SOL     OW12334   5.562   1.580   5.556
 3812SOL    HW112335   5.528   1.576   5.650
 3812SOL    HW212336   5.525   1.503   5.504
 3813SOL     OW12337   3.880   4.833   1.904
 3813SOL    HW112338   3.944   4.855   1.977
 3813SOL    HW212339   3.804   4.780   1.940
 3814SOL     OW12340   1.563   6.496   2.376
 3814SOL    HW112341   1.549   6.561   2.301
 3814SOL    HW212342   1.475   6.476   2.419
 3815SOL     OW12343   5.759   2.143   2.005
 3815SOL    HW112344   5.685   2.086   2.039
 3815SOL    HW212345   5.833   2.145   2.072
 3816SOL     OW12346   0.650   6.502   1.529
 3816SOL    HW112347   0.595   6.468   1.453
 3816SOL    HW212348   0.636   6.601   1.539
 3817SOL     OW12349   5.372   1.425   5.451
 3817SOL    HW112350   5.292   1.408   5.509
 3817SOL    HW212351   5.343   1.474   5.369
 3818SOL     OW12352   4.910   5.276   2.817
 3818SOL    HW112353   4.942   5.360   2.862
 3818SOL    HW212354   4.813   5.286   2.792
 3819SOL     OW12355   5.836   4.525   6.045
 3819SOL    HW112356   5.871   4.569   5.963
 3819SOL    HW212357   5.879   4.435   6.057
 3820SOL     OW12358   5.693   6.324   4.308
 3820SOL    HW112359   5.669   6.410   4.352
 3820SOL    HW212360   5.643   6.249   4.353
 3821SOL     OW12361   0.848   3.878   1.285
 3821SOL    HW112362   0.761   3.863   1.333
 3821SOL    HW212363   0.848   3.969   1.244
 3822SOL     OW12364   1.739   4.696   1.809
 3822SOL    HW112365   1.763   4.770   1.872
 3822SOL    HW212366   1.731   4.733   1.717
 3823SOL     OW12367   2.738   2.713   5.370
 3823SOL    HW112368   2.739   2.813   5.368
 3823SOL    HW212369   2.832   2.679   5.373
 3824SOL     OW12370   6.592   2.252   6.713
 3824SOL    HW112371   6.494   2.255   6.695
 3824SOL    HW212372   6.637   2.195   6.645
 3825SOL     OW12373   6.406   6.750   6.090
 3825SOL    HW112374   6.487   6.763   6.147
 3825SOL    HW212375   6.331   6.714   6.146
 3826SOL     OW12376   6.621   2.282   0.770
 3826SOL    HW112377   6.643   2.184   0.764
 3826SOL    HW212378   6.696   2.330   0.815
 3827SOL     OW12379   5.064   2.639   1.206
 3827SOL    HW112380   5.125   2.617   1.282
 3827SOL    HW212381   4.999   2.564   1.193
 3828SOL     OW12382   4.288   0.880   1.774
 3828SOL    HW112383   4.221   0.846   1.708
 3828SOL    HW212384   4.291   0.980   1.769
 3829SOL     OW12385   1.001   5.480   3.946
 3829SOL    HW112386   0.989   5.503   4.043
 3829SOL    HW212387   0.912   5.484   3.900
 3830SOL     OW12388   3.295   0.872   4.690
 3830SOL    HW112389   3.345   0.889   4.775
 3830SOL    HW212390   3.205   0.916   4.695
 3831SOL     OW12391   4.339   2.013   2.375
 3831SOL    HW112392   4.334   1.950   2.452
 3831SOL    HW212393   4.421   2.070   2.384
 3832SOL     OW12394   5.293   0.187   2.552
 3832SOL    HW112395   5.251   0.241   2.478
 3832SOL    HW212396   5.308   0.093   2.519
 3833SOL     OW12397   1.407   5.580   0.331
 3833SOL    HW112398   1.502   5.572   0.360
 3833SOL    HW212399   1.358   5.641   0.393
 3834SOL     OW12400   2.512   2.369   0.808
 3834SOL    HW112401   2.500   2.370   0.708
 3834SOL    HW212402   2.487   2.458   0.845
 3835SOL     OW12403   3.495   5.767   4.410
 3835SOL    HW112404   3.587   5.805   4.421
 3835SOL    HW212405   3.435   5.806   4.479
 3836SOL     OW12406   1.589   3.538   5.316
 3836SOL    HW112407   1.663   3.605   5.305
 3836SOL    HW212408   1.545   3.523   5.228
 3837SOL     OW12409   3.202   3.855   0.440
 3837SOL    HW112410   3.168   3.853   0.534
 3837SOL    HW212411   3.290   3.903   0.437
 3838SOL     OW12412   5.687   3.656   5.355
 3838SOL    HW112413   5.637   3.592   5.413
 3838SOL    HW212414   5.742   3.717   5.412
 3839SOL     OW12415   6.373   6.295   6.267
 3839SOL    HW112416   6.299   6.269   6.205
 3839SOL    HW212417   6.333   6.327   6.353
 3840SOL     OW12418   2.496   0.647   3.538
 3840SOL    HW112419   2.441   0.597   3.605
 3840SOL    HW212420   2.592   0.646   3.566
 3841SOL     OW12421   0.882   4.046   5.268
 3841SOL    HW112422   0.898   3.950   5.245
 3841SOL    HW212423   0.828   4.052   5.352
 3842SOL     OW12424   1.529   4.710   6.328
 3842SOL    HW112425   1.545   4.698   6.230
 3842SOL    HW212426   1.502   4.805   6.346
 3843SOL     OW12427   5.767   3.926   0.258
 3843SOL    HW112428   5.779   3.841   0.206
 3843SOL    HW212429   5.855   3.957   0.293
 3844SOL     OW12430   2.600   3.758   6.253
 3844SOL    HW112431   2.699   3.747   6.258
 3844SOL    HW212432   2.573   3.838   6.307
 3845SOL     OW12433   3.108   3.497   3.443
 3845SOL    HW112434   3.191   3.551   3.460
 3845SOL    HW212435   3.041   3.553   3.394
 3846SOL     OW12436   6.962   3.934   3.962
 3846SOL    HW112437   6.883   3.958   3.905
 3846SOL    HW212438   6.953   3.839   3.992
 3847SOL     OW12439   0.737   6.893   0.796
 3847SOL    HW112440   0.837   6.898   0.797
 3847SOL    HW212441   0.700   6.967   0.852
 3848SOL     OW12442   2.999   5.257   0.914
 3848SOL    HW112443   2.982   5.309   0.997
 3848SOL    HW212444   3.020   5.319   0.839
 3849SOL     OW12445   2.046   1.927   5.970
 3849SOL    HW112446   2.109   1.998   6.001
 3849SOL    HW212447   1.957   1.939   6.014
 3850SOL     OW12448   2.417   3.575   1.155
 3850SOL    HW112449   2.360   3.539   1.082
 3850SOL    HW212450   2.402   3.673   1.165
 3851SOL     OW12451   2.175   2.998   1.394
 3851SOL    HW112452   2.145   3.029   1.484
 3851SOL    HW212453   2.120   3.042   1.323
 3852SOL     OW12454   4.557   0.901   5.835
 3852SOL    HW112455   4.465   0.865   5.849
 3852SOL    HW212456   4.557   0.964   5.757
 3853SOL     OW12457   1.312   2.918   2.117
 3853SOL    HW112458   1.382   2.864   2.069
 3853SOL    HW212459   1.277   2.865   2.194
 3854SOL     OW12460   1.734   3.471   4.915
 3854SOL    HW112461   1.732   3.381   4.871
 3854SOL    HW212462   1.829   3.494   4.939
 3855SOL     OW12463   0.004   1.841   5.117
 3855SOL    HW112464   6.972   1.885   5.190
 3855SOL    HW212465   0.010   1.903   5.038
 3856SOL     OW12466   0.731   6.964   5.681
 3856SOL    HW112467   0.732   6.934   5.777
 3856SOL    HW212468   0.781   0.031   5.673
 3857SOL     OW12469   1.185   6.942   7.014
 3857SOL    HW112470   1.118   6.869   0.010
 3857SOL    HW212471   1.270   6.903   6.978
 3858SOL     OW12472   2.404   5.107   6.839
 3858SOL    HW112473   2.500   5.086   6.822
 3858SOL    HW212474   2.395   5.154   6.927
 3859SOL     OW12475   6.582   2.310   1.246
 3859SOL    HW112476   6.528   2.248   1.303
 3859SOL    HW212477   6.523   2.354   1.179
 3860SOL     OW12478   1.950   6.481   5.063
 3860SOL    HW112479   1.854   6.473   5.034
 3860SOL    HW212480   1.991   6.390   5.068
 3861SOL     OW12481   4.185   4.189   0.117
 3861SOL    HW112482   4.158   4.285   0.133
 3861SOL    HW212483   4.149   4.159   0.029
 3862SOL     OW12484   0.992   5.455   5.839
 3862SOL    HW112485   1.085   5.478   5.809
 3862SOL    HW212486   0.992   5.437   5.937
 3863SOL     OW12487   2.837   3.506   0.584
 3863SOL    HW112488   2.876   3.455   0.508
 3863SOL    HW212489   2.782   3.583   0.549
 3864SOL     OW12490   2.802   1.458   0.254
 3864SOL    HW112491   2.731   1.426   0.191
 3864SOL    HW212492   2.889   1.416   0.229
 3865SOL     OW12493   4.091   0.988   2.555
 3865SOL    HW112494   4.091   0.963   2.458
 3865SOL    HW212495   4.184   1.008   2.584
 3866SOL     OW12496   3.743   6.253   6.376
 3866SOL    HW112497   3.767   6.206   6.461
 3866SOL    HW212498   3.676   6.324   6.395
 3867SOL     OW12499   1.616   4.201   3.210
 3867SOL    HW112500   1.688   4.137   3.183
 3867SOL    HW212501   1.640   4.293   3.180
 3868SOL     OW12502   1.994   5.251   2.495
 3868SOL    HW112503   2.052   5.169   2.499
 3868SOL    HW212504   2.027   5.310   2.421
 3869SOL     OW12505   1.405   1.657   3.799
 3869SOL    HW112506   1.446   1.576   3.755
 3869SOL    HW212507   1.408   1.646   3.898
 3870SOL     OW12508   4.234   4.036   0.654
 3870SOL    HW112509   4.221   3.969   0.727
 3870SOL    HW212510   4.172   4.113   0.667
 3871SOL     OW12511   3.207   1.477   4.493
 3871SOL    HW112512   3.145   1.404   4.521
 3871SOL    HW212513   3.188   1.502   4.398
 3872SOL     OW12514   4.243   3.610   0.526
 3872SOL    HW112515   4.224   3.585   0.431
 3872SOL    HW212516   4.169   3.577   0.585
 3873SOL     OW12517   4.975   4.789   1.922
 3873SOL    HW112518   4.999   4.755   1.832
 3873SOL    HW212519   5.042   4.857   1.951
 3874SOL     OW12520   5.018   6.227   6.519
 3874SOL    HW112521   5.021   6.129   6.537
 3874SOL    HW212522   4.935   6.266   6.558
 3875SOL     OW12523   2.219   4.294   0.264
 3875SOL    HW112524   2.219   4.307   0.363
 3875SOL    HW212525   2.240   4.198   0.244
 3876SOL     OW12526   5.374   4.135   2.185
 3876SOL    HW112527   5.392   4.199   2.260
 3876SOL    HW212528   5.326   4.054   2.222
 3877SOL     OW12529   5.265   1.614   1.902
 3877SOL    HW112530   5.334   1.542   1.894
 3877SOL    HW212531   5.252   1.659   1.813
 3878SOL     OW12532   4.573   5.987   4.535
 3878SOL    HW112533   4.602   6.010   4.628
 3878SOL    HW212534   4.509   5.910   4.539
 3879SOL     OW12535   2.820   5.666   1.317
 3879SOL    HW112536   2.890   5.704   1.256
 3879SOL    HW212537   2.858   5.587   1.366
 3880SOL     OW12538   5.463   2.303   4.338
 3880SOL    HW112539   5.470   2.233   4.268
 3880SOL    HW212540   5.550   2.352   4.346
 3881SOL     OW12541   0.960   5.264   0.745
 3881SOL    HW112542   0.915   5.325   0.811
 3881SOL    HW212543   1.002   5.187   0.794
 3882SOL     OW12544   1.139   5.780   6.692
 3882SOL    HW112545   1.057   5.763   6.637
 3882SOL    HW212546   1.132   5.728   6.777
 3883SOL     OW12547   3.113   2.036   6.359
 3883SOL    HW112548   3.101   2.130   6.391
 3883SOL    HW212549   3.205   2.025   6.321
 3884SOL     OW12550   2.063   5.137   5.777
 3884SOL    HW112551   2.054   5.049   5.732
 3884SOL    HW212552   2.003   5.140   5.857
 3885SOL     OW12553   0.265   2.024   5.012
 3885SOL    HW112554   0.199   2.054   4.944
 3885SOL    HW212555   0.220   1.965   5.080
 3886SOL     OW12556   0.222   6.245   5.365
 3886SOL    HW112557   0.241   6.196   5.279
 3886SOL    HW212558   0.278   6.328   5.368
 3887SOL     OW12559   5.791   3.024   4.692
 3887SOL    HW112560   5.725   3.040   4.618
 3887SOL    HW212561   5.799   2.925   4.708
 3888SOL     OW12562   5.999   2.097   2.182
 3888SOL    HW112563   5.972   2.011   2.137
 3888SOL    HW212564   6.071   2.078   2.248
 3889SOL     OW12565   6.520   5.742   6.929
 3889SOL    HW112566   6.516   5.842   6.922
 3889SOL    HW212567   6.453   5.702   6.867
 3890SOL     OW12568   6.363   3.209   2.663
 3890SOL    HW112569   6.265   3.217   2.642
 3890SOL    HW212570   6.407   3.150   2.595
 3891SOL     OW12571   5.298   4.869   6.078
 3891SOL    HW112572   5.331   4.939   6.015
 3891SOL    HW212573   5.305   4.779   6.034
 3892SOL     OW12574   5.796   5.624   4.144
 3892SOL    HW112575   5.865   5.693   4.167
 3892SOL    HW212576   5.710   5.648   4.188
 3893SOL     OW12577   2.771   6.263   4.238
 3893SOL    HW112578   2.679   6.235   4.211
 3893SOL    HW212579   2.798   6.344   4.186
 3894SOL     OW12580   5.185   5.598   6.976
 3894SOL    HW112581   5.087   5.605   6.996
 3894SOL    HW212582   5.231   5.682   7.004
 3895SOL     OW12583   2.114   2.043   5.727
 3895SOL    HW112584   2.210   2.036   5.701
 3895SOL    HW212585   2.097   1.985   5.807
 3896SOL     OW12586   6.516   3.052   6.846
 3896SOL    HW112587   6.602   3.069   6.799
 3896SOL    HW212588   6.460   3.135   6.844
 3897SOL     OW12589   3.566   6.381   3.191
 3897SOL    HW112590   3.521   6.298   3.159
 3897SOL    HW212591   3.660   6.360   3.217
 3898SOL     OW12592   3.169   3.257   4.506
 3898SOL    HW112593   3.258   3.218   4.529
 3898SOL    HW212594   3.169   3.355   4.527
 3899SOL     OW12595   4.013   1.889   5.792
 3899SOL    HW112596   4.043   1.976   5.832
 3899SOL    HW212597   4.093   1.837   5.761
 3900SOL     OW12598   0.142   2.899   3.936
 3900SOL    HW112599   0.075   2.973   3.925
 3900SOL    HW212600   0.212   2.907   3.865
 3901SOL     OW12601   2.673   5.335   5.200
 3901SOL    HW112602   2.716   5.246   5.216
 3901SOL    HW212603   2.577   5.331   5.225
 3902SOL     OW12604   4.228   4.686   3.057
 3902SOL    HW112605   4.138   4.685   3.100
 3902SOL    HW212606   4.297   4.653   3.122
 3903SOL     OW12607   4.181   3.704   6.120
 3903SOL    HW112608   4.262   3.725   6.064
 3903SOL    HW212609   4.173   3.771   6.193
 3904SOL     OW12610   2.156   6.731   0.170
 3904SOL    HW112611   2.234   6.727   0.233
 3904SOL    HW212612   2.082   6.784   0.211
 3905SOL     OW12613   5.734   0.332   6.131
 3905SOL    HW112614   5.679   0.322   6.048
 3905SOL    HW212615   5.831   0.325   6.109
 3906SOL     OW12616   7.005   6.286   4.594
 3906SOL    HW112617   6.926   6.239   4.633
 3906SOL    HW212618   0.037   6.332   4.666
 3907SOL     OW12619   0.718   1.783   4.940
 3907SOL    HW112620   0.637   1.835   4.966
 3907SOL    HW212621   0.798   1.843   4.940
 3908SOL     OW12622   2.401   1.281   4.551
 3908SOL    HW112623   2.412   1.362   4.494
 3908SOL    HW212624   2.312   1.240   4.533
 3909SOL     OW12625   5.167   3.273   1.646
 3909SOL    HW112626   5.133   3.324   1.725
 3909SOL    HW212627   5.181   3.177   1.672
 3910SOL     OW12628   2.749   2.810   1.141
 3910SOL    HW112629   2.766   2.885   1.205
 3910SOL    HW212630   2.819   2.811   1.070
 3911SOL     OW12631   0.272   1.034   1.511
 3911SOL    HW112632   0.258   1.045   1.609
 3911SOL    HW212633   0.355   0.980   1.495
 3912SOL     OW12634   4.694   3.799   0.153
 3912SOL    HW112635   4.690   3.819   0.251
 3912SOL    HW212636   4.605   3.817   0.112
 3913SOL     OW12637   4.287   5.575   1.634
 3913SOL    HW112638   4.347   5.652   1.611
 3913SOL    HW212639   4.197   5.610   1.660
 3914SOL     OW12640   6.702   1.596   0.275
 3914SOL    HW112641   6.787   1.639   0.308
 3914SOL    HW212642   6.632   1.601   0.347
 3915SOL     OW12643   5.208   0.533   5.462
 3915SOL    HW112644   5.157   0.617   5.446
 3915SOL    HW212645   5.151   0.470   5.516
 3916SOL     OW12646   1.811   2.454   2.559
 3916SOL    HW112647   1.792   2.549   2.584
 3916SOL    HW212648   1.752   2.428   2.483
 3917SOL     OW12649   4.083   4.817   2.231
 3917SOL    HW112650   3.988   4.845   2.244
 3917SOL    HW212651   4.129   4.812   2.320
 3918SOL     OW12652   5.134   0.163   0.665
 3918SOL    HW112653   5.181   0.250   0.649
 3918SOL    HW212654   5.122   0.150   0.764
 3919SOL     OW12655   4.880   5.996   3.458
 3919SOL    HW112656   4.815   6.060   3.417
 3919SOL    HW212657   4.962   5.991   3.401
 3920SOL     OW12658   3.468   1.730   5.458
 3920SOL    HW112659   3.384   1.680   5.476
 3920SOL    HW212660   3.461   1.777   5.370
 3921SOL     OW12661   1.624   3.744   6.239
 3921SOL    HW112662   1.677   3.742   6.155
 3921SOL    HW212663   1.581   3.834   6.249
 3922SOL     OW12664   4.921   2.638   3.616
 3922SOL    HW112665   5.004   2.624   3.562
 3922SOL    HW212666   4.900   2.735   3.622
 3923SOL     OW12667   5.914   1.580   1.720
 3923SOL    HW112668   5.987   1.605   1.783
 3923SOL    HW212669   5.861   1.662   1.696
 3924SOL     OW12670   4.876   4.502   4.424
 3924SOL    HW112671   4.890   4.425   4.363
 3924SOL    HW212672   4.784   4.539   4.412
 3925SOL     OW12673   4.073   5.806   1.690
 3925SOL    HW112674   4.102   5.869   1.617
 3925SOL    HW212675   3.976   5.787   1.680
 3926SOL     OW12676   0.860   6.010   5.223
 3926SOL    HW112677   0.869   5.976   5.129
 3926SOL    HW212678   0.932   6.076   5.241
 3927SOL     OW12679   5.978   0.858   5.289
 3927SOL    HW112680   6.056   0.806   5.255
 3927SOL    HW212681   6.010   0.942   5.332
 3928SOL     OW12682   4.215   5.690   2.261
 3928SOL    HW112683   4.232   5.651   2.352
 3928SOL    HW212684   4.225   5.789   2.265
 3929SOL     OW12685   0.856   1.667   5.929
 3929SOL    HW112686   0.902   1.617   5.856
 3929SOL    HW212687   0.758   1.652   5.923
 3930SOL     OW12688   1.746   5.438   4.187
 3930SOL    HW112689   1.804   5.411   4.110
 3930SOL    HW212690   1.708   5.529   4.171
 3931SOL     OW12691   0.578   2.548   0.210
 3931SOL    HW112692   0.629   2.561   0.295
 3931SOL    HW212693   0.483   2.575   0.224
 3932SOL     OW12694   2.189   4.357   2.923
 3932SOL    HW112695   2.207   4.381   3.019
 3932SOL    HW212696   2.160   4.262   2.917
 3933SOL     OW12697   2.300   5.897   1.306
 3933SOL    HW112698   2.315   5.802   1.279
 3933SOL    HW212699   2.207   5.908   1.342
 3934SOL     OW12700   2.394   6.368   1.412
 3934SOL    HW112701   2.392   6.461   1.449
 3934SOL    HW212702   2.301   6.337   1.395
 3935SOL     OW12703   0.068   2.955   4.938
 3935SOL    HW112704   0.054   3.015   4.859
 3935SOL    HW212705   0.152   2.983   4.985
 3936SOL     OW12706   0.148   4.668   4.132
 3936SOL    HW112707   0.169   4.671   4.034
 3936SOL    HW212708   0.226   4.705   4.183
 3937SOL     OW12709   1.055   6.232   0.176
 3937SOL    HW112710   1.074   6.134   0.174
 3937SOL    HW212711   1.111   6.276   0.247
 3938SOL     OW12712   0.583   3.313   0.325
 3938SOL    HW112713   0.493   3.355   0.340
 3938SOL    HW212714   0.655   3.376   0.357
 3939SOL     OW12715   1.425   6.401   3.973
 3939SOL    HW112716   1.356   6.449   3.919
 3939SOL    HW212717   1.515   6.414   3.931
 3940SOL     OW12718   2.393   5.956   6.262
 3940SOL    HW112719   2.334   5.993   6.335
 3940SOL    HW212720   2.353   5.978   6.173
 3941SOL     OW12721   5.052   5.523   2.342
 3941SOL    HW112722   4.966   5.486   2.308
 3941SOL    HW212723   5.036   5.575   2.426
 3942SOL     OW12724   6.121   6.138   6.732
 3942SOL    HW112725   6.077   6.208   6.676
 3942SOL    HW212726   6.139   6.173   6.824
 3943SOL     OW12727   1.640   3.806   6.705
 3943SOL    HW112728   1.561   3.751   6.676
 3943SOL    HW212729   1.628   3.900   6.675
 3944SOL     OW12730   4.633   3.164   6.864
 3944SOL    HW112731   4.615   3.186   6.768
 3944SOL    HW212732   4.727   3.130   6.874
 3945SOL     OW12733   5.827   0.597   3.421
 3945SOL    HW112734   5.887   0.559   3.350
 3945SOL    HW212735   5.858   0.689   3.444
 3946SOL     OW12736   0.099   3.132   0.220
 3946SOL    HW112737   0.012   3.083   0.220
 3946SOL    HW212738   0.125   3.153   0.315
 3947SOL     OW12739   5.257   6.430   2.414
 3947SOL    HW112740   5.245   6.516   2.365
 3947SOL    HW212741   5.209   6.357   2.366
 3948SOL     OW12742   2.053   1.667   5.256
 3948SOL    HW112743   2.088   1.725   5.329
 3948SOL    HW212744   2.109   1.681   5.174
 3949SOL     OW12745   6.282   0.006   2.268
 3949SOL    HW112746   6.371   6.990   2.296
 3949SOL    HW212747   6.247   0.068   2.339
 3950SOL     OW12748   3.047   4.574   1.648
 3950SOL    HW112749   3.073   4.666   1.674
 3950SOL    HW212750   2.998   4.530   1.724
 3951SOL     OW12751   0.514   2.795   3.808
 3951SOL    HW112752   0.487   2.707   3.769
 3951SOL    HW212753   0.553   2.781   3.899
 3952SOL     OW12754   5.575   4.159   6.967
 3952SOL    HW112755   5.535   4.110   6.889
 3952SOL    HW212756   5.533   4.127   0.033
 3953SOL     OW12757   3.236   3.637   5.630
 3953SOL    HW112758   3.318   3.663   5.579
 3953SOL    HW212759   3.163   3.703   5.611
 3954SOL     OW12760   0.243   3.302   4.718
 3954SOL    HW112761   0.260   3.245   4.798
 3954SOL    HW212762   0.329   3.320   4.670
 3955SOL     OW12763   6.255   3.598   0.312
 3955SOL    HW112764   6.220   3.590   0.405
 3955SOL    HW212765   6.345   3.555   0.307
 3956SOL     OW12766   6.261   2.853   5.375
 3956SOL    HW112767   6.324   2.778   5.395
 3956SOL    HW212768   6.293   2.936   5.421
 3957SOL     OW12769   0.969   1.942   1.717
 3957SOL    HW112770   0.980   1.994   1.632
 3957SOL    HW212771   0.955   2.006   1.793
 3958SOL     OW12772   5.339   6.094   1.390
 3958SOL    HW112773   5.330   6.181   1.439
 3958SOL    HW212774   5.291   6.100   1.303
 3959SOL     OW12775   2.419   5.096   1.625
 3959SOL    HW112776   2.505   5.133   1.591
 3959SOL    HW212777   2.361   5.070   1.548
 3960SOL     OW12778   5.345   3.158   0.747
 3960SOL    HW112779   5.271   3.206   0.700
 3960SOL    HW212780   5.319   3.062   0.760
 3961SOL     OW12781   6.683   0.526   1.483
 3961SOL    HW112782   6.636   0.556   1.566
 3961SOL    HW212783   6.630   0.453   1.439
 3962SOL     OW12784   6.737   0.373   6.236
 3962SOL    HW112785   6.738   0.431   6.154
 3962SOL    HW212786   6.703   0.282   6.212
 3963SOL     OW12787   4.960   4.243   3.857
 3963SOL    HW112788   4.990   4.338   3.855
 3963SOL    HW212789   4.860   4.239   3.860
 3964SOL     OW12790   5.818   5.232   0.451
 3964SOL    HW112791   5.721   5.244   0.474
 3964SOL    HW212792   5.868   5.314   0.476
 3965SOL     OW12793   3.670   3.889   1.145
 3965SOL    HW112794   3.680   3.854   1.238
 3965SOL    HW212795   3.586   3.853   1.104
 3966SOL     OW12796   7.002   3.871   5.981
 3966SOL    HW112797   6.951   3.911   6.058
 3966SOL    HW212798   6.950   3.884   5.896
 3967SOL     OW12799   1.968   6.073   0.264
 3967SOL    HW112800   1.968   6.169   0.237
 3967SOL    HW212801   2.058   6.049   0.300
 3968SOL     OW12802   4.699   1.932   1.160
 3968SOL    HW112803   4.670   1.967   1.249
 3968SOL    HW212804   4.619   1.918   1.102
 3969SOL     OW12805   7.004   6.504   0.905
 3969SOL    HW112806   0.017   6.451   0.827
 3969SOL    HW212807   0.028   6.595   0.903
 3970SOL     OW12808   5.070   4.484   3.903
 3970SOL    HW112809   5.114   4.491   3.813
 3970SOL    HW212810   5.127   4.529   3.972
 3971SOL     OW12811   0.085   6.196   3.946
 3971SOL    HW112812   0.171   6.184   3.996
 3971SOL    HW212813   0.078   6.291   3.914
 3972SOL     OW12814   1.155   6.748   6.207
 3972SOL    HW112815   1.057   6.732   6.200
 3972SOL    HW212816   1.188   6.797   6.127
 3973SOL     OW12817   3.479   3.066   2.825
 3973SOL    HW112818   3.462   2.983   2.878
 3973SOL    HW212819   3.486   3.043   2.728
 3974SOL     OW12820   5.072   1.172   6.580
 3974SOL    HW112821   5.090   1.078   6.607
 3974SOL    HW212822   5.158   1.224   6.581
 3975SOL     OW12823   0.349   6.474   5.375
 3975SOL    HW112824   0.333   6.479   5.473
 3975SOL    HW212825   0.379   6.563   5.341
 3976SOL     OW12826   0.627   3.201   6.171
 3976SOL    HW112827   0.533   3.235   6.169
 3976SOL    HW212828   0.681   3.250   6.102
 3977SOL     OW12829   3.044   5.284   4.842
 3977SOL    HW112830   3.026   5.319   4.934
 3977SOL    HW212831   3.107   5.346   4.795
 3978SOL     OW12832   6.153   3.611   6.714
 3978SOL    HW112833   6.207   3.558   6.779
 3978SOL    HW212834   6.059   3.620   6.747
 3979SOL     OW12835   0.923   6.210   3.358
 3979SOL    HW112836   0.849   6.275   3.379
 3979SOL    HW212837   0.887   6.117   3.363
 3980SOL     OW12838   5.220   4.071   3.889
 3980SOL    HW112839   5.166   4.104   3.966
 3980SOL    HW212840   5.181   3.985   3.855
 3981SOL     OW12841   6.710   1.482   6.148
 3981SOL    HW112842   6.761   1.558   6.188
 3981SOL    HW212843   6.750   1.457   6.060
 3982SOL     OW12844   2.204   2.844   4.176
 3982SOL    HW112845   2.153   2.850   4.262
 3982SOL    HW212846   2.277   2.776   4.185
 3983SOL     OW12847   3.028   6.635   3.716
 3983SOL    HW112848   3.020   6.723   3.670
 3983SOL    HW212849   3.119   6.597   3.700
 3984SOL     OW12850   2.101   5.698   2.003
 3984SOL    HW112851   2.195   5.710   2.034
 3984SOL    HW212852   2.078   5.600   2.004
 3985SOL     OW12853   1.741   2.576   1.417
 3985SOL    HW112854   1.812   2.610   1.480
 3985SOL    HW212855   1.773   2.492   1.373
 3986SOL     OW12856   1.027   2.023   2.470
 3986SOL    HW112857   1.120   2.040   2.437
 3986SOL    HW212858   1.021   1.928   2.502
 3987SOL     OW12859   1.785   4.205   5.135
 3987SOL    HW112860   1.853   4.140   5.102
 3987SOL    HW212861   1.747   4.173   5.222
 3988SOL     OW12862   5.085   0.097   1.778
 3988SOL    HW112863   5.072   0.064   1.871
 3988SOL    HW212864   4.999   0.087   1.727
 3989SOL     OW12865   4.033   0.708   5.861
 3989SOL    HW112866   4.093   0.643   5.815
 3989SOL    HW212867   3.939   0.674   5.860
 3990SOL     OW12868   6.954   1.643   3.605
 3990SOL    HW112869   6.920   1.550   3.619
 3990SOL    HW212870   6.887   1.696   3.554
 3991SOL     OW12871   0.530   2.060   3.475
 3991SOL    HW112872   0.462   2.008   3.423
 3991SOL    HW212873   0.549   2.013   3.561
 3992SOL     OW12874   5.615   3.539   6.464
 3992SOL    HW112875   5.542   3.477   6.489
 3992SOL    HW212876   5.603   3.568   6.369
 3993SOL     OW12877   1.795   0.952   4.090
 3993SOL    HW112878   1.705   0.975   4.055
 3993SOL    HW212879   1.844   1.035   4.115
 3994SOL     OW12880   3.036   2.092   3.434
 3994SOL    HW112881   2.975   2.131   3.503
 3994SOL    HW212882   3.097   2.026   3.478
 3995SOL     OW12883   1.274   3.615   2.026
 3995SOL    HW112884   1.365   3.614   2.069
 3995SOL    HW212885   1.282   3.649   1.933
 3996SOL     OW12886   5.951   6.590   5.171
 3996SOL    HW112887   5.861   6.608   5.131
 3996SOL    HW212888   5.955   6.631   5.263
 3997SOL     OW12889   5.329   3.562   3.642
 3997SOL    HW112890   5.266   3.600   3.709
 3997SOL    HW212891   5.420   3.556   3.682
 3998SOL     OW12892   4.632   2.078   3.657
 3998SOL    HW112893   4.654   2.174   3.667
 3998SOL    HW212894   4.543   2.059   3.699
 3999SOL     OW12895   4.261   3.263   0.913
 3999SOL    HW112896   4.332   3.258   0.984
 3999SOL    HW212897   4.218   3.353   0.915
 4000SOL     OW12898   2.148   5.013   2.851
 4000SOL    HW112899   2.171   5.110   2.848
 4000SOL    HW212900   2.167   4.977   2.942
 4001SOL     OW12901   6.876   5.732   4.641
 4001SOL    HW112902   6.831   5.757   4.726
 4001SOL    HW212903   6.907   5.814   4.594
 4002SOL     OW12904   4.064   3.607   4.551
 4002SOL    HW112905   4.110   3.622   4.463
 4002SOL    HW212906   3.974   3.566   4.535
 4003SOL     OW12907   2.125   1.342   4.371
 4003SOL    HW112908   2.117   1.404   4.449
 4003SOL    HW212909   2.146   1.250   4.404
 4004SOL     OW12910   1.492   4.597   4.640
 4004SOL    HW112911   1.589   4.591   4.663
 4004SOL    HW212912   1.456   4.685   4.670
 4005SOL     OW12913   4.931   3.335   6.920
 4005SOL    HW112914   4.908   3.321   7.016
 4005SOL    HW212915   4.941   3.246   6.875
 4006SOL     OW12916   6.960   5.586   2.332
 4006SOL    HW112917   0.037   5.576   2.305
 4006SOL    HW212918   6.905   5.606   2.251
 4007SOL     OW12919   0.133   0.439   1.922
 4007SOL    HW112920   0.160   0.407   1.831
 4007SOL    HW212921   0.036   0.461   1.922
 4008SOL     OW12922   2.695   1.220   0.955
 4008SOL    HW112923   2.736   1.129   0.963
 4008SOL    HW212924   2.600   1.216   0.985
 4009SOL     OW12925   4.344   2.375   0.725
 4009SOL    HW112926   4.345   2.458   0.782
 4009SOL    HW212927   4.285   2.389   0.646
 4010SOL     OW12928   1.687   4.365   1.247
 4010SOL    HW112929   1.729   4.300   1.183
 4010SOL    HW212930   1.741   4.367   1.331
 4011SOL     OW12931   6.090   6.253   6.002
 4011SOL    HW112932   6.141   6.332   5.968
 4011SOL    HW212933   6.011   6.284   6.055
 4012SOL     OW12934   5.701   6.276   2.796
 4012SOL    HW112935   5.754   6.361   2.792
 4012SOL    HW212936   5.705   6.230   2.708
 4013SOL     OW12937   6.866   1.612   6.855
 4013SOL    HW112938   6.823   1.675   6.791
 4013SOL    HW212939   6.796   1.563   6.907
 4014SOL     OW12940   3.476   5.343   2.149
 4014SOL    HW112941   3.555   5.353   2.088
 4014SOL    HW212942   3.476   5.251   2.188
 4015SOL     OW12943   4.264   5.135   6.280
 4015SOL    HW112944   4.277   5.233   6.265
 4015SOL    HW212945   4.352   5.089   6.283
 4016SOL     OW12946   5.305   4.797   4.618
 4016SOL    HW112947   5.305   4.705   4.578
 4016SOL    HW212948   5.319   4.865   4.546
 4017SOL     OW12949   1.279   5.199   5.508
 4017SOL    HW112950   1.334   5.254   5.444
 4017SOL    HW212951   1.333   5.120   5.539
 4018SOL     OW12952   4.077   5.811   0.786
 4018SOL    HW112953   4.044   5.750   0.714
 4018SOL    HW212954   4.155   5.770   0.833
 4019SOL     OW12955   6.414   3.757   2.478
 4019SOL    HW112956   6.399   3.777   2.381
 4019SOL    HW212957   6.485   3.817   2.514
 4020SOL     OW12958   6.620   5.421   4.849
 4020SOL    HW112959   6.540   5.461   4.804
 4020SOL    HW212960   6.695   5.414   4.783
 4021SOL     OW12961   4.453   4.796   6.207
 4021SOL    HW112962   4.395   4.822   6.284
 4021SOL    HW212963   4.545   4.833   6.220
 4022SOL     OW12964   2.987   6.111   1.191
 4022SOL    HW112965   2.887   6.112   1.193
 4022SOL    HW212966   3.021   6.204   1.179
 4023SOL     OW12967   0.646   1.899   4.337
 4023SOL    HW112968   0.730   1.947   4.313
 4023SOL    HW212969   0.650   1.805   4.303
 4024SOL     OW12970   0.688   6.617   5.029
 4024SOL    HW112971   0.780   6.645   5.056
 4024SOL    HW212972   0.628   6.619   5.109
 4025SOL     OW12973   6.888   5.479   4.006
 4025SOL    HW112974   6.794   5.453   4.028
 4025SOL    HW212975   6.896   5.497   3.908
 4026SOL     OW12976   0.252   6.687   4.039
 4026SOL    HW112977   0.173   6.704   3.980
 4026SOL    HW212978   0.239   6.735   4.126
 4027SOL     OW12979   3.380   5.045   4.677
 4027SOL    HW112980   3.327   5.011   4.755
 4027SOL    HW212981   3.358   4.991   4.596
 4028SOL     OW12982   5.073   1.199   3.559
 4028SOL    HW112983   5.059   1.104   3.586
 4028SOL    HW212984   5.170   1.222   3.568
 4029SOL     OW12985   1.802   6.384   0.741
 4029SOL    HW112986   1.835   6.338   0.824
 4029SOL    HW212987   1.705   6.406   0.752
 4030SOL     OW12988   0.995   2.050   2.118
 4030SOL    HW112989   0.972   2.122   2.184
 4030SOL    HW212990   1.080   2.006   2.144
 4031SOL     OW12991   6.060   6.247   0.736
 4031SOL    HW112992   6.078   6.338   0.699
 4031SOL    HW212993   6.007   6.255   0.821
 4032SOL     OW12994   4.912   0.916   2.619
 4032SOL    HW112995   4.987   0.981   2.606
 4032SOL    HW212996   4.825   0.964   2.612
 4033SOL     OW12997   2.289   2.255   2.566
 4033SOL    HW112998   2.228   2.308   2.625
 4033SOL    HW212999   2.342   2.317   2.509
 4034SOL     OW13000   1.400   2.903   4.763
 4034SOL    HW113001   1.383   2.932   4.669
 4034SOL    HW213002   1.482   2.846   4.766
 4035SOL     OW13003   4.630   2.316   1.866
 4035SOL    HW113004   4.604   2.277   1.954
 4035SOL    HW213005   4.548   2.345   1.817
 4036SOL     OW13006   2.914   5.814   3.397
 4036SOL    HW113007   2.882   5.779   3.485
 4036SOL    HW213008   2.999   5.865   3.410
 4037SOL     OW13009   2.355   1.666   6.255
 4037SOL    HW113010   2.416   1.659   6.176
 4037SOL    HW213011   2.302   1.583   6.265
 4038SOL     OW13012   3.408   4.288   5.706
 4038SOL    HW113013   3.310   4.268   5.702
 4038SOL    HW213014   3.450   4.233   5.777
 4039SOL     OW13015   5.569   5.044   1.402
 4039SOL    HW113016   5.622   5.064   1.484
 4039SOL    HW213017   5.473   5.067   1.418
 4040SOL     OW13018   3.308   0.021   5.275
 4040SOL    HW113019   3.384   0.085   5.261
 4040SOL    HW213020   3.221   0.069   5.263
 4041SOL     OW13021   1.491   6.034   1.368
 4041SOL    HW113022   1.559   6.104   1.390
 4041SOL    HW213023   1.489   5.965   1.439
 4042SOL     OW13024   0.398   1.560   2.430
 4042SOL    HW113025   0.341   1.547   2.511
 4042SOL    HW213026   0.431   1.654   2.427
 4043SOL     OW13027   5.295   3.160   6.334
 4043SOL    HW113028   5.363   3.175   6.406
 4043SOL    HW213029   5.215   3.217   6.350
 4044SOL     OW13030   4.667   4.228   2.839
 4044SOL    HW113031   4.647   4.152   2.776
 4044SOL    HW213032   4.668   4.193   2.933
 4045SOL     OW13033   4.748   0.786   5.430
 4045SOL    HW113034   4.789   0.773   5.340
 4045SOL    HW213035   4.791   0.724   5.496
 4046SOL     OW13036   5.011   1.794   2.994
 4046SOL    HW113037   4.997   1.870   2.930
 4046SOL    HW213038   4.963   1.814   3.080
 4047SOL     OW13039   2.911   2.722   6.197
 4047SOL    HW113040   2.899   2.628   6.228
 4047SOL    HW213041   2.825   2.772   6.207
 4048SOL     OW13042   5.153   1.673   2.807
 4048SOL    HW113043   5.101   1.685   2.723
 4048SOL    HW213044   5.098   1.701   2.885
 4049SOL     OW13045   4.478   3.697   0.648
 4049SOL    HW113046   4.511   3.790   0.628
 4049SOL    HW213047   4.399   3.677   0.589
 4050SOL     OW13048   0.726   5.328   2.412
 4050SOL    HW113049   0.755   5.293   2.501
 4050SOL    HW213050   0.635   5.369   2.421
 4051SOL     OW13051   5.509   0.980   5.163
 4051SOL    HW113052   5.435   0.966   5.228
 4051SOL    HW213053   5.514   0.903   5.100
 4052SOL     OW13054   5.448   2.042   3.129
 4052SOL    HW113055   5.420   2.062   3.222
 4052SOL    HW213056   5.380   1.982   3.085
 4053SOL     OW13057   0.874   5.243   4.341
 4053SOL    HW113058   0.955   5.262   4.287
 4053SOL    HW213059   0.814   5.324   4.342
 4054SOL     OW13060   4.059   3.773   1.078
 4054SOL    HW113061   4.130   3.767   1.149
 4054SOL    HW213062   3.996   3.696   1.087
 4055SOL     OW13063   0.529   3.910   0.201
 4055SOL    HW113064   0.515   3.984   0.136
 4055SOL    HW213065   0.618   3.921   0.246
 4056SOL     OW13066   4.851   3.587   0.237
 4056SOL    HW113067   4.798   3.509   0.270
 4056SOL    HW213068   4.792   3.667   0.230
 4057SOL     OW13069   0.212   3.557   0.559
 4057SOL    HW113070   0.157   3.544   0.641
 4057SOL    HW213071   0.237   3.654   0.550
 4058SOL     OW13072   2.627   0.537   5.115
 4058SOL    HW113073   2.665   0.622   5.150
 4058SOL    HW213074   2.593   0.551   5.022
 4059SOL     OW13075   0.325   1.217   3.163
 4059SOL    HW113076   0.366   1.151   3.101
 4059SOL    HW213077   0.303   1.172   3.250
 4060SOL     OW13078   0.076   6.376   4.830
 4060SOL    HW113079   0.040   6.448   4.890
 4060SOL    HW213080   0.163   6.342   4.868
 4061SOL     OW13081   0.805   4.903   1.281
 4061SOL    HW113082   0.850   4.904   1.370
 4061SOL    HW213083   0.715   4.946   1.288
 4062SOL     OW13084   2.181   3.378   1.058
 4062SOL    HW113085   2.162   3.290   1.101
 4062SOL    HW213086   2.144   3.452   1.114
 4063SOL     OW13087   4.713   0.519   0.230
 4063SOL    HW113088   4.745   0.567   0.148
 4063SOL    HW213089   4.774   0.538   0.306
 4064SOL     OW13090   1.600   0.998   6.161
 4064SOL    HW113091   1.510   0.959   6.138
 4064SOL    HW213092   1.587   1.082   6.214
 4065SOL     OW13093   2.600   6.941   1.051
 4065SOL    HW113094   2.565   6.964   1.142
 4065SOL    HW213095   2.613   0.006   0.998
 4066SOL     OW13096   1.093   3.718   3.367
 4066SOL    HW113097   1.091   3.756   3.274
 4066SOL    HW213098   1.121   3.622   3.362
 4067SOL     OW13099   5.565   5.166   0.572
 4067SOL    HW113100   5.556   5.077   0.529
 4067SOL    HW213101   5.532   5.161   0.666
 4068SOL     OW13102   2.180   2.870   5.174
 4068SOL    HW113103   2.228   2.952   5.143
 4068SOL    HW213104   2.235   2.789   5.155
 4069SOL     OW13105   4.495   0.394   6.503
 4069SOL    HW113106   4.564   0.418   6.572
 4069SOL    HW213107   4.406   0.430   6.530
 4070SOL     OW13108   1.468   3.647   3.638
 4070SOL    HW113109   1.408   3.694   3.703
 4070SOL    HW213110   1.510   3.715   3.577
 4071SOL     OW13111   1.856   0.730   4.469
 4071SOL    HW113112   1.906   0.816   4.463
 4071SOL    HW213113   1.791   0.724   4.393
 4072SOL     OW13114   2.357   5.631   3.217
 4072SOL    HW113115   2.327   5.706   3.157
 4072SOL    HW213116   2.313   5.640   3.306
 4073SOL     OW13117   4.385   4.793   6.790
 4073SOL    HW113118   4.426   4.721   6.845
 4073SOL    HW213119   4.457   4.845   6.744
 4074SOL     OW13120   1.335   5.840   2.969
 4074SOL    HW113121   1.243   5.804   2.980
 4074SOL    HW213122   1.397   5.767   2.940
 4075SOL     OW13123   6.814   0.779   1.060
 4075SOL    HW113124   6.834   0.718   1.136
 4075SOL    HW213125   6.878   0.761   0.985
 4076SOL     OW13126   2.354   4.718   4.547
 4076SOL    HW113127   2.392   4.780   4.478
 4076SOL    HW213128   2.383   4.624   4.526
 4077SOL     OW13129   3.096   0.898   1.645
 4077SOL    HW113130   3.052   0.954   1.575
 4077SOL    HW213131   3.173   0.947   1.685
 4078SOL     OW13132   3.413   4.875   2.486
 4078SOL    HW113133   3.343   4.879   2.414
 4078SOL    HW213134   3.368   4.881   2.575
 4079SOL     OW13135   0.814   1.863   3.893
 4079SOL    HW113136   0.799   1.944   3.949
 4079SOL    HW213137   0.895   1.815   3.924
 4080SOL     OW13138   6.548   2.366   5.071
 4080SOL    HW113139   6.482   2.429   5.029
 4080SOL    HW213140   6.639   2.384   5.033
 4081SOL     OW13141   2.021   3.711   3.695
 4081SOL    HW113142   2.017   3.620   3.736
 4081SOL    HW213143   1.945   3.767   3.730
 4082SOL     OW13144   0.778   3.175   1.049
 4082SOL    HW113145   0.803   3.079   1.061
 4082SOL    HW213146   0.784   3.199   0.952
 4083SOL     OW13147   6.058   3.023   4.475
 4083SOL    HW113148   6.142   3.040   4.526
 4083SOL    HW213149   5.980   3.028   4.537
 4084SOL     OW13150   0.242   1.364   4.127
 4084SOL    HW113151   0.315   1.406   4.073
 4084SOL    HW213152   0.176   1.433   4.154
 4085SOL     OW13153   2.685   6.487   0.388
 4085SOL    HW113154   2.726   6.396   0.395
 4085SOL    HW213155   2.731   6.550   0.451
 4086SOL     OW13156   0.979   4.658   0.525
 4086SOL    HW113157   0.955   4.721   0.451
 4086SOL    HW213158   0.933   4.687   0.609
 4087SOL     OW13159   1.890   1.982   2.962
 4087SOL    HW113160   1.832   1.950   3.036
 4087SOL    HW213161   1.968   2.033   3.000
 4088SOL     OW13162   6.523   2.042   0.639
 4088SOL    HW113163   6.455   2.108   0.606
 4088SOL    HW213164   6.484   1.950   0.632
 4089SOL     OW13165   1.111   1.616   5.429
 4089SOL    HW113166   1.187   1.554   5.412
 4089SOL    HW213167   1.142   1.689   5.490
 4090SOL     OW13168   1.897   5.121   6.049
 4090SOL    HW113169   1.808   5.100   6.009
 4090SOL    HW213170   1.887   5.201   6.109
 4091SOL     OW13171   4.493   6.258   0.076
 4091SOL    HW113172   4.487   6.159   0.063
 4091SOL    HW213173   4.491   6.278   0.174
 4092SOL     OW13174   0.383   2.590   4.491
 4092SOL    HW113175   0.393   2.555   4.397
 4092SOL    HW213176   0.286   2.605   4.510
 4093SOL     OW13177   5.953   0.495   4.988
 4093SOL    HW113178   6.027   0.530   5.045
 4093SOL    HW213179   5.913   0.571   4.935
 4094SOL     OW13180   2.922   4.314   5.330
 4094SOL    HW113181   2.912   4.383   5.258
 4094SOL    HW213182   2.958   4.230   5.291
 4095SOL     OW13183   1.687   4.078   5.902
 4095SOL    HW113184   1.743   4.083   5.819
 4095SOL    HW213185   1.731   4.016   5.968
 4096SOL     OW13186   4.212   4.740   1.998
 4096SOL    HW113187   4.259   4.652   1.992
 4096SOL    HW213188   4.167   4.747   2.087
 4097SOL     OW13189   3.159   3.535   4.557
 4097SOL    HW113190   3.068   3.577   4.560
 4097SOL    HW213191   3.203   3.554   4.470
 4098SOL     OW13192   0.391   2.468   2.620
 4098SOL    HW113193   0.411   2.444   2.715
 4098SOL    HW213194   0.470   2.444   2.563
 4099SOL     OW13195   3.648   6.343   1.858
 4099SOL    HW113196   3.642   6.442   1.859
 4099SOL    HW213197   3.728   6.314   1.805
 4100SOL     OW13198   3.540   6.133   3.104
 4100SOL    HW113199   3.468   6.064   3.100
 4100SOL    HW213200   3.619   6.096   3.151
 4101SOL     OW13201   4.602   0.903   6.096
 4101SOL    HW113202   4.613   0.907   5.997
 4101SOL    HW213203   4.558   0.817   6.122
 4102SOL     OW13204   5.527   1.338   0.767
 4102SOL    HW113205   5.516   1.434   0.795
 4102SOL    HW213206   5.571   1.335   0.678
 4103SOL     OW13207   0.352   0.379   2.467
 4103SOL    HW113208   0.265   0.330   2.458
 4103SOL    HW213209   0.426   0.323   2.429
 4104SOL     OW13210   1.603   4.633   2.532
 4104SOL    HW113211   1.610   4.534   2.529
 4104SOL    HW213212   1.526   4.663   2.476
 4105SOL     OW13213   5.138   5.511   0.240
 4105SOL    HW113214   5.211   5.521   0.308
 4105SOL    HW213215   5.178   5.500   0.150
 4106SOL     OW13216   6.578   3.998   4.795
 4106SOL    HW113217   6.515   4.073   4.774
 4106SOL    HW213218   6.543   3.947   4.874
 4107SOL     OW13219   0.115   0.777   1.474
 4107SOL    HW113220   0.151   0.770   1.381
 4107SOL    HW213221   0.141   0.865   1.513
 4108SOL     OW13222   6.693   3.055   5.471
 4108SOL    HW113223   6.714   3.152   5.481
 4108SOL    HW213224   6.732   3.005   5.548
 4109SOL     OW13225   3.181   6.122   2.985
 4109SOL    HW113226   3.230   6.165   2.908
 4109SOL    HW213227   3.203   6.171   3.069
 4110SOL     OW13228   4.654   3.317   5.504
 4110SOL    HW113229   4.697   3.237   5.463
 4110SOL    HW213230   4.558   3.322   5.476
 4111SOL     OW13231   4.391   3.012   6.923
 4111SOL    HW113232   4.422   2.945   6.991
 4111SOL    HW213233   4.467   3.072   6.898
 4112SOL     OW13234   3.377   0.675   4.313
 4112SOL    HW113235   3.388   0.589   4.363
 4112SOL    HW213236   3.313   0.661   4.237
 4113SOL     OW13237   3.593   5.120   4.520
 4113SOL    HW113238   3.528   5.093   4.591
 4113SOL    HW213239   3.558   5.200   4.472
 4114SOL     OW13240   2.651   2.082   2.770
 4114SOL    HW113241   2.739   2.085   2.722
 4114SOL    HW213242   2.577   2.079   2.703
 4115SOL     OW13243   5.183   4.668   2.117
 4115SOL    HW113244   5.149   4.639   2.206
 4115SOL    HW213245   5.105   4.695   2.059
 4116SOL     OW13246   3.368   0.874   1.999
 4116SOL    HW113247   3.345   0.954   1.943
 4116SOL    HW213248   3.368   0.900   2.095
 4117SOL     OW13249   1.071   5.683   2.178
 4117SOL    HW113250   0.976   5.654   2.181
 4117SOL    HW213251   1.128   5.607   2.146
 4118SOL     OW13252   2.647   6.905   0.238
 4118SOL    HW113253   2.577   6.877   0.303
 4118SOL    HW213254   2.725   6.942   0.287
 4119SOL     OW13255   4.318   1.014   3.301
 4119SOL    HW113256   4.221   1.038   3.301
 4119SOL    HW213257   4.368   1.076   3.362
 4120SOL     OW13258   3.696   0.937   1.889
 4120SOL    HW113259   3.687   0.943   1.988
 4120SOL    HW213260   3.618   0.984   1.846
 4121SOL     OW13261   6.605   3.016   5.023
 4121SOL    HW113262   6.636   3.110   5.036
 4121SOL    HW213263   6.623   2.964   5.107
 4122SOL     OW13264   1.779   5.480   6.676
 4122SOL    HW113265   1.798   5.539   6.754
 4122SOL    HW213266   1.768   5.386   6.707
 4123SOL     OW13267   4.976   3.798   6.218
 4123SOL    HW113268   4.996   3.764   6.310
 4123SOL    HW213269   4.933   3.725   6.164
 4124SOL     OW13270   4.967   6.718   3.464
 4124SOL    HW113271   5.041   6.683   3.406
 4124SOL    HW213272   4.910   6.641   3.494
 4125SOL     OW13273   5.270   1.409   1.086
 4125SOL    HW113274   5.310   1.492   1.124
 4125SOL    HW213275   5.275   1.412   0.986
 4126SOL     OW13276   2.188   4.962   4.370
 4126SOL    HW113277   2.285   4.937   4.365
 4126SOL    HW213278   2.172   5.044   4.315
 4127SOL     OW13279   6.321   3.862   5.700
 4127SOL    HW113280   6.415   3.873   5.669
 4127SOL    HW213281   6.319   3.854   5.800
 4128SOL     OW13282   1.251   1.978   2.664
 4128SOL    HW113283   1.225   1.909   2.731
 4128SOL    HW213284   1.351   1.982   2.657
 4129SOL     OW13285   5.736   1.971   6.085
 4129SOL    HW113286   5.750   2.038   6.011
 4129SOL    HW213287   5.818   1.966   6.141
 4130SOL     OW13288   5.801   3.504   0.990
 4130SOL    HW113289   5.808   3.536   1.084
 4130SOL    HW213290   5.882   3.534   0.938
 4131SOL     OW13291   6.552   4.393   3.406
 4131SOL    HW113292   6.469   4.337   3.401
 4131SOL    HW213293   6.631   4.334   3.420
 4132SOL     OW13294   4.969   2.075   4.407
 4132SOL    HW113295   4.899   2.004   4.418
 4132SOL    HW213296   4.956   2.121   4.319
 4133SOL     OW13297   2.784   1.974   0.976
 4133SOL    HW113298   2.740   2.064   0.974
 4133SOL    HW213299   2.750   1.923   1.055
 4134SOL     OW13300   1.105   1.797   0.059
 4134SOL    HW113301   1.041   1.837   7.012
 4134SOL    HW213302   1.112   1.857   0.138
 4135SOL     OW13303   1.276   0.519   1.138
 4135SOL    HW113304   1.289   0.533   1.237
 4135SOL    HW213305   1.350   0.462   1.103
 4136SOL     OW13306   0.891   1.867   3.444
 4136SOL    HW113307   0.970   1.808   3.427
 4136SOL    HW213308   0.909   1.958   3.407
 4137SOL     OW13309   3.087   3.993   5.840
 4137SOL    HW113310   2.994   3.965   5.820
 4137SOL    HW213311   3.148   3.963   5.767
 4138SOL     OW13312   4.145   5.243   2.930
 4138SOL    HW113313   4.120   5.332   2.969
 4138SOL    HW213314   4.191   5.257   2.843
 4139SOL     OW13315   1.973   1.307   0.130
 4139SOL    HW113316   1.903   1.236   0.127
 4139SOL    HW213317   1.942   1.388   0.080
 4140SOL     OW13318   4.583   1.663   5.403
 4140SOL    HW113319   4.608   1.568   5.386
 4140SOL    HW213320   4.639   1.723   5.345
 4141SOL     OW13321   5.153   5.825   0.544
 4141SOL    HW113322   5.096   5.761   0.597
 4141SOL    HW213323   5.207   5.881   0.607
 4142SOL     OW13324   5.888   3.583   1.478
 4142SOL    HW113325   5.889   3.493   1.436
 4142SOL    HW213326   5.982   3.610   1.500
 4143SOL     OW13327   0.585   2.542   1.438
 4143SOL    HW113328   0.511   2.581   1.383
 4143SOL    HW213329   0.597   2.446   1.414
 4144SOL     OW13330   4.736   0.717   2.422
 4144SOL    HW113331   4.649   0.697   2.467
 4144SOL    HW213332   4.769   0.807   2.451
 4145SOL     OW13333   3.128   6.784   2.845
 4145SOL    HW113334   3.107   6.738   2.759
 4145SOL    HW213335   3.119   6.719   2.920
 4146SOL     OW13336   4.587   5.467   0.335
 4146SOL    HW113337   4.687   5.461   0.324
 4146SOL    HW213338   4.566   5.498   0.428
 4147SOL     OW13339   3.221   2.467   5.592
 4147SOL    HW113340   3.204   2.369   5.606
 4147SOL    HW213341   3.141   2.519   5.620
 4148SOL     OW13342   5.650   6.911   3.139
 4148SOL    HW113343   5.677   6.995   3.185
 4148SOL    HW213344   5.664   6.833   3.200
 4149SOL     OW13345   5.270   4.228   1.508
 4149SOL    HW113346   5.340   4.279   1.457
 4149SOL    HW213347   5.179   4.261   1.481
 4150SOL     OW13348   4.678   0.304   5.876
 4150SOL    HW113349   4.762   0.305   5.931
 4150SOL    HW213350   4.663   0.396   5.838
 4151SOL     OW13351   6.749   5.233   0.413
 4151SOL    HW113352   6.745   5.258   0.317
 4151SOL    HW213353   6.657   5.236   0.452
 4152SOL     OW13354   3.988   4.477   1.242
 4152SOL    HW113355   3.911   4.418   1.266
 4152SOL    HW213356   3.968   4.527   1.158
 4153SOL     OW13357   6.581   5.309   6.434
 4153SOL    HW113358   6.676   5.305   6.404
 4153SOL    HW213359   6.522   5.267   6.365
 4154SOL     OW13360   4.822   2.992   5.604
 4154SOL    HW113361   4.908   3.038   5.628
 4154SOL    HW213362   4.782   3.037   5.525
 4155SOL     OW13363   1.028   3.140   1.667
 4155SOL    HW113364   1.097   3.151   1.739
 4155SOL    HW213365   0.974   3.058   1.685
 4156SOL     OW13366   6.159   0.259   5.695
 4156SOL    HW113367   6.136   0.191   5.625
 4156SOL    HW213368   6.082   0.270   5.758
 4157SOL     OW13369   3.428   0.712   5.078
 4157SOL    HW113370   3.432   0.750   5.170
 4157SOL    HW213371   3.333   0.692   5.054
 4158SOL     OW13372   1.199   6.792   3.978
 4158SOL    HW113373   1.182   6.700   4.013
 4158SOL    HW213374   1.131   6.814   3.908
 4159SOL     OW13375   0.776   3.156   5.142
 4159SOL    HW113376   0.873   3.137   5.124
 4159SOL    HW213377   0.728   3.070   5.157
 4160SOL     OW13378   1.468   1.428   0.739
 4160SOL    HW113379   1.458   1.461   0.833
 4160SOL    HW213380   1.555   1.379   0.731
 4161SOL     OW13381   6.110   1.655   0.756
 4161SOL    HW113382   6.116   1.742   0.707
 4161SOL    HW213383   6.031   1.603   0.723
 4162SOL     OW13384   6.855   0.297   5.208
 4162SOL    HW113385   6.788   0.251   5.267
 4162SOL    HW213386   6.850   0.257   5.116
 4163SOL     OW13387   6.086   1.113   3.934
 4163SOL    HW113388   6.007   1.107   3.994
 4163SOL    HW213389   6.161   1.060   3.972
 4164SOL     OW13390   2.309   7.005   5.858
 4164SOL    HW113391   2.365   0.070   5.853
 4164SOL    HW213392   2.340   6.941   5.789
 4165SOL     OW13393   3.350   6.019   2.394
 4165SOL    HW113394   3.318   6.050   2.305
 4165SOL    HW213395   3.430   5.960   2.382
 4166SOL     OW13396   5.964   3.162   0.725
 4166SOL    HW113397   6.014   3.078   0.708
 4166SOL    HW213398   5.899   3.147   0.799
 4167SOL     OW13399   2.059   3.143   1.191
 4167SOL    HW113400   2.116   3.095   1.124
 4167SOL    HW213401   1.962   3.127   1.170
 4168SOL     OW13402   1.398   4.325   1.056
 4168SOL    HW113403   1.489   4.339   1.017
 4168SOL    HW213404   1.403   4.257   1.128
 4169SOL     OW13405   6.285   3.643   4.421
 4169SOL    HW113406   6.331   3.650   4.510
 4169SOL    HW213407   6.194   3.684   4.427
 4170SOL     OW13408   4.716   2.501   5.458
 4170SOL    HW113409   4.686   2.582   5.407
 4170SOL    HW213410   4.654   2.425   5.439
 4171SOL     OW13411   5.195   3.648   1.682
 4171SOL    HW113412   5.233   3.733   1.717
 4171SOL    HW213413   5.100   3.639   1.711
 4172SOL     OW13414   2.002   1.840   0.308
 4172SOL    HW113415   2.074   1.779   0.342
 4172SOL    HW213416   1.949   1.875   0.385
 4173SOL     OW13417   5.384   3.858   5.432
 4173SOL    HW113418   5.378   3.816   5.341
 4173SOL    HW213419   5.479   3.857   5.463
 4174SOL     OW13420   5.109   0.568   4.270
 4174SOL    HW113421   5.160   0.482   4.265
 4174SOL    HW213422   5.172   0.645   4.269
 4175SOL     OW13423   3.437   1.679   3.589
 4175SOL    HW113424   3.512   1.614   3.586
 4175SOL    HW213425   3.370   1.656   3.517
 4176SOL     OW13426   5.842   5.730   2.685
 4176SOL    HW113427   5.868   5.806   2.625
 4176SOL    HW213428   5.918   5.665   2.691
 4177SOL     OW13429   6.892   5.246   2.555
 4177SOL    HW113430   6.816   5.189   2.523
 4177SOL    HW213431   6.963   5.188   2.595
 4178SOL     OW13432   4.444   2.466   5.799
 4178SOL    HW113433   4.391   2.524   5.862
 4178SOL    HW213434   4.539   2.462   5.829
 4179SOL     OW13435   6.224   2.888   6.155
 4179SOL    HW113436   6.195   2.900   6.059
 4179SOL    HW213437   6.310   2.936   6.170
 4180SOL     OW13438   4.256   3.935   1.272
 4180SOL    HW113439   4.354   3.935   1.290
 4180SOL    HW213440   4.234   4.007   1.206
 4181SOL     OW13441   0.140   1.002   0.167
 4181SOL    HW113442   0.044   1.013   0.191
 4181SOL    HW213443   0.168   1.079   0.109
 4182SOL     OW13444   5.862   1.567   3.775
 4182SOL    HW113445   5.776   1.583   3.727
 4182SOL    HW213446   5.883   1.470   3.774
 4183SOL     OW13447   1.629   1.959   1.302
 4183SOL    HW113448   1.615   1.967   1.401
 4183SOL    HW213449   1.725   1.977   1.281
 4184SOL     OW13450   3.865   5.178   0.700
 4184SOL    HW113451   3.820   5.264   0.675
 4184SOL    HW213452   3.825   5.103   0.648
 4185SOL     OW13453   7.003   6.932   4.135
 4185SOL    HW113454   0.023   6.878   4.210
 4185SOL    HW213455   6.904   6.941   4.148
 4186SOL     OW13456   3.629   4.330   1.550
 4186SOL    HW113457   3.642   4.427   1.571
 4186SOL    HW213458   3.620   4.278   1.634
 4187SOL     OW13459   4.160   4.307   6.632
 4187SOL    HW113460   4.228   4.372   6.597
 4187SOL    HW213461   4.179   4.216   6.595
 4188SOL     OW13462   4.860   6.562   4.797
 4188SOL    HW113463   4.850   6.610   4.710
 4188SOL    HW213464   4.803   6.605   4.866
 4189SOL     OW13465   1.890   3.043   3.487
 4189SOL    HW113466   1.864   3.093   3.569
 4189SOL    HW213467   1.964   3.090   3.440
 4190SOL     OW13468   3.363   0.122   1.323
 4190SOL    HW113469   3.418   0.072   1.390
 4190SOL    HW213470   3.421   0.148   1.246
 4191SOL     OW13471   6.957   2.411   2.170
 4191SOL    HW113472   0.032   2.418   2.204
 4191SOL    HW213473   6.946   2.325   2.121
 4192SOL     OW13474   5.978   1.027   2.877
 4192SOL    HW113475   5.942   1.109   2.923
 4192SOL    HW213476   6.070   1.008   2.911
 4193SOL     OW13477   2.235   6.728   2.494
 4193SOL    HW113478   2.318   6.683   2.462
 4193SOL    HW213479   2.256   6.822   2.520
 4194SOL     OW13480   0.440   0.883   3.776
 4194SOL    HW113481   0.405   0.805   3.723
 4194SOL    HW213482   0.528   0.911   3.739
 4195SOL     OW13483   5.191   0.748   2.522
 4195SOL    HW113484   5.177   0.748   2.621
 4195SOL    HW213485   5.252   0.824   2.498
 4196SOL     OW13486   4.524   2.336   3.059
 4196SOL    HW113487   4.553   2.256   3.006
 4196SOL    HW213488   4.539   2.320   3.156
 4197SOL     OW13489   4.715   4.234   4.039
 4197SOL    HW113490   4.681   4.232   3.945
 4197SOL    HW213491   4.750   4.143   4.064
 4198SOL     OW13492   5.477   4.166   5.494
 4198SOL    HW113493   5.560   4.183   5.440
 4198SOL    HW213494   5.406   4.127   5.435
 4199SOL     OW13495   3.061   3.827   5.217
 4199SOL    HW113496   2.987   3.771   5.256
 4199SOL    HW213497   3.097   3.782   5.136
 4200SOL     OW13498   2.363   0.256   6.050
 4200SOL    HW113499   2.406   0.190   6.111
 4200SOL    HW213500   2.301   0.315   6.102
 4201SOL     OW13501   6.372   6.598   4.741
 4201SOL    HW113502   6.385   6.536   4.664
 4201SOL    HW213503   6.324   6.680   4.710
 4202SOL     OW13504   5.581   3.895   5.010
 4202SOL    HW113505   5.562   3.837   5.089
 4202SOL    HW213506   5.603   3.838   4.931
 4203SOL     OW13507   4.825   5.352   3.809
 4203SOL    HW113508   4.847   5.297   3.728
 4203SOL    HW213509   4.857   5.446   3.795
 4204SOL     OW13510   2.779   4.016   0.925
 4204SOL    HW113511   2.780   3.949   0.999
 4204SOL    HW213512   2.791   3.970   0.837
 4205SOL     OW13513   2.789   5.420   3.111
 4205SOL    HW113514   2.858   5.356   3.078
 4205SOL    HW213515   2.834   5.495   3.159
 4206SOL     OW13516   5.733   0.057   4.564
 4206SOL    HW113517   5.767   0.087   4.654
 4206SOL    HW213518   5.759   0.124   4.495
 4207SOL     OW13519   0.851   0.661   1.251
 4207SOL    HW113520   0.941   0.658   1.207
 4207SOL    HW213521   0.807   0.571   1.244
 4208SOL     OW13522   0.883   2.933   1.059
 4208SOL    HW113523   0.798   2.886   1.081
 4208SOL    HW213524   0.958   2.866   1.054
 4209SOL     OW13525   2.782   0.357   4.581
 4209SOL    HW113526   2.732   0.310   4.654
 4209SOL    HW213527   2.747   0.450   4.571
 4210SOL     OW13528   5.020   2.320   0.356
 4210SOL    HW113529   4.969   2.255   0.412
 4210SOL    HW213530   5.000   2.303   0.259
 4211SOL     OW13531   4.924   3.585   3.688
 4211SOL    HW113532   4.911   3.488   3.668
 4211SOL    HW213533   4.879   3.608   3.774
 4212SOL     OW13534   6.043   6.802   3.091
 4212SOL    HW113535   6.084   6.738   3.026
 4212SOL    HW213536   6.105   6.877   3.109
 4213SOL     OW13537   0.830   0.514   1.934
 4213SOL    HW113538   0.909   0.464   1.970
 4213SOL    HW213539   0.767   0.449   1.892
 4214SOL     OW13540   1.952   4.492   4.459
 4214SOL    HW113541   2.008   4.569   4.427
 4214SOL    HW213542   1.899   4.521   4.539
 4215SOL     OW13543   0.774   5.393   5.345
 4215SOL    HW113544   0.818   5.382   5.434
 4215SOL    HW213545   0.684   5.434   5.357
 4216SOL     OW13546   2.439   3.475   5.285
 4216SOL    HW113547   2.492   3.391   5.277
 4216SOL    HW213548   2.484   3.536   5.350
 4217SOL     OW13549   0.046   0.697   2.942
 4217SOL    HW113550   0.086   0.789   2.946
 4217SOL    HW213551   0.035   0.661   3.035
 4218SOL     OW13552   3.155   0.191   2.953
 4218SOL    HW113553   3.099   0.273   2.957
 4218SOL    HW213554   3.127   0.135   2.875
 4219SOL     OW13555   4.683   0.069   3.128
 4219SOL    HW113556   4.729   0.055   3.216
 4219SOL    HW213557   4.661   6.999   3.087
 4220SOL     OW13558   0.708   3.830   3.638
 4220SOL    HW113559   0.790   3.774   3.650
 4220SOL    HW213560   0.725   3.922   3.671
 4221SOL     OW13561   5.246   6.068   5.827
 4221SOL    HW113562   5.277   6.044   5.735
 4221SOL    HW213563   5.295   6.011   5.894
 4222SOL     OW13564   3.903   2.419   0.245
 4222SOL    HW113565   3.917   2.375   0.157
 4222SOL    HW213566   3.805   2.429   0.262
 4223SOL     OW13567   3.068   3.801   2.436
 4223SOL    HW113568   3.033   3.709   2.423
 4223SOL    HW213569   3.032   3.839   2.522
 4224SOL     OW13570   3.908   1.879   5.545
 4224SOL    HW113571   3.924   1.969   5.504
 4224SOL    HW213572   3.934   1.882   5.642
 4225SOL     OW13573   5.526   0.779   4.966
 4225SOL    HW113574   5.511   0.680   4.965
 4225SOL    HW213575   5.461   0.823   4.904
 4226SOL     OW13576   1.594   1.190   3.154
 4226SOL    HW113577   1.633   1.102   3.125
 4226SOL    HW213578   1.494   1.181   3.160
 4227SOL     OW13579   6.320   4.087   0.185
 4227SOL    HW113580   6.384   4.100   0.109
 4227SOL    HW213581   6.302   4.175   0.228
 4228SOL     OW13582   5.946   5.492   2.885
 4228SOL    HW113583   5.989   5.409   2.921
 4228SOL    HW213584   5.912   5.548   2.960
 4229SOL     OW13585   4.822   4.904   5.781
 4229SOL    HW113586   4.786   4.841   5.850
 4229SOL    HW213587   4.921   4.913   5.792
 4230SOL     OW13588   3.044   0.395   4.692
 4230SOL    HW113589   3.104   0.316   4.678
 4230SOL    HW213590   2.952   0.372   4.661
 4231SOL     OW13591   4.268   6.146   4.872
 4231SOL    HW113592   4.219   6.089   4.806
 4231SOL    HW213593   4.202   6.190   4.934
 4232SOL     OW13594   1.932   3.933   1.912
 4232SOL    HW113595   1.904   3.919   2.007
 4232SOL    HW213596   2.023   3.976   1.911
 4233SOL     OW13597   5.573   6.595   1.179
 4233SOL    HW113598   5.669   6.617   1.162
 4233SOL    HW213599   5.528   6.674   1.221
 4234SOL     OW13600   3.019   4.126   5.517
 4234SOL    HW113601   2.954   4.070   5.466
 4234SOL    HW213602   3.055   4.198   5.457
 4235SOL     OW13603   0.061   3.872   5.226
 4235SOL    HW113604   0.025   3.871   5.133
 4235SOL    HW213605   0.126   3.947   5.236
 4236SOL     OW13606   1.131   4.015   5.070
 4236SOL    HW113607   1.079   3.990   4.988
 4236SOL    HW213608   1.076   4.077   5.126
 4237SOL     OW13609   5.489   4.302   4.746
 4237SOL    HW113610   5.418   4.358   4.789
 4237SOL    HW213611   5.481   4.208   4.779
 4238SOL     OW13612   4.190   4.725   3.929
 4238SOL    HW113613   4.269   4.786   3.933
 4238SOL    HW213614   4.188   4.679   3.841
 4239SOL     OW13615   5.257   5.254   5.748
 4239SOL    HW113616   5.211   5.338   5.778
 4239SOL    HW213617   5.310   5.273   5.666
 4240SOL     OW13618   2.436   4.908   6.262
 4240SOL    HW113619   2.418   5.004   6.284
 4240SOL    HW213620   2.438   4.896   6.163
 4241SOL     OW13621   3.871   1.202   0.310
 4241SOL    HW113622   3.947   1.255   0.348
 4241SOL    HW213623   3.863   1.221   0.212
 4242SOL     OW13624   1.439   6.967   2.462
 4242SOL    HW113625   1.407   6.920   2.380
 4242SOL    HW213626   1.529   7.006   2.445
 4243SOL     OW13627   1.454   3.115   3.021
 4243SOL    HW113628   1.467   3.128   3.119
 4243SOL    HW213629   1.430   3.020   3.003
 4244SOL     OW13630   3.030   6.773   0.911
 4244SOL    HW113631   3.024   6.784   0.812
 4244SOL    HW213632   2.947   6.727   0.944
 4245SOL     OW13633   6.407   2.785   1.388
 4245SOL    HW113634   6.442   2.842   1.314
 4245SOL    HW213635   6.425   2.829   1.476
 4246SOL     OW13636   4.681   2.336   3.694
 4246SOL    HW113637   4.725   2.386   3.768
 4246SOL    HW213638   4.584   2.358   3.691
 4247SOL     OW13639   1.950   4.301   6.664
 4247SOL    HW113640   1.921   4.295   6.759
 4247SOL    HW213641   1.998   4.388   6.649
 4248SOL     OW13642   1.785   0.287   3.005
 4248SOL    HW113643   1.694   0.324   2.983
 4248SOL    HW213644   1.832   0.263   2.920
 4249SOL     OW13645   6.267   0.690   5.979
 4249SOL    HW113646   6.362   0.723   5.983
 4249SOL    HW213647   6.223   0.704   6.067
 4250SOL     OW13648   6.528   5.727   4.752
 4250SOL    HW113649   6.580   5.659   4.700
 4250SOL    HW213650   6.431   5.722   4.726
 4251SOL     OW13651   5.118   2.794   5.775
 4251SOL    HW113652   5.100   2.705   5.818
 4251SOL    HW213653   5.123   2.864   5.845
 4252SOL     OW13654   6.766   6.940   0.057
 4252SOL    HW113655   6.828   6.944   0.135
 4252SOL    HW213656   6.819   6.928   6.992
 4253SOL     OW13657   4.750   5.709   3.129
 4253SOL    HW113658   4.786   5.702   3.222
 4253SOL    HW213659   4.683   5.637   3.114
 4254SOL     OW13660   2.060   2.321   5.786
 4254SOL    HW113661   2.008   2.319   5.872
 4254SOL    HW213662   2.106   2.233   5.773
 4255SOL     OW13663   0.880   2.743   3.481
 4255SOL    HW113664   0.946   2.807   3.522
 4255SOL    HW213665   0.860   2.772   3.388
 4256SOL     OW13666   0.323   5.967   0.944
 4256SOL    HW113667   0.369   5.886   0.981
 4256SOL    HW213668   0.350   6.047   0.998
 4257SOL     OW13669   6.706   0.827   3.642
 4257SOL    HW113670   6.760   0.803   3.723
 4257SOL    HW213671   6.619   0.777   3.645
 4258SOL     OW13672   2.922   5.432   1.095
 4258SOL    HW113673   2.958   5.525   1.089
 4258SOL    HW213674   2.900   5.411   1.191
 4259SOL     OW13675   1.237   0.252   0.868
 4259SOL    HW113676   1.184   0.186   0.815
 4259SOL    HW213677   1.241   0.339   0.819
 4260SOL     OW13678   5.967   0.628   4.673
 4260SOL    HW113679   5.942   0.540   4.634
 4260SOL    HW213680   5.888   0.689   4.670
 4261SOL     OW13681   2.943   6.272   4.468
 4261SOL    HW113682   2.925   6.349   4.529
 4261SOL    HW213683   2.923   6.299   4.374
 4262SOL     OW13684   2.734   4.772   5.466
 4262SOL    HW113685   2.776   4.726   5.545
 4262SOL    HW213686   2.731   4.870   5.483
 4263SOL     OW13687   2.589   1.704   3.356
 4263SOL    HW113688   2.683   1.738   3.367
 4263SOL    HW213689   2.533   1.736   3.432
 4264SOL     OW13690   4.635   1.966   6.041
 4264SOL    HW113691   4.619   1.953   6.139
 4264SOL    HW213692   4.732   1.951   6.021
 4265SOL     OW13693   2.451   6.644   6.011
 4265SOL    HW113694   2.450   6.568   5.945
 4265SOL    HW213695   2.382   6.712   5.985
 4266SOL     OW13696   1.569   5.160   1.645
 4266SOL    HW113697   1.611   5.214   1.572
 4266SOL    HW213698   1.477   5.193   1.664
 4267SOL     OW13699   0.699   4.370   4.271
 4267SOL    HW113700   0.647   4.288   4.297
 4267SOL    HW213701   0.759   4.348   4.194
 4268SOL     OW13702   1.150   4.601   6.367
 4268SOL    HW113703   1.064   4.611   6.317
 4268SOL    HW213704   1.132   4.608   6.465
 4269SOL     OW13705   2.883   1.808   4.611
 4269SOL    HW113706   2.825   1.886   4.589
 4269SOL    HW213707   2.865   1.734   4.546
 4270SOL     OW13708   3.900   3.340   0.282
 4270SOL    HW113709   3.930   3.399   0.207
 4270SOL    HW213710   3.978   3.318   0.341
 4271SOL     OW13711   0.015   0.297   1.095
 4271SOL    HW113712   6.951   0.345   1.126
 4271SOL    HW213713   0.042   0.230   1.164
 4272SOL     OW13714   6.834   1.153   5.762
 4272SOL    HW113715   6.893   1.108   5.829
 4272SOL    HW213716   6.744   1.169   5.802
 4273SOL     OW13717   2.602   6.083   3.950
 4273SOL    HW113718   2.515   6.096   3.998
 4273SOL    HW213719   2.614   6.156   3.883
 4274SOL     OW13720   0.930   1.296   1.906
 4274SOL    HW113721   0.949   1.239   1.826
 4274SOL    HW213722   1.007   1.358   1.923
 4275SOL     OW13723   0.123   2.188   3.546
 4275SOL    HW113724   0.042   2.186   3.487
 4275SOL    HW213725   0.188   2.118   3.515
 4276SOL     OW13726   2.258   6.173   3.197
 4276SOL    HW113727   2.297   6.091   3.239
 4276SOL    HW213728   2.165   6.154   3.166
 4277SOL     OW13729   6.770   5.448   2.911
 4277SOL    HW113730   6.696   5.501   2.953
 4277SOL    HW213731   6.818   5.506   2.844
 4278SOL     OW13732   1.054   6.458   1.321
 4278SOL    HW113733   0.994   6.500   1.253
 4278SOL    HW213734   1.144   6.501   1.318
 4279SOL     OW13735   0.711   2.516   3.346
 4279SOL    HW113736   0.742   2.605   3.380
 4279SOL    HW213737   0.628   2.489   3.395
 4280SOL     OW13738   2.145   6.247   5.972
 4280SOL    HW113739   2.129   6.309   6.049
 4280SOL    HW213740   2.081   6.170   5.978
 4281SOL     OW13741   6.075   5.979   3.198
 4281SOL    HW113742   5.977   5.987   3.179
 4281SOL    HW213743   6.126   6.004   3.116
 4282SOL     OW13744   5.254   4.924   2.405
 4282SOL    HW113745   5.277   4.849   2.344
 4282SOL    HW213746   5.194   4.892   2.478
 4283SOL     OW13747   5.685   1.297   4.764
 4283SOL    HW113748   5.611   1.293   4.830
 4283SOL    HW213749   5.654   1.344   4.681
 4284SOL     OW13750   4.641   5.984   6.804
 4284SOL    HW113751   4.569   5.934   6.852
 4284SOL    HW213752   4.703   5.919   6.761
 4285SOL     OW13753   3.222   1.369   6.521
 4285SOL    HW113754   3.159   1.348   6.595
 4285SOL    HW213755   3.311   1.327   6.540
 4286SOL     OW13756   5.282   0.376   6.738
 4286SOL    HW113757   5.210   0.314   6.769
 4286SOL    HW213758   5.366   0.324   6.722
 4287SOL     OW13759   3.471   1.093   0.923
 4287SOL    HW113760   3.478   1.049   1.013
 4287SOL    HW213761   3.446   1.025   0.854
 4288SOL     OW13762   6.624   5.962   1.937
 4288SOL    HW113763   6.642   5.941   1.841
 4288SOL    HW213764   6.690   5.914   1.995
 4289SOL     OW13765   0.312   4.363   5.118
 4289SOL    HW113766   0.383   4.421   5.156
 4289SOL    HW213767   0.274   4.406   5.036
 4290SOL     OW13768   0.285   1.713   2.900
 4290SOL    HW113769   0.316   1.629   2.945
 4290SOL    HW213770   0.361   1.777   2.892
 4291SOL     OW13771   3.944   4.447   6.667
 4291SOL    HW113772   3.879   4.408   6.732
 4291SOL    HW213773   4.008   4.376   6.636
 4292SOL     OW13774   6.508   1.132   1.698
 4292SOL    HW113775   6.591   1.077   1.708
 4292SOL    HW213776   6.467   1.149   1.787
 4293SOL     OW13777   4.108   2.682   0.447
 4293SOL    HW113778   4.066   2.595   0.423
 4293SOL    HW213779   4.115   2.690   0.546
 4294SOL     OW13780   2.677   1.782   6.435
 4294SOL    HW113781   2.618   1.857   6.405
 4294SOL    HW213782   2.771   1.814   6.442
 4295SOL     OW13783   4.596   6.186   3.017
 4295SOL    HW113784   4.582   6.087   3.004
 4295SOL    HW213785   4.507   6.232   3.017
 4296SOL     OW13786   2.526   6.566   2.139
 4296SOL    HW113787   2.502   6.508   2.061
 4296SOL    HW213788   2.560   6.654   2.105
 4297SOL     OW13789   4.847   5.450   0.307
 4297SOL    HW113790   4.836   5.365   0.359
 4297SOL    HW213791   4.944   5.468   0.292
 4298SOL     OW13792   1.498   0.620   0.795
 4298SOL    HW113793   1.576   0.661   0.842
 4298SOL    HW213794   1.487   0.662   0.705
 4299SOL     OW13795   0.917   3.152   6.695
 4299SOL    HW113796   0.821   3.157   6.722
 4299SOL    HW213797   0.975   3.175   6.774
 4300SOL     OW13798   3.302   1.035   1.789
 4300SOL    HW113799   3.373   1.035   1.719
 4300SOL    HW213800   3.241   1.113   1.774
 4301SOL     OW13801   2.283   5.886   5.995
 4301SOL    HW113802   2.211   5.910   5.929
 4301SOL    HW213803   2.366   5.861   5.945
 4302SOL     OW13804   3.276   4.889   5.974
 4302SOL    HW113805   3.229   4.884   6.062
 4302SOL    HW213806   3.373   4.866   5.986
 4303SOL     OW13807   4.513   5.136   3.534
 4303SOL    HW113808   4.417   5.159   3.522
 4303SOL    HW213809   4.569   5.189   3.470
 4304SOL     OW13810   3.335   4.221   1.695
 4304SOL    HW113811   3.419   4.207   1.748
 4304SOL    HW213812   3.353   4.203   1.599
 4305SOL     OW13813   0.788   6.151   6.099
 4305SOL    HW113814   0.752   6.092   6.171
 4305SOL    HW213815   0.799   6.244   6.135
 4306SOL     OW13816   6.020   3.571   5.227
 4306SOL    HW113817   5.973   3.628   5.294
 4306SOL    HW213818   5.965   3.567   5.143
 4307SOL     OW13819   0.334   1.290   6.072
 4307SOL    HW113820   0.407   1.315   6.136
 4307SOL    HW213821   0.370   1.293   5.979
 4308SOL     OW13822   4.311   6.062   6.376
 4308SOL    HW113823   4.338   6.023   6.288
 4308SOL    HW213824   4.321   5.994   6.448
 4309SOL     OW13825   1.424   1.223   0.168
 4309SOL    HW113826   1.387   1.267   0.087
 4309SOL    HW213827   1.391   1.128   0.173
 4310SOL     OW13828   6.316   2.077   2.539
 4310SOL    HW113829   6.269   2.101   2.625
 4310SOL    HW213830   6.268   2.000   2.496
 4311SOL     OW13831   0.903   0.346   1.574
 4311SOL    HW113832   0.954   0.262   1.552
 4311SOL    HW213833   0.808   0.334   1.548
 4312SOL     OW13834   6.589   3.588   2.214
 4312SOL    HW113835   6.545   3.675   2.193
 4312SOL    HW213836   6.522   3.525   2.253
 4313SOL     OW13837   0.958   3.433   6.296
 4313SOL    HW113838   0.882   3.454   6.234
 4313SOL    HW213839   0.971   3.334   6.299
 4314SOL     OW13840   0.949   1.176   5.874
 4314SOL    HW113841   0.885   1.200   5.801
 4314SOL    HW213842   0.998   1.092   5.848
 4315SOL     OW13843   2.848   1.498   5.618
 4315SOL    HW113844   2.884   1.591   5.628
 4315SOL    HW213845   2.906   1.434   5.669
 4316SOL     OW13846   4.469   5.779   1.838
 4316SOL    HW113847   4.475   5.864   1.785
 4316SOL    HW213848   4.373   5.758   1.857
 4317SOL     OW13849   5.210   0.817   5.190
 4317SOL    HW113850   5.252   0.899   5.228
 4317SOL    HW213851   5.178   0.836   5.097
 4318SOL     OW13852   1.245   6.471   4.535
 4318SOL    HW113853   1.240   6.464   4.634
 4318SOL    HW213854   1.322   6.530   4.510
 4319SOL     OW13855   0.762   4.061   2.313
 4319SOL    HW113856   0.763   3.979   2.370
 4319SOL    HW213857   0.755   4.035   2.217
 4320SOL     OW13858   3.134   0.064   0.647
 4320SOL    HW113859   3.123   0.108   0.736
 4320SOL    HW213860   3.137   0.134   0.575
 4321SOL     OW13861   6.814   6.440   3.288
 4321SOL    HW113862   6.842   6.529   3.251
 4321SOL    HW213863   6.846   6.432   3.382
 4322SOL     OW13864   2.031   2.264   4.447
 4322SOL    HW113865   1.974   2.184   4.467
 4322SOL    HW213866   2.078   2.293   4.531
 4323SOL     OW13867   4.245   4.778   7.018
 4323SOL    HW113868   4.145   4.771   0.001
 4323SOL    HW213869   4.276   4.788   6.923
 4324SOL     OW13870   0.622   4.929   5.872
 4324SOL    HW113871   0.525   4.921   5.851
 4324SOL    HW213872   0.673   4.860   5.821
 4325SOL     OW13873   2.008   6.368   1.537
 4325SOL    HW113874   2.009   6.425   1.619
 4325SOL    HW213875   1.957   6.415   1.464
 4326SOL     OW13876   4.835   1.997   2.261
 4326SOL    HW113877   4.860   2.039   2.348
 4326SOL    HW213878   4.872   1.904   2.257
 4327SOL     OW13879   2.239   5.419   3.654
 4327SOL    HW113880   2.318   5.360   3.640
 4327SOL    HW213881   2.209   5.457   3.566
 4328SOL     OW13882   6.170   0.481   3.341
 4328SOL    HW113883   6.186   0.555   3.407
 4328SOL    HW213884   6.083   0.496   3.294
 4329SOL     OW13885   6.737   3.299   6.534
 4329SOL    HW113886   6.831   3.300   6.501
 4329SOL    HW213887   6.676   3.330   6.461
 4330SOL     OW13888   2.444   5.513   4.617
 4330SOL    HW113889   2.353   5.502   4.578
 4330SOL    HW213890   2.513   5.506   4.545
 4331SOL     OW13891   5.964   2.109   2.531
 4331SOL    HW113892   5.947   2.119   2.629
 4331SOL    HW213893   6.035   2.173   2.503
 4332SOL     OW13894   0.638   5.353   1.231
 4332SOL    HW113895   0.597   5.403   1.306
 4332SOL    HW213896   0.625   5.403   1.145
 4333SOL     OW13897   4.024   2.687   5.973
 4333SOL    HW113898   3.986   2.614   5.916
 4333SOL    HW213899   3.978   2.689   6.061
 4334SOL     OW13900   0.323   3.002   3.757
 4334SOL    HW113901   0.280   2.981   3.669
 4334SOL    HW213902   0.391   2.932   3.778
 4335SOL     OW13903   2.389   4.020   1.587
 4335SOL    HW113904   2.460   4.078   1.627
 4335SOL    HW213905   2.369   3.944   1.648
 4336SOL     OW13906   2.548   5.717   5.474
 4336SOL    HW113907   2.550   5.762   5.384
 4336SOL    HW213908   2.614   5.642   5.475
 4337SOL     OW13909   0.080   4.627   3.567
 4337SOL    HW113910   0.176   4.626   3.539
 4337SOL    HW213911   0.074   4.609   3.665
 4338SOL     OW13912   2.951   2.495   5.734
 4338SOL    HW113913   2.958   2.573   5.797
 4338SOL    HW213914   2.905   2.419   5.780
 4339SOL     OW13915   4.015   5.000   5.087
 4339SOL    HW113916   4.087   4.930   5.090
 4339SOL    HW213917   4.056   5.091   5.089
 4340SOL     OW13918   6.985   4.249   1.164
 4340SOL    HW113919   0.034   4.249   1.237
 4340SOL    HW213920   6.963   4.155   1.138
 4341SOL     OW13921   5.540   5.977   1.522
 4341SOL    HW113922   5.614   6.043   1.535
 4341SOL    HW213923   5.459   6.024   1.488
 4342SOL     OW13924   5.468   3.026   2.380
 4342SOL    HW113925   5.413   3.073   2.449
 4342SOL    HW213926   5.503   2.941   2.418
 4343SOL     OW13927   3.511   0.438   6.448
 4343SOL    HW113928   3.474   0.386   6.526
 4343SOL    HW213929   3.601   0.403   6.424
 4344SOL     OW13930   0.201   3.800   2.998
 4344SOL    HW113931   0.259   3.881   2.998
 4344SOL    HW213932   0.179   3.774   3.093
 4345SOL     OW13933   3.442   3.495   2.565
 4345SOL    HW113934   3.430   3.401   2.534
 4345SOL    HW213935   3.536   3.525   2.547
 4346SOL     OW13936   0.493   3.107   2.772
 4346SOL    HW113937   0.454   3.199   2.762
 4346SOL    HW213938   0.561   3.108   2.845
 4347SOL     OW13939   6.139   5.464   0.809
 4347SOL    HW113940   6.152   5.562   0.796
 4347SOL    HW213941   6.094   5.447   0.897
 4348SOL     OW13942   6.126   5.151   5.726
 4348SOL    HW113943   6.125   5.126   5.629
 4348SOL    HW213944   6.148   5.249   5.735
 4349SOL     OW13945   0.583   3.421   4.150
 4349SOL    HW113946   0.584   3.378   4.060
 4349SOL    HW213947   0.494   3.461   4.168
 4350SOL     OW13948   3.998   1.009   4.413
 4350SOL    HW113949   4.040   1.054   4.334
 4350SOL    HW213950   4.045   1.037   4.497
 4351SOL     OW13951   0.461   5.636   0.575
 4351SOL    HW113952   0.522   5.712   0.595
 4351SOL    HW213953   0.510   5.550   0.584
 4352SOL     OW13954   3.657   5.043   2.088
 4352SOL    HW113955   3.682   4.952   2.055
 4352SOL    HW213956   3.663   5.108   2.013
 4353SOL     OW13957   2.816   3.177   1.042
 4353SOL    HW113958   2.779   3.124   0.966
 4353SOL    HW213959   2.897   3.228   1.012
 4354SOL     OW13960   5.814   6.154   2.548
 4354SOL    HW113961   5.793   6.058   2.531
 4354SOL    HW213962   5.913   6.165   2.558
 4355SOL     OW13963   1.812   4.832   2.533
 4355SOL    HW113964   1.757   4.749   2.538
 4355SOL    HW213965   1.774   4.893   2.463
 4356SOL     OW13966   5.841   2.767   4.976
 4356SOL    HW113967   5.787   2.828   5.034
 4356SOL    HW213968   5.923   2.815   4.945
 4357SOL     OW13969   6.086   0.043   1.821
 4357SOL    HW113970   6.102   0.112   1.892
 4357SOL    HW213971   6.173   0.014   1.782
 4358SOL     OW13972   2.939   0.918   0.264
 4358SOL    HW113973   2.874   0.993   0.256
 4358SOL    HW213974   2.964   0.885   0.173
 4359SOL     OW13975   2.387   2.082   0.851
 4359SOL    HW113976   2.400   2.005   0.789
 4359SOL    HW213977   2.406   2.167   0.802
 4360SOL     OW13978   1.797   5.298   3.906
 4360SOL    HW113979   1.874   5.233   3.909
 4360SOL    HW213980   1.714   5.250   3.878
 4361SOL     OW13981   0.450   2.229   0.150
 4361SOL    HW113982   0.407   2.311   0.113
 4361SOL    HW213983   0.381   2.159   0.165
 4362SOL     OW13984   1.086   5.283   3.156
 4362SOL    HW113985   1.174   5.321   3.184
 4362SOL    HW213986   1.087   5.183   3.168
 4363SOL     OW13987   3.652   0.680   1.791
 4363SOL    HW113988   3.724   0.646   1.730
 4363SOL    HW213989   3.678   0.770   1.826
 4364SOL     OW13990   3.825   3.874   2.849
 4364SOL    HW113991   3.843   3.891   2.946
 4364SOL    HW213992   3.731   3.844   2.837
 4365SOL     OW13993   2.114   1.076   1.462
 4365SOL    HW113994   2.142   1.172   1.450
 4365SOL    HW213995   2.038   1.072   1.527
 4366SOL     OW13996   5.168   6.799   4.718
 4366SOL    HW113997   5.171   6.850   4.804
 4366SOL    HW213998   5.241   6.731   4.717
 4367SOL     OW13999   2.657   6.415   2.627
 4367SOL    HW114000   2.640   6.321   2.656
 4367SOL    HW214001   2.585   6.475   2.663
 4368SOL     OW14002   4.846   3.873   3.856
 4368SOL    HW114003   4.842   3.810   3.933
 4368SOL    HW214004   4.939   3.872   3.817
 4369SOL     OW14005   5.199   4.237   3.640
 4369SOL    HW114006   5.223   4.174   3.714
 4369SOL    HW214007   5.241   4.326   3.657
 4370SOL     OW14008   3.930   4.617   1.001
 4370SOL    HW114009   3.834   4.596   1.016
 4370SOL    HW214010   3.940   4.715   0.982
 4371SOL     OW14011   3.095   0.679   2.455
 4371SOL    HW114012   3.049   0.694   2.542
 4371SOL    HW214013   3.038   0.715   2.381
 4372SOL     OW14014   1.852   4.219   3.869
 4372SOL    HW114015   1.880   4.137   3.919
 4372SOL    HW214016   1.905   4.298   3.901
 4373SOL     OW14017   4.368   0.920   6.890
 4373SOL    HW114018   4.370   0.984   6.966
 4373SOL    HW214019   4.329   0.964   6.809
 4374SOL     OW14020   3.255   6.685   0.195
 4374SOL    HW114021   3.280   6.647   0.284
 4374SOL    HW214022   3.192   6.622   0.149
 4375SOL     OW14023   4.459   1.425   5.689
 4375SOL    HW114024   4.501   1.515   5.697
 4375SOL    HW214025   4.366   1.434   5.653
 4376SOL     OW14026   2.320   5.980   6.850
 4376SOL    HW114027   2.242   5.934   6.894
 4376SOL    HW214028   2.401   5.923   6.857
 4377SOL     OW14029   5.104   6.290   6.870
 4377SOL    HW114030   5.118   6.195   6.900
 4377SOL    HW214031   5.025   6.295   6.808
 4378SOL     OW14032   2.695   5.039   2.675
 4378SOL    HW114033   2.640   5.118   2.702
 4378SOL    HW214034   2.767   5.068   2.612
 4379SOL     OW14035   0.722   6.643   1.872
 4379SOL    HW114036   0.633   6.686   1.853
 4379SOL    HW214037   0.741   6.648   1.970
 4380SOL     OW14038   1.927   5.632   4.381
 4380SOL    HW114039   1.840   5.631   4.332
 4380SOL    HW214040   1.921   5.695   4.459
 4381SOL     OW14041   4.791   5.594   5.503
 4381SOL    HW114042   4.825   5.523   5.442
 4381SOL    HW214043   4.867   5.653   5.530
 4382SOL     OW14044   5.151   3.363   3.034
 4382SOL    HW114045   5.179   3.299   3.105
 4382SOL    HW214046   5.052   3.357   3.020
 4383SOL     OW14047   0.877   1.892   0.415
 4383SOL    HW114048   0.804   1.825   0.429
 4383SOL    HW214049   0.944   1.855   0.351
 4384SOL     OW14050   4.075   6.495   0.977
 4384SOL    HW114051   3.976   6.484   0.968
 4384SOL    HW214052   4.101   6.588   0.951
 4385SOL     OW14053   6.548   1.950   2.192
 4385SOL    HW114054   6.554   1.891   2.273
 4385SOL    HW214055   6.452   1.971   2.174
 4386SOL     OW14056   1.093   3.933   6.776
 4386SOL    HW114057   1.081   3.943   6.875
 4386SOL    HW214058   1.011   3.893   6.736
 4387SOL     OW14059   6.252   2.483   1.965
 4387SOL    HW114060   6.168   2.506   1.915
 4387SOL    HW214061   6.301   2.411   1.916
 4388SOL     OW14062   3.148   1.830   5.793
 4388SOL    HW114063   3.240   1.829   5.833
 4388SOL    HW214064   3.139   1.908   5.732
 4389SOL     OW14065   6.116   2.370   2.455
 4389SOL    HW114066   6.160   2.360   2.365
 4389SOL    HW214067   6.176   2.422   2.516
 4390SOL     OW14068   4.385   2.412   1.809
 4390SOL    HW114069   4.318   2.480   1.778
 4390SOL    HW214070   4.383   2.407   1.909
 4391SOL     OW14071   0.622   6.509   0.664
 4391SOL    HW114072   0.722   6.514   0.662
 4391SOL    HW214073   0.593   6.469   0.751
 4392SOL     OW14074   5.616   3.917   4.479
 4392SOL    HW114075   5.558   3.998   4.470
 4392SOL    HW214076   5.711   3.944   4.487
 4393SOL     OW14077   5.380   6.284   3.513
 4393SOL    HW114078   5.395   6.254   3.419
 4393SOL    HW214079   5.341   6.209   3.566
 4394SOL     OW14080   4.351   0.977   2.673
 4394SOL    HW114081   4.351   0.896   2.613
 4394SOL    HW214082   4.421   0.966   2.743
 4395SOL     OW14083   5.145   1.933   1.400
 4395SOL    HW114084   5.148   2.010   1.336
 4395SOL    HW214085   5.200   1.858   1.365
 4396SOL     OW14086   1.498   1.243   4.184
 4396SOL    HW114087   1.545   1.331   4.198
 4396SOL    HW214088   1.539   1.197   4.106
 4397SOL     OW14089   5.730   0.016   6.491
 4397SOL    HW114090   5.695   0.092   6.436
 4397SOL    HW214091   5.774   0.052   6.574
 4398SOL     OW14092   0.098   5.334   3.947
 4398SOL    HW114093   0.053   5.247   3.928
 4398SOL    HW214094   0.047   5.384   4.016
 4399SOL     OW14095   2.974   1.551   1.928
 4399SOL    HW114096   3.019   1.640   1.934
 4399SOL    HW214097   2.875   1.564   1.923
 4400SOL     OW14098   3.585   6.110   3.550
 4400SOL    HW114099   3.646   6.103   3.471
 4400SOL    HW214100   3.538   6.023   3.563
 4401SOL     OW14101   6.361   6.148   4.848
 4401SOL    HW114102   6.272   6.173   4.811
 4401SOL    HW214103   6.352   6.127   4.946
 4402SOL     OW14104   6.399   6.864   3.154
 4402SOL    HW114105   6.492   6.831   3.135
 4402SOL    HW214106   6.333   6.803   3.111
 4403SOL     OW14107   0.245   0.156   3.335
 4403SOL    HW114108   0.195   0.099   3.270
 4403SOL    HW214109   0.292   0.097   3.401
 4404SOL     OW14110   1.697   4.742   3.472
 4404SOL    HW114111   1.620   4.702   3.422
 4404SOL    HW214112   1.665   4.774   3.561
 4405SOL     OW14113   3.200   3.873   6.084
 4405SOL    HW114114   3.238   3.939   6.148
 4405SOL    HW214115   3.161   3.921   6.005
 4406SOL     OW14116   5.279   3.854   2.012
 4406SOL    HW114117   5.365   3.838   1.962
 4406SOL    HW214118   5.246   3.946   1.993
 4407SOL     OW14119   6.968   0.317   0.503
 4407SOL    HW114120   6.983   0.289   0.598
 4407SOL    HW214121   0.021   0.278   0.446
 4408SOL     OW14122   4.406   6.139   0.519
 4408SOL    HW114123   4.412   6.194   0.602
 4408SOL    HW214124   4.498   6.117   0.488
 4409SOL     OW14125   1.880   1.650   3.055
 4409SOL    HW114126   1.917   1.691   2.972
 4409SOL    HW214127   1.936   1.571   3.080
 4410SOL     OW14128   2.068   5.906   1.436
 4410SOL    HW114129   2.015   5.965   1.496
 4410SOL    HW214130   2.052   5.810   1.461
 4411SOL     OW14131   3.652   3.216   2.574
 4411SOL    HW114132   3.594   3.135   2.577
 4411SOL    HW214133   3.684   3.231   2.480
 4412SOL     OW14134   3.352   2.017   6.253
 4412SOL    HW114135   3.390   1.927   6.274
 4412SOL    HW214136   3.349   2.030   6.154
 4413SOL     OW14137   4.404   5.343   4.170
 4413SOL    HW114138   4.425   5.362   4.074
 4413SOL    HW214139   4.321   5.393   4.196
 4414SOL     OW14140   3.566   5.625   1.470
 4414SOL    HW114141   3.511   5.592   1.393
 4414SOL    HW214142   3.662   5.629   1.443
 4415SOL     OW14143   4.315   1.764   1.234
 4415SOL    HW114144   4.311   1.671   1.272
 4415SOL    HW214145   4.263   1.826   1.292
 4416SOL     OW14146   2.692   2.379   4.472
 4416SOL    HW114147   2.759   2.408   4.540
 4416SOL    HW214148   2.601   2.381   4.512
 4417SOL     OW14149   7.015   0.701   0.900
 4417SOL    HW114150   0.038   0.650   0.975
 4417SOL    HW214151   0.048   0.785   0.884
 4418SOL     OW14152   4.579   1.073   4.053
 4418SOL    HW114153   4.604   1.027   3.968
 4418SOL    HW214154   4.657   1.127   4.086
 4419SOL     OW14155   6.501   5.670   0.317
 4419SOL    HW114156   6.555   5.702   0.239
 4419SOL    HW214157   6.560   5.665   0.398
 4420SOL     OW14158   4.700   0.856   6.822
 4420SOL    HW114159   4.704   0.953   6.798
 4420SOL    HW214160   4.609   0.834   6.857
 4421SOL     OW14161   1.426   1.899   3.323
 4421SOL    HW114162   1.433   1.977   3.260
 4421SOL    HW214163   1.508   1.895   3.380
 4422SOL     OW14164   1.966   4.425   5.708
 4422SOL    HW114165   2.031   4.463   5.642
 4422SOL    HW214166   1.875   4.462   5.691
 4423SOL     OW14167   6.489   1.686   6.223
 4423SOL    HW114168   6.561   1.730   6.170
 4423SOL    HW214169   6.529   1.640   6.302
 4424SOL     OW14170   0.466   6.542   3.927
 4424SOL    HW114171   0.415   6.480   3.868
 4424SOL    HW214172   0.403   6.602   3.976
 4425SOL     OW14173   5.114   4.046   0.263
 4425SOL    HW114174   5.190   4.029   0.200
 4425SOL    HW214175   5.040   4.093   0.215
 4426SOL     OW14176   0.669   0.366   6.081
 4426SOL    HW114177   0.758   0.398   6.115
 4426SOL    HW214178   0.596   0.418   6.125
 4427SOL     OW14179   0.735   5.813   3.892
 4427SOL    HW114180   0.775   5.876   3.826
 4427SOL    HW214181   0.718   5.862   3.978
 4428SOL     OW14182   2.044   6.411   3.339
 4428SOL    HW114183   1.979   6.425   3.413
 4428SOL    HW214184   2.088   6.498   3.317
 4429SOL     OW14185   3.772   6.992   3.080
 4429SOL    HW114186   3.842   0.045   3.073
 4429SOL    HW214187   3.802   6.923   3.146
 4430SOL     OW14188   1.475   0.309   1.699
 4430SOL    HW114189   1.529   0.272   1.774
 4430SOL    HW214190   1.530   0.310   1.615
 4431SOL     OW14191   2.028   1.962   3.543
 4431SOL    HW114192   2.040   1.884   3.604
 4431SOL    HW214193   1.939   2.005   3.562
 4432SOL     OW14194   3.064   3.108   3.811
 4432SOL    HW114195   3.135   3.044   3.780
 4432SOL    HW214196   3.010   3.138   3.732
 4433SOL     OW14197   6.210   0.220   3.474
 4433SOL    HW114198   6.152   0.198   3.552
 4433SOL    HW214199   6.177   0.304   3.431
 4434SOL     OW14200   4.876   1.975   4.760
 4434SOL    HW114201   4.921   2.061   4.784
 4434SOL    HW214202   4.777   1.984   4.770
 4435SOL     OW14203   4.051   3.115   2.475
 4435SOL    HW114204   4.140   3.078   2.450
 4435SOL    HW214205   4.051   3.214   2.463
 4436SOL     OW14206   5.300   0.432   0.566
 4436SOL    HW114207   5.319   0.523   0.529
 4436SOL    HW214208   5.350   0.420   0.652
 4437SOL     OW14209   3.656   0.053   5.026
 4437SOL    HW114210   3.577   0.106   5.056
 4437SOL    HW214211   3.740   0.099   5.055
 4438SOL     OW14212   3.582   3.823   6.733
 4438SOL    HW114213   3.586   3.912   6.687
 4438SOL    HW214214   3.488   3.803   6.758
 4439SOL     OW14215   2.335   4.720   2.201
 4439SOL    HW114216   2.409   4.686   2.142
 4439SOL    HW214217   2.373   4.749   2.289
 4440SOL     OW14218   6.858   0.993   0.162
 4440SOL    HW114219   6.872   1.003   0.261
 4440SOL    HW214220   6.796   1.065   0.130
 4441SOL     OW14221   6.235   1.884   3.488
 4441SOL    HW114222   6.198   1.823   3.557
 4441SOL    HW214223   6.327   1.915   3.515
 4442SOL     OW14224   2.004   6.266   1.974
 4442SOL    HW114225   2.063   6.193   2.008
 4442SOL    HW214226   1.974   6.323   2.050
 4443SOL     OW14227   2.852   1.456   6.076
 4443SOL    HW114228   2.830   1.472   6.172
 4443SOL    HW214229   2.940   1.410   6.069
 4444SOL     OW14230   5.037   0.719   2.769
 4444SOL    HW114231   4.982   0.788   2.723
 4444SOL    HW214232   5.002   0.628   2.747
 4445SOL     OW14233   1.146   1.327   6.512
 4445SOL    HW114234   1.147   1.279   6.600
 4445SOL    HW214235   1.115   1.265   6.441
 4446SOL     OW14236   5.239   5.210   3.785
 4446SOL    HW114237   5.151   5.207   3.832
 4446SOL    HW214238   5.299   5.138   3.821
 4447SOL     OW14239   4.824   3.141   4.802
 4447SOL    HW114240   4.817   3.042   4.804
 4447SOL    HW214241   4.841   3.176   4.894
 4448SOL     OW14242   2.136   2.864   6.629
 4448SOL    HW114243   2.180   2.831   6.713
 4448SOL    HW214244   2.185   2.828   6.550
 4449SOL     OW14245   0.505   1.563   5.614
 4449SOL    HW114246   0.405   1.564   5.622
 4449SOL    HW214247   0.542   1.642   5.662
 4450SOL     OW14248   3.531   4.088   3.037
 4450SOL    HW114249   3.582   4.120   2.957
 4450SOL    HW214250   3.593   4.083   3.115
 4451SOL     OW14251   0.075   4.257   1.415
 4451SOL    HW114252   0.102   4.342   1.460
 4451SOL    HW214253   0.022   4.201   1.479
 4452SOL     OW14254   6.285   4.092   6.278
 4452SOL    HW114255   6.246   4.170   6.326
 4452SOL    HW214256   6.347   4.043   6.339
 4453SOL     OW14257   5.057   1.620   1.424
 4453SOL    HW114258   5.087   1.649   1.333
 4453SOL    HW214259   4.958   1.611   1.426
 4454SOL     OW14260   5.145   2.644   1.463
 4454SOL    HW114261   5.125   2.737   1.433
 4454SOL    HW214262   5.100   2.626   1.550
 4455SOL     OW14263   4.409   1.832   2.178
 4455SOL    HW114264   4.353   1.750   2.190
 4455SOL    HW214265   4.385   1.899   2.249
 4456SOL     OW14266   0.794   5.610   2.511
 4456SOL    HW114267   0.802   5.614   2.610
 4456SOL    HW214268   0.884   5.594   2.471
 4457SOL     OW14269   4.711   1.611   6.239
 4457SOL    HW114270   4.779   1.652   6.178
 4457SOL    HW214271   4.723   1.647   6.331
 4458SOL     OW14272   3.719   1.566   0.398
 4458SOL    HW114273   3.789   1.498   0.375
 4458SOL    HW214274   3.683   1.548   0.490
 4459SOL     OW14275   5.099   6.191   5.381
 4459SOL    HW114276   5.166   6.261   5.359
 4459SOL    HW214277   5.145   6.111   5.420
 4460SOL     OW14278   1.094   1.612   6.341
 4460SOL    HW114279   1.113   1.558   6.422
 4460SOL    HW214280   1.132   1.704   6.352
 4461SOL     OW14281   2.119   6.805   2.165
 4461SOL    HW114282   2.044   6.860   2.129
 4461SOL    HW214283   2.084   6.717   2.197
 4462SOL     OW14284   6.773   5.153   0.791
 4462SOL    HW114285   6.678   5.128   0.774
 4462SOL    HW214286   6.782   5.187   0.885
 4463SOL     OW14287   1.766   3.719   6.001
 4463SOL    HW114288   1.703   3.741   5.927
 4463SOL    HW214289   1.859   3.714   5.966
 4464SOL     OW14290   5.955   3.337   0.066
 4464SOL    HW114291   5.894   3.282   0.123
 4464SOL    HW214292   5.960   3.430   0.104
 4465SOL     OW14293   0.854   6.260   1.257
 4465SOL    HW114294   0.874   6.167   1.289
 4465SOL    HW214295   0.922   6.323   1.296
 4466SOL     OW14296   0.685   3.047   3.165
 4466SOL    HW114297   0.720   3.122   3.109
 4466SOL    HW214298   0.605   3.078   3.216
 4467SOL     OW14299   1.393   0.038   3.233
 4467SOL    HW114300   1.437   0.031   3.143
 4467SOL    HW214301   1.405   0.131   3.269
 4468SOL     OW14302   1.898   2.114   0.734
 4468SOL    HW114303   1.819   2.167   0.765
 4468SOL    HW214304   1.979   2.142   0.787
 4469SOL     OW14305   4.845   6.956   0.355
 4469SOL    HW114306   4.864   6.980   0.451
 4469SOL    HW214307   4.931   6.930   0.310
 4470SOL     OW14308   4.613   5.349   1.587
 4470SOL    HW114309   4.596   5.445   1.609
 4470SOL    HW214310   4.607   5.294   1.670
 4471SOL     OW14311   6.459   2.845   0.588
 4471SOL    HW114312   6.499   2.843   0.496
 4471SOL    HW214313   6.523   2.887   0.652
 4472SOL     OW14314   2.282   4.530   1.823
 4472SOL    HW114315   2.264   4.434   1.801
 4472SOL    HW214316   2.378   4.540   1.853
 4473SOL     OW14317   0.633   0.664   6.443
 4473SOL    HW114318   0.699   0.736   6.423
 4473SOL    HW214319   0.665   0.609   6.520
 4474SOL     OW14320   6.038   0.374   4.106
 4474SOL    HW114321   6.046   0.317   4.187
 4474SOL    HW214322   5.943   0.403   4.096
 4475SOL     OW14323   1.803   3.542   0.508
 4475SOL    HW114324   1.727   3.527   0.571
 4475SOL    HW214325   1.815   3.461   0.451
 4476SOL     OW14326   5.241   0.183   2.058
 4476SOL    HW114327   5.169   0.115   2.046
 4476SOL    HW214328   5.210   0.272   2.022
 4477SOL     OW14329   1.213   1.036   0.466
 4477SOL    HW114330   1.305   1.071   0.483
 4477SOL    HW214331   1.195   0.958   0.527
 4478SOL     OW14332   1.849   4.904   1.946
 4478SOL    HW114333   1.839   4.982   1.884
 4478SOL    HW214334   1.881   4.936   2.036
 4479SOL     OW14335   0.782   0.594   6.207
 4479SOL    HW114336   0.702   0.623   6.259
 4479SOL    HW214337   0.863   0.595   6.265
 4480SOL     OW14338   0.318   4.781   3.625
 4480SOL    HW114339   0.295   4.833   3.707
 4480SOL    HW214340   0.382   4.833   3.569
 4481SOL     OW14341   1.323   0.515   3.945
 4481SOL    HW114342   1.366   0.436   3.900
 4481SOL    HW214343   1.239   0.538   3.897
 4482SOL     OW14344   0.535   4.333   3.856
 4482SOL    HW114345   0.535   4.272   3.777
 4482SOL    HW214346   0.610   4.398   3.848
 4483SOL     OW14347   5.107   2.916   1.464
 4483SOL    HW114348   5.053   2.928   1.546
 4483SOL    HW214349   5.114   3.002   1.415
 4484SOL     OW14350   3.810   3.474   6.344
 4484SOL    HW114351   3.819   3.375   6.336
 4484SOL    HW214352   3.722   3.496   6.385
 4485SOL     OW14353   4.655   0.527   6.689
 4485SOL    HW114354   4.755   0.534   6.694
 4485SOL    HW214355   4.617   0.614   6.656
 4486SOL     OW14356   6.095   2.221   4.238
 4486SOL    HW114357   6.059   2.203   4.147
 4486SOL    HW214358   6.119   2.134   4.282
 4487SOL     OW14359   2.698   3.385   5.610
 4487SOL    HW114360   2.749   3.300   5.602
 4487SOL    HW214361   2.744   3.446   5.676
 4488SOL     OW14362   0.112   1.733   6.380
 4488SOL    HW114363   0.141   1.652   6.432
 4488SOL    HW214364   0.179   1.750   6.307
 4489SOL     OW14365   6.397   0.766   2.893
 4489SOL    HW114366   6.389   0.743   2.990
 4489SOL    HW214367   6.478   0.721   2.855
 4490SOL     OW14368   6.943   2.267   3.947
 4490SOL    HW114369   7.016   2.327   3.979
 4490SOL    HW214370   6.860   2.321   3.931
 4491SOL     OW14371   1.327   3.620   3.132
 4491SOL    HW114372   1.258   3.564   3.086
 4491SOL    HW214373   1.397   3.648   3.066
 4492SOL     OW14374   4.437   4.135   6.468
 4492SOL    HW114375   4.487   4.211   6.427
 4492SOL    HW214376   4.428   4.061   6.402
 4493SOL     OW14377   5.496   5.106   3.597
 4493SOL    HW114378   5.476   5.021   3.549
 4493SOL    HW214379   5.485   5.092   3.696
 4494SOL     OW14380   6.148   2.565   3.443
 4494SOL    HW114381   6.150   2.657   3.480
 4494SOL    HW214382   6.171   2.499   3.515
 4495SOL     OW14383   4.022   6.489   1.676
 4495SOL    HW114384   4.027   6.454   1.583
 4495SOL    HW214385   3.957   6.565   1.680
 4496SOL     OW14386   5.549   4.457   5.944
 4496SOL    HW114387   5.548   4.551   5.978
 4496SOL    HW214388   5.569   4.457   5.846
 4497SOL     OW14389   5.847   5.526   1.221
 4497SOL    HW114390   5.790   5.445   1.231
 4497SOL    HW214391   5.809   5.601   1.275
 4498SOL     OW14392   0.536   3.880   6.881
 4498SOL    HW114393   0.516   3.885   6.783
 4498SOL    HW214394   0.515   3.788   6.914
 4499SOL     OW14395   5.728   3.110   6.379
 4499SOL    HW114396   5.783   3.151   6.451
 4499SOL    HW214397   5.633   3.141   6.389
 4500SOL     OW14398   3.273   3.873   3.622
 4500SOL    HW114399   3.175   3.894   3.619
 4500SOL    HW214400   3.289   3.787   3.573
 4501SOL     OW14401   1.982   5.129   4.526
 4501SOL    HW114402   1.889   5.151   4.497
 4501SOL    HW214403   2.045   5.143   4.449
 4502SOL     OW14404   6.361   2.915   0.074
 4502SOL    HW114405   6.428   2.940   0.004
 4502SOL    HW214406   6.300   2.992   0.091
 4503SOL     OW14407   1.881   2.905   3.022
 4503SOL    HW114408   1.926   2.987   3.060
 4503SOL    HW214409   1.786   2.927   3.001
 4504SOL     OW14410   4.504   2.508   4.857
 4504SOL    HW114411   4.475   2.416   4.883
 4504SOL    HW214412   4.524   2.510   4.759
 4505SOL     OW14413   1.466   4.988   6.327
 4505SOL    HW114414   1.560   5.022   6.336
 4505SOL    HW214415   1.405   5.064   6.305
 4506SOL     OW14416   4.184   6.933   4.835
 4506SOL    HW114417   4.272   6.979   4.819
 4506SOL    HW214418   4.127   6.942   4.754
 4507SOL     OW14419   6.339   3.827   1.641
 4507SOL    HW114420   6.393   3.908   1.615
 4507SOL    HW214421   6.356   3.806   1.737
 4508SOL     OW14422   1.814   4.045   0.024
 4508SOL    HW114423   1.790   4.079   0.115
 4508SOL    HW214424   1.732   4.037   6.986
 4509SOL     OW14425   1.180   1.758   3.711
 4509SOL    HW114426   1.180   1.856   3.688
 4509SOL    HW214427   1.271   1.732   3.744
 4510SOL     OW14428   3.843   6.371   5.164
 4510SOL    HW114429   3.776   6.438   5.195
 4510SOL    HW214430   3.914   6.360   5.234
 4511SOL     OW14431   6.306   2.855   6.451
 4511SOL    HW114432   6.247   2.852   6.370
 4511SOL    HW214433   6.398   2.824   6.426
 4512SOL     OW14434   2.816   4.923   0.396
 4512SOL    HW114435   2.718   4.925   0.373
 4512SOL    HW214436   2.865   4.868   0.328
 4513SOL     OW14437   5.590   1.067   1.825
 4513SOL    HW114438   5.496   1.041   1.847
 4513SOL    HW214439   5.645   1.070   1.908
 4514SOL     OW14440   3.445   0.853   5.310
 4514SOL    HW114441   3.350   0.834   5.333
 4514SOL    HW214442   3.481   0.922   5.373
 4515SOL     OW14443   6.291   5.064   1.322
 4515SOL    HW114444   6.341   5.096   1.403
 4515SOL    HW214445   6.240   4.981   1.344
 4516SOL     OW14446   0.892   0.354   4.695
 4516SOL    HW114447   0.931   0.287   4.758
 4516SOL    HW214448   0.848   0.307   4.619
 4517SOL     OW14449   3.665   6.682   6.269
 4517SOL    HW114450   3.576   6.669   6.313
 4517SOL    HW214451   3.736   6.638   6.324
 4518SOL     OW14452   1.366   0.866   4.181
 4518SOL    HW114453   1.415   0.784   4.212
 4518SOL    HW214454   1.390   0.943   4.240
 4519SOL     OW14455   6.532   2.717   4.700
 4519SOL    HW114456   6.479   2.750   4.779
 4519SOL    HW214457   6.617   2.676   4.732
 4520SOL     OW14458   0.109   3.971   2.311
 4520SOL    HW114459   0.060   4.053   2.340
 4520SOL    HW214460   0.052   3.891   2.328
 4521SOL     OW14461   5.232   1.852   6.182
 4521SOL    HW114462   5.205   1.849   6.086
 4521SOL    HW214463   5.332   1.853   6.189
 4522SOL     OW14464   5.850   0.412   2.965
 4522SOL    HW114465   5.765   0.437   3.010
 4522SOL    HW214466   5.834   0.337   2.901
 4523SOL     OW14467   4.141   3.188   6.806
 4523SOL    HW114468   4.115   3.228   6.718
 4523SOL    HW214469   4.215   3.241   6.847
 4524SOL     OW14470   6.472   0.543   4.956
 4524SOL    HW114471   6.533   0.551   5.035
 4524SOL    HW214472   6.456   0.634   4.918
 4525SOL     OW14473   6.598   1.843   5.659
 4525SOL    HW114474   6.600   1.856   5.560
 4525SOL    HW214475   6.514   1.795   5.684
 4526SOL     OW14476   3.737   1.211   0.578
 4526SOL    HW114477   3.776   1.153   0.651
 4526SOL    HW214478   3.805   1.224   0.506
 4527SOL     OW14479   4.061   0.517   4.192
 4527SOL    HW114480   4.155   0.525   4.162
 4527SOL    HW214481   4.001   0.501   4.113
 4528SOL     OW14482   5.007   6.950   5.533
 4528SOL    HW114483   5.003   6.852   5.515
 4528SOL    HW214484   4.951   6.971   5.613
 4529SOL     OW14485   3.944   0.444   3.747
 4529SOL    HW114486   3.956   0.382   3.670
 4529SOL    HW214487   4.030   0.493   3.765
 4530SOL     OW14488   0.560   3.033   4.706
 4530SOL    HW114489   0.504   2.957   4.673
 4530SOL    HW214490   0.656   3.017   4.680
 4531SOL     OW14491   0.023   4.029   3.564
 4531SOL    HW114492   6.975   4.015   3.491
 4531SOL    HW214493   7.007   4.097   3.629
 4532SOL     OW14494   6.352   1.581   0.645
 4532SOL    HW114495   6.259   1.616   0.655
 4532SOL    HW214496   6.388   1.556   0.735
 4533SOL     OW14497   3.589   5.524   2.335
 4533SOL    HW114498   3.522   5.465   2.289
 4533SOL    HW214499   3.552   5.554   2.423
 4534SOL     OW14500   0.091   4.404   5.500
 4534SOL    HW114501   0.065   4.460   5.579
 4534SOL    HW214502   0.028   4.326   5.493
 4535SOL     OW14503   4.911   2.126   2.875
 4535SOL    HW114504   4.843   2.155   2.807
 4535SOL    HW214505   4.908   2.188   2.953
 4536SOL     OW14506   0.092   0.627   3.883
 4536SOL    HW114507   7.014   0.618   3.863
 4536SOL    HW214508   0.108   0.615   3.981
 4537SOL     OW14509   3.954   2.947   6.271
 4537SOL    HW114510   4.045   2.912   6.294
 4537SOL    HW214511   3.901   2.875   6.225
 4538SOL     OW14512   3.905   1.405   1.999
 4538SOL    HW114513   3.912   1.491   1.949
 4538SOL    HW214514   3.845   1.342   1.949
 4539SOL     OW14515   2.001   1.890   2.432
 4539SOL    HW114516   2.018   1.901   2.334
 4539SOL    HW214517   1.954   1.971   2.468
 4540SOL     OW14518   3.391   2.848   4.987
 4540SOL    HW114519   3.420   2.849   4.891
 4540SOL    HW214520   3.327   2.772   5.002
 4541SOL     OW14521   6.280   1.377   1.477
 4541SOL    HW114522   6.372   1.380   1.516
 4541SOL    HW214523   6.274   1.304   1.409
 4542SOL     OW14524   4.700   0.366   3.339
 4542SOL    HW114525   4.688   0.368   3.438
 4542SOL    HW214526   4.793   0.334   3.318
 4543SOL     OW14527   5.208   2.025   1.647
 4543SOL    HW114528   5.208   1.985   1.556
 4543SOL    HW214529   5.302   2.049   1.673
 4544SOL     OW14530   4.051   4.789   6.352
 4544SOL    HW114531   3.996   4.728   6.409
 4544SOL    HW214532   4.012   4.793   6.260
 4545SOL     OW14533   4.548   3.535   5.961
 4545SOL    HW114534   4.573   3.475   6.037
 4545SOL    HW214535   4.513   3.480   5.885
 4546SOL     OW14536   0.402   6.725   6.754
 4546SOL    HW114537   0.349   6.679   6.824
 4546SOL    HW214538   0.494   6.743   6.788
 4547SOL     OW14539   4.026   1.596   1.475
 4547SOL    HW114540   3.993   1.686   1.446
 4547SOL    HW214541   3.953   1.547   1.522
 4548SOL     OW14542   1.689   3.551   3.794
 4548SOL    HW114543   1.616   3.563   3.727
 4548SOL    HW214544   1.652   3.507   3.876
 4549SOL     OW14545   4.961   1.632   2.624
 4549SOL    HW114546   4.920   1.551   2.581
 4549SOL    HW214547   4.982   1.700   2.554
 4550SOL     OW14548   1.401   6.598   4.801
 4550SOL    HW114549   1.496   6.629   4.790
 4550SOL    HW214550   1.352   6.661   4.861
 4551SOL     OW14551   0.493   2.559   6.238
 4551SOL    HW114552   0.592   2.565   6.224
 4551SOL    HW214553   0.457   2.649   6.265
 4552SOL     OW14554   6.872   2.981   3.795
 4552SOL    HW114555   6.815   3.031   3.860
 4552SOL    HW214556   6.871   2.884   3.817
 4553SOL     OW14557   4.918   4.618   0.295
 4553SOL    HW114558   4.928   4.637   0.393
 4553SOL    HW214559   4.953   4.526   0.276
 4554SOL     OW14560   5.333   0.198   3.569
 4554SOL    HW114561   5.310   0.130   3.638
 4554SOL    HW214562   5.272   0.189   3.490
 4555SOL     OW14563   4.828   2.103   7.015
 4555SOL    HW114564   4.866   2.068   6.929
 4555SOL    HW214565   4.825   2.029   0.063
 4556SOL     OW14566   5.116   0.894   4.946
 4556SOL    HW114567   5.028   0.919   4.905
 4556SOL    HW214568   5.185   0.886   4.873
 4557SOL     OW14569   4.835   0.342   5.418
 4557SOL    HW114570   4.901   0.336   5.493
 4557SOL    HW214571   4.743   0.353   5.455
 4558SOL     OW14572   5.907   3.829   5.832
 4558SOL    HW114573   5.893   3.815   5.733
 4558SOL    HW214574   5.877   3.747   5.881
 4559SOL     OW14575   0.363   6.386   1.735
 4559SOL    HW114576   0.462   6.388   1.727
 4559SOL    HW214577   0.334   6.302   1.781
 4560SOL     OW14578   5.060   2.657   2.893
 4560SOL    HW114579   5.057   2.558   2.878
 4560SOL    HW214580   4.969   2.696   2.881
 4561SOL     OW14581   3.124   0.635   6.565
 4561SOL    HW114582   3.212   0.625   6.520
 4561SOL    HW214583   3.099   0.549   6.609
 4562SOL     OW14584   2.939   5.036   5.536
 4562SOL    HW114585   2.983   4.953   5.502
 4562SOL    HW214586   2.962   5.048   5.633
 4563SOL     OW14587   5.685   2.708   6.133
 4563SOL    HW114588   5.593   2.667   6.131
 4563SOL    HW214589   5.722   2.711   6.040
 4564SOL     OW14590   1.495   5.701   6.822
 4564SOL    HW114591   1.473   5.767   6.893
 4564SOL    HW214592   1.483   5.743   6.732
 4565SOL     OW14593   3.130   0.459   3.726
 4565SOL    HW114594   3.128   0.556   3.702
 4565SOL    HW214595   3.225   0.427   3.726
 4566SOL     OW14596   0.645   1.736   0.440
 4566SOL    HW114597   0.666   1.682   0.521
 4566SOL    HW214598   0.598   1.821   0.467
 4567SOL     OW14599   0.059   1.028   1.243
 4567SOL    HW114600   7.002   1.093   1.235
 4567SOL    HW214601   0.082   1.016   1.339
 4568SOL     OW14602   3.178   4.989   4.350
 4568SOL    HW114603   3.141   5.004   4.442
 4568SOL    HW214604   3.274   4.963   4.357
 4569SOL     OW14605   0.244   2.469   3.238
 4569SOL    HW114606   0.304   2.389   3.227
 4569SOL    HW214607   0.265   2.535   3.166
 4570SOL     OW14608   6.363   5.097   4.136
 4570SOL    HW114609   6.312   5.161   4.079
 4570SOL    HW214610   6.302   5.026   4.169
 4571SOL     OW14611   3.790   2.912   4.051
 4571SOL    HW114612   3.702   2.886   4.013
 4571SOL    HW214613   3.849   2.948   3.978
 4572SOL     OW14614   2.353   5.730   2.032
 4572SOL    HW114615   2.388   5.658   1.972
 4572SOL    HW214616   2.403   5.728   2.119
 4573SOL     OW14617   5.506   6.998   0.534
 4573SOL    HW114618   5.413   6.961   0.529
 4573SOL    HW214619   5.539   7.018   0.441
 4574SOL     OW14620   0.374   4.702   1.576
 4574SOL    HW114621   0.468   4.676   1.553
 4574SOL    HW214622   0.365   4.802   1.571
 4575SOL     OW14623   6.287   6.450   2.246
 4575SOL    HW114624   6.319   6.356   2.238
 4575SOL    HW214625   6.229   6.472   2.167
 4576SOL     OW14626   3.125   5.900   4.251
 4576SOL    HW114627   3.039   5.919   4.204
 4576SOL    HW214628   3.139   5.969   4.322
 4577SOL     OW14629   1.232   2.315   4.073
 4577SOL    HW114630   1.273   2.381   4.010
 4577SOL    HW214631   1.237   2.224   4.033
 4578SOL     OW14632   6.827   4.935   4.074
 4578SOL    HW114633   6.803   4.874   3.999
 4578SOL    HW214634   6.831   5.029   4.040
 4579SOL     OW14635   5.216   2.256   4.475
 4579SOL    HW114636   5.288   2.273   4.408
 4579SOL    HW214637   5.140   2.209   4.432
 4580SOL     OW14638   6.931   5.610   0.127
 4580SOL    HW114639   6.942   5.537   0.059
 4580SOL    HW214640   6.842   5.654   0.115
 4581SOL     OW14641   3.418   6.330   3.541
 4581SOL    HW114642   3.336   6.308   3.488
 4581SOL    HW214643   3.477   6.250   3.547
 4582SOL     OW14644   4.747   0.023   3.406
 4582SOL    HW114645   4.796   0.060   3.485
 4582SOL    HW214646   4.649   0.040   3.416
 4583SOL     OW14647   4.247   1.724   5.764
 4583SOL    HW114648   4.284   1.734   5.857
 4583SOL    HW214649   4.321   1.694   5.703
 4584SOL     OW14650   1.436   4.688   5.547
 4584SOL    HW114651   1.504   4.712   5.478
 4584SOL    HW214652   1.476   4.625   5.614
 4585SOL     OW14653   3.328   6.745   2.507
 4585SOL    HW114654   3.229   6.743   2.491
 4585SOL    HW214655   3.369   6.661   2.470
 4586SOL     OW14656   2.792   6.732   2.208
 4586SOL    HW114657   2.716   6.784   2.168
 4586SOL    HW214658   2.848   6.694   2.135
 4587SOL     OW14659   2.436   4.590   1.249
 4587SOL    HW114660   2.340   4.604   1.274
 4587SOL    HW214661   2.488   4.560   1.329
 4588SOL     OW14662   3.853   3.814   5.403
 4588SOL    HW114663   3.820   3.888   5.462
 4588SOL    HW214664   3.923   3.850   5.341
 4589SOL     OW14665   1.175   2.012   3.616
 4589SOL    HW114666   1.232   2.076   3.667
 4589SOL    HW214667   1.199   2.016   3.519
 4590SOL     OW14668   4.591   5.823   2.838
 4590SOL    HW114669   4.589   5.831   2.937
 4590SOL    HW214670   4.658   5.754   2.811
 4591SOL     OW14671   6.157   6.366   5.597
 4591SOL    HW114672   6.073   6.320   5.572
 4591SOL    HW214673   6.209   6.310   5.662
 4592SOL     OW14674   3.415   1.808   5.916
 4592SOL    HW114675   3.424   1.907   5.933
 4592SOL    HW214676   3.346   1.770   5.978
 4593SOL     OW14677   3.979   6.699   1.267
 4593SOL    HW114678   4.031   6.715   1.183
 4593SOL    HW214679   3.926   6.781   1.289
 4594SOL     OW14680   3.119   2.125   2.687
 4594SOL    HW114681   3.045   2.182   2.652
 4594SOL    HW214682   3.149   2.061   2.616
 4595SOL     OW14683   4.453   3.240   6.294
 4595SOL    HW114684   4.385   3.304   6.260
 4595SOL    HW214685   4.408   3.171   6.351
 4596SOL     OW14686   6.277   6.807   2.033
 4596SOL    HW114687   6.208   6.751   1.987
 4596SOL    HW214688   6.232   6.868   2.099
 4597SOL     OW14689   6.991   4.925   6.377
 4597SOL    HW114690   6.936   4.842   6.377
 4597SOL    HW214691   6.930   5.005   6.379
 4598SOL     OW14692   3.298   4.513   0.380
 4598SOL    HW114693   3.203   4.516   0.410
 4598SOL    HW214694   3.357   4.549   0.451
 4599SOL     OW14695   2.125   5.212   0.308
 4599SOL    HW114696   2.159   5.237   0.217
 4599SOL    HW214697   2.152   5.118   0.329
 4600SOL     OW14698   3.866   5.110   1.835
 4600SOL    HW114699   3.770   5.134   1.850
 4600SOL    HW214700   3.877   5.011   1.844
 4601SOL     OW14701   1.592   5.915   4.733
 4601SOL    HW114702   1.532   5.865   4.671
 4601SOL    HW214703   1.630   5.853   4.801
 4602SOL     OW14704   1.580   1.193   1.078
 4602SOL    HW114705   1.511   1.264   1.091
 4602SOL    HW214706   1.610   1.159   1.166
 4603SOL     OW14707   3.511   1.208   1.932
 4603SOL    HW114708   3.508   1.185   2.029
 4603SOL    HW214709   3.459   1.291   1.915
 4604SOL     OW14710   1.726   0.946   2.394
 4604SOL    HW114711   1.822   0.927   2.372
 4604SOL    HW214712   1.678   0.973   2.310
 4605SOL     OW14713   4.815   6.701   5.647
 4605SOL    HW114714   4.721   6.715   5.616
 4605SOL    HW214715   4.822   6.719   5.745
 4606SOL     OW14716   0.162   6.225   5.636
 4606SOL    HW114717   0.202   6.199   5.549
 4606SOL    HW214718   0.156   6.325   5.643
 4607SOL     OW14719   2.674   2.544   1.136
 4607SOL    HW114720   2.660   2.643   1.142
 4607SOL    HW214721   2.737   2.515   1.208
 4608SOL     OW14722   1.614   3.789   5.123
 4608SOL    HW114723   1.689   3.774   5.187
 4608SOL    HW214724   1.573   3.702   5.097
 4609SOL     OW14725   3.330   6.759   6.857
 4609SOL    HW114726   3.379   6.801   6.933
 4609SOL    HW214727   3.395   6.715   6.795
 4610SOL     OW14728   6.990   3.190   6.760
 4610SOL    HW114729   6.900   3.147   6.747
 4610SOL    HW214730   6.990   3.241   6.846
 4611SOL     OW14731   0.886   3.153   6.268
 4611SOL    HW114732   0.790   3.179   6.261
 4611SOL    HW214733   0.902   3.110   6.357
 4612SOL     OW14734   2.551   0.536   6.030
 4612SOL    HW114735   2.489   0.472   5.984
 4612SOL    HW214736   2.644   0.521   5.999
 4613SOL     OW14737   3.272   5.600   2.200
 4613SOL    HW114738   3.329   5.527   2.164
 4613SOL    HW214739   3.222   5.566   2.280
 4614SOL     OW14740   2.353   4.941   0.062
 4614SOL    HW114741   2.289   4.923   7.006
 4614SOL    HW214742   2.315   4.906   0.148
 4615SOL     OW14743   6.894   3.013   0.211
 4615SOL    HW114744   6.860   3.021   0.117
 4615SOL    HW214745   6.824   3.044   0.275
 4616SOL     OW14746   6.356   0.584   0.229
 4616SOL    HW114747   6.383   0.635   0.147
 4616SOL    HW214748   6.435   0.534   0.264
 4617SOL     OW14749   6.749   3.400   2.059
 4617SOL    HW114750   6.709   3.353   1.980
 4617SOL    HW214751   6.677   3.448   2.109
 4618SOL     OW14752   1.282   2.218   6.157
 4618SOL    HW114753   1.297   2.316   6.145
 4618SOL    HW214754   1.369   2.169   6.147
 4619SOL     OW14755   3.212   6.997   3.664
 4619SOL    HW114756   3.231   6.966   3.758
 4619SOL    HW214757   3.296   0.012   3.622
 4620SOL     OW14758   2.621   4.890   6.467
 4620SOL    HW114759   2.667   4.972   6.432
 4620SOL    HW214760   2.551   4.860   6.403
 4621SOL     OW14761   0.074   6.623   6.927
 4621SOL    HW114762   0.107   6.672   7.008
 4621SOL    HW214763   6.993   6.614   6.932
 4622SOL     OW14764   2.397   3.214   1.306
 4622SOL    HW114765   2.395   3.303   1.352
 4622SOL    HW214766   2.309   3.199   1.259
 4623SOL     OW14767   6.228   4.425   2.619
 4623SOL    HW114768   6.323   4.431   2.589
 4623SOL    HW214769   6.219   4.468   2.710
 4624SOL     OW14770   5.009   6.510   5.295
 4624SOL    HW114771   5.064   6.554   5.223
 4624SOL    HW214772   4.912   6.528   5.278
 4625SOL     OW14773   1.572   3.474   5.958
 4625SOL    HW114774   1.663   3.516   5.966
 4625SOL    HW214775   1.507   3.542   5.925
 4626SOL     OW14776   5.481   5.615   2.020
 4626SOL    HW114777   5.425   5.542   2.059
 4626SOL    HW214778   5.492   5.688   2.087
 4627SOL     OW14779   2.076   0.482   5.734
 4627SOL    HW114780   2.108   0.513   5.823
 4627SOL    HW214781   2.110   0.543   5.663
 4628SOL     OW14782   0.029   3.236   1.351
 4628SOL    HW114783   0.057   3.221   1.446
 4628SOL    HW214784   6.993   3.158   1.320
 4629SOL     OW14785   3.907   4.994   4.775
 4629SOL    HW114786   3.943   4.990   4.869
 4629SOL    HW214787   3.828   5.056   4.773
 4630SOL     OW14788   2.329   6.968   2.554
 4630SOL    HW114789   2.426   6.969   2.581
 4630SOL    HW214790   2.287   0.035   2.582
 4631SOL     OW14791   2.115   1.038   2.558
 4631SOL    HW114792   2.093   1.101   2.632
 4631SOL    HW214793   2.068   1.067   2.474
 4632SOL     OW14794   5.934   5.403   4.062
 4632SOL    HW114795   5.873   5.482   4.072
 4632SOL    HW214796   6.029   5.436   4.055
 4633SOL     OW14797   5.776   2.574   5.485
 4633SOL    HW114798   5.785   2.664   5.528
 4633SOL    HW214799   5.788   2.584   5.386
 4634SOL     OW14800   3.449   4.680   1.109
 4634SOL    HW114801   3.496   4.737   1.042
 4634SOL    HW214802   3.448   4.726   1.197
 4635SOL     OW14803   5.088   3.986   1.181
 4635SOL    HW114804   5.183   3.956   1.189
 4635SOL    HW214805   5.030   3.926   1.237
 4636SOL     OW14806   1.451   5.215   0.873
 4636SOL    HW114807   1.460   5.141   0.807
 4636SOL    HW214808   1.405   5.181   0.955
 4637SOL     OW14809   2.183   0.696   4.569
 4637SOL    HW114810   2.175   0.654   4.659
 4637SOL    HW214811   2.148   0.633   4.500
 4638SOL     OW14812   4.656   3.752   6.374
 4638SOL    HW114813   4.670   3.818   6.300
 4638SOL    HW214814   4.633   3.801   6.458
 4639SOL     OW14815   7.011   2.817   5.182
 4639SOL    HW114816   0.050   2.873   5.241
 4639SOL    HW214817   0.018   2.832   5.086
 4640SOL     OW14818   6.184   4.233   2.909
 4640SOL    HW114819   6.260   4.230   2.974
 4640SOL    HW214820   6.204   4.172   2.832
 4641SOL     OW14821   2.741   4.378   5.835
 4641SOL    HW114822   2.796   4.298   5.812
 4641SOL    HW214823   2.793   4.439   5.895
 4642SOL     OW14824   5.997   5.811   4.205
 4642SOL    HW114825   6.093   5.813   4.231
 4642SOL    HW214826   5.979   5.885   4.140
 4643SOL     OW14827   4.044   2.452   0.898
 4643SOL    HW114828   4.012   2.473   0.990
 4643SOL    HW214829   4.142   2.471   0.891
 4644SOL     OW14830   2.528   5.178   4.796
 4644SOL    HW114831   2.626   5.194   4.806
 4644SOL    HW214832   2.510   5.080   4.789
 4645SOL     OW14833   1.949   6.253   4.472
 4645SOL    HW114834   2.015   6.309   4.522
 4645SOL    HW214835   1.972   6.156   4.483
 4646SOL     OW14836   4.139   0.294   1.434
 4646SOL    HW114837   4.228   0.265   1.400
 4646SOL    HW214838   4.079   0.316   1.357
 4647SOL     OW14839   0.106   0.742   4.413
 4647SOL    HW114840   0.121   0.840   4.402
 4647SOL    HW214841   0.181   0.702   4.465
 4648SOL     OW14842   1.448   4.722   2.347
 4648SOL    HW114843   1.370   4.754   2.292
 4648SOL    HW214844   1.533   4.751   2.304
 4649SOL     OW14845   5.854   6.313   6.176
 4649SOL    HW114846   5.799   6.238   6.214
 4649SOL    HW214847   5.794   6.379   6.131
 4650SOL     OW14848   0.190   5.058   1.799
 4650SOL    HW114849   0.175   4.968   1.838
 4650SOL    HW214850   0.101   5.104   1.787
 4651SOL     OW14851   6.745   1.612   2.004
 4651SOL    HW114852   6.728   1.532   1.945
 4651SOL    HW214853   6.722   1.589   2.098
 4652SOL     OW14854   0.388   5.901   5.652
 4652SOL    HW114855   0.440   5.846   5.587
 4652SOL    HW214856   0.290   5.892   5.633
 4653SOL     OW14857   0.850   5.802   6.975
 4653SOL    HW114858   0.765   5.750   6.972
 4653SOL    HW214859   0.927   5.743   6.953
 4654SOL     OW14860   0.751   1.654   6.511
 4654SOL    HW114861   0.737   1.620   6.604
 4654SOL    HW214862   0.789   1.582   6.454
 4655SOL     OW14863   0.369   5.487   3.175
 4655SOL    HW114864   0.302   5.414   3.194
 4655SOL    HW214865   0.320   5.570   3.149
 4656SOL     OW14866   2.188   0.286   3.225
 4656SOL    HW114867   2.234   0.366   3.187
 4656SOL    HW214868   2.209   0.280   3.323
 4657SOL     OW14869   5.788   0.108   6.770
 4657SOL    HW114870   5.777   0.193   6.822
 4657SOL    HW214871   5.819   0.035   6.832
 4658SOL     OW14872   5.215   0.752   3.557
 4658SOL    HW114873   5.152   0.698   3.612
 4658SOL    HW214874   5.258   0.823   3.614
 4659SOL     OW14875   2.390   2.713   4.572
 4659SOL    HW114876   2.362   2.675   4.660
 4659SOL    HW214877   2.470   2.771   4.585
 4660SOL     OW14878   6.791   1.436   5.888
 4660SOL    HW114879   6.760   1.355   5.838
 4660SOL    HW214880   6.815   1.508   5.823
 4661SOL     OW14881   4.127   3.505   3.634
 4661SOL    HW114882   4.146   3.426   3.575
 4661SOL    HW214883   4.116   3.587   3.577
 4662SOL     OW14884   5.794   0.503   4.053
 4662SOL    HW114885   5.808   0.561   4.133
 4662SOL    HW214886   5.771   0.559   3.974
 4663SOL     OW14887   0.818   1.566   2.216
 4663SOL    HW114888   0.896   1.506   2.233
 4663SOL    HW214889   0.850   1.660   2.205
 4664SOL     OW14890   3.281   3.533   0.649
 4664SOL    HW114891   3.344   3.472   0.698
 4664SOL    HW214892   3.332   3.582   0.578
 4665SOL     OW14893   5.432   1.026   6.645
 4665SOL    HW114894   5.410   1.031   6.743
 4665SOL    HW214895   5.455   1.117   6.611
 4666SOL     OW14896   2.750   1.162   0.281
 4666SOL    HW114897   2.720   1.228   0.212
 4666SOL    HW214898   2.688   1.165   0.360
 4667SOL     OW14899   0.435   5.841   5.166
 4667SOL    HW114900   0.346   5.856   5.123
 4667SOL    HW214901   0.486   5.927   5.170
 4668SOL     OW14902   5.795   1.436   5.070
 4668SOL    HW114903   5.774   1.520   5.021
 4668SOL    HW214904   5.847   1.458   5.153
 4669SOL     OW14905   2.451   0.466   1.301
 4669SOL    HW114906   2.540   0.483   1.258
 4669SOL    HW214907   2.380   0.515   1.250
 4670SOL     OW14908   1.689   1.092   4.549
 4670SOL    HW114909   1.593   1.079   4.526
 4670SOL    HW214910   1.700   1.176   4.603
 4671SOL     OW14911   5.622   2.951   0.942
 4671SOL    HW114912   5.592   2.931   0.848
 4671SOL    HW214913   5.705   2.900   0.963
 4672SOL     OW14914   3.064   3.273   5.172
 4672SOL    HW114915   3.111   3.343   5.227
 4672SOL    HW214916   3.117   3.255   5.089
 4673SOL     OW14917   4.071   0.580   2.491
 4673SOL    HW114918   4.170   0.575   2.497
 4673SOL    HW214919   4.030   0.534   2.570
 4674SOL     OW14920   4.165   6.812   5.789
 4674SOL    HW114921   4.175   6.731   5.731
 4674SOL    HW214922   4.108   6.879   5.742
 4675SOL     OW14923   1.277   4.199   6.082
 4675SOL    HW114924   1.308   4.255   6.159
 4675SOL    HW214925   1.188   4.159   6.104
 4676SOL     OW14926   0.376   5.481   3.591
 4676SOL    HW114927   0.463   5.437   3.566
 4676SOL    HW214928   0.304   5.447   3.531
 4677SOL     OW14929   1.348   3.342   0.596
 4677SOL    HW114930   1.340   3.439   0.572
 4677SOL    HW214931   1.407   3.332   0.676
 4678SOL     OW14932   1.706   4.210   2.046
 4678SOL    HW114933   1.753   4.159   2.118
 4678SOL    HW214934   1.750   4.299   2.033
 4679SOL     OW14935   4.326   0.312   1.687
 4679SOL    HW114936   4.336   0.315   1.588
 4679SOL    HW214937   4.412   0.342   1.730
 4680SOL     OW14938   1.623   0.798   7.008
 4680SOL    HW114939   1.636   0.791   0.088
 4680SOL    HW214940   1.701   0.757   6.961
 4681SOL     OW14941   5.255   5.191   2.297
 4681SOL    HW114942   5.192   5.168   2.223
 4681SOL    HW214943   5.266   5.113   2.357
 4682SOL     OW14944   3.202   4.012   6.467
 4682SOL    HW114945   3.179   4.085   6.532
 4682SOL    HW214946   3.164   3.926   6.499
 4683SOL     OW14947   6.064   4.275   3.973
 4683SOL    HW114948   6.148   4.319   3.942
 4683SOL    HW214949   6.035   4.316   4.060
 4684SOL     OW14950   5.643   6.349   0.158
 4684SOL    HW114951   5.717   6.290   0.126
 4684SOL    HW214952   5.674   6.401   0.237
 4685SOL     OW14953   3.481   4.175   4.254
 4685SOL    HW114954   3.563   4.132   4.292
 4685SOL    HW214955   3.421   4.205   4.329
 4686SOL     OW14956   2.542   6.221   0.336
 4686SOL    HW114957   2.561   6.193   0.430
 4686SOL    HW214958   2.563   6.319   0.326
 4687SOL     OW14959   2.574   0.254   2.679
 4687SOL    HW114960   2.482   0.292   2.683
 4687SOL    HW214961   2.608   0.239   2.772
 4688SOL     OW14962   6.009   2.981   5.937
 4688SOL    HW114963   5.939   2.984   6.009
 4688SOL    HW214964   6.070   3.060   5.946
 4689SOL     OW14965   6.588   0.679   2.535
 4689SOL    HW114966   6.673   0.719   2.499
 4689SOL    HW214967   6.522   0.752   2.552
 4690SOL     OW14968   2.486   1.852   0.673
 4690SOL    HW114969   2.453   1.759   0.684
 4690SOL    HW214970   2.568   1.852   0.617
 4691SOL     OW14971   6.724   3.935   2.204
 4691SOL    HW114972   6.792   3.942   2.131
 4691SOL    HW214973   6.671   4.020   2.209
 4692SOL     OW14974   5.072   3.007   2.639
 4692SOL    HW114975   5.105   2.928   2.588
 4692SOL    HW214976   5.005   3.057   2.584
 4693SOL     OW14977   1.160   0.558   3.125
 4693SOL    HW114978   1.258   0.542   3.136
 4693SOL    HW214979   1.109   0.479   3.157
 4694SOL     OW14980   1.797   0.514   6.436
 4694SOL    HW114981   1.871   0.550   6.493
 4694SOL    HW214982   1.822   0.525   6.340
 4695SOL     OW14983   2.088   5.436   2.097
 4695SOL    HW114984   2.129   5.347   2.075
 4695SOL    HW214985   2.016   5.423   2.165
 4696SOL     OW14986   1.856   5.824   6.094
 4696SOL    HW114987   1.763   5.830   6.131
 4696SOL    HW214988   1.857   5.765   6.013
 4697SOL     OW14989   4.199   5.303   1.583
 4697SOL    HW114990   4.100   5.318   1.595
 4697SOL    HW214991   4.245   5.391   1.573
 4698SOL     OW14992   4.877   0.979   4.842
 4698SOL    HW114993   4.823   1.053   4.882
 4698SOL    HW214994   4.817   0.919   4.789
 4699SOL     OW14995   1.680   0.066   2.098
 4699SOL    HW114996   1.713   0.146   2.149
 4699SOL    HW214997   1.585   0.047   2.123
 4700SOL     OW14998   6.281   2.082   2.240
 4700SOL    HW114999   6.295   2.104   2.144
 4700SOL    HW215000   6.360   2.111   2.293
 4701SOL     OW15001   3.102   2.487   1.659
 4701SOL    HW115002   3.179   2.423   1.661
 4701SOL    HW215003   3.059   2.489   1.749
 4702SOL     OW15004   5.617   5.088   6.559
 4702SOL    HW115005   5.692   5.028   6.588
 4702SOL    HW215006   5.615   5.168   6.619
 4703SOL     OW15007   0.723   5.521   3.275
 4703SOL    HW115008   0.664   5.582   3.328
 4703SOL    HW215009   0.798   5.489   3.333
 4704SOL     OW15010   1.305   4.592   4.330
 4704SOL    HW115011   1.268   4.666   4.386
 4704SOL    HW215012   1.244   4.513   4.335
 4705SOL     OW15013   3.735   1.770   1.739
 4705SOL    HW115014   3.669   1.729   1.676
 4705SOL    HW215015   3.724   1.730   1.830
 4706SOL     OW15016   2.315   0.168   1.325
 4706SOL    HW115017   2.227   0.161   1.373
 4706SOL    HW215018   2.350   0.261   1.334
 4707SOL     OW15019   1.731   5.562   1.864
 4707SOL    HW115020   1.722   5.597   1.957
 4707SOL    HW215021   1.801   5.491   1.861
 4708SOL     OW15022   1.919   2.781   5.128
 4708SOL    HW115023   1.835   2.825   5.097
 4708SOL    HW215024   1.988   2.851   5.146
 4709SOL     OW15025   4.771   4.214   5.649
 4709SOL    HW115026   4.856   4.242   5.606
 4709SOL    HW215027   4.783   4.125   5.692
 4710SOL     OW15028   5.868   5.886   5.200
 4710SOL    HW115029   5.797   5.911   5.134
 4710SOL    HW215030   5.885   5.788   5.195
 4711SOL     OW15031   5.258   3.870   2.646
 4711SOL    HW115032   5.333   3.879   2.711
 4711SOL    HW215033   5.255   3.950   2.586
 4712SOL     OW15034   4.617   4.407   5.826
 4712SOL    HW115035   4.663   4.333   5.778
 4712SOL    HW215036   4.526   4.376   5.855
 4713SOL     OW15037   5.840   4.216   0.501
 4713SOL    HW115038   5.795   4.131   0.527
 4713SOL    HW215039   5.848   4.275   0.581
 4714SOL     OW15040   4.016   1.693   6.770
 4714SOL    HW115041   4.055   1.663   6.857
 4714SOL    HW215042   4.023   1.618   6.704
 4715SOL     OW15043   6.547   1.381   1.903
 4715SOL    HW115044   6.533   1.437   1.822
 4715SOL    HW215045   6.458   1.349   1.938
 4716SOL     OW15046   4.157   4.911   5.594
 4716SOL    HW115047   4.165   4.999   5.548
 4716SOL    HW215048   4.235   4.897   5.654
 4717SOL     OW15049   2.786   5.066   5.180
 4717SOL    HW115050   2.828   4.976   5.190
 4717SOL    HW215051   2.779   5.089   5.083
 4718SOL     OW15052   4.614   4.681   0.287
 4718SOL    HW115053   4.567   4.757   0.241
 4718SOL    HW215054   4.711   4.705   0.300
 4719SOL     OW15055   0.261   4.275   3.870
 4719SOL    HW115056   0.297   4.236   3.785
 4719SOL    HW215057   0.337   4.311   3.924
 4720SOL     OW15058   2.103   3.123   6.786
 4720SOL    HW115059   2.115   3.151   6.881
 4720SOL    HW215060   2.161   3.043   6.767
 4721SOL     OW15061   0.110   2.768   2.711
 4721SOL    HW115062   0.155   2.856   2.700
 4721SOL    HW215063   0.080   2.757   2.805
 4722SOL     OW15064   1.259   5.975   0.058
 4722SOL    HW115065   1.341   5.922   0.037
 4722SOL    HW215066   1.217   6.006   6.992
 4723SOL     OW15067   3.757   4.358   6.866
 4723SOL    HW115068   3.682   4.292   6.866
 4723SOL    HW215069   3.767   4.398   6.957
 4724SOL     OW15070   0.891   0.313   5.020
 4724SOL    HW115071   0.939   0.227   5.005
 4724SOL    HW215072   0.795   0.302   4.995
 4725SOL     OW15073   5.167   5.943   1.764
 4725SOL    HW115074   5.243   5.878   1.763
 4725SOL    HW215075   5.104   5.921   1.689
 4726SOL     OW15076   2.023   3.131   5.410
 4726SOL    HW115077   2.098   3.140   5.345
 4726SOL    HW215078   1.944   3.183   5.377
 4727SOL     OW15079   6.928   4.558   1.312
 4727SOL    HW115080   6.897   4.544   1.406
 4727SOL    HW215081   6.925   4.472   1.262
 4728SOL     OW15082   5.965   1.621   4.657
 4728SOL    HW115083   6.026   1.593   4.732
 4728SOL    HW215084   6.018   1.627   4.572
 4729SOL     OW15085   6.406   1.688   1.953
 4729SOL    HW115086   6.444   1.608   1.905
 4729SOL    HW215087   6.460   1.769   1.930
 4730SOL     OW15088   3.256   6.817   4.336
 4730SOL    HW115089   3.212   6.898   4.299
 4730SOL    HW215090   3.352   6.837   4.356
 4731SOL     OW15091   3.225   6.421   0.661
 4731SOL    HW115092   3.254   6.334   0.699
 4731SOL    HW215093   3.130   6.439   0.686
 4732SOL     OW15094   0.511   5.407   4.724
 4732SOL    HW115095   0.495   5.505   4.733
 4732SOL    HW215096   0.469   5.373   4.640
 4733SOL     OW15097   2.255   4.162   2.451
 4733SOL    HW115098   2.265   4.128   2.357
 4733SOL    HW215099   2.235   4.260   2.449
 4734SOL     OW15100   4.950   3.808   6.689
 4734SOL    HW115101   4.930   3.712   6.709
 4734SOL    HW215102   5.042   3.816   6.652
 4735SOL     OW15103   0.504   0.764   5.227
 4735SOL    HW115104   0.426   0.826   5.240
 4735SOL    HW215105   0.509   0.736   5.131
 4736SOL     OW15106   6.604   2.178   3.271
 4736SOL    HW115107   6.504   2.177   3.272
 4736SOL    HW215108   6.638   2.086   3.284
 4737SOL     OW15109   2.198   4.834   6.825
 4737SOL    HW115110   2.212   4.920   6.775
 4737SOL    HW215111   2.100   4.818   6.837
 4738SOL     OW15112   1.075   5.869   3.511
 4738SOL    HW115113   1.052   5.778   3.547
 4738SOL    HW215114   0.992   5.914   3.479
 4739SOL     OW15115   5.754   3.347   2.655
 4739SOL    HW115116   5.759   3.248   2.670
 4739SOL    HW215117   5.726   3.364   2.561
 4740SOL     OW15118   1.059   0.679   1.089
 4740SOL    HW115119   1.056   0.779   1.095
 4740SOL    HW215120   1.153   0.648   1.102
 4741SOL     OW15121   4.961   4.636   1.355
 4741SOL    HW115122   4.876   4.680   1.385
 4741SOL    HW215123   5.029   4.707   1.334
 4742SOL     OW15124   2.593   5.371   2.176
 4742SOL    HW115125   2.493   5.378   2.182
 4742SOL    HW215126   2.633   5.462   2.172
 4743SOL     OW15127   2.705   3.471   0.056
 4743SOL    HW115128   2.760   3.402   0.010
 4743SOL    HW215129   2.755   3.506   0.136
 4744SOL     OW15130   1.886   2.182   5.045
 4744SOL    HW115131   1.842   2.113   5.103
 4744SOL    HW215132   1.863   2.273   5.080
 4745SOL     OW15133   3.339   5.338   5.092
 4745SOL    HW115134   3.331   5.257   5.150
 4745SOL    HW215135   3.371   5.312   5.001
 4746SOL     OW15136   5.875   1.030   1.333
 4746SOL    HW115137   5.778   1.037   1.309
 4746SOL    HW215138   5.894   1.088   1.412
 4747SOL     OW15139   6.610   2.414   1.583
 4747SOL    HW115140   6.635   2.328   1.539
 4747SOL    HW215141   6.667   2.428   1.664
 4748SOL     OW15142   1.903   0.631   1.226
 4748SOL    HW115143   1.877   0.723   1.197
 4748SOL    HW215144   1.985   0.636   1.283
 4749SOL     OW15145   2.486   0.253   5.810
 4749SOL    HW115146   2.435   0.263   5.895
 4749SOL    HW215147   2.555   0.182   5.820
 4750SOL     OW15148   0.803   2.096   4.581
 4750SOL    HW115149   0.748   2.154   4.520
 4750SOL    HW215150   0.892   2.078   4.537
 4751SOL     OW15151   0.999   3.515   5.659
 4751SOL    HW115152   1.029   3.437   5.713
 4751SOL    HW215153   0.969   3.588   5.720
 4752SOL     OW15154   2.153   5.879   1.808
 4752SOL    HW115155   2.147   5.807   1.877
 4752SOL    HW215156   2.063   5.892   1.765
 4753SOL     OW15157   0.033   6.731   5.558
 4753SOL    HW115158   6.979   6.792   5.588
 4753SOL    HW215159   0.012   6.696   5.467
 4754SOL     OW15160   0.357   0.356   6.576
 4754SOL    HW115161   0.319   0.443   6.547
 4754SOL    HW215162   0.295   0.281   6.551
 4755SOL     OW15163   2.520   0.824   0.880
 4755SOL    HW115164   2.449   0.862   0.821
 4755SOL    HW215165   2.598   0.794   0.824
 4756SOL     OW15166   4.796   3.002   1.550
 4756SOL    HW115167   4.821   2.965   1.461
 4756SOL    HW215168   4.719   2.949   1.587
 4757SOL     OW15169   1.929   1.190   1.645
 4757SOL    HW115170   1.950   1.283   1.614
 4757SOL    HW215171   1.854   1.194   1.712
 4758SOL     OW15172   5.253   4.119   5.255
 4758SOL    HW115173   5.201   4.068   5.186
 4758SOL    HW215174   5.218   4.096   5.346
 4759SOL     OW15175   6.012   4.739   6.192
 4759SOL    HW115176   5.927   4.741   6.140
 4759SOL    HW215177   6.031   4.830   6.228
 4760SOL     OW15178   2.057   2.715   0.565
 4760SOL    HW115179   2.011   2.684   0.648
 4760SOL    HW215180   2.000   2.692   0.485
 4761SOL     OW15181   1.485   5.287   5.715
 4761SOL    HW115182   1.444   5.204   5.678
 4761SOL    HW215183   1.470   5.363   5.652
 4762SOL     OW15184   3.909   6.854   2.246
 4762SOL    HW115185   3.833   6.790   2.258
 4762SOL    HW215186   3.990   6.820   2.294
 4763SOL     OW15187   5.981   5.581   4.801
 4763SOL    HW115188   5.935   5.659   4.759
 4763SOL    HW215189   6.066   5.562   4.753
 4764SOL     OW15190   3.986   3.873   4.976
 4764SOL    HW115191   3.985   3.855   4.878
 4764SOL    HW215192   4.027   3.795   5.024
 4765SOL     OW15193   6.906   4.614   5.396
 4765SOL    HW115194   6.919   4.523   5.436
 4765SOL    HW215195   6.938   4.683   5.461
 4766SOL     OW15196   3.469   0.459   3.436
 4766SOL    HW115197   3.516   0.424   3.355
 4766SOL    HW215198   3.390   0.402   3.456
 4767SOL     OW15199   4.093   6.575   6.748
 4767SOL    HW115200   4.152   6.590   6.827
 4767SOL    HW215201   4.085   6.477   6.730
 4768SOL     OW15202   0.403   1.024   4.812
 4768SOL    HW115203   0.486   1.027   4.867
 4768SOL    HW215204   0.426   1.020   4.715
 4769SOL     OW15205   3.702   0.749   1.383
 4769SOL    HW115206   3.761   0.668   1.390
 4769SOL    HW215207   3.614   0.730   1.427
 4770SOL     OW15208   2.802   0.575   3.642
 4770SOL    HW115209   2.802   0.519   3.724
 4770SOL    HW215210   2.846   0.663   3.661
 4771SOL     OW15211   3.825   4.128   5.305
 4771SOL    HW115212   3.743   4.177   5.275
 4771SOL    HW215213   3.835   4.044   5.252
 4772SOL     OW15214   2.314   2.612   0.433
 4772SOL    HW115215   2.380   2.681   0.403
 4772SOL    HW215216   2.229   2.623   0.383
 4773SOL     OW15217   6.818   5.574   3.752
 4773SOL    HW115218   6.861   5.661   3.776
 4773SOL    HW215219   6.724   5.574   3.784
 4774SOL     OW15220   0.797   4.330   0.723
 4774SOL    HW115221   0.881   4.282   0.699
 4774SOL    HW215222   0.748   4.355   0.639
 4775SOL     OW15223   2.648   1.331   2.392
 4775SOL    HW115224   2.633   1.429   2.384
 4775SOL    HW215225   2.718   1.303   2.326
 4776SOL     OW15226   4.103   5.169   1.966
 4776SOL    HW115227   4.092   5.134   2.059
 4776SOL    HW215228   4.017   5.158   1.916
 4777SOL     OW15229   2.890   4.254   1.664
 4777SOL    HW115230   2.963   4.190   1.690
 4777SOL    HW215231   2.897   4.337   1.719
 4778SOL     OW15232   5.206   3.573   2.593
 4778SOL    HW115233   5.282   3.558   2.530
 4778SOL    HW215234   5.196   3.670   2.612
 4779SOL     OW15235   5.003   0.907   3.227
 4779SOL    HW115236   4.903   0.913   3.238
 4779SOL    HW215237   5.039   0.997   3.205
 4780SOL     OW15238   1.901   0.348   5.353
 4780SOL    HW115239   1.980   0.402   5.324
 4780SOL    HW215240   1.861   0.387   5.436
 4781SOL     OW15241   2.151   5.558   2.957
 4781SOL    HW115242   2.102   5.500   2.892
 4781SOL    HW215243   2.246   5.527   2.965
 4782SOL     OW15244   5.715   5.861   0.452
 4782SOL    HW115245   5.660   5.786   0.488
 4782SOL    HW215246   5.794   5.877   0.511
 4783SOL     OW15247   6.347   3.755   2.189
 4783SOL    HW115248   6.303   3.668   2.166
 4783SOL    HW215249   6.289   3.830   2.159
 4784SOL     OW15250   6.294   4.350   5.541
 4784SOL    HW115251   6.268   4.267   5.590
 4784SOL    HW215252   6.393   4.364   5.548
 4785SOL     OW15253   6.530   6.702   1.143
 4785SOL    HW115254   6.478   6.630   1.188
 4785SOL    HW215255   6.545   6.677   1.047
 4786SOL     OW15256   1.526   3.047   2.595
 4786SOL    HW115257   1.554   3.143   2.593
 4786SOL    HW215258   1.560   3.000   2.514
 4787SOL     OW15259   4.226   2.228   2.575
 4787SOL    HW115260   4.182   2.301   2.628
 4787SOL    HW215261   4.277   2.268   2.499
 4788SOL     OW15262   1.340   6.156   5.533
 4788SOL    HW115263   1.285   6.175   5.451
 4788SOL    HW215264   1.284   6.107   5.600
 4789SOL     OW15265   6.316   6.934   0.674
 4789SOL    HW115266   6.387   6.957   0.607
 4789SOL    HW215267   6.329   6.840   0.706
 4790SOL     OW15268   5.470   1.110   6.933
 4790SOL    HW115269   5.408   1.185   6.908
 4790SOL    HW215270   5.553   1.147   6.974
 4791SOL     OW15271   4.765   0.947   3.359
 4791SOL    HW115272   4.732   0.854   3.369
 4791SOL    HW215273   4.726   1.004   3.432
 4792SOL     OW15274   2.988   2.228   1.592
 4792SOL    HW115275   3.074   2.195   1.553
 4792SOL    HW215276   2.997   2.325   1.616
 4793SOL     OW15277   0.572   0.136   6.206
 4793SOL    HW115278   0.562   0.175   6.297
 4793SOL    HW215279   0.579   0.211   6.139
 4794SOL     OW15280   3.917   0.624   1.556
 4794SOL    HW115281   4.000   0.663   1.595
 4794SOL    HW215282   3.918   0.525   1.567
 4795SOL     OW15283   5.883   2.490   4.499
 4795SOL    HW115284   5.962   2.492   4.438
 4795SOL    HW215285   5.914   2.467   4.592
 4796SOL     OW15286   6.114   3.909   0.810
 4796SOL    HW115287   6.136   4.004   0.787
 4796SOL    HW215288   6.195   3.864   0.847
 4797SOL     OW15289   0.364   4.756   4.821
 4797SOL    HW115290   0.324   4.714   4.902
 4797SOL    HW215291   0.462   4.734   4.817
 4798SOL     OW15292   6.581   4.369   5.481
 4798SOL    HW115293   6.661   4.404   5.529
 4798SOL    HW215294   6.584   4.397   5.385
 4799SOL     OW15295   3.738   1.182   5.093
 4799SOL    HW115296   3.778   1.257   5.040
 4799SOL    HW215297   3.810   1.115   5.114
 4800SOL     OW15298   1.971   2.023   4.163
 4800SOL    HW115299   1.954   2.021   4.262
 4800SOL    HW215300   1.910   2.089   4.120
 4801SOL     OW15301   1.447   2.739   0.498
 4801SOL    HW115302   1.447   2.691   0.586
 4801SOL    HW215303   1.380   2.698   0.437
 4802SOL     OW15304   2.303   0.454   2.258
 4802SOL    HW115305   2.291   0.553   2.262
 4802SOL    HW215306   2.218   0.409   2.287
 4803SOL     OW15307   0.865   6.882   1.447
 4803SOL    HW115308   0.896   6.793   1.481
 4803SOL    HW215309   0.854   6.878   1.348
 4804SOL     OW15310   3.884   5.595   0.315
 4804SOL    HW115311   3.836   5.622   0.232
 4804SOL    HW215312   3.852   5.506   0.345
 4805SOL     OW15313   0.519   1.282   0.715
 4805SOL    HW115314   0.493   1.311   0.623
 4805SOL    HW215315   0.595   1.338   0.748
 4806SOL     OW15316   0.910   2.839   3.182
 4806SOL    HW115317   0.868   2.787   3.108
 4806SOL    HW215318   0.854   2.919   3.203
 4807SOL     OW15319   0.844   6.527   2.531
 4807SOL    HW115320   0.769   6.465   2.552
 4807SOL    HW215321   0.897   6.491   2.454
 4808SOL     OW15322   5.469   3.164   1.366
 4808SOL    HW115323   5.509   3.099   1.431
 4808SOL    HW215324   5.542   3.214   1.320
 4809SOL     OW15325   4.499   6.141   6.175
 4809SOL    HW115326   4.512   6.157   6.273
 4809SOL    HW215327   4.566   6.196   6.124
 4810SOL     OW15328   1.213   0.118   1.298
 4810SOL    HW115329   1.289   0.182   1.304
 4810SOL    HW215330   1.201   0.090   1.203
 4811SOL     OW15331   5.395   5.806   2.922
 4811SOL    HW115332   5.359   5.802   2.828
 4811SOL    HW215333   5.495   5.812   2.918
 4812SOL     OW15334   6.702   5.025   4.471
 4812SOL    HW115335   6.662   4.997   4.383
 4812SOL    HW215336   6.794   4.988   4.479
 4813SOL     OW15337   5.587   2.808   2.499
 4813SOL    HW115338   5.608   2.795   2.596
 4813SOL    HW215339   5.610   2.725   2.448
 4814SOL     OW15340   6.626   3.719   1.680
 4814SOL    HW115341   6.703   3.658   1.661
 4814SOL    HW215342   6.551   3.699   1.617
 4815SOL     OW15343   4.097   6.267   2.743
 4815SOL    HW115344   4.084   6.331   2.819
 4815SOL    HW215345   4.183   6.218   2.756
 4816SOL     OW15346   5.515   5.463   3.234
 4816SOL    HW115347   5.530   5.384   3.293
 4816SOL    HW215348   5.473   5.537   3.287
 4817SOL     OW15349   6.788   1.800   6.690
 4817SOL    HW115350   6.702   1.851   6.681
 4817SOL    HW215351   6.847   1.821   6.612
 4818SOL     OW15352   6.889   5.930   3.531
 4818SOL    HW115353   6.905   5.970   3.621
 4818SOL    HW215354   6.977   5.911   3.487
 4819SOL     OW15355   1.909   2.993   0.891
 4819SOL    HW115356   1.856   2.917   0.853
 4819SOL    HW215357   1.949   2.964   0.978
 4820SOL     OW15358   0.303   3.208   2.340
 4820SOL    HW115359   0.393   3.173   2.365
 4820SOL    HW215360   0.237   3.133   2.339
 4821SOL     OW15361   6.872   5.826   3.839
 4821SOL    HW115362   6.826   5.913   3.857
 4821SOL    HW215363   6.968   5.834   3.866
 4822SOL     OW15364   2.065   4.712   4.335
 4822SOL    HW115365   2.136   4.678   4.272
 4822SOL    HW215366   2.090   4.804   4.365
 4823SOL     OW15367   1.787   2.950   1.634
 4823SOL    HW115368   1.711   2.935   1.571
 4823SOL    HW215369   1.796   3.047   1.654
 4824SOL     OW15370   6.181   1.817   6.589
 4824SOL    HW115371   6.266   1.829   6.539
 4824SOL    HW215372   6.151   1.905   6.625
 4825SOL     OW15373   0.796   6.947   4.026
 4825SOL    HW115374   0.736   7.009   4.077
 4825SOL    HW215375   0.756   6.856   4.024
 4826SOL     OW15376   3.864   0.606   1.072
 4826SOL    HW115377   3.913   0.632   0.989
 4826SOL    HW215378   3.782   0.554   1.049
 4827SOL     OW15379   6.886   1.746   0.702
 4827SOL    HW115380   6.811   1.726   0.640
 4827SOL    HW215381   6.911   1.843   0.695
 4828SOL     OW15382   5.770   1.155   5.141
 4828SOL    HW115383   5.774   1.255   5.135
 4828SOL    HW215384   5.698   1.129   5.206
 4829SOL     OW15385   4.404   6.394   4.881
 4829SOL    HW115386   4.402   6.297   4.853
 4829SOL    HW215387   4.319   6.416   4.927
 4830SOL     OW15388   1.658   6.350   3.515
 4830SOL    HW115389   1.647   6.348   3.416
 4830SOL    HW215390   1.745   6.394   3.537
 4831SOL     OW15391   3.221   4.619   5.316
 4831SOL    HW115392   3.150   4.580   5.257
 4831SOL    HW215393   3.179   4.682   5.381
 4832SOL     OW15394   3.834   3.466   4.497
 4832SOL    HW115395   3.807   3.388   4.552
 4832SOL    HW215396   3.753   3.511   4.460
 4833SOL     OW15397   6.308   3.386   5.110
 4833SOL    HW115398   6.318   3.343   5.021
 4833SOL    HW215399   6.214   3.378   5.141
 4834SOL     OW15400   1.110   4.990   1.462
 4834SOL    HW115401   1.172   4.948   1.397
 4834SOL    HW215402   1.082   5.080   1.428
 4835SOL     OW15403   6.887   2.923   5.724
 4835SOL    HW115404   6.888   2.984   5.803
 4835SOL    HW215405   6.932   2.967   5.647
 4836SOL     OW15406   4.620   1.989   5.756
 4836SOL    HW115407   4.591   2.081   5.730
 4836SOL    HW215408   4.616   1.979   5.856
 4837SOL     OW15409   0.599   3.666   3.904
 4837SOL    HW115410   0.571   3.573   3.883
 4837SOL    HW215411   0.550   3.698   3.985
 4838SOL     OW15412   1.950   3.803   6.241
 4838SOL    HW115413   1.931   3.830   6.335
 4838SOL    HW215414   2.037   3.754   6.238
 4839SOL     OW15415   2.544   1.084   0.537
 4839SOL    HW115416   2.524   0.988   0.518
 4839SOL    HW215417   2.461   1.130   0.569
 4840SOL     OW15418   5.745   2.992   5.151
 4840SOL    HW115419   5.675   2.998   5.222
 4840SOL    HW215420   5.834   3.019   5.188
 4841SOL     OW15421   2.983   6.367   3.500
 4841SOL    HW115422   2.944   6.430   3.433
 4841SOL    HW215423   2.924   6.365   3.582
 4842SOL     OW15424   3.849   5.881   3.023
 4842SOL    HW115425   3.857   5.978   3.001
 4842SOL    HW215426   3.908   5.859   3.100
 4843SOL     OW15427   0.062   1.596   0.004
 4843SOL    HW115428   6.999   1.599   6.965
 4843SOL    HW215429   0.084   1.689   0.035
 4844SOL     OW15430   1.269   5.757   5.854
 4844SOL    HW115431   1.335   5.791   5.922
 4844SOL    HW215432   1.176   5.773   5.888
 4845SOL     OW15433   4.905   3.863   4.922
 4845SOL    HW115434   4.861   3.781   4.958
 4845SOL    HW215435   4.875   3.943   4.973
 4846SOL     OW15436   6.122   3.297   4.640
 4846SOL    HW115437   6.167   3.381   4.672
 4846SOL    HW215438   6.192   3.234   4.606
 4847SOL     OW15439   2.470   6.574   6.314
 4847SOL    HW115440   2.484   6.606   6.221
 4847SOL    HW215441   2.558   6.572   6.363
 4848SOL     OW15442   4.503   1.322   4.150
 4848SOL    HW115443   4.405   1.337   4.135
 4848SOL    HW215444   4.520   1.226   4.172
 4849SOL     OW15445   2.709   6.320   0.967
 4849SOL    HW115446   2.654   6.274   0.898
 4849SOL    HW215447   2.655   6.330   1.051
 4850SOL     OW15448   3.772   6.992   1.053
 4850SOL    HW115449   3.733   6.903   1.030
 4850SOL    HW215450   3.839   7.019   0.984
 4851SOL     OW15451   3.841   4.739   0.024
 4851SOL    HW115452   3.836   4.647   0.063
 4851SOL    HW215453   3.795   4.741   6.954
 4852SOL     OW15454   5.409   5.027   5.852
 4852SOL    HW115455   5.339   5.090   5.818
 4852SOL    HW215456   5.485   5.080   5.891
 4853SOL     OW15457   4.623   0.220   2.437
 4853SOL    HW115458   4.711   0.229   2.484
 4853SOL    HW215459   4.609   0.125   2.409
 4854SOL     OW15460   4.375   6.546   2.233
 4854SOL    HW115461   4.330   6.632   2.256
 4854SOL    HW215462   4.468   6.564   2.203
 4855SOL     OW15463   4.941   5.362   5.465
 4855SOL    HW115464   4.889   5.285   5.429
 4855SOL    HW215465   5.034   5.360   5.428
 4856SOL     OW15466   0.241   3.507   2.347
 4856SOL    HW115467   0.267   3.534   2.254
 4856SOL    HW215468   0.265   3.411   2.362
 4857SOL     OW15469   2.589   2.478   4.940
 4857SOL    HW115470   2.560   2.515   5.028
 4857SOL    HW215471   2.663   2.411   4.954
 4858SOL     OW15472   1.649   6.732   4.760
 4858SOL    HW115473   1.740   6.765   4.785
 4858SOL    HW215474   1.581   6.801   4.785
 4859SOL     OW15475   6.934   5.609   2.757
 4859SOL    HW115476   6.933   5.674   2.681
 4859SOL    HW215477   6.998   5.535   2.736
 4860SOL     OW15478   4.427   5.214   2.223
 4860SOL    HW115479   4.384   5.143   2.167
 4860SOL    HW215480   4.385   5.302   2.202
 4861SOL     OW15481   0.020   4.560   5.727
 4861SOL    HW115482   0.099   4.526   5.778
 4861SOL    HW215483   0.037   4.654   5.699
 4862SOL     OW15484   2.113   6.500   4.377
 4862SOL    HW115485   2.207   6.469   4.393
 4862SOL    HW215486   2.057   6.423   4.345
 4863SOL     OW15487   5.650   2.070   2.411
 4863SOL    HW115488   5.697   2.158   2.414
 4863SOL    HW215489   5.716   1.998   2.388
 4864SOL     OW15490   2.159   1.680   1.170
 4864SOL    HW115491   2.091   1.694   1.242
 4864SOL    HW215492   2.242   1.642   1.210
 4865SOL     OW15493   4.161   5.954   4.650
 4865SOL    HW115494   4.159   5.860   4.685
 4865SOL    HW215495   4.068   5.991   4.649
 4866SOL     OW15496   0.661   5.293   1.810
 4866SOL    HW115497   0.716   5.262   1.733
 4866SOL    HW215498   0.587   5.227   1.827
 4867SOL     OW15499   4.855   4.514   4.064
 4867SOL    HW115500   4.817   4.422   4.071
 4867SOL    HW215501   4.933   4.514   4.001
 4868SOL     OW15502   2.108   5.596   1.473
 4868SOL    HW115503   2.029   5.594   1.535
 4868SOL    HW215504   2.191   5.572   1.523
 4869SOL     OW15505   6.055   2.046   1.094
 4869SOL    HW115506   5.973   2.021   1.145
 4869SOL    HW215507   6.095   1.964   1.054
 4870SOL     OW15508   6.830   0.591   1.250
 4870SOL    HW115509   6.801   0.509   1.201
 4870SOL    HW215510   6.787   0.593   1.340
 4871SOL     OW15511   1.891   4.118   4.442
 4871SOL    HW115512   1.926   4.026   4.458
 4871SOL    HW215513   1.962   4.185   4.462
 4872SOL     OW15514   1.126   0.729   4.097
 4872SOL    HW115515   1.211   0.781   4.102
 4872SOL    HW215516   1.113   0.677   4.182
 4873SOL     OW15517   1.077   6.672   5.335
 4873SOL    HW115518   1.002   6.677   5.401
 4873SOL    HW215519   1.043   6.697   5.245
 4874SOL     OW15520   5.979   3.391   3.375
 4874SOL    HW115521   5.888   3.360   3.346
 4874SOL    HW215522   5.991   3.372   3.473
 4875SOL     OW15523   6.902   2.575   6.204
 4875SOL    HW115524   6.995   2.607   6.188
 4875SOL    HW215525   6.874   2.517   6.127
 4876SOL     OW15526   0.421   1.367   0.150
 4876SOL    HW115527   0.445   1.457   0.187
 4876SOL    HW215528   0.328   1.343   0.179
 4877SOL     OW15529   5.895   1.077   2.239
 4877SOL    HW115530   5.813   1.122   2.274
 4877SOL    HW215531   5.920   1.001   2.299
 4878SOL     OW15532   0.294   2.798   1.587
 4878SOL    HW115533   0.335   2.718   1.630
 4878SOL    HW215534   0.231   2.842   1.651
 4879SOL     OW15535   4.952   5.769   2.984
 4879SOL    HW115536   4.883   5.746   3.052
 4879SOL    HW215537   4.910   5.821   2.910
 4880SOL     OW15538   5.756   1.781   5.635
 4880SOL    HW115539   5.690   1.715   5.601
 4880SOL    HW215540   5.736   1.803   5.730
 4881SOL     OW15541   2.581   5.548   6.467
 4881SOL    HW115542   2.509   5.605   6.427
 4881SOL    HW215543   2.638   5.512   6.393
 4882SOL     OW15544   4.935   6.850   6.915
 4882SOL    HW115545   4.937   6.756   6.949
 4882SOL    HW215546   4.874   6.856   6.836
 4883SOL     OW15547   6.108   5.585   0.043
 4883SOL    HW115548   6.037   5.609   0.109
 4883SOL    HW215549   6.162   5.509   0.079
 4884SOL     OW15550   4.125   5.977   1.493
 4884SOL    HW115551   4.154   5.913   1.421
 4884SOL    HW215552   4.062   6.044   1.454
 4885SOL     OW15553   2.284   0.258   2.785
 4885SOL    HW115554   2.290   0.163   2.816
 4885SOL    HW215555   2.207   0.302   2.831
 4886SOL     OW15556   6.017   0.615   5.808
 4886SOL    HW115557   6.077   0.609   5.888
 4886SOL    HW215558   5.921   0.610   5.838
 4887SOL     OW15559   0.198   2.257   5.616
 4887SOL    HW115560   0.101   2.262   5.641
 4887SOL    HW215561   0.253   2.250   5.700
 4888SOL     OW15562   3.504   6.169   2.019
 4888SOL    HW115563   3.499   6.078   1.977
 4888SOL    HW215564   3.557   6.230   1.961
 4889SOL     OW15565   1.321   2.874   6.369
 4889SOL    HW115566   1.373   2.848   6.451
 4889SOL    HW215567   1.383   2.914   6.302
 4890SOL     OW15568   0.510   0.293   4.328
 4890SOL    HW115569   0.470   0.279   4.419
 4890SOL    HW215570   0.565   0.376   4.329
 4891SOL     OW15571   1.311   4.009   0.511
 4891SOL    HW115572   1.337   4.060   0.593
 4891SOL    HW215573   1.265   3.924   0.536
 4892SOL     OW15574   1.838   5.305   2.238
 4892SOL    HW115575   1.760   5.362   2.211
 4892SOL    HW215576   1.825   5.272   2.332
 4893SOL     OW15577   0.911   3.631   6.986
 4893SOL    HW115578   0.917   3.556   0.033
 4893SOL    HW215579   0.986   3.623   6.920
 4894SOL     OW15580   1.740   0.706   3.339
 4894SOL    HW115581   1.815   0.644   3.361
 4894SOL    HW215582   1.775   0.799   3.329
 4895SOL     OW15583   6.198   4.316   0.264
 4895SOL    HW115584   6.107   4.305   0.304
 4895SOL    HW215585   6.221   4.413   0.259
 4896SOL     OW15586   4.015   6.220   3.504
 4896SOL    HW115587   4.101   6.184   3.468
 4896SOL    HW215588   3.989   6.168   3.586
 4897SOL     OW15589   2.658   5.984   6.626
 4897SOL    HW115590   2.729   5.918   6.601
 4897SOL    HW215591   2.700   6.071   6.651
 4898SOL     OW15592   6.284   1.997   4.570
 4898SOL    HW115593   6.257   1.937   4.494
 4898SOL    HW215594   6.381   2.020   4.562
 4899SOL     OW15595   5.075   4.803   4.767
 4899SOL    HW115596   5.163   4.798   4.720
 4899SOL    HW215597   5.076   4.877   4.834
 4900SOL     OW15598   0.668   6.617   5.628
 4900SOL    HW115599   0.611   6.697   5.611
 4900SOL    HW215600   0.706   6.621   5.720
 4901SOL     OW15601   6.926   6.656   3.142
 4901SOL    HW115602   7.009   6.700   3.175
 4901SOL    HW215603   6.932   6.643   3.043
 4902SOL     OW15604   3.434   4.918   1.815
 4902SOL    HW115605   3.392   4.882   1.731
 4902SOL    HW215606   3.497   4.850   1.852
 4903SOL     OW15607   5.521   5.396   6.185
 4903SOL    HW115608   5.567   5.427   6.101
 4903SOL    HW215609   5.439   5.452   6.200
 4904SOL     OW15610   2.865   6.416   3.756
 4904SOL    HW115611   2.916   6.502   3.747
 4904SOL    HW215612   2.886   6.374   3.844
 4905SOL     OW15613   6.111   3.780   3.544
 4905SOL    HW115614   6.210   3.780   3.526
 4905SOL    HW215615   6.084   3.693   3.585
 4906SOL     OW15616   5.179   0.829   1.086
 4906SOL    HW115617   5.260   0.790   1.042
 4906SOL    HW215618   5.142   0.763   1.151
 4907SOL     OW15619   2.526   1.992   2.114
 4907SOL    HW115620   2.428   2.011   2.123
 4907SOL    HW215621   2.566   1.982   2.206
 4908SOL     OW15622   4.175   4.894   0.364
 4908SOL    HW115623   4.075   4.886   0.360
 4908SOL    HW215624   4.208   4.934   0.278
 4909SOL     OW15625   6.026   0.285   5.322
 4909SOL    HW115626   6.062   0.369   5.280
 4909SOL    HW215627   5.964   0.240   5.258
 4910SOL     OW15628   5.727   6.753   6.189
 4910SOL    HW115629   5.652   6.702   6.231
 4910SOL    HW215630   5.695   6.798   6.106
 4911SOL     OW15631   1.211   3.480   6.152
 4911SOL    HW115632   1.114   3.505   6.153
 4911SOL    HW215633   1.258   3.529   6.079
 4912SOL     OW15634   2.554   2.496   1.775
 4912SOL    HW115635   2.485   2.568   1.769
 4912SOL    HW215636   2.642   2.532   1.745
 4913SOL     OW15637   2.848   3.346   1.880
 4913SOL    HW115638   2.834   3.420   1.946
 4913SOL    HW215639   2.760   3.317   1.843
 4914SOL     OW15640   2.041   6.529   2.532
 4914SOL    HW115641   2.094   6.446   2.512
 4914SOL    HW215642   2.099   6.609   2.518
 4915SOL     OW15643   2.610   6.191   3.257
 4915SOL    HW115644   2.579   6.251   3.331
 4915SOL    HW215645   2.560   6.213   3.173
 4916SOL     OW15646   2.044   2.336   2.716
 4916SOL    HW115647   2.116   2.357   2.782
 4916SOL    HW215648   1.975   2.408   2.719
 4917SOL     OW15649   2.192   4.722   6.137
 4917SOL    HW115650   2.192   4.684   6.044
 4917SOL    HW215651   2.172   4.650   6.203
 4918SOL     OW15652   2.083   0.648   3.632
 4918SOL    HW115653   2.171   0.613   3.665
 4918SOL    HW215654   2.008   0.600   3.679
 4919SOL     OW15655   2.511   3.090   1.564
 4919SOL    HW115656   2.478   3.140   1.483
 4919SOL    HW215657   2.533   3.156   1.636
 4920SOL     OW15658   4.291   0.559   0.139
 4920SOL    HW115659   4.238   0.644   0.143
 4920SOL    HW215660   4.361   0.560   0.211
 4921SOL     OW15661   0.916   4.675   1.929
 4921SOL    HW115662   0.991   4.728   1.891
 4921SOL    HW215663   0.949   4.583   1.953
 4922SOL     OW15664   0.746   2.914   5.767
 4922SOL    HW115665   0.674   2.852   5.737
 4922SOL    HW215666   0.756   2.909   5.866
 4923SOL     OW15667   2.874   2.187   0.031
 4923SOL    HW115668   2.947   2.142   7.000
 4923SOL    HW215669   2.796   2.125   0.040
 4924SOL     OW15670   0.260   3.665   4.048
 4924SOL    HW115671   0.279   3.571   4.077
 4924SOL    HW215672   0.323   3.728   4.095
 4925SOL     OW15673   4.832   6.363   6.641
 4925SOL    HW115674   4.757   6.307   6.677
 4925SOL    HW215675   4.797   6.453   6.615
 4926SOL     OW15676   4.410   2.762   0.660
 4926SOL    HW115677   4.411   2.795   0.566
 4926SOL    HW215678   4.504   2.747   0.691
 4927SOL     OW15679   3.431   4.138   2.460
 4927SOL    HW115680   3.404   4.043   2.472
 4927SOL    HW215681   3.531   4.144   2.459
 4928SOL     OW15682   0.880   6.483   0.678
 4928SOL    HW115683   0.905   6.386   0.686
 4928SOL    HW215684   0.923   6.522   0.597
 4929SOL     OW15685   0.875   4.876   4.750
 4929SOL    HW115686   0.932   4.937   4.695
 4929SOL    HW215687   0.923   4.853   4.835
 4930SOL     OW15688   0.454   2.668   0.852
 4930SOL    HW115689   0.396   2.708   0.923
 4930SOL    HW215690   0.550   2.679   0.877
 4931SOL     OW15691   6.738   6.468   0.957
 4931SOL    HW115692   6.733   6.382   1.006
 4931SOL    HW215693   6.833   6.500   0.955
 4932SOL     OW15694   3.595   1.871   1.105
 4932SOL    HW115695   3.512   1.913   1.142
 4932SOL    HW215696   3.658   1.849   1.180
 4933SOL     OW15697   2.650   0.252   5.105
 4933SOL    HW115698   2.647   0.352   5.109
 4933SOL    HW215699   2.645   0.215   5.197
 4934SOL     OW15700   1.739   5.912   5.723
 4934SOL    HW115701   1.804   5.978   5.762
 4934SOL    HW215702   1.652   5.957   5.705
 4935SOL     OW15703   1.893   1.480   0.841
 4935SOL    HW115704   1.975   1.530   0.813
 4935SOL    HW215705   1.904   1.448   0.935
 4936SOL     OW15706   4.923   6.345   1.579
 4936SOL    HW115707   4.894   6.438   1.601
 4936SOL    HW215708   5.010   6.326   1.624
 4937SOL     OW15709   1.014   3.064   5.005
 4937SOL    HW115710   1.110   3.041   4.988
 4937SOL    HW215711   0.956   2.991   4.968
 4938SOL     OW15712   3.407   5.086   2.177
 4938SOL    HW115713   3.493   5.049   2.141
 4938SOL    HW215714   3.334   5.020   2.163
 4939SOL     OW15715   1.164   1.555   1.161
 4939SOL    HW115716   1.164   1.456   1.171
 4939SOL    HW215717   1.084   1.594   1.207
 4940SOL     OW15718   1.151   2.173   5.903
 4940SOL    HW115719   1.176   2.218   5.989
 4940SOL    HW215720   1.194   2.221   5.826
 4941SOL     OW15721   4.335   2.629   5.320
 4941SOL    HW115722   4.247   2.616   5.276
 4941SOL    HW215723   4.403   2.571   5.276
 4942SOL     OW15724   0.413   1.982   3.125
 4942SOL    HW115725   0.319   2.005   3.099
 4942SOL    HW215726   0.413   1.940   3.216
 4943SOL     OW15727   5.394   2.831   6.891
 4943SOL    HW115728   5.460   2.808   6.963
 4943SOL    HW215729   5.441   2.875   6.815
 4944SOL     OW15730   0.905   5.160   6.986
 4944SOL    HW115731   0.810   5.190   6.986
 4944SOL    HW215732   0.927   5.117   6.899
 4945SOL     OW15733   2.638   0.245   5.387
 4945SOL    HW115734   2.731   0.245   5.424
 4945SOL    HW215735   2.599   0.336   5.394
 4946SOL     OW15736   2.752   5.374   6.841
 4946SOL    HW115737   2.843   5.386   6.881
 4946SOL    HW215738   2.758   5.312   6.763
 4947SOL     OW15739   0.904   0.436   1.023
 4947SOL    HW115740   0.880   0.368   1.093
 4947SOL    HW215741   0.998   0.467   1.037
 4948SOL     OW15742   1.978   2.185   2.468
 4948SOL    HW115743   2.059   2.243   2.480
 4948SOL    HW215744   1.927   2.183   2.554
 4949SOL     OW15745   0.005   3.896   6.467
 4949SOL    HW115746   6.940   3.844   6.455
 4949SOL    HW215747   0.030   3.939   6.380
 4950SOL     OW15748   3.773   4.690   6.000
 4950SOL    HW115749   3.865   4.721   6.025
 4950SOL    HW215750   3.759   4.705   5.902
 4951SOL     OW15751   5.199   5.802   3.118
 4951SOL    HW115752   5.105   5.789   3.085
 4951SOL    HW215753   5.263   5.789   3.042
 4952SOL     OW15754   0.461   0.224   0.066
 4952SOL    HW115755   0.462   0.315   0.024
 4952SOL    HW215756   0.506   0.227   0.155
 4953SOL     OW15757   1.400   2.342   5.091
 4953SOL    HW115758   1.331   2.359   5.161
 4953SOL    HW215759   1.453   2.261   5.117
 4954SOL     OW15760   2.945   3.696   4.433
 4954SOL    HW115761   2.983   3.709   4.341
 4954SOL    HW215762   2.964   3.776   4.489
 4955SOL     OW15763   3.845   5.906   5.932
 4955SOL    HW115764   3.914   5.842   5.967
 4955SOL    HW215765   3.867   5.930   5.837
 4956SOL     OW15766   2.885   0.044   4.707
 4956SOL    HW115767   2.800   0.096   4.707
 4956SOL    HW215768   2.895   7.013   4.621
 4957SOL     OW15769   5.878   4.468   0.128
 4957SOL    HW115770   5.781   4.492   0.142
 4957SOL    HW215771   5.887   4.369   0.121
 4958SOL     OW15772   3.837   5.488   0.803
 4958SOL    HW115773   3.762   5.440   0.847
 4958SOL    HW215774   3.915   5.492   0.865
 4959SOL     OW15775   7.014   2.400   2.865
 4959SOL    HW115776   7.018   2.301   2.878
 4959SOL    HW215777   0.056   2.426   2.790
 4960SOL     OW15778   4.976   4.850   3.493
 4960SOL    HW115779   4.940   4.782   3.429
 4960SOL    HW215780   4.927   4.843   3.580
 4961SOL     OW15781   3.440   2.347   1.705
 4961SOL    HW115782   3.398   2.260   1.731
 4961SOL    HW215783   3.515   2.368   1.769
 4962SOL     OW15784   1.301   3.124   0.172
 4962SOL    HW115785   1.360   3.195   0.211
 4962SOL    HW215786   1.285   3.053   0.240
 4963SOL     OW15787   0.714   3.941   5.764
 4963SOL    HW115788   0.810   3.964   5.744
 4963SOL    HW215789   0.675   3.892   5.686
 4964SOL     OW15790   2.420   6.336   4.766
 4964SOL    HW115791   2.495   6.325   4.701
 4964SOL    HW215792   2.431   6.422   4.816
 4965SOL     OW15793   1.594   6.622   2.993
 4965SOL    HW115794   1.629   6.531   2.970
 4965SOL    HW215795   1.670   6.686   3.000
 4966SOL     OW15796   3.144   6.119   4.396
 4966SOL    HW115797   3.046   6.135   4.405
 4966SOL    HW215798   3.193   6.205   4.409
 4967SOL     OW15799   4.441   4.714   4.870
 4967SOL    HW115800   4.413   4.647   4.939
 4967SOL    HW215801   4.497   4.668   4.801
 4968SOL     OW15802   0.366   2.682   3.012
 4968SOL    HW115803   0.393   2.593   2.976
 4968SOL    HW215804   0.445   2.727   3.054
 4969SOL     OW15805   0.027   5.583   4.210
 4969SOL    HW115806   6.992   5.656   4.252
 4969SOL    HW215807   6.997   5.548   4.130
 4970SOL     OW15808   1.919   2.030   1.498
 4970SOL    HW115809   1.938   2.015   1.401
 4970SOL    HW215810   1.957   1.954   1.551
 4971SOL     OW15811   6.914   6.125   2.496
 4971SOL    HW115812   6.986   6.060   2.471
 4971SOL    HW215813   6.884   6.174   2.414
 4972SOL     OW15814   0.303   4.459   0.843
 4972SOL    HW115815   0.206   4.436   0.852
 4972SOL    HW215816   0.324   4.539   0.899
 4973SOL     OW15817   6.190   1.272   0.463
 4973SOL    HW115818   6.288   1.286   0.478
 4973SOL    HW215819   6.147   1.358   0.435
 4974SOL     OW15820   3.307   6.567   4.534
 4974SOL    HW115821   3.361   6.638   4.579
 4974SOL    HW215822   3.232   6.609   4.483
 4975SOL     OW15823   5.249   5.044   1.011
 4975SOL    HW115824   5.187   5.033   1.088
 4975SOL    HW215825   5.208   5.006   0.928
 4976SOL     OW15826   1.164   6.711   3.275
 4976SOL    HW115827   1.213   6.640   3.327
 4976SOL    HW215828   1.209   6.725   3.187
 4977SOL     OW15829   1.421   3.944   6.087
 4977SOL    HW115830   1.409   3.902   5.997
 4977SOL    HW215831   1.341   3.999   6.109
 4978SOL     OW15832   6.017   4.176   4.931
 4978SOL    HW115833   6.053   4.237   4.861
 4978SOL    HW215834   5.937   4.128   4.895
 4979SOL     OW15835   2.657   6.952   6.272
 4979SOL    HW115836   2.696   6.888   6.206
 4979SOL    HW215837   2.691   6.931   6.363
 4980SOL     OW15838   5.380   3.016   4.118
 4980SOL    HW115839   5.323   3.071   4.179
 4980SOL    HW215840   5.401   2.928   4.161
 4981SOL     OW15841   3.245   4.929   2.723
 4981SOL    HW115842   3.161   4.909   2.673
 4981SOL    HW215843   3.225   4.929   2.822
 4982SOL     OW15844   4.026   2.623   5.591
 4982SOL    HW115845   4.057   2.718   5.595
 4982SOL    HW215846   4.105   2.562   5.583
 4983SOL     OW15847   5.530   4.552   3.093
 4983SOL    HW115848   5.600   4.555   3.022
 4983SOL    HW215849   5.567   4.509   3.176
 4984SOL     OW15850   4.906   3.579   3.957
 4984SOL    HW115851   4.909   3.482   3.934
 4984SOL    HW215852   4.867   3.591   4.048
 4985SOL     OW15853   5.549   0.749   2.538
 4985SOL    HW115854   5.572   0.748   2.635
 4985SOL    HW215855   5.517   0.659   2.510
 4986SOL     OW15856   0.839   5.170   1.094
 4986SOL    HW115857   0.761   5.210   1.045
 4986SOL    HW215858   0.827   5.070   1.099
 4987SOL     OW15859   1.473   1.321   2.403
 4987SOL    HW115860   1.563   1.312   2.446
 4987SOL    HW215861   1.401   1.304   2.470
 4988SOL     OW15862   6.228   5.581   3.831
 4988SOL    HW115863   6.223   5.565   3.732
 4988SOL    HW215864   6.281   5.663   3.849
 4989SOL     OW15865   5.212   0.321   3.922
 4989SOL    HW115866   5.227   0.235   3.874
 4989SOL    HW215867   5.170   0.304   4.010
 4990SOL     OW15868   4.561   2.273   5.655
 4990SOL    HW115869   4.538   2.293   5.560
 4990SOL    HW215870   4.498   2.322   5.716
 4991SOL     OW15871   1.612   5.237   6.158
 4991SOL    HW115872   1.621   5.302   6.082
 4991SOL    HW215873   1.518   5.237   6.191
 4992SOL     OW15874   1.146   3.300   4.209
 4992SOL    HW115875   1.241   3.276   4.192
 4992SOL    HW215876   1.139   3.398   4.228
 4993SOL     OW15877   2.278   6.195   3.909
 4993SOL    HW115878   2.204   6.234   3.855
 4993SOL    HW215879   2.360   6.252   3.899
 4994SOL     OW15880   3.680   5.042   5.346
 4994SOL    HW115881   3.609   5.085   5.403
 4994SOL    HW215882   3.767   5.042   5.395
 4995SOL     OW15883   0.155   0.710   6.028
 4995SOL    HW115884   0.239   0.737   5.980
 4995SOL    HW215885   0.082   0.773   6.003
 4996SOL     OW15886   0.628   1.180   3.857
 4996SOL    HW115887   0.686   1.232   3.920
 4996SOL    HW215888   0.672   1.176   3.768
 4997SOL     OW15889   3.776   1.675   1.002
 4997SOL    HW115890   3.796   1.660   0.905
 4997SOL    HW215891   3.713   1.752   1.012
 4998SOL     OW15892   0.683   3.916   3.113
 4998SOL    HW115893   0.670   3.861   3.030
 4998SOL    HW215894   0.670   3.858   3.193
 4999SOL     OW15895   0.674   2.433   3.788
 4999SOL    HW115896   0.613   2.507   3.759
 4999SOL    HW215897   0.661   2.353   3.729
 5000SOL     OW15898   2.705   5.927   2.740
 5000SOL    HW115899   2.691   5.837   2.699
 5000SOL    HW215900   2.794   5.930   2.785
 5001SOL     OW15901   0.614   6.139   3.060
 5001SOL    HW115902   0.615   6.238   3.070
 5001SOL    HW215903   0.561   6.113   2.979
 5002SOL     OW15904   1.844   4.658   4.190
 5002SOL    HW115905   1.774   4.663   4.261
 5002SOL    HW215906   1.934   4.649   4.233
 5003SOL     OW15907   3.839   0.541   2.962
 5003SOL    HW115908   3.842   0.463   3.025
 5003SOL    HW215909   3.744   0.556   2.932
 5004SOL     OW15910   3.895   5.640   6.929
 5004SOL    HW115911   3.953   5.658   6.849
 5004SOL    HW215912   3.808   5.601   6.899
 5005SOL     OW15913   2.920   2.857   6.952
 5005SOL    HW115914   2.908   2.947   6.911
 5005SOL    HW215915   2.865   2.851   0.016
 5006SOL     OW15916   4.908   1.265   2.266
 5006SOL    HW115917   4.962   1.315   2.198
 5006SOL    HW215918   4.874   1.180   2.226
 5007SOL     OW15919   5.691   6.168   1.993
 5007SOL    HW115920   5.660   6.261   1.971
 5007SOL    HW215921   5.774   6.173   2.048
 5008SOL     OW15922   5.620   0.451   3.109
 5008SOL    HW115923   5.556   0.520   3.074
 5008SOL    HW215924   5.592   0.422   3.200
 5009SOL     OW15925   6.582   2.503   0.617
 5009SOL    HW115926   6.596   2.425   0.678
 5009SOL    HW215927   6.607   2.587   0.664
 5010SOL     OW15928   3.713   3.630   0.928
 5010SOL    HW115929   3.646   3.567   0.967
 5010SOL    HW215930   3.805   3.599   0.953
 5011SOL     OW15931   1.648   3.331   6.657
 5011SOL    HW115932   1.619   3.411   6.711
 5011SOL    HW215933   1.662   3.253   6.717
 5012SOL     OW15934   6.211   1.636   6.276
 5012SOL    HW115935   6.307   1.646   6.250
 5012SOL    HW215936   6.163   1.583   6.206
 5013SOL     OW15937   5.975   0.094   6.033
 5013SOL    HW115938   5.941   0.059   6.121
 5013SOL    HW215939   5.906   0.079   5.962
 5014SOL     OW15940   5.716   3.370   1.945
 5014SOL    HW115941   5.632   3.378   1.893
 5014SOL    HW215942   5.753   3.278   1.935
 5015SOL     OW15943   6.022   6.403   4.136
 5015SOL    HW115944   6.072   6.318   4.121
 5015SOL    HW215945   5.925   6.389   4.113
 5016SOL     OW15946   1.866   3.668   5.588
 5016SOL    HW115947   1.890   3.572   5.573
 5016SOL    HW215948   1.945   3.717   5.627
 5017SOL     OW15949   0.253   3.018   2.062
 5017SOL    HW115950   0.158   3.012   2.092
 5017SOL    HW215951   0.285   3.113   2.070
 5018SOL     OW15952   0.997   0.100   6.825
 5018SOL    HW115953   1.040   0.023   6.871
 5018SOL    HW215954   0.918   0.068   6.773
 5019SOL     OW15955   1.219   4.716   4.582
 5019SOL    HW115956   1.236   4.623   4.614
 5019SOL    HW215957   1.217   4.778   4.660
 5020SOL     OW15958   2.468   0.396   4.749
 5020SOL    HW115959   2.489   0.480   4.800
 5020SOL    HW215960   2.411   0.336   4.805
 5021SOL     OW15961   1.959   1.178   0.610
 5021SOL    HW115962   1.890   1.249   0.625
 5021SOL    HW215963   2.049   1.221   0.601
 5022SOL     OW15964   6.683   2.653   1.080
 5022SOL    HW115965   6.707   2.585   1.011
 5022SOL    HW215966   6.702   2.616   1.171
 5023SOL     OW15967   0.367   4.358   2.566
 5023SOL    HW115968   0.435   4.370   2.639
 5023SOL    HW215969   0.275   4.372   2.602
 5024SOL     OW15970   4.472   3.841   0.939
 5024SOL    HW115971   4.508   3.903   1.009
 5024SOL    HW215972   4.443   3.756   0.982
 5025SOL     OW15973   4.561   1.549   4.808
 5025SOL    HW115974   4.533   1.548   4.904
 5025SOL    HW215975   4.486   1.584   4.752
 5026SOL     OW15976   4.721   6.911   4.635
 5026SOL    HW115977   4.713   6.994   4.579
 5026SOL    HW215978   4.812   6.871   4.622
 5027SOL     OW15979   4.913   5.866   1.033
 5027SOL    HW115980   4.983   5.888   1.101
 5027SOL    HW215981   4.862   5.949   1.009
 5028SOL     OW15982   6.420   1.653   2.233
 5028SOL    HW115983   6.399   1.674   2.137
 5028SOL    HW215984   6.509   1.608   2.239
 5029SOL     OW15985   5.843   1.838   2.332
 5029SOL    HW115986   5.911   1.895   2.380
 5029SOL    HW215987   5.879   1.814   2.242
 5030SOL     OW15988   0.184   4.322   6.739
 5030SOL    HW115989   0.256   4.337   6.807
 5030SOL    HW215990   0.219   4.344   6.648
 5031SOL     OW15991   6.424   0.036   6.383
 5031SOL    HW115992   6.478   0.101   6.437
 5031SOL    HW215993   6.486   6.997   6.331
 5032SOL     OW15994   3.056   3.215   5.623
 5032SOL    HW115995   3.025   3.304   5.589
 5032SOL    HW215996   3.056   3.216   5.723
 5033SOL     OW15997   2.286   0.417   6.485
 5033SOL    HW115998   2.235   0.395   6.403
 5033SOL    HW215999   2.324   0.510   6.477
 5034SOL     OW16000   4.695   6.693   4.999
 5034SOL    HW116001   4.614   6.737   4.959
 5034SOL    HW216002   4.679   6.595   5.008
 5035SOL     OW16003   2.044   3.435   4.027
 5035SOL    HW116004   2.053   3.534   4.038
 5035SOL    HW216005   2.126   3.390   4.062
 5036SOL     OW16006   0.515   2.369   4.981
 5036SOL    HW116007   0.531   2.357   5.079
 5036SOL    HW216008   0.543   2.460   4.953
 5037SOL     OW16009   3.998   4.166   1.052
 5037SOL    HW116010   3.914   4.123   1.020
 5037SOL    HW216011   3.998   4.169   1.152
 5038SOL     OW16012   4.002   3.751   3.794
 5038SOL    HW116013   3.970   3.820   3.729
 5038SOL    HW216014   4.027   3.795   3.880
 5039SOL     OW16015   1.014   3.713   6.147
 5039SOL    HW116016   1.085   3.717   6.218
 5039SOL    HW216017   0.936   3.768   6.176
 5040SOL     OW16018   0.092   1.158   5.491
 5040SOL    HW116019   0.017   1.225   5.496
 5040SOL    HW216020   0.178   1.202   5.517
 5041SOL     OW16021   6.988   2.498   1.514
 5041SOL    HW116022   0.056   2.536   1.481
 5041SOL    HW216023   7.006   2.436   1.590
 5042SOL     OW16024   0.853   2.465   6.401
 5042SOL    HW116025   0.944   2.431   6.377
 5042SOL    HW216026   0.814   2.514   6.323
 5043SOL     OW16027   3.796   6.867   1.816
 5043SOL    HW116028   3.816   6.934   1.887
 5043SOL    HW216029   3.880   6.847   1.765
 5044SOL     OW16030   6.726   4.666   0.355
 5044SOL    HW116031   6.732   4.740   0.421
 5044SOL    HW216032   6.637   4.669   0.308
 5045SOL     OW16033   6.133   3.277   6.646
 5045SOL    HW116034   6.171   3.205   6.588
 5045SOL    HW216035   6.039   3.296   6.618
 5046SOL     OW16036   3.410   3.471   2.850
 5046SOL    HW116037   3.385   3.374   2.844
 5046SOL    HW216038   3.393   3.514   2.761
 5047SOL     OW16039   1.789   3.815   3.776
 5047SOL    HW116040   1.737   3.886   3.822
 5047SOL    HW216041   1.746   3.726   3.792
 5048SOL     OW16042   2.124   0.963   6.159
 5048SOL    HW116043   2.192   1.036   6.156
 5048SOL    HW216044   2.052   0.982   6.093
 5049SOL     OW16045   4.760   1.680   6.830
 5049SOL    HW116046   4.664   1.656   6.813
 5049SOL    HW216047   4.818   1.603   6.804
 5050SOL     OW16048   1.594   6.996   0.897
 5050SOL    HW116049   1.686   6.958   0.884
 5050SOL    HW216050   1.543   6.989   0.812
 5051SOL     OW16051   4.523   5.094   0.928
 5051SOL    HW116052   4.560   5.162   0.991
 5051SOL    HW216053   4.554   5.002   0.955
 5052SOL     OW16054   2.572   1.319   5.155
 5052SOL    HW116055   2.617   1.408   5.153
 5052SOL    HW216056   2.514   1.309   5.074
 5053SOL     OW16057   0.338   0.603   1.961
 5053SOL    HW116058   0.311   0.668   2.032
 5053SOL    HW216059   0.258   0.551   1.932
 5054SOL     OW16060   3.795   5.221   4.183
 5054SOL    HW116061   3.841   5.236   4.271
 5054SOL    HW216062   3.863   5.192   4.115
 5055SOL     OW16063   0.354   3.748   6.217
 5055SOL    HW116064   0.325   3.660   6.256
 5055SOL    HW216065   0.341   3.820   6.285
 5056SOL     OW16066   5.285   4.403   4.457
 5056SOL    HW116067   5.259   4.342   4.532
 5056SOL    HW216068   5.384   4.418   4.458
 5057SOL     OW16069   1.126   5.966   2.276
 5057SOL    HW116070   1.109   5.877   2.233
 5057SOL    HW216071   1.067   6.035   2.235
 5058SOL     OW16072   2.723   5.524   5.410
 5058SOL    HW116073   2.696   5.457   5.341
 5058SOL    HW216074   2.774   5.477   5.483
 5059SOL     OW16075   6.716   0.317   2.180
 5059SOL    HW116076   6.662   0.345   2.259
 5059SOL    HW216077   6.811   0.344   2.193
 5060SOL     OW16078   6.354   2.128   5.690
 5060SOL    HW116079   6.352   2.213   5.743
 5060SOL    HW216080   6.381   2.052   5.749
 5061SOL     OW16081   5.336   4.815   0.233
 5061SOL    HW116082   5.360   4.881   0.161
 5061SOL    HW216083   5.326   4.863   0.320
 5062SOL     OW16084   0.389   0.501   0.993
 5062SOL    HW116085   0.403   0.539   0.901
 5062SOL    HW216086   0.477   0.470   1.029
 5063SOL     OW16087   1.799   5.814   1.374
 5063SOL    HW116088   1.854   5.784   1.295
 5063SOL    HW216089   1.828   5.906   1.401
 5064SOL     OW16090   5.180   3.519   6.962
 5064SOL    HW116091   5.126   3.476   0.016
 5064SOL    HW216092   5.246   3.581   7.002
 5065SOL     OW16093   2.639   6.502   5.600
 5065SOL    HW116094   2.605   6.429   5.660
 5065SOL    HW216095   2.738   6.511   5.612
 5066SOL     OW16096   4.631   4.866   0.991
 5066SOL    HW116097   4.661   4.869   1.086
 5066SOL    HW216098   4.633   4.772   0.958
 5067SOL     OW16099   5.307   1.298   6.561
 5067SOL    HW116100   5.393   1.331   6.601
 5067SOL    HW216101   5.274   1.365   6.495
 5068SOL     OW16102   3.287   5.315   1.959
 5068SOL    HW116103   3.336   5.319   1.872
 5068SOL    HW216104   3.353   5.312   2.034
 5069SOL     OW16105   0.407   4.996   2.975
 5069SOL    HW116106   0.428   5.088   3.007
 5069SOL    HW216107   0.390   4.998   2.876
 5070SOL     OW16108   4.993   3.271   4.198
 5070SOL    HW116109   5.008   3.340   4.127
 5070SOL    HW216110   4.951   3.190   4.156
 5071SOL     OW16111   3.962   0.921   0.002
 5071SOL    HW116112   3.913   0.849   6.972
 5071SOL    HW216113   4.022   0.969   6.957
 5072SOL     OW16114   1.156   4.142   1.141
 5072SOL    HW116115   1.217   4.074   1.182
 5072SOL    HW216116   1.191   4.234   1.159
 5073SOL     OW16117   4.269   1.806   4.424
 5073SOL    HW116118   4.286   1.903   4.407
 5073SOL    HW216119   4.312   1.752   4.353
 5074SOL     OW16120   3.211   4.569   5.767
 5074SOL    HW116121   3.162   4.482   5.766
 5074SOL    HW216122   3.305   4.555   5.738
 5075SOL     OW16123   6.734   6.001   3.992
 5075SOL    HW116124   6.651   6.039   4.032
 5075SOL    HW216125   6.813   6.027   4.047
 5076SOL     OW16126   3.617   0.660   0.831
 5076SOL    HW116127   3.633   0.724   0.906
 5076SOL    HW216128   3.521   0.631   0.831
 5077SOL     OW16129   0.432   2.115   2.309
 5077SOL    HW116130   0.375   2.141   2.231
 5077SOL    HW216131   0.379   2.126   2.394
 5078SOL     OW16132   0.786   1.350   3.990
 5078SOL    HW116133   0.720   1.345   4.065
 5078SOL    HW216134   0.774   1.436   3.940
 5079SOL     OW16135   4.157   5.027   4.628
 5079SOL    HW116136   4.204   4.940   4.641
 5079SOL    HW216137   4.070   5.026   4.676
 5080SOL     OW16138   5.829   6.796   5.727
 5080SOL    HW116139   5.887   6.816   5.806
 5080SOL    HW216140   5.856   6.708   5.687
 5081SOL     OW16141   3.194   3.533   3.020
 5081SOL    HW116142   3.286   3.547   2.986
 5081SOL    HW216143   3.155   3.451   2.979
 5082SOL     OW16144   6.521   6.868   5.704
 5082SOL    HW116145   6.450   6.804   5.734
 5082SOL    HW216146   6.504   6.894   5.609
 5083SOL     OW16147   1.492   5.606   1.708
 5083SOL    HW116148   1.579   5.583   1.753
 5083SOL    HW216149   1.486   5.557   1.621
 5084SOL     OW16150   2.100   6.250   2.867
 5084SOL    HW116151   2.030   6.178   2.862
 5084SOL    HW216152   2.190   6.208   2.860
 5085SOL     OW16153   6.425   3.306   6.094
 5085SOL    HW116154   6.520   3.276   6.105
 5085SOL    HW216155   6.422   3.386   6.034
 5086SOL     OW16156   0.151   5.425   3.404
 5086SOL    HW116157   0.064   5.431   3.454
 5086SOL    HW216158   0.143   5.359   3.330
 5087SOL     OW16159   0.157   5.839   5.170
 5087SOL    HW116160   0.081   5.835   5.235
 5087SOL    HW216161   0.139   5.775   5.095
 5088SOL     OW16162   5.816   0.466   6.617
 5088SOL    HW116163   5.752   0.458   6.540
 5088SOL    HW216164   5.842   0.562   6.628
 5089SOL     OW16165   5.279   2.674   4.052
 5089SOL    HW116166   5.291   2.739   4.127
 5089SOL    HW216167   5.347   2.601   4.060
 5090SOL     OW16168   1.537   4.394   0.604
 5090SOL    HW116169   1.502   4.472   0.552
 5090SOL    HW216170   1.464   4.328   0.619
 5091SOL     OW16171   1.620   6.339   3.238
 5091SOL    HW116172   1.562   6.341   3.156
 5091SOL    HW216173   1.698   6.279   3.222
 5092SOL     OW16174   3.845   2.969   1.651
 5092SOL    HW116175   3.779   2.971   1.576
 5092SOL    HW216176   3.878   3.061   1.669
 5093SOL     OW16177   0.770   1.963   0.665
 5093SOL    HW116178   0.791   1.972   0.567
 5093SOL    HW216179   0.844   1.914   0.711
 5094SOL     OW16180   6.548   0.235   6.538
 5094SOL    HW116181   6.516   0.193   6.623
 5094SOL    HW216182   6.610   0.311   6.561
 5095SOL     OW16183   3.080   0.173   5.248
 5095SOL    HW116184   3.108   0.262   5.284
 5095SOL    HW216185   2.991   0.148   5.287
 5096SOL     OW16186   4.336   5.132   2.485
 5096SOL    HW116187   4.411   5.093   2.539
 5096SOL    HW216188   4.355   5.120   2.388
 5097SOL     OW16189   0.731   0.850   6.721
 5097SOL    HW116190   0.748   0.837   6.623
 5097SOL    HW216191   0.785   0.785   6.773
 5098SOL     OW16192   6.633   2.702   2.482
 5098SOL    HW116193   6.599   2.622   2.532
 5098SOL    HW216194   6.720   2.680   2.438
 5099SOL     OW16195   0.977   0.116   4.803
 5099SOL    HW116196   0.939   0.039   4.752
 5099SOL    HW216197   1.063   0.088   4.847
 5100SOL     OW16198   5.051   5.943   6.561
 5100SOL    HW116199   4.990   5.870   6.595
 5100SOL    HW216200   5.091   5.915   6.474
 5101SOL     OW16201   4.025   5.966   0.539
 5101SOL    HW116202   4.006   5.921   0.626
 5101SOL    HW216203   3.958   6.039   0.524
 5102SOL     OW16204   4.010   5.689   4.560
 5102SOL    HW116205   3.922   5.730   4.581
 5102SOL    HW216206   4.005   5.590   4.575
 5103SOL     OW16207   1.190   1.075   4.486
 5103SOL    HW116208   1.183   0.975   4.489
 5103SOL    HW216209   1.159   1.108   4.396
 5104SOL     OW16210   1.287   6.827   1.229
 5104SOL    HW116211   1.280   6.836   1.130
 5104SOL    HW216212   1.357   6.888   1.264
 5105SOL     OW16213   2.617   2.977   6.438
 5105SOL    HW116214   2.609   2.914   6.515
 5105SOL    HW216215   2.541   3.042   6.441
 5106SOL     OW16216   3.031   0.342   2.096
 5106SOL    HW116217   3.092   0.411   2.058
 5106SOL    HW216218   3.066   0.251   2.076
 5107SOL     OW16219   1.268   6.901   6.010
 5107SOL    HW116220   1.364   6.879   6.028
 5107SOL    HW216221   1.260   6.998   5.984
 5108SOL     OW16222   2.860   3.569   3.703
 5108SOL    HW116223   2.763   3.566   3.727
 5108SOL    HW216224   2.887   3.480   3.665
 5109SOL     OW16225   0.170   1.418   1.493
 5109SOL    HW116226   0.105   1.346   1.519
 5109SOL    HW216227   0.263   1.386   1.512
 5110SOL     OW16228   1.978   6.253   5.309
 5110SOL    HW116229   2.031   6.222   5.230
 5110SOL    HW216230   2.002   6.199   5.389
 5111SOL     OW16231   1.511   1.287   6.758
 5111SOL    HW116232   1.449   1.257   6.685
 5111SOL    HW216233   1.523   1.212   6.823
 5112SOL     OW16234   0.297   6.962   3.528
 5112SOL    HW116235   0.254   0.007   3.592
 5112SOL    HW216236   0.280   6.868   3.559
 5113SOL     OW16237   0.850   6.820   6.673
 5113SOL    HW116238   0.851   6.846   6.769
 5113SOL    HW216239   0.934   6.851   6.629
 5114SOL     OW16240   4.097   5.667   6.697
 5114SOL    HW116241   4.075   5.714   6.612
 5114SOL    HW216242   4.162   5.721   6.750
 5115SOL     OW16243   2.122   4.100   5.142
 5115SOL    HW116244   2.114   4.127   5.238
 5115SOL    HW216245   2.211   4.059   5.126
 5116SOL     OW16246   6.812   3.030   1.369
 5116SOL    HW116247   6.834   3.039   1.466
 5116SOL    HW216248   6.745   3.100   1.344
 5117SOL     OW16249   2.740   4.677   3.577
 5117SOL    HW116250   2.666   4.745   3.575
 5117SOL    HW216251   2.737   4.621   3.495
 5118SOL     OW16252   4.637   6.695   1.522
 5118SOL    HW116253   4.576   6.618   1.543
 5118SOL    HW216254   4.681   6.680   1.434
 5119SOL     OW16255   6.398   6.804   2.582
 5119SOL    HW116256   6.311   6.759   2.603
 5119SOL    HW216257   6.421   6.869   2.654
 5120SOL     OW16258   4.157   1.559   2.818
 5120SOL    HW116259   4.103   1.525   2.895
 5120SOL    HW216260   4.119   1.523   2.733
 5121SOL     OW16261   1.302   3.479   4.587
 5121SOL    HW116262   1.380   3.419   4.570
 5121SOL    HW216263   1.306   3.513   4.681
 5122SOL     OW16264   2.487   5.918   3.547
 5122SOL    HW116265   2.587   5.915   3.551
 5122SOL    HW216266   2.449   5.845   3.606
 5123SOL     OW16267   6.097   4.168   1.758
 5123SOL    HW116268   6.076   4.096   1.692
 5123SOL    HW216269   6.021   4.233   1.762
 5124SOL     OW16270   3.164   5.989   0.840
 5124SOL    HW116271   3.109   6.072   0.831
 5124SOL    HW216272   3.115   5.911   0.801
 5125SOL     OW16273   6.704   2.065   5.790
 5125SOL    HW116274   6.687   1.968   5.773
 5125SOL    HW216275   6.709   2.113   5.703
 5126SOL     OW16276   4.842   2.635   6.563
 5126SOL    HW116277   4.936   2.620   6.596
 5126SOL    HW216278   4.779   2.630   6.641
 5127SOL     OW16279   5.463   3.189   6.558
 5127SOL    HW116280   5.376   3.212   6.602
 5127SOL    HW216281   5.535   3.186   6.627
 5128SOL     OW16282   0.210   6.996   0.013
 5128SOL    HW116283   0.173   7.018   6.941
 5128SOL    HW216284   0.284   0.041   0.035
 5129SOL     OW16285   4.491   2.256   2.658
 5129SOL    HW116286   4.392   2.239   2.657
 5129SOL    HW216287   4.523   2.258   2.753
 5130SOL     OW16288   0.767   7.010   5.037
 5130SOL    HW116289   0.725   7.012   5.128
 5130SOL    HW216290   0.866   7.013   5.046
 5131SOL     OW16291   3.623   5.091   3.832
 5131SOL    HW116292   3.683   5.015   3.856
 5131SOL    HW216293   3.660   5.138   3.751
 5132SOL     OW16294   3.576   1.560   6.792
 5132SOL    HW116295   3.536   1.517   6.711
 5132SOL    HW216296   3.507   1.619   6.835
 5133SOL     OW16297   4.959   4.525   6.857
 5133SOL    HW116298   5.058   4.536   6.850
 5133SOL    HW216299   4.913   4.590   6.796
 5134SOL     OW16300   5.616   5.646   0.586
 5134SOL    HW116301   5.658   5.558   0.565
 5134SOL    HW216302   5.527   5.632   0.629
 5135SOL     OW16303   6.846   2.557   2.395
 5135SOL    HW116304   6.869   2.509   2.310
 5135SOL    HW216305   6.859   2.495   2.472
 5136SOL     OW16306   0.911   1.464   5.594
 5136SOL    HW116307   0.821   1.461   5.551
 5136SOL    HW216308   0.977   1.502   5.530
 5137SOL     OW16309   5.542   0.415   3.367
 5137SOL    HW116310   5.469   0.450   3.425
 5137SOL    HW216311   5.631   0.439   3.407
 5138SOL     OW16312   3.249   3.302   2.299
 5138SOL    HW116313   3.172   3.253   2.258
 5138SOL    HW216314   3.237   3.400   2.286
 5139SOL     OW16315   2.918   0.569   5.705
 5139SOL    HW116316   2.849   0.561   5.633
 5139SOL    HW216317   3.009   0.574   5.663
 5140SOL     OW16318   3.384   3.485   6.410
 5140SOL    HW116319   3.420   3.564   6.361
 5140SOL    HW216320   3.388   3.404   6.351
 5141SOL     OW16321   0.189   2.700   1.124
 5141SOL    HW116322   0.186   2.601   1.108
 5141SOL    HW216323   0.110   2.727   1.179
 5142SOL     OW16324   0.738   0.040   2.481
 5142SOL    HW116325   0.792   0.102   2.424
 5142SOL    HW216326   0.748   6.965   2.448
 5143SOL     OW16327   0.267   6.390   3.181
 5143SOL    HW116328   0.267   6.416   3.277
 5143SOL    HW216329   0.180   6.347   3.157
 5144SOL     OW16330   2.456   2.797   5.354
 5144SOL    HW116331   2.464   2.721   5.289
 5144SOL    HW216332   2.470   2.884   5.305
 5145SOL     OW16333   2.321   5.473   6.031
 5145SOL    HW116334   2.274   5.554   6.067
 5145SOL    HW216335   2.279   5.390   6.069
 5146SOL     OW16336   5.736   6.131   6.786
 5146SOL    HW116337   5.733   6.173   6.695
 5146SOL    HW216338   5.758   6.201   6.854
 5147SOL     OW16339   5.299   2.215   3.633
 5147SOL    HW116340   5.248   2.301   3.633
 5147SOL    HW216341   5.265   2.155   3.706
 5148SOL     OW16342   0.319   0.734   6.745
 5148SOL    HW116343   0.256   0.801   6.782
 5148SOL    HW216344   0.302   0.645   6.787
 5149SOL     OW16345   3.850   5.745   4.198
 5149SOL    HW116346   3.837   5.808   4.121
 5149SOL    HW216347   3.935   5.768   4.246
 5150SOL     OW16348   6.055   6.695   3.745
 5150SOL    HW116349   5.983   6.672   3.810
 5150SOL    HW216350   6.118   6.761   3.786
 5151SOL     OW16351   5.500   5.906   2.151
 5151SOL    HW116352   5.445   5.955   2.083
 5151SOL    HW216353   5.528   5.970   2.223
 5152SOL     OW16354   2.215   1.649   0.281
 5152SOL    HW116355   2.257   1.614   0.197
 5152SOL    HW216356   2.173   1.574   0.331
 5153SOL     OW16357   1.254   1.930   0.521
 5153SOL    HW116358   1.341   1.908   0.476
 5153SOL    HW216359   1.269   1.938   0.619
 5154SOL     OW16360   0.722   2.598   0.893
 5154SOL    HW116361   0.770   2.521   0.851
 5154SOL    HW216362   0.773   2.682   0.878
 5155SOL     OW16363   1.417   1.605   0.207
 5155SOL    HW116364   1.412   1.604   0.307
 5155SOL    HW216365   1.325   1.593   0.169
 5156SOL     OW16366   6.138   5.563   5.333
 5156SOL    HW116367   6.152   5.605   5.243
 5156SOL    HW216368   6.054   5.509   5.331
 5157SOL     OW16369   3.461   0.663   1.465
 5157SOL    HW116370   3.427   0.573   1.491
 5157SOL    HW216371   3.384   0.723   1.443
 5158SOL     OW16372   1.123   2.439   2.113
 5158SOL    HW116373   1.134   2.534   2.143
 5158SOL    HW216374   1.193   2.416   2.046
 5159SOL     OW16375   6.098   3.413   5.795
 5159SOL    HW116376   6.037   3.351   5.744
 5159SOL    HW216377   6.096   3.504   5.753
 5160SOL     OW16378   6.448   6.677   3.702
 5160SOL    HW116379   6.372   6.740   3.716
 5160SOL    HW216380   6.531   6.714   3.743
 5161SOL     OW16381   1.030   2.091   6.980
 5161SOL    HW116382   1.129   2.098   6.988
 5161SOL    HW216383   1.007   2.021   6.912
 5162SOL     OW16384   6.830   7.003   5.092
 5162SOL    HW116385   6.903   0.025   5.037
 5162SOL    HW216386   6.863   6.919   5.135
 5163SOL     OW16387   3.310   0.125   1.689
 5163SOL    HW116388   3.322   0.026   1.696
 5163SOL    HW216389   3.283   0.162   1.778
 5164SOL     OW16390   2.540   3.911   0.473
 5164SOL    HW116391   2.529   3.879   0.379
 5164SOL    HW216392   2.455   3.895   0.524
 5165SOL     OW16393   1.232   4.302   5.720
 5165SOL    HW116394   1.219   4.235   5.647
 5165SOL    HW216395   1.314   4.279   5.772
 5166SOL     OW16396   0.376   4.663   0.178
 5166SOL    HW116397   0.301   4.601   0.205
 5166SOL    HW216398   0.384   4.736   0.246
 5167SOL     OW16399   5.520   3.022   5.360
 5167SOL    HW116400   5.468   2.963   5.422
 5167SOL    HW216401   5.459   3.062   5.292
 5168SOL     OW16402   4.307   2.061   3.407
 5168SOL    HW116403   4.323   2.118   3.326
 5168SOL    HW216404   4.269   1.973   3.379
 5169SOL     OW16405   4.999   5.387   4.554
 5169SOL    HW116406   5.044   5.328   4.620
 5169SOL    HW216407   4.998   5.343   4.464
 5170SOL     OW16408   2.470   4.170   6.356
 5170SOL    HW116409   2.395   4.205   6.412
 5170SOL    HW216410   2.433   4.126   6.274
 5171SOL     OW16411   1.968   6.769   5.820
 5171SOL    HW116412   1.871   6.745   5.824
 5171SOL    HW216413   1.980   6.844   5.754
 5172SOL     OW16414   5.807   5.595   5.732
 5172SOL    HW116415   5.799   5.496   5.746
 5172SOL    HW216416   5.888   5.629   5.780
 5173SOL     OW16417   4.580   5.647   5.209
 5173SOL    HW116418   4.549   5.561   5.251
 5173SOL    HW216419   4.625   5.627   5.122
 5174SOL     OW16420   2.160   6.966   2.897
 5174SOL    HW116421   2.110   0.004   2.963
 5174SOL    HW216422   2.165   6.872   2.932
 5175SOL     OW16423   2.661   3.152   6.211
 5175SOL    HW116424   2.696   3.139   6.304
 5175SOL    HW216425   2.564   3.131   6.209
 5176SOL     OW16426   6.289   5.626   6.715
 5176SOL    HW116427   6.279   5.638   6.616
 5176SOL    HW216428   6.229   5.553   6.746
 5177SOL     OW16429   6.391   6.666   0.669
 5177SOL    HW116430   6.421   6.611   0.748
 5177SOL    HW216431   6.432   6.630   0.586
 5178SOL     OW16432   0.702   4.379   1.376
 5178SOL    HW116433   0.653   4.296   1.349
 5178SOL    HW216434   0.750   4.416   1.297
 5179SOL     OW16435   5.188   5.988   3.322
 5179SOL    HW116436   5.250   6.060   3.292
 5179SOL    HW216437   5.177   5.921   3.248
 5180SOL     OW16438   1.411   4.218   2.524
 5180SOL    HW116439   1.408   4.118   2.519
 5180SOL    HW216440   1.351   4.257   2.455
 5181SOL     OW16441   6.508   1.241   5.574
 5181SOL    HW116442   6.467   1.193   5.497
 5181SOL    HW216443   6.439   1.257   5.644
 5182SOL     OW16444   2.388   6.477   2.761
 5182SOL    HW116445   2.441   6.543   2.816
 5182SOL    HW216446   2.297   6.514   2.745
 5183SOL     OW16447   4.215   2.360   3.871
 5183SOL    HW116448   4.262   2.331   3.787
 5183SOL    HW216449   4.168   2.446   3.854
 5184SOL     OW16450   1.506   1.523   3.420
 5184SOL    HW116451   1.454   1.481   3.495
 5184SOL    HW216452   1.554   1.604   3.454
 5185SOL     OW16453   7.015   0.470   2.588
 5185SOL    HW116454   0.041   0.558   2.605
 5185SOL    HW216455   6.990   0.428   2.675
 5186SOL     OW16456   6.625   3.473   6.718
 5186SOL    HW116457   6.528   3.449   6.724
 5186SOL    HW216458   6.666   3.424   6.641
 5187SOL     OW16459   1.472   5.030   4.988
 5187SOL    HW116460   1.568   5.030   5.015
 5187SOL    HW216461   1.430   4.943   5.012
 5188SOL     OW16462   6.361   0.317   2.619
 5188SOL    HW116463   6.450   0.306   2.575
 5188SOL    HW216464   6.358   0.405   2.666
 5189SOL     OW16465   4.658   6.507   6.940
 5189SOL    HW116466   4.642   6.589   6.884
 5189SOL    HW216467   4.583   6.443   6.927
 5190SOL     OW16468   1.969   4.503   0.218
 5190SOL    HW116469   2.031   4.436   0.260
 5190SOL    HW216470   2.019   4.555   0.149
 5191SOL     OW16471   2.580   4.504   1.824
 5191SOL    HW116472   2.594   4.593   1.781
 5191SOL    HW216473   2.669   4.459   1.837
 5192SOL     OW16474   1.033   4.821   2.345
 5192SOL    HW116475   1.095   4.868   2.409
 5192SOL    HW216476   1.077   4.738   2.311
 5193SOL     OW16477   5.042   0.804   5.617
 5193SOL    HW116478   4.964   0.824   5.676
 5193SOL    HW216479   5.115   0.762   5.672
 5194SOL     OW16480   4.656   1.391   5.393
 5194SOL    HW116481   4.618   1.322   5.331
 5194SOL    HW216482   4.688   1.345   5.476
 5195SOL     OW16483   0.579   0.380   5.386
 5195SOL    HW116484   0.589   0.284   5.411
 5195SOL    HW216485   0.547   0.432   5.465
 5196SOL     OW16486   5.316   6.506   3.650
 5196SOL    HW116487   5.350   6.432   3.592
 5196SOL    HW216488   5.222   6.529   3.623
 5197SOL     OW16489   1.171   2.779   4.753
 5197SOL    HW116490   1.249   2.842   4.758
 5197SOL    HW216491   1.094   2.817   4.805
 5198SOL     OW16492   5.806   5.237   3.019
 5198SOL    HW116493   5.748   5.236   2.937
 5198SOL    HW216494   5.788   5.319   3.072
 5199SOL     OW16495   0.209   4.856   0.952
 5199SOL    HW116496   0.275   4.850   0.876
 5199SOL    HW216497   0.122   4.891   0.918
 5200SOL     OW16498   6.844   3.726   5.407
 5200SOL    HW116499   6.942   3.713   5.421
 5200SOL    HW216500   6.793   3.683   5.482
 5201SOL     OW16501   0.158   5.865   4.579
 5201SOL    HW116502   0.159   5.866   4.679
 5201SOL    HW216503   0.244   5.903   4.544
 5202SOL     OW16504   0.931   4.600   1.421
 5202SOL    HW116505   0.999   4.596   1.348
 5202SOL    HW216506   0.940   4.520   1.480
 5203SOL     OW16507   6.735   3.083   6.703
 5203SOL    HW116508   6.783   3.001   6.669
 5203SOL    HW216509   6.731   3.151   6.630
 5204SOL     OW16510   4.875   4.696   6.637
 5204SOL    HW116511   4.933   4.771   6.603
 5204SOL    HW216512   4.830   4.652   6.560
 5205SOL     OW16513   1.250   0.158   0.110
 5205SOL    HW116514   1.204   0.086   0.058
 5205SOL    HW216515   1.319   0.117   0.170
 5206SOL     OW16516   0.497   3.721   5.302
 5206SOL    HW116517   0.484   3.749   5.207
 5206SOL    HW216518   0.593   3.699   5.318
 5207SOL     OW16519   1.885   4.604   3.791
 5207SOL    HW116520   1.801   4.604   3.844
 5207SOL    HW216521   1.880   4.533   3.721
 5208SOL     OW16522   4.765   0.727   0.033
 5208SOL    HW116523   4.798   0.763   6.964
 5208SOL    HW216524   4.678   0.681   0.019
 5209SOL     OW16525   6.255   5.811   3.447
 5209SOL    HW116526   6.335   5.863   3.475
 5209SOL    HW216527   6.179   5.829   3.510
 5210SOL     OW16528   4.869   3.903   3.101
 5210SOL    HW116529   4.791   3.957   3.069
 5210SOL    HW216530   4.945   3.963   3.122
 5211SOL     OW16531   3.831   3.997   2.290
 5211SOL    HW116532   3.757   4.064   2.287
 5211SOL    HW216533   3.873   3.998   2.381
 5212SOL     OW16534   1.232   0.744   0.392
 5212SOL    HW116535   1.323   0.753   0.433
 5212SOL    HW216536   1.165   0.732   0.465
 5213SOL     OW16537   4.254   2.513   6.251
 5213SOL    HW116538   4.326   2.450   6.280
 5213SOL    HW216539   4.167   2.464   6.250
 5214SOL     OW16540   5.579   1.530   6.923
 5214SOL    HW116541   5.578   1.628   6.901
 5214SOL    HW216542   5.673   1.496   6.921
 5215SOL     OW16543   5.611   5.261   2.809
 5215SOL    HW116544   5.538   5.193   2.816
 5215SOL    HW216545   5.572   5.353   2.812
 5216SOL     OW16546   4.762   5.695   1.282
 5216SOL    HW116547   4.824   5.696   1.204
 5216SOL    HW216548   4.670   5.720   1.253
 5217SOL     OW16549   2.928   5.035   3.804
 5217SOL    HW116550   2.978   5.041   3.718
 5217SOL    HW216551   2.990   5.007   3.877
 5218SOL     OW16552   1.984   0.339   4.209
 5218SOL    HW116553   1.886   0.351   4.196
 5218SOL    HW216554   2.013   0.251   4.171
 5219SOL     OW16555   2.734   5.976   0.785
 5219SOL    HW116556   2.696   5.893   0.827
 5219SOL    HW216557   2.660   6.040   0.764
 5220SOL     OW16558   1.335   0.038   1.902
 5220SOL    HW116559   1.335   0.130   1.939
 5220SOL    HW216560   1.306   0.041   1.806
 5221SOL     OW16561   4.490   1.757   5.643
 5221SOL    HW116562   4.547   1.834   5.673
 5221SOL    HW216563   4.521   1.725   5.554
 5222SOL     OW16564   0.850   0.335   2.793
 5222SOL    HW116565   0.878   0.245   2.828
 5222SOL    HW216566   0.751   0.336   2.777
 5223SOL     OW16567   4.965   6.933   0.632
 5223SOL    HW116568   5.060   6.963   0.642
 5223SOL    HW216569   4.904   7.005   0.665
 5224SOL     OW16570   5.398   1.215   2.950
 5224SOL    HW116571   5.313   1.268   2.957
 5224SOL    HW216572   5.415   1.168   3.036
 5225SOL     OW16573   6.180   6.634   5.673
 5225SOL    HW116574   6.251   6.639   5.743
 5225SOL    HW216575   6.168   6.539   5.644
 5226SOL     OW16576   2.103   6.700   3.683
 5226SOL    HW116577   2.032   6.655   3.737
 5226SOL    HW216578   2.173   6.633   3.659
 5227SOL     OW16579   5.116   3.370   3.530
 5227SOL    HW116580   5.190   3.421   3.574
 5227SOL    HW216581   5.087   3.416   3.447
 5228SOL     OW16582   5.346   0.637   0.955
 5228SOL    HW116583   5.299   0.645   0.867
 5228SOL    HW216584   5.295   0.575   1.015
 5229SOL     OW16585   0.763   4.478   3.862
 5229SOL    HW116586   0.786   4.431   3.947
 5229SOL    HW216587   0.790   4.574   3.868
 5230SOL     OW16588   1.084   6.289   6.220
 5230SOL    HW116589   1.004   6.347   6.202
 5230SOL    HW216590   1.054   6.202   6.258
 5231SOL     OW16591   3.660   3.083   3.351
 5231SOL    HW116592   3.677   2.993   3.311
 5231SOL    HW216593   3.680   3.154   3.283
 5232SOL     OW16594   5.040   3.161   5.209
 5232SOL    HW116595   5.027   3.076   5.158
 5232SOL    HW216596   5.013   3.238   5.151
 5233SOL     OW16597   0.540   0.633   2.948
 5233SOL    HW116598   0.515   0.554   2.892
 5233SOL    HW216599   0.633   0.621   2.984
 5234SOL     OW16600   4.427   5.776   1.490
 5234SOL    HW116601   4.519   5.814   1.500
 5234SOL    HW216602   4.396   5.789   1.396
 5235SOL     OW16603   0.953   3.511   0.973
 5235SOL    HW116604   0.950   3.494   0.875
 5235SOL    HW216605   0.994   3.432   1.019
 5236SOL     OW16606   5.449   3.207   0.991
 5236SOL    HW116607   5.486   3.115   0.987
 5236SOL    HW216608   5.402   3.228   0.905
 5237SOL     OW16609   2.220   2.135   4.267
 5237SOL    HW116610   2.149   2.104   4.204
 5237SOL    HW216611   2.186   2.130   4.361
 5238SOL     OW16612   2.008   4.112   1.191
 5238SOL    HW116613   2.081   4.162   1.145
 5238SOL    HW216614   2.046   4.063   1.270
 5239SOL     OW16615   3.344   3.429   5.346
 5239SOL    HW116616   3.377   3.348   5.297
 5239SOL    HW216617   3.346   3.508   5.284
 5240SOL     OW16618   2.430   1.922   4.956
 5240SOL    HW116619   2.525   1.914   4.989
 5240SOL    HW216620   2.385   1.996   5.005
 5241SOL     OW16621   2.961   5.718   5.861
 5241SOL    HW116622   2.991   5.729   5.767
 5241SOL    HW216623   3.031   5.669   5.914
 5242SOL     OW16624   4.321   0.781   5.818
 5242SOL    HW116625   4.240   0.784   5.759
 5242SOL    HW216626   4.295   0.749   5.909
 5243SOL     OW16627   0.725   3.998   0.386
 5243SOL    HW116628   0.781   4.056   0.328
 5243SOL    HW216629   0.714   4.041   0.476
 5244SOL     OW16630   5.828   3.900   6.673
 5244SOL    HW116631   5.803   3.834   6.603
 5244SOL    HW216632   5.927   3.896   6.689
 5245SOL     OW16633   4.446   4.174   6.728
 5245SOL    HW116634   4.532   4.136   6.761
 5245SOL    HW216635   4.452   4.190   6.630
 5246SOL     OW16636   0.683   3.502   2.833
 5246SOL    HW116637   0.611   3.540   2.775
 5246SOL    HW216638   0.724   3.575   2.888
 5247SOL     OW16639   0.165   5.336   0.631
 5247SOL    HW116640   0.206   5.253   0.671
 5247SOL    HW216641   0.074   5.349   0.670
 5248SOL     OW16642   4.546   0.326   6.847
 5248SOL    HW116643   4.603   0.247   6.865
 5248SOL    HW216644   4.599   0.396   6.799
 5249SOL     OW16645   1.457   5.568   5.738
 5249SOL    HW116646   1.396   5.641   5.769
 5249SOL    HW216647   1.526   5.605   5.677
 5250SOL     OW16648   0.503   1.347   5.798
 5250SOL    HW116649   0.525   1.439   5.765
 5250SOL    HW216650   0.584   1.289   5.790
 5251SOL     OW16651   0.404   2.720   1.331
 5251SOL    HW116652   0.362   2.708   1.241
 5251SOL    HW216653   0.346   2.779   1.387
 5252SOL     OW16654   4.363   6.725   0.848
 5252SOL    HW116655   4.293   6.719   0.918
 5252SOL    HW216656   4.321   6.725   0.757
 5253SOL     OW16657   5.950   2.654   3.198
 5253SOL    HW116658   5.956   2.554   3.207
 5253SOL    HW216659   5.922   2.693   3.285
 5254SOL     OW16660   4.345   1.018   4.411
 5254SOL    HW116661   4.273   1.066   4.462
 5254SOL    HW216662   4.435   1.043   4.449
 5255SOL     OW16663   3.643   6.756   4.539
 5255SOL    HW116664   3.579   6.811   4.592
 5255SOL    HW216665   3.652   6.666   4.581
 5256SOL     OW16666   5.665   6.784   2.125
 5256SOL    HW116667   5.630   6.851   2.191
 5256SOL    HW216668   5.680   6.697   2.171
 5257SOL     OW16669   3.408   0.946   2.549
 5257SOL    HW116670   3.335   0.997   2.504
 5257SOL    HW216671   3.489   1.003   2.556
 5258SOL     OW16672   5.953   2.205   1.819
 5258SOL    HW116673   5.892   2.181   1.895
 5258SOL    HW216674   5.934   2.298   1.790
 5259SOL     OW16675   5.534   4.473   2.024
 5259SOL    HW116676   5.604   4.429   2.080
 5259SOL    HW216677   5.454   4.413   2.018
 5260SOL     OW16678   5.204   3.329   2.009
 5260SOL    HW116679   5.204   3.411   2.065
 5260SOL    HW216680   5.116   3.283   2.015
 5261SOL     OW16681   2.520   2.414   4.681
 5261SOL    HW116682   2.567   2.462   4.755
 5261SOL    HW216683   2.510   2.317   4.705
 5262SOL     OW16684   2.448   0.207   2.325
 5262SOL    HW116685   2.414   0.291   2.282
 5262SOL    HW216686   2.390   0.130   2.296
 5263SOL     OW16687   0.810   6.119   0.961
 5263SOL    HW116688   0.828   6.020   0.957
 5263SOL    HW216689   0.887   6.165   1.004
 5264SOL     OW16690   0.609   2.066   0.839
 5264SOL    HW116691   0.600   2.164   0.824
 5264SOL    HW216692   0.677   2.029   0.775
 5265SOL     OW16693   5.855   4.983   2.816
 5265SOL    HW116694   5.781   4.999   2.881
 5265SOL    HW216695   5.921   4.919   2.856
 5266SOL     OW16696   1.331   6.533   1.336
 5266SOL    HW116697   1.348   6.522   1.434
 5266SOL    HW216698   1.315   6.630   1.316
 5267SOL     OW16699   5.158   4.014   4.869
 5267SOL    HW116700   5.126   4.080   4.936
 5267SOL    HW216701   5.095   3.937   4.864
 5268SOL     OW16702   5.713   5.079   5.512
 5268SOL    HW116703   5.714   4.985   5.547
 5268SOL    HW216704   5.804   5.119   5.522
 5269SOL     OW16705   1.146   4.692   5.519
 5269SOL    HW116706   1.137   4.716   5.616
 5269SOL    HW216707   1.242   4.682   5.496
 5270SOL     OW16708   6.713   3.224   2.981
 5270SOL    HW116709   6.695   3.322   2.974
 5270SOL    HW216710   6.633   3.173   2.951
 5271SOL     OW16711   5.031   4.193   5.081
 5271SOL    HW116712   5.011   4.288   5.105
 5271SOL    HW216713   4.947   4.139   5.086
 5272SOL     OW16714   1.797   1.220   4.303
 5272SOL    HW116715   1.764   1.130   4.331
 5272SOL    HW216716   1.721   1.285   4.303
 5273SOL     OW16717   0.974   0.612   4.919
 5273SOL    HW116718   1.007   0.678   4.986
 5273SOL    HW216719   0.967   0.521   4.962
 5274SOL     OW16720   6.826   5.455   4.667
 5274SOL    HW116721   6.913   5.423   4.705
 5274SOL    HW216722   6.832   5.553   4.647
 5275SOL     OW16723   2.077   6.377   6.658
 5275SOL    HW116724   2.141   6.300   6.665
 5275SOL    HW216725   2.037   6.378   6.566
 5276SOL     OW16726   0.258   0.241   0.935
 5276SOL    HW116727   0.304   0.324   0.967
 5276SOL    HW216728   0.162   0.262   0.916
 5277SOL     OW16729   1.241   1.550   2.647
 5277SOL    HW116730   1.291   1.493   2.712
 5277SOL    HW216731   1.259   1.646   2.666
 5278SOL     OW16732   0.498   3.943   6.477
 5278SOL    HW116733   0.550   3.859   6.488
 5278SOL    HW216734   0.430   3.950   6.551
 5279SOL     OW16735   2.199   6.592   6.249
 5279SOL    HW116736   2.155   6.674   6.212
 5279SOL    HW216737   2.295   6.611   6.268
 5280SOL     OW16738   4.747   6.537   5.269
 5280SOL    HW116739   4.721   6.546   5.173
 5280SOL    HW216740   4.682   6.478   5.317
 5281SOL     OW16741   2.484   0.016   5.292
 5281SOL    HW116742   2.577   7.002   5.277
 5281SOL    HW216743   2.485   0.093   5.355
 5282SOL     OW16744   0.908   6.578   1.561
 5282SOL    HW116745   0.827   6.528   1.591
 5282SOL    HW216746   0.957   6.524   1.492
 5283SOL     OW16747   1.124   0.788   3.807
 5283SOL    HW116748   1.101   0.771   3.903
 5283SOL    HW216749   1.114   0.703   3.755
 5284SOL     OW16750   4.578   2.893   1.676
 5284SOL    HW116751   4.582   2.973   1.735
 5284SOL    HW216752   4.586   2.810   1.732
 5285SOL     OW16753   1.377   1.911   4.158
 5285SOL    HW116754   1.327   1.993   4.130
 5285SOL    HW216755   1.474   1.922   4.134
 5286SOL     OW16756   5.692   3.280   1.216
 5286SOL    HW116757   5.650   3.367   1.189
 5286SOL    HW216758   5.777   3.299   1.266
 5287SOL     OW16759   2.165   4.686   1.009
 5287SOL    HW116760   2.200   4.599   0.974
 5287SOL    HW216761   2.209   4.762   0.960
 5288SOL     OW16762   4.174   0.775   1.190
 5288SOL    HW116763   4.116   0.789   1.271
 5288SOL    HW216764   4.204   0.680   1.186
 5289SOL     OW16765   2.482   4.780   5.998
 5289SOL    HW116766   2.423   4.712   5.955
 5289SOL    HW216767   2.578   4.758   5.980
 5290SOL     OW16768   1.860   3.320   4.512
 5290SOL    HW116769   1.818   3.274   4.590
 5290SOL    HW216770   1.851   3.419   4.525
 5291SOL     OW16771   2.804   4.762   4.477
 5291SOL    HW116772   2.749   4.845   4.465
 5291SOL    HW216773   2.781   4.721   4.565
 5292SOL     OW16774   0.462   3.439   5.388
 5292SOL    HW116775   0.547   3.448   5.440
 5292SOL    HW216776   0.447   3.521   5.333
 5293SOL     OW16777   2.252   0.485   4.254
 5293SOL    HW116778   2.340   0.462   4.297
 5293SOL    HW216779   2.192   0.527   4.323
 5294SOL     OW16780   4.017   0.048   5.051
 5294SOL    HW116781   4.080   0.089   4.985
 5294SOL    HW216782   4.043   6.972   5.067
 5295SOL     OW16783   3.076   1.360   2.312
 5295SOL    HW116784   3.115   1.447   2.283
 5295SOL    HW216785   3.073   1.356   2.412
 5296SOL     OW16786   4.690   4.921   1.275
 5296SOL    HW116787   4.696   4.847   1.342
 5296SOL    HW216788   4.652   5.002   1.318
 5297SOL     OW16789   2.888   5.254   6.616
 5297SOL    HW116790   2.952   5.275   6.542
 5297SOL    HW216791   2.798   5.234   6.577
 5298SOL     OW16792   2.099   0.271   0.459
 5298SOL    HW116793   2.124   0.299   0.552
 5298SOL    HW216794   2.001   0.285   0.445
 5299SOL     OW16795   2.407   1.192   1.595
 5299SOL    HW116796   2.338   1.206   1.666
 5299SOL    HW216797   2.490   1.243   1.619
 5300SOL     OW16798   2.810   4.841   6.793
 5300SOL    HW116799   2.834   4.847   6.696
 5300SOL    HW216800   2.834   4.927   6.838
 5301SOL     OW16801   5.407   6.927   5.652
 5301SOL    HW116802   5.380   6.851   5.593
 5301SOL    HW216803   5.481   6.978   5.609
 5302SOL     OW16804   5.651   6.275   3.266
 5302SOL    HW116805   5.700   6.246   3.348
 5302SOL    HW216806   5.709   6.262   3.186
 5303SOL     OW16807   0.971   5.398   6.109
 5303SOL    HW116808   1.011   5.307   6.117
 5303SOL    HW216809   1.041   5.467   6.128
 5304SOL     OW16810   0.113   0.706   2.637
 5304SOL    HW116811   0.115   0.709   2.737
 5304SOL    HW216812   0.120   0.798   2.601
 5305SOL     OW16813   0.560   4.874   3.529
 5305SOL    HW116814   0.657   4.881   3.550
 5305SOL    HW216815   0.521   4.965   3.521
 5306SOL     OW16816   6.985   3.295   5.919
 5306SOL    HW116817   6.943   3.383   5.898
 5306SOL    HW216818   0.048   3.282   5.863
 5307SOL     OW16819   6.550   1.351   1.502
 5307SOL    HW116820   6.569   1.297   1.583
 5307SOL    HW216821   6.614   1.327   1.429
 5308SOL     OW16822   1.368   4.047   3.057
 5308SOL    HW116823   1.432   4.122   3.073
 5308SOL    HW216824   1.388   3.972   3.120
 5309SOL     OW16825   6.187   5.746   2.602
 5309SOL    HW116826   6.187   5.658   2.650
 5309SOL    HW216827   6.280   5.784   2.604
 5310SOL     OW16828   5.132   2.755   2.551
 5310SOL    HW116829   5.124   2.742   2.452
 5310SOL    HW216830   5.178   2.677   2.592
 5311SOL     OW16831   5.840   0.246   0.733
 5311SOL    HW116832   5.850   0.239   0.832
 5311SOL    HW216833   5.881   0.166   0.689
 5312SOL     OW16834   6.930   6.718   0.329
 5312SOL    HW116835   0.010   6.732   0.326
 5312SOL    HW216836   6.895   6.747   0.419
 5313SOL     OW16837   1.027   6.103   5.970
 5313SOL    HW116838   0.933   6.107   6.006
 5313SOL    HW216839   1.026   6.126   5.873
 5314SOL     OW16840   6.009   0.921   1.882
 5314SOL    HW116841   6.054   0.891   1.966
 5314SOL    HW216842   6.066   0.899   1.803
 5315SOL     OW16843   4.620   1.336   4.463
 5315SOL    HW116844   4.583   1.289   4.383
 5315SOL    HW216845   4.620   1.434   4.447
 5316SOL     OW16846   0.681   2.311   4.433
 5316SOL    HW116847   0.595   2.266   4.411
 5316SOL    HW216848   0.709   2.370   4.357
 5317SOL     OW16849   6.049   2.735   6.606
 5317SOL    HW116850   6.069   2.714   6.702
 5317SOL    HW216851   6.042   2.834   6.595
 5318SOL     OW16852   6.727   4.093   6.496
 5318SOL    HW116853   6.694   3.999   6.486
 5318SOL    HW216854   6.824   4.096   6.473
 5319SOL     OW16855   4.310   6.763   1.636
 5319SOL    HW116856   4.276   6.725   1.549
 5319SOL    HW216857   4.363   6.845   1.617
 5320SOL     OW16858   3.674   5.772   0.917
 5320SOL    HW116859   3.722   5.684   0.920
 5320SOL    HW216860   3.602   5.774   0.986
 5321SOL     OW16861   1.672   4.498   4.888
 5321SOL    HW116862   1.623   4.411   4.900
 5321SOL    HW216863   1.770   4.481   4.879
 5322SOL     OW16864   5.314   6.568   1.989
 5322SOL    HW116865   5.352   6.661   1.984
 5322SOL    HW216866   5.240   6.559   1.923
 5323SOL     OW16867   3.794   0.818   6.081
 5323SOL    HW116868   3.791   0.821   6.181
 5323SOL    HW216869   3.844   0.898   6.047
 5324SOL     OW16870   2.023   1.297   1.063
 5324SOL    HW116871   1.990   1.220   1.009
 5324SOL    HW216872   2.113   1.326   1.030
 5325SOL     OW16873   2.059   1.991   4.954
 5325SOL    HW116874   2.004   2.043   5.019
 5325SOL    HW216875   2.156   2.005   4.974
 5326SOL     OW16876   6.372   5.966   2.007
 5326SOL    HW116877   6.462   5.951   1.968
 5326SOL    HW216878   6.364   6.060   2.039
 5327SOL     OW16879   6.136   2.443   5.149
 5327SOL    HW116880   6.137   2.368   5.215
 5327SOL    HW216881   6.043   2.478   5.141
 5328SOL     OW16882   4.482   5.149   6.504
 5328SOL    HW116883   4.410   5.207   6.542
 5328SOL    HW216884   4.498   5.173   6.408
 5329SOL     OW16885   1.193   6.604   6.748
 5329SOL    HW116886   1.284   6.644   6.762
 5329SOL    HW216887   1.149   6.647   6.669
 5330SOL     OW16888   2.413   4.172   0.543
 5330SOL    HW116889   2.447   4.119   0.466
 5330SOL    HW216890   2.463   4.147   0.626
 5331SOL     OW16891   6.100   0.802   6.721
 5331SOL    HW116892   6.106   0.740   6.799
 5331SOL    HW216893   6.188   0.848   6.709
 5332SOL     OW16894   1.284   5.008   2.203
 5332SOL    HW116895   1.200   5.034   2.156
 5332SOL    HW216896   1.315   4.919   2.168
 5333SOL     OW16897   0.788   6.181   4.272
 5333SOL    HW116898   0.786   6.276   4.303
 5333SOL    HW216899   0.762   6.177   4.176
 5334SOL     OW16900   2.814   0.313   4.311
 5334SOL    HW116901   2.885   0.254   4.273
 5334SOL    HW216902   2.828   0.323   4.409
 5335SOL     OW16903   6.672   5.753   0.123
 5335SOL    HW116904   6.626   5.732   0.037
 5335SOL    HW216905   6.701   5.849   0.123
 5336SOL     OW16906   1.074   3.801   1.579
 5336SOL    HW116907   1.071   3.758   1.489
 5336SOL    HW216908   1.038   3.894   1.574
 5337SOL     OW16909   5.328   4.361   1.185
 5337SOL    HW116910   5.317   4.433   1.117
 5337SOL    HW216911   5.239   4.338   1.223
 5338SOL     OW16912   6.358   2.032   6.689
 5338SOL    HW116913   6.328   2.099   6.622
 5338SOL    HW216914   6.399   1.953   6.642
 5339SOL     OW16915   6.297   1.072   3.072
 5339SOL    HW116916   6.295   1.171   3.083
 5339SOL    HW216917   6.393   1.041   3.070
 5340SOL     OW16918   5.408   2.200   6.178
 5340SOL    HW116919   5.426   2.221   6.082
 5340SOL    HW216920   5.428   2.104   6.196
 5341SOL     OW16921   4.368   0.361   0.383
 5341SOL    HW116922   4.371   0.326   0.290
 5341SOL    HW216923   4.401   0.456   0.384
 5342SOL     OW16924   3.016   1.046   5.584
 5342SOL    HW116925   3.115   1.038   5.571
 5342SOL    HW216926   2.988   0.992   5.663
 5343SOL     OW16927   3.616   3.750   2.215
 5343SOL    HW116928   3.695   3.804   2.244
 5343SOL    HW216929   3.532   3.799   2.238
 5344SOL     OW16930   2.681   2.030   3.073
 5344SOL    HW116931   2.599   1.980   3.099
 5344SOL    HW216932   2.681   2.044   2.974
 5345SOL     OW16933   4.603   6.542   1.794
 5345SOL    HW116934   4.572   6.531   1.700
 5345SOL    HW216935   4.526   6.567   1.852
 5346SOL     OW16936   2.652   6.522   3.115
 5346SOL    HW116937   2.625   6.566   3.201
 5346SOL    HW216938   2.596   6.441   3.100
 5347SOL     OW16939   7.013   1.720   1.883
 5347SOL    HW116940   0.054   1.696   1.959
 5347SOL    HW216941   6.928   1.668   1.890
 5348SOL     OW16942   0.277   1.041   0.493
 5348SOL    HW116943   0.366   1.036   0.538
 5348SOL    HW216944   0.289   1.031   0.394
 5349SOL     OW16945   6.205   0.900   1.706
 5349SOL    HW116946   6.301   0.913   1.732
 5349SOL    HW216947   6.168   0.986   1.671
 5350SOL     OW16948   2.472   1.477   6.708
 5350SOL    HW116949   2.508   1.570   6.697
 5350SOL    HW216950   2.379   1.473   6.669
 5351SOL     OW16951   4.788   0.878   2.173
 5351SOL    HW116952   4.826   0.796   2.216
 5351SOL    HW216953   4.849   0.910   2.101
 5352SOL     OW16954   3.438   5.907   3.642
 5352SOL    HW116955   3.373   5.949   3.705
 5352SOL    HW216956   3.491   5.837   3.691
 5353SOL     OW16957   5.932   6.620   5.501
 5353SOL    HW116958   6.014   6.632   5.557
 5353SOL    HW216959   5.902   6.524   5.505
 5354SOL     OW16960   0.701   3.900   0.859
 5354SOL    HW116961   0.651   3.984   0.878
 5354SOL    HW216962   0.637   3.825   0.844
 5355SOL     OW16963   4.217   2.008   5.146
 5355SOL    HW116964   4.134   1.992   5.199
 5355SOL    HW216965   4.259   2.095   5.176
 5356SOL     OW16966   6.268   3.837   1.208
 5356SOL    HW116967   6.299   3.827   1.114
 5356SOL    HW216968   6.170   3.816   1.213
 5357SOL     OW16969   3.646   6.502   0.561
 5357SOL    HW116970   3.614   6.596   0.573
 5357SOL    HW216971   3.653   6.482   0.464
 5358SOL     OW16972   4.737   2.706   0.976
 5358SOL    HW116973   4.804   2.776   1.000
 5358SOL    HW216974   4.739   2.633   1.044
 5359SOL     OW16975   2.045   0.648   6.571
 5359SOL    HW116976   2.008   0.741   6.574
 5359SOL    HW216977   2.144   0.651   6.588
 5360SOL     OW16978   3.646   0.345   6.732
 5360SOL    HW116979   3.646   0.353   6.831
 5360SOL    HW216980   3.568   0.290   6.703
 5361SOL     OW16981   1.794   0.527   5.508
 5361SOL    HW116982   1.844   0.585   5.443
 5361SOL    HW216983   1.801   0.568   5.600
 5362SOL     OW16984   4.315   5.820   3.280
 5362SOL    HW116985   4.388   5.886   3.296
 5362SOL    HW216986   4.257   5.852   3.205
 5363SOL     OW16987   0.476   5.442   6.111
 5363SOL    HW116988   0.566   5.402   6.129
 5363SOL    HW216989   0.473   5.534   6.148
 5364SOL     OW16990   0.558   6.162   0.616
 5364SOL    HW116991   0.630   6.183   0.549
 5364SOL    HW216992   0.529   6.246   0.661
 5365SOL     OW16993   4.163   2.054   6.241
 5365SOL    HW116994   4.145   2.132   6.300
 5365SOL    HW216995   4.216   2.084   6.162
 5366SOL     OW16996   3.990   3.534   0.107
 5366SOL    HW116997   4.078   3.526   0.060
 5366SOL    HW216998   3.990   3.616   0.164
 5367SOL     OW16999   0.024   4.369   0.914
 5367SOL    HW117000   6.987   4.447   0.887
 5367SOL    HW217001   0.007   4.347   1.010
 5368SOL     OW17002   6.254   1.464   3.897
 5368SOL    HW117003   6.258   1.552   3.945
 5368SOL    HW217004   6.322   1.463   3.825
 5369SOL     OW17005   1.970   4.160   2.577
 5369SOL    HW117006   2.060   4.116   2.571
 5369SOL    HW217007   1.953   4.211   2.493
 5370SOL     OW17008   4.128   2.907   1.422
 5370SOL    HW117009   4.207   2.855   1.393
 5370SOL    HW217010   4.120   2.902   1.522
 5371SOL     OW17011   1.061   3.936   5.478
 5371SOL    HW117012   1.090   3.854   5.428
 5371SOL    HW217013   1.054   4.013   5.414
 5372SOL     OW17014   2.381   5.228   3.016
 5372SOL    HW117015   2.301   5.224   3.075
 5372SOL    HW217016   2.414   5.135   2.999
 5373SOL     OW17017   2.905   5.046   3.352
 5373SOL    HW117018   2.835   5.039   3.280
 5373SOL    HW217019   2.878   5.116   3.418
 5374SOL     OW17020   2.984   2.240   0.757
 5374SOL    HW117021   2.920   2.289   0.816
 5374SOL    HW217022   3.063   2.210   0.810
 5375SOL     OW17023   2.031   4.817   3.693
 5375SOL    HW117024   2.005   4.844   3.601
 5375SOL    HW217025   1.958   4.762   3.734
 5376SOL     OW17026   2.085   4.075   0.866
 5376SOL    HW117027   2.046   4.031   0.947
 5376SOL    HW217028   2.013   4.118   0.813
 5377SOL     OW17029   0.681   1.981   1.240
 5377SOL    HW117030   0.757   2.045   1.251
 5377SOL    HW217031   0.602   2.016   1.291
 5378SOL     OW17032   5.253   0.293   0.323
 5378SOL    HW117033   5.161   0.312   0.288
 5378SOL    HW217034   5.281   0.367   0.384
 5379SOL     OW17035   0.175   6.577   1.617
 5379SOL    HW117036   0.120   6.605   1.696
 5379SOL    HW217037   0.256   6.528   1.649
 5380SOL     OW17038   3.069   0.251   4.170
 5380SOL    HW117039   3.100   0.333   4.121
 5380SOL    HW217040   3.076   0.171   4.109
 5381SOL     OW17041   5.662   4.149   1.577
 5381SOL    HW117042   5.727   4.101   1.518
 5381SOL    HW217043   5.604   4.210   1.522
 5382SOL     OW17044   1.662   6.950   1.491
 5382SOL    HW117045   1.636   6.927   1.584
 5382SOL    HW217046   1.756   6.983   1.489
 5383SOL     OW17047   2.432   2.168   5.285
 5383SOL    HW117048   2.408   2.114   5.366
 5383SOL    HW217049   2.435   2.265   5.309
 5384SOL     OW17050   5.944   6.703   4.447
 5384SOL    HW117051   5.861   6.662   4.484
 5384SOL    HW217052   6.007   6.631   4.419
 5385SOL     OW17053   3.571   4.099   2.184
 5385SOL    HW117054   3.532   4.029   2.124
 5385SOL    HW217055   3.497   4.152   2.224
 5386SOL     OW17056   5.169   6.461   5.582
 5386SOL    HW117057   5.259   6.490   5.549
 5386SOL    HW217058   5.110   6.438   5.504
 5387SOL     OW17059   2.758   5.560   1.917
 5387SOL    HW117060   2.733   5.588   2.009
 5387SOL    HW217061   2.853   5.586   1.898
 5388SOL     OW17062   5.641   0.306   2.743
 5388SOL    HW117063   5.600   0.241   2.807
 5388SOL    HW217064   5.659   0.261   2.656
 5389SOL     OW17065   4.897   2.050   1.447
 5389SOL    HW117066   4.957   1.973   1.427
 5389SOL    HW217067   4.812   2.016   1.489
 5390SOL     OW17068   6.115   4.914   5.881
 5390SOL    HW117069   6.096   4.990   5.820
 5390SOL    HW217070   6.055   4.837   5.858
 5391SOL     OW17071   2.514   3.014   6.914
 5391SOL    HW117072   2.565   3.089   6.872
 5391SOL    HW217073   2.543   3.002   7.008
 5392SOL     OW17074   6.232   2.929   2.394
 5392SOL    HW117075   6.205   3.014   2.349
 5392SOL    HW217076   6.330   2.913   2.381
 5393SOL     OW17077   6.115   0.133   6.800
 5393SOL    HW117078   6.199   0.084   6.781
 5393SOL    HW217079   6.046   0.109   6.731
 5394SOL     OW17080   1.026   4.099   6.080
 5394SOL    HW117081   0.984   4.174   6.132
 5394SOL    HW217082   0.976   4.014   6.099
 5395SOL     OW17083   4.483   1.489   0.318
 5395SOL    HW117084   4.465   1.549   0.396
 5395SOL    HW217085   4.561   1.524   0.267
 5396SOL     OW17086   5.324   3.133   2.577
 5396SOL    HW117087   5.364   3.205   2.633
 5396SOL    HW217088   5.228   3.123   2.599
 5397SOL     OW17089   6.941   2.801   1.228
 5397SOL    HW117090   6.916   2.895   1.251
 5397SOL    HW217091   6.871   2.738   1.262
 5398SOL     OW17092   3.828   2.800   1.882
 5398SOL    HW117093   3.820   2.865   1.806
 5398SOL    HW217094   3.824   2.849   1.969
 5399SOL     OW17095   1.053   5.660   0.605
 5399SOL    HW117096   1.058   5.639   0.702
 5399SOL    HW217097   1.084   5.582   0.551
 5400SOL     OW17098   2.925   4.789   0.195
 5400SOL    HW117099   2.836   4.746   0.182
 5400SOL    HW217100   2.989   4.756   0.126
 5401SOL     OW17101   6.162   2.948   1.290
 5401SOL    HW117102   6.237   2.985   1.345
 5401SOL    HW217103   6.182   2.852   1.268
 5402SOL     OW17104   1.734   6.158   2.609
 5402SOL    HW117105   1.764   6.253   2.611
 5402SOL    HW217106   1.671   6.141   2.685
 5403SOL     OW17107   0.103   2.978   6.528
 5403SOL    HW117108   0.157   2.987   6.612
 5403SOL    HW217109   0.012   2.945   6.550
 5404SOL     OW17110   1.699   3.179   2.851
 5404SOL    HW117111   1.730   3.262   2.896
 5404SOL    HW217112   1.669   3.112   2.919
 5405SOL     OW17113   6.866   4.492   6.079
 5405SOL    HW117114   6.873   4.393   6.094
 5405SOL    HW217115   6.773   4.515   6.049
 5406SOL     OW17116   2.095   0.205   5.100
 5406SOL    HW117117   2.074   0.297   5.133
 5406SOL    HW217118   2.187   0.179   5.129
 5407SOL     OW17119   3.806   3.684   6.768
 5407SOL    HW117120   3.714   3.721   6.752
 5407SOL    HW217121   3.801   3.609   6.833
 5408SOL     OW17122   2.713   1.043   6.934
 5408SOL    HW117123   2.749   1.136   6.943
 5408SOL    HW217124   2.786   0.982   6.902
 5409SOL     OW17125   3.739   1.027   2.553
 5409SOL    HW117126   3.781   0.938   2.572
 5409SOL    HW217127   3.782   1.066   2.471
 5410SOL     OW17128   2.182   2.351   2.222
 5410SOL    HW117129   2.126   2.409   2.281
 5410SOL    HW217130   2.279   2.367   2.239
 5411SOL     OW17131   0.768   5.320   4.829
 5411SOL    HW117132   0.789   5.222   4.837
 5411SOL    HW217133   0.675   5.331   4.793
 5412SOL     OW17134   5.848   2.824   1.012
 5412SOL    HW117135   5.942   2.843   0.982
 5412SOL    HW217136   5.843   2.832   1.111
 5413SOL     OW17137   2.290   0.197   1.827
 5413SOL    HW117138   2.281   0.112   1.880
 5413SOL    HW217139   2.362   0.186   1.759
 5414SOL     OW17140   3.801   0.669   5.715
 5414SOL    HW117141   3.831   0.764   5.725
 5414SOL    HW217142   3.713   0.667   5.667
 5415SOL     OW17143   5.937   5.075   2.292
 5415SOL    HW117144   5.995   5.136   2.346
 5415SOL    HW217145   5.947   4.981   2.326
 5416SOL     OW17146   4.367   5.507   4.546
 5416SOL    HW117147   4.357   5.542   4.453
 5416SOL    HW217148   4.325   5.417   4.553
 5417SOL     OW17149   3.009   6.900   5.149
 5417SOL    HW117150   3.073   6.965   5.190
 5417SOL    HW217151   3.060   6.835   5.092
 5418SOL     OW17152   3.890   0.188   2.799
 5418SOL    HW117153   3.976   0.177   2.849
 5418SOL    HW217154   3.845   0.099   2.792
 5419SOL     OW17155   3.290   4.238   6.674
 5419SOL    HW117156   3.387   4.226   6.657
 5419SOL    HW217157   3.242   4.257   6.588
 5420SOL     OW17158   1.133   1.520   2.936
 5420SOL    HW117159   1.125   1.584   2.859
 5420SOL    HW217160   1.076   1.440   2.919
 5421SOL     OW17161   1.273   3.670   1.759
 5421SOL    HW117162   1.188   3.676   1.706
 5421SOL    HW217163   1.334   3.744   1.732
 5422SOL     OW17164   2.197   3.557   0.853
 5422SOL    HW117165   2.189   3.482   0.918
 5422SOL    HW217166   2.290   3.594   0.855
 5423SOL     OW17167   6.243   3.879   6.719
 5423SOL    HW117168   6.212   3.784   6.722
 5423SOL    HW217169   6.172   3.939   6.756
 5424SOL     OW17170   5.388   4.280   5.073
 5424SOL    HW117171   5.468   4.230   5.038
 5424SOL    HW217172   5.339   4.222   5.138
 5425SOL     OW17173   5.282   0.529   4.495
 5425SOL    HW117174   5.339   0.577   4.429
 5425SOL    HW217175   5.224   0.463   4.448
 5426SOL     OW17176   6.460   0.378   5.515
 5426SOL    HW117177   6.447   0.415   5.423
 5426SOL    HW217178   6.448   0.278   5.513
 5427SOL     OW17179   4.084   6.082   6.965
 5427SOL    HW117180   4.083   6.177   6.934
 5427SOL    HW217181   4.139   6.075   0.029
 5428SOL     OW17182   1.156   0.605   6.847
 5428SOL    HW117183   1.232   0.578   6.907
 5428SOL    HW217184   1.191   0.630   6.757
 5429SOL     OW17185   1.427   2.725   6.556
 5429SOL    HW117186   1.381   2.636   6.554
 5429SOL    HW217187   1.525   2.713   6.543
 5430SOL     OW17188   2.410   2.656   5.628
 5430SOL    HW117189   2.507   2.667   5.649
 5430SOL    HW217190   2.398   2.647   5.530
 5431SOL     OW17191   3.684   6.083   4.726
 5431SOL    HW117192   3.740   6.143   4.783
 5431SOL    HW217193   3.654   6.133   4.644
 5432SOL     OW17194   5.482   6.352   1.290
 5432SOL    HW117195   5.496   6.447   1.263
 5432SOL    HW217196   5.411   6.347   1.360
 5433SOL     OW17197   0.436   1.751   4.135
 5433SOL    HW117198   0.402   1.704   4.216
 5433SOL    HW217199   0.507   1.817   4.162
 5434SOL     OW17200   2.860   0.014   5.750
 5434SOL    HW117201   2.849   6.933   5.750
 5434SOL    HW217202   2.941   0.038   5.697
 5435SOL     OW17203   4.352   1.128   1.777
 5435SOL    HW117204   4.327   1.224   1.796
 5435SOL    HW217205   4.436   1.126   1.724
 5436SOL     OW17206   5.330   4.118   2.577
 5436SOL    HW117207   5.300   4.205   2.539
 5436SOL    HW217208   5.428   4.121   2.595
 5437SOL     OW17209   3.191   3.561   6.759
 5437SOL    HW117210   3.271   3.510   6.727
 5437SOL    HW217211   3.115   3.497   6.774
 5438SOL     OW17212   6.491   2.002   1.349
 5438SOL    HW117213   6.392   2.004   1.336
 5438SOL    HW217214   6.530   1.928   1.294
 5439SOL     OW17215   1.475   2.240   1.311
 5439SOL    HW117216   1.440   2.149   1.288
 5439SOL    HW217217   1.485   2.248   1.410
 5440SOL     OW17218   1.384   2.221   1.009
 5440SOL    HW117219   1.375   2.135   1.059
 5440SOL    HW217220   1.477   2.257   1.019
 5441SOL     OW17221   3.691   1.623   3.924
 5441SOL    HW117222   3.703   1.563   3.845
 5441SOL    HW217223   3.599   1.662   3.922
 5442SOL     OW17224   3.930   0.794   2.662
 5442SOL    HW117225   3.964   0.741   2.584
 5442SOL    HW217226   3.974   0.884   2.663
 5443SOL     OW17227   3.205   6.772   5.031
 5443SOL    HW117228   3.211   6.728   5.120
 5443SOL    HW217229   3.289   6.754   4.979
 5444SOL     OW17230   6.811   6.898   3.406
 5444SOL    HW117231   6.738   6.835   3.430
 5444SOL    HW217232   6.900   6.857   3.426
 5445SOL     OW17233   5.410   3.830   2.313
 5445SOL    HW117234   5.406   3.806   2.216
 5445SOL    HW217235   5.412   3.747   2.368
 5446SOL     OW17236   6.453   5.171   5.684
 5446SOL    HW117237   6.396   5.248   5.714
 5446SOL    HW217238   6.548   5.190   5.706
 5447SOL     OW17239   3.308   1.935   0.719
 5447SOL    HW117240   3.250   1.855   0.708
 5447SOL    HW217241   3.379   1.934   0.648
 5448SOL     OW17242   5.465   2.384   5.712
 5448SOL    HW117243   5.447   2.429   5.624
 5448SOL    HW217244   5.559   2.405   5.741
 5449SOL     OW17245   0.943   3.462   6.594
 5449SOL    HW117246   0.924   3.369   6.625
 5449SOL    HW217247   0.913   3.472   6.499
 5450SOL     OW17248   1.833   6.939   0.778
 5450SOL    HW117249   1.905   6.998   0.741
 5450SOL    HW217250   1.867   6.891   0.859
 5451SOL     OW17251   1.504   0.286   2.458
 5451SOL    HW117252   1.583   0.308   2.400
 5451SOL    HW217253   1.455   0.208   2.419
 5452SOL     OW17254   2.856   3.844   5.839
 5452SOL    HW117255   2.907   3.788   5.903
 5452SOL    HW217256   2.769   3.800   5.818
 5453SOL     OW17257   6.035   4.983   6.792
 5453SOL    HW117258   6.059   4.899   6.744
 5453SOL    HW217259   5.993   4.961   6.880
 5454SOL     OW17260   0.074   4.576   6.727
 5454SOL    HW117261   0.061   4.601   6.823
 5454SOL    HW217262   0.099   4.480   6.720
 5455SOL     OW17263   6.158   3.262   1.295
 5455SOL    HW117264   6.218   3.281   1.217
 5455SOL    HW217265   6.212   3.224   1.370
 5456SOL     OW17266   3.581   6.764   0.609
 5456SOL    HW117267   3.665   6.813   0.586
 5456SOL    HW217268   3.504   6.805   0.561
 5457SOL     OW17269   6.391   3.753   0.670
 5457SOL    HW117270   6.330   3.680   0.639
 5457SOL    HW217271   6.467   3.763   0.605
 5458SOL     OW17272   2.497   4.192   6.794
 5458SOL    HW117273   2.565   4.123   6.769
 5458SOL    HW217274   2.406   4.150   6.792
 5459SOL     OW17275   2.208   5.038   5.993
 5459SOL    HW117276   2.180   4.951   6.033
 5459SOL    HW217277   2.155   5.056   5.910
 5460SOL     OW17278   3.255   0.446   1.128
 5460SOL    HW117279   3.355   0.451   1.127
 5460SOL    HW217280   3.225   0.407   1.215
 5461SOL     OW17281   4.414   6.730   5.237
 5461SOL    HW117282   4.502   6.756   5.277
 5461SOL    HW217283   4.423   6.724   5.138
 5462SOL     OW17284   1.007   0.120   1.434
 5462SOL    HW117285   1.088   0.119   1.375
 5462SOL    HW217286   0.972   0.027   1.445
 5463SOL     OW17287   0.031   2.736   0.534
 5463SOL    HW117288   6.958   2.721   0.500
 5463SOL    HW217289   0.090   2.768   0.459
 5464SOL     OW17290   2.189   0.107   4.224
 5464SOL    HW117291   2.214   0.102   4.127
 5464SOL    HW217292   2.271   0.093   4.280
 5465SOL     OW17293   2.762   6.739   5.443
 5465SOL    HW117294   2.835   6.674   5.462
 5465SOL    HW217295   2.712   6.759   5.527
 5466SOL     OW17296   4.570   4.462   4.479
 5466SOL    HW117297   4.496   4.519   4.443
 5466SOL    HW217298   4.613   4.411   4.404
 5467SOL     OW17299   5.897   1.847   2.038
 5467SOL    HW117300   5.829   1.774   2.045
 5467SOL    HW217301   5.962   1.824   1.965
 5468SOL     OW17302   4.234   1.466   5.547
 5468SOL    HW117303   4.135   1.474   5.534
 5468SOL    HW217304   4.281   1.514   5.473
 5469SOL     OW17305   4.352   4.491   6.499
 5469SOL    HW117306   4.335   4.437   6.416
 5469SOL    HW217307   4.440   4.538   6.491
 5470SOL     OW17308   1.288   5.258   3.451
 5470SOL    HW117309   1.265   5.276   3.547
 5470SOL    HW217310   1.300   5.345   3.404
 5471SOL     OW17311   5.995   5.499   2.102
 5471SOL    HW117312   5.955   5.408   2.091
 5471SOL    HW217313   5.998   5.524   2.199
 5472SOL     OW17314   3.923   5.014   5.470
 5472SOL    HW117315   3.959   4.923   5.489
 5472SOL    HW217316   3.929   5.070   5.552
 5473SOL     OW17317   1.338   3.310   3.705
 5473SOL    HW117318   1.402   3.270   3.771
 5473SOL    HW217319   1.374   3.397   3.672
 5474SOL     OW17320   2.136   5.593   3.453
 5474SOL    HW117321   2.084   5.667   3.497
 5474SOL    HW217322   2.112   5.589   3.356
 5475SOL     OW17323   3.093   2.594   1.396
 5475SOL    HW117324   3.079   2.568   1.491
 5475SOL    HW217325   3.190   2.585   1.373
 5476SOL     OW17326   1.116   3.284   5.776
 5476SOL    HW117327   1.134   3.284   5.874
 5476SOL    HW217328   1.071   3.198   5.750
 5477SOL     OW17329   2.117   3.176   2.454
 5477SOL    HW117330   2.068   3.171   2.541
 5477SOL    HW217331   2.161   3.088   2.435
 5478SOL     OW17332   6.564   5.975   6.156
 5478SOL    HW117333   6.630   5.901   6.165
 5478SOL    HW217334   6.578   6.021   6.068
 5479SOL     OW17335   4.904   0.541   4.745
 5479SOL    HW117336   4.848   0.459   4.746
 5479SOL    HW217337   4.893   0.591   4.831
 5480SOL     OW17338   0.106   3.675   4.577
 5480SOL    HW117339   0.109   3.768   4.541
 5480SOL    HW217340   0.197   3.634   4.568
 5481SOL     OW17341   5.000   6.646   4.316
 5481SOL    HW117342   5.020   6.554   4.347
 5481SOL    HW217343   4.902   6.654   4.293
 5482SOL     OW17344   1.595   4.506   1.567
 5482SOL    HW117345   1.566   4.462   1.651
 5482SOL    HW217346   1.522   4.501   1.499
 5483SOL     OW17347   0.385   2.922   5.891
 5483SOL    HW117348   0.395   3.006   5.839
 5483SOL    HW217349   0.323   2.860   5.843
 5484SOL     OW17350   4.569   0.161   5.055
 5484SOL    HW117351   4.622   0.231   5.104
 5484SOL    HW217352   4.497   0.126   5.115
 5485SOL     OW17353   3.190   0.156   4.617
 5485SOL    HW117354   3.284   0.153   4.583
 5485SOL    HW217355   3.188   0.132   4.714
 5486SOL     OW17356   2.511   5.830   5.189
 5486SOL    HW117357   2.600   5.876   5.191
 5486SOL    HW217358   2.524   5.731   5.192
 5487SOL     OW17359   3.192   5.337   5.605
 5487SOL    HW117360   3.249   5.363   5.528
 5487SOL    HW217361   3.235   5.368   5.690
 5488SOL     OW17362   5.494   2.610   0.833
 5488SOL    HW117363   5.590   2.610   0.861
 5488SOL    HW217364   5.482   2.550   0.754
 5489SOL     OW17365   6.557   3.855   3.175
 5489SOL    HW117366   6.464   3.823   3.193
 5489SOL    HW217367   6.622   3.796   3.224
 5490SOL     OW17368   1.631   6.102   3.025
 5490SOL    HW117369   1.667   6.025   3.078
 5490SOL    HW217370   1.531   6.104   3.034
 5491SOL     OW17371   6.646   4.328   0.709
 5491SOL    HW117372   6.743   4.316   0.687
 5491SOL    HW217373   6.614   4.415   0.672
 5492SOL     OW17374   6.916   1.891   6.071
 5492SOL    HW117375   6.962   1.911   5.984
 5492SOL    HW217376   6.933   1.966   6.135
 5493SOL     OW17377   3.783   4.028   0.921
 5493SOL    HW117378   3.818   3.970   0.848
 5493SOL    HW217379   3.754   3.971   0.998
 5494SOL     OW17380   6.143   3.627   5.629
 5494SOL    HW117381   6.057   3.673   5.603
 5494SOL    HW217382   6.220   3.686   5.605
 5495SOL     OW17383   5.818   6.971   0.424
 5495SOL    HW117384   5.893   0.019   0.419
 5495SOL    HW217385   5.772   6.979   0.512
 5496SOL     OW17386   4.151   0.156   4.062
 5496SOL    HW117387   4.208   0.124   3.986
 5496SOL    HW217388   4.076   0.210   4.026
 5497SOL     OW17389   1.021   0.552   5.608
 5497SOL    HW117390   0.953   0.524   5.542
 5497SOL    HW217391   0.978   0.563   5.698
 5498SOL     OW17392   0.736   5.530   0.831
 5498SOL    HW117393   0.728   5.630   0.827
 5498SOL    HW217394   0.753   5.494   0.740
 5499SOL     OW17395   1.762   0.083   4.543
 5499SOL    HW117396   1.854   0.053   4.569
 5499SOL    HW217397   1.718   0.012   4.488
 5500SOL     OW17398   2.540   0.352   0.712
 5500SOL    HW117399   2.543   0.382   0.808
 5500SOL    HW217400   2.471   0.279   0.703
 5501SOL     OW17401   3.472   3.895   0.045
 5501SOL    HW117402   3.413   3.841   7.003
 5501SOL    HW217403   3.512   3.972   7.012
 5502SOL     OW17404   4.504   2.898   0.174
 5502SOL    HW117405   4.459   2.837   0.240
 5502SOL    HW217406   4.546   2.974   0.223
 5503SOL     OW17407   6.316   3.770   0.919
 5503SOL    HW117408   6.357   3.696   0.971
 5503SOL    HW217409   6.327   3.751   0.821
 5504SOL     OW17410   3.880   1.878   6.977
 5504SOL    HW117411   3.867   1.779   6.976
 5504SOL    HW217412   3.791   1.923   6.986
 5505SOL     OW17413   3.188   4.983   3.545
 5505SOL    HW117414   3.124   4.907   3.551
 5505SOL    HW217415   3.250   4.980   3.623
 5506SOL     OW17416   0.167   3.256   5.704
 5506SOL    HW117417   0.252   3.203   5.706
 5506SOL    HW217418   0.188   3.352   5.689
 5507SOL     OW17419   3.173   0.071   6.697
 5507SOL    HW117420   3.085   0.071   6.651
 5507SOL    HW217421   3.176   0.144   6.765
 5508SOL     OW17422   6.711   0.976   6.358
 5508SOL    HW117423   6.747   0.884   6.371
 5508SOL    HW217424   6.679   0.986   6.263
 5509SOL     OW17425   6.515   4.973   0.442
 5509SOL    HW117426   6.455   5.041   0.400
 5509SOL    HW217427   6.475   4.882   0.431
 5510SOL     OW17428   4.759   5.071   6.879
 5510SOL    HW117429   4.670   5.113   6.861
 5510SOL    HW217430   4.745   4.978   6.913
 5511SOL     OW17431   0.263   2.710   5.718
 5511SOL    HW117432   0.211   2.643   5.665
 5511SOL    HW217433   0.251   2.801   5.677
 5512SOL     OW17434   2.620   0.599   2.495
 5512SOL    HW117435   2.647   0.546   2.414
 5512SOL    HW217436   2.642   0.696   2.480
 5513SOL     OW17437   3.827   3.942   0.338
 5513SOL    HW117438   3.917   3.973   0.370
 5513SOL    HW217439   3.818   3.965   0.241
 5514SOL     OW17440   3.001   1.209   0.399
 5514SOL    HW117441   3.032   1.115   0.413
 5514SOL    HW217442   2.913   1.207   0.351
 5515SOL     OW17443   2.541   5.294   2.612
 5515SOL    HW117444   2.586   5.339   2.689
 5515SOL    HW217445   2.610   5.264   2.546
 5516SOL     OW17446   1.827   2.071   5.420
 5516SOL    HW117447   1.885   2.134   5.369
 5516SOL    HW217448   1.866   2.053   5.510
 5517SOL     OW17449   1.380   2.142   3.211
 5517SOL    HW117450   1.296   2.195   3.198
 5517SOL    HW217451   1.451   2.176   3.149
 5518SOL     OW17452   4.837   5.003   6.637
 5518SOL    HW117453   4.934   5.023   6.622
 5518SOL    HW217454   4.814   5.014   6.733
 5519SOL     OW17455   4.996   2.787   4.247
 5519SOL    HW117456   5.028   2.867   4.298
 5519SOL    HW217457   5.042   2.705   4.281
 5520SOL     OW17458   5.115   0.548   1.235
 5520SOL    HW117459   5.052   0.572   1.308
 5520SOL    HW217460   5.064   0.522   1.153
 5521SOL     OW17461   4.617   6.525   2.441
 5521SOL    HW117462   4.677   6.445   2.433
 5521SOL    HW217463   4.640   6.591   2.369
 5522SOL     OW17464   6.065   5.751   1.076
 5522SOL    HW117465   6.062   5.778   1.173
 5522SOL    HW217466   6.159   5.728   1.050
 5523SOL     OW17467   5.363   1.762   0.618
 5523SOL    HW117468   5.447   1.731   0.662
 5523SOL    HW217469   5.292   1.776   0.687
 5524SOL     OW17470   2.744   1.641   3.791
 5524SOL    HW117471   2.743   1.724   3.848
 5524SOL    HW217472   2.743   1.667   3.695
 5525SOL     OW17473   6.029   1.091   1.558
 5525SOL    HW117474   6.065   1.074   1.466
 5525SOL    HW217475   6.040   1.188   1.580
 5526SOL     OW17476   5.486   5.349   3.802
 5526SOL    HW117477   5.553   5.297   3.856
 5526SOL    HW217478   5.424   5.286   3.756
 5527SOL     OW17479   5.752   0.625   3.818
 5527SOL    HW117480   5.756   0.542   3.763
 5527SOL    HW217481   5.664   0.670   3.804
 5528SOL     OW17482   1.083   1.520   6.982
 5528SOL    HW117483   1.083   1.616   7.008
 5528SOL    HW217484   0.994   1.479   7.002
 5529SOL     OW17485   3.713   0.718   2.247
 5529SOL    HW117486   3.665   0.701   2.332
 5529SOL    HW217487   3.804   0.676   2.250
 5530SOL     OW17488   6.819   1.967   1.205
 5530SOL    HW117489   6.753   1.916   1.260
 5530SOL    HW217490   6.881   1.903   1.159
 5531SOL     OW17491   2.098   4.176   1.626
 5531SOL    HW117492   2.178   4.224   1.591
 5531SOL    HW217493   2.097   4.181   1.726
 5532SOL     OW17494   1.100   2.588   6.798
 5532SOL    HW117495   1.048   2.511   6.835
 5532SOL    HW217496   1.037   2.658   6.764
 5533SOL     OW17497   3.233   1.645   2.493
 5533SOL    HW117498   3.154   1.603   2.539
 5533SOL    HW217499   3.306   1.659   2.560
 5534SOL     OW17500   1.586   0.276   4.509
 5534SOL    HW117501   1.533   0.231   4.437
 5534SOL    HW217502   1.662   0.217   4.537
 5535SOL     OW17503   6.825   1.686   2.648
 5535SOL    HW117504   6.883   1.665   2.727
 5535SOL    HW217505   6.741   1.631   2.653
 5536SOL     OW17506   4.245   6.023   4.389
 5536SOL    HW117507   4.218   6.046   4.483
 5536SOL    HW217508   4.334   6.063   4.369
 5537SOL     OW17509   3.017   2.204   3.847
 5537SOL    HW117510   3.108   2.182   3.812
 5537SOL    HW217511   3.025   2.236   3.941
 5538SOL     OW17512   4.943   4.829   4.248
 5538SOL    HW117513   4.846   4.835   4.271
 5538SOL    HW217514   4.994   4.791   4.326
 5539SOL     OW17515   2.693   4.666   0.198
 5539SOL    HW117516   2.632   4.746   0.192
 5539SOL    HW217517   2.658   4.603   0.268
 5540SOL     OW17518   4.787   5.335   2.421
 5540SOL    HW117519   4.689   5.324   2.439
 5540SOL    HW217520   4.829   5.246   2.408
 5541SOL     OW17521   4.800   1.622   5.877
 5541SOL    HW117522   4.707   1.593   5.899
 5541SOL    HW217523   4.839   1.561   5.807
 5542SOL     OW17524   5.219   4.548   6.800
 5542SOL    HW117525   5.286   4.496   6.747
 5542SOL    HW217526   5.244   4.645   6.799
 5543SOL     OW17527   0.118   1.972   5.586
 5543SOL    HW117528   0.179   1.937   5.515
 5543SOL    HW217529   0.132   2.070   5.596
 5544SOL     OW17530   5.882   0.722   6.598
 5544SOL    HW117531   5.801   0.775   6.622
 5544SOL    HW217532   5.963   0.764   6.639
 5545SOL     OW17533   2.830   2.625   1.729
 5545SOL    HW117534   2.872   2.553   1.785
 5545SOL    HW217535   2.894   2.701   1.718
 5546SOL     OW17536   3.772   4.700   5.725
 5546SOL    HW117537   3.693   4.649   5.690
 5546SOL    HW217538   3.850   4.686   5.665
 5547SOL     OW17539   3.400   5.568   4.123
 5547SOL    HW117540   3.469   5.627   4.165
 5547SOL    HW217541   3.436   5.476   4.112
 5548SOL     OW17542   0.592   2.725   4.561
 5548SOL    HW117543   0.669   2.687   4.509
 5548SOL    HW217544   0.508   2.678   4.535
 5549SOL     OW17545   3.917   4.808   0.293
 5549SOL    HW117546   3.928   4.779   0.198
 5549SOL    HW217547   3.834   4.766   0.331
 5550SOL     OW17548   2.954   6.474   2.266
 5550SOL    HW117549   2.857   6.491   2.283
 5550SOL    HW217550   2.993   6.424   2.343
 5551SOL     OW17551   0.561   1.138   2.810
 5551SOL    HW117552   0.545   1.058   2.868
 5551SOL    HW217553   0.659   1.150   2.797
 5552SOL     OW17554   0.867   2.290   2.225
 5552SOL    HW117555   0.907   2.374   2.263
 5552SOL    HW217556   0.847   2.304   2.128
 5553SOL     OW17557   4.729   6.657   6.626
 5553SOL    HW117558   4.677   6.682   6.708
 5553SOL    HW217559   4.826   6.680   6.640
 5554SOL     OW17560   3.378   1.118   4.281
 5554SOL    HW117561   3.399   1.032   4.235
 5554SOL    HW217562   3.410   1.194   4.225
 5555SOL     OW17563   0.811   5.664   1.714
 5555SOL    HW117564   0.871   5.591   1.680
 5555SOL    HW217565   0.758   5.701   1.638
 5556SOL     OW17566   0.815   0.900   4.568
 5556SOL    HW117567   0.833   0.945   4.481
 5556SOL    HW217568   0.901   0.875   4.612
 5557SOL     OW17569   2.648   0.252   2.955
 5557SOL    HW117570   2.618   0.342   2.989
 5557SOL    HW217571   2.569   0.191   2.949
 5558SOL     OW17572   4.967   2.780   5.550
 5558SOL    HW117573   4.887   2.837   5.566
 5558SOL    HW217574   5.033   2.794   5.625
 5559SOL     OW17575   2.376   0.597   1.681
 5559SOL    HW117576   2.383   0.677   1.622
 5559SOL    HW217577   2.401   0.622   1.775
 5560SOL     OW17578   6.813   1.031   4.226
 5560SOL    HW117579   6.798   0.966   4.301
 5560SOL    HW217580   6.887   1.093   4.250
 5561SOL     OW17581   1.735   3.760   2.330
 5561SOL    HW117582   1.687   3.673   2.342
 5561SOL    HW217583   1.669   3.831   2.305
 5562SOL     OW17584   2.796   2.085   6.669
 5562SOL    HW117585   2.881   2.123   6.704
 5562SOL    HW217586   2.813   1.993   6.633
 5563SOL     OW17587   4.150   4.153   1.555
 5563SOL    HW117588   4.169   4.207   1.473
 5563SOL    HW217589   4.061   4.181   1.593
 5564SOL     OW17590   5.693   2.140   1.616
 5564SOL    HW117591   5.735   2.184   1.537
 5564SOL    HW217592   5.753   2.066   1.648
 5565SOL     OW17593   3.001   2.628   5.372
 5565SOL    HW117594   3.017   2.688   5.450
 5565SOL    HW217595   3.082   2.573   5.354
 5566SOL     OW17596   2.207   4.517   0.445
 5566SOL    HW117597   2.245   4.529   0.537
 5566SOL    HW217598   2.128   4.577   0.434
 5567SOL     OW17599   1.608   5.537   3.127
 5567SOL    HW117600   1.630   5.550   3.223
 5567SOL    HW217601   1.690   5.551   3.071
 5568SOL     OW17602   3.628   2.717   0.512
 5568SOL    HW117603   3.622   2.617   0.521
 5568SOL    HW217604   3.656   2.740   0.419
 5569SOL     OW17605   5.056   2.058   6.258
 5569SOL    HW117606   5.052   2.075   6.356
 5569SOL    HW217607   5.118   1.981   6.241
 5570SOL     OW17608   1.052   3.494   5.090
 5570SOL    HW117609   1.127   3.539   5.139
 5570SOL    HW217610   0.980   3.470   5.155
 5571SOL     OW17611   6.525   4.534   0.049
 5571SOL    HW117612   6.489   4.485   6.988
 5571SOL    HW217613   6.591   4.476   0.097
 5572SOL     OW17614   6.703   3.068   4.720
 5572SOL    HW117615   6.718   3.068   4.819
 5572SOL    HW217616   6.648   3.147   4.695
 5573SOL     OW17617   6.949   4.231   6.833
 5573SOL    HW117618   6.939   4.136   6.805
 5573SOL    HW217619   0.026   4.258   6.824
 5574SOL     OW17620   0.989   6.895   4.242
 5574SOL    HW117621   0.915   6.852   4.294
 5574SOL    HW217622   0.952   6.932   4.157
 5575SOL     OW17623   0.981   1.132   1.698
 5575SOL    HW117624   1.052   1.072   1.662
 5575SOL    HW217625   0.898   1.079   1.716
 5576SOL     OW17626   5.349   5.974   6.062
 5576SOL    HW117627   5.379   5.933   6.148
 5576SOL    HW217628   5.274   6.037   6.080
 5577SOL     OW17629   2.483   4.480   4.481
 5577SOL    HW117630   2.491   4.392   4.529
 5577SOL    HW217631   2.574   4.519   4.469
 5578SOL     OW17632   3.419   1.859   6.598
 5578SOL    HW117633   3.402   1.853   6.499
 5578SOL    HW217634   3.513   1.888   6.613
 5579SOL     OW17635   4.942   5.078   1.709
 5579SOL    HW117636   4.952   5.169   1.747
 5579SOL    HW217637   4.870   5.029   1.757
 5580SOL     OW17638   5.381   1.439   1.452
 5580SOL    HW117639   5.438   1.358   1.464
 5580SOL    HW217640   5.284   1.411   1.453
 5581SOL     OW17641   2.727   2.478   0.573
 5581SOL    HW117642   2.644   2.434   0.540
 5581SOL    HW217643   2.805   2.416   0.560
 5582SOL     OW17644   3.406   2.868   3.477
 5582SOL    HW117645   3.363   2.919   3.551
 5582SOL    HW217646   3.393   2.770   3.493
 5583SOL     OW17647   4.469   0.706   6.992
 5583SOL    HW117648   4.447   0.803   6.993
 5583SOL    HW217649   4.385   0.652   6.990
 5584SOL     OW17650   4.871   3.316   3.023
 5584SOL    HW117651   4.845   3.341   3.117
 5584SOL    HW217652   4.826   3.230   2.998
 5585SOL     OW17653   0.565   0.151   4.877
 5585SOL    HW117654   0.612   0.095   4.944
 5585SOL    HW217655   0.620   0.156   4.793
 5586SOL     OW17656   3.031   1.026   6.466
 5586SOL    HW117657   2.980   0.985   6.542
 5586SOL    HW217658   3.129   1.012   6.480
 5587SOL     OW17659   3.579   6.513   4.138
 5587SOL    HW117660   3.490   6.502   4.093
 5587SOL    HW217661   3.568   6.571   4.219
 5588SOL     OW17662   4.831   6.847   5.881
 5588SOL    HW117663   4.831   6.914   5.806
 5588SOL    HW217664   4.738   6.837   5.916
 5589SOL     OW17665   2.970   3.870   0.273
 5589SOL    HW117666   3.036   3.847   0.344
 5589SOL    HW217667   2.977   3.967   0.251
 5590SOL     OW17668   6.506   0.641   3.599
 5590SOL    HW117669   6.437   0.660   3.528
 5590SOL    HW217670   6.461   0.596   3.677
 5591SOL     OW17671   5.652   0.249   0.197
 5591SOL    HW117672   5.601   0.300   0.129
 5591SOL    HW217673   5.606   0.162   0.216
 5592SOL     OW17674   1.106   2.492   2.512
 5592SOL    HW117675   1.148   2.581   2.526
 5592SOL    HW217676   1.173   2.428   2.474
 5593SOL     OW17677   2.264   4.403   4.700
 5593SOL    HW117678   2.217   4.468   4.760
 5593SOL    HW217679   2.197   4.341   4.659
 5594SOL     OW17680   2.863   1.408   6.448
 5594SOL    HW117681   2.919   1.459   6.513
 5594SOL    HW217682   2.923   1.359   6.384
 5595SOL     OW17683   0.771   2.572   6.131
 5595SOL    HW117684   0.828   2.491   6.123
 5595SOL    HW217685   0.821   2.643   6.182
 5596SOL     OW17686   4.671   2.717   4.516
 5596SOL    HW117687   4.669   2.778   4.595
 5596SOL    HW217688   4.615   2.636   4.535
 5597SOL     OW17689   6.933   1.901   6.480
 5597SOL    HW117690   7.003   1.833   6.457
 5597SOL    HW217691   6.936   1.975   6.414
 5598SOL     OW17692   6.493   1.971   3.582
 5598SOL    HW117693   6.577   1.957   3.530
 5598SOL    HW217694   6.512   1.958   3.680
 5599SOL     OW17695   5.427   2.481   3.236
 5599SOL    HW117696   5.395   2.493   3.330
 5599SOL    HW217697   5.414   2.566   3.185
 5600SOL     OW17698   2.000   2.871   2.042
 5600SOL    HW117699   1.981   2.779   2.077
 5600SOL    HW217700   1.986   2.938   2.115
 5601SOL     OW17701   5.629   3.307   5.716
 5601SOL    HW117702   5.570   3.259   5.781
 5601SOL    HW217703   5.582   3.313   5.628
 5602SOL     OW17704   6.539   2.432   2.661
 5602SOL    HW117705   6.442   2.456   2.670
 5602SOL    HW217706   6.590   2.467   2.739
 5603SOL     OW17707   3.595   2.363   6.053
 5603SOL    HW117708   3.687   2.338   6.083
 5603SOL    HW217709   3.572   2.312   5.969
 5604SOL     OW17710   0.991   6.006   3.764
 5604SOL    HW117711   0.999   5.936   3.693
 5604SOL    HW217712   1.011   5.967   3.853
 5605SOL     OW17713   4.222   0.529   3.817
 5605SOL    HW117714   4.248   0.609   3.871
 5605SOL    HW217715   4.294   0.460   3.821
 5606SOL     OW17716   4.960   3.022   0.751
 5606SOL    HW117717   4.986   3.098   0.811
 5606SOL    HW217718   4.879   2.976   0.788
 5607SOL     OW17719   0.060   2.606   3.376
 5607SOL    HW117720   0.133   2.573   3.316
 5607SOL    HW217721   6.993   2.610   3.325
 5608SOL     OW17722   5.208   0.590   3.943
 5608SOL    HW117723   5.221   0.492   3.926
 5608SOL    HW217724   5.275   0.622   4.009
 5609SOL     OW17725   6.376   1.059   0.152
 5609SOL    HW117726   6.425   1.128   0.206
 5609SOL    HW217727   6.281   1.056   0.181
 5610SOL     OW17728   5.744   5.696   6.018
 5610SOL    HW117729   5.708   5.646   5.939
 5610SOL    HW217730   5.755   5.793   5.994
 5611SOL     OW17731   6.148   3.952   2.142
 5611SOL    HW117732   6.067   3.895   2.134
 5611SOL    HW217733   6.182   3.975   2.050
 5612SOL     OW17734   4.169   2.033   0.798
 5612SOL    HW117735   4.126   2.058   0.884
 5612SOL    HW217736   4.266   2.056   0.801
 5613SOL     OW17737   6.331   5.247   6.071
 5613SOL    HW117738   6.416   5.290   6.040
 5613SOL    HW217739   6.272   5.230   5.992
 5614SOL     OW17740   4.743   1.795   5.222
 5614SOL    HW117741   4.812   1.841   5.278
 5614SOL    HW217742   4.777   1.787   5.128
 5615SOL     OW17743   0.766   3.198   3.499
 5615SOL    HW117744   0.780   3.110   3.544
 5615SOL    HW217745   0.674   3.203   3.462
 5616SOL     OW17746   1.634   3.468   2.373
 5616SOL    HW117747   1.634   3.408   2.293
 5616SOL    HW217748   1.623   3.413   2.456
 5617SOL     OW17749   1.136   4.862   6.130
 5617SOL    HW117750   1.184   4.900   6.210
 5617SOL    HW217751   1.175   4.774   6.106
 5618SOL     OW17752   4.410   6.987   2.750
 5618SOL    HW117753   4.371   6.947   2.667
 5618SOL    HW217754   4.376   6.937   2.830
 5619SOL     OW17755   3.000   3.247   3.346
 5619SOL    HW117756   3.073   3.294   3.397
 5619SOL    HW217757   3.041   3.185   3.279
 5620SOL     OW17758   4.929   4.387   4.700
 5620SOL    HW117759   4.933   4.379   4.600
 5620SOL    HW217760   4.864   4.320   4.736
 5621SOL     OW17761   1.004   2.352   6.639
 5621SOL    HW117762   0.945   2.381   6.564
 5621SOL    HW217763   0.954   2.361   6.725
 5622SOL     OW17764   4.853   5.602   4.094
 5622SOL    HW117765   4.785   5.557   4.151
 5622SOL    HW217766   4.904   5.668   4.149
 5623SOL     OW17767   4.540   4.801   3.742
 5623SOL    HW117768   4.494   4.861   3.806
 5623SOL    HW217769   4.498   4.710   3.744
 5624SOL     OW17770   4.960   3.940   3.419
 5624SOL    HW117771   5.058   3.936   3.405
 5624SOL    HW217772   4.913   3.938   3.331
 5625SOL     OW17773   2.947   6.576   6.159
 5625SOL    HW117774   2.870   6.581   6.095
 5625SOL    HW217775   2.921   6.520   6.238
 5626SOL     OW17776   0.975   4.863   6.512
 5626SOL    HW117777   0.982   4.933   6.442
 5626SOL    HW217778   0.888   4.872   6.561
 5627SOL     OW17779   1.492   5.437   0.728
 5627SOL    HW117780   1.493   5.359   0.791
 5627SOL    HW217781   1.400   5.449   0.691
 5628SOL     OW17782   1.637   3.525   0.168
 5628SOL    HW117783   1.732   3.552   0.182
 5628SOL    HW217784   1.603   3.565   0.083
 5629SOL     OW17785   6.635   3.346   3.550
 5629SOL    HW117786   6.619   3.258   3.594
 5629SOL    HW217787   6.683   3.407   3.614
 5630SOL     OW17788   1.176   3.660   0.405
 5630SOL    HW117789   1.170   3.703   0.495
 5630SOL    HW217790   1.245   3.707   0.349
 5631SOL     OW17791   3.727   0.840   1.138
 5631SOL    HW117792   3.776   0.764   1.095
 5631SOL    HW217793   3.722   0.825   1.237
 5632SOL     OW17794   4.165   6.375   6.420
 5632SOL    HW117795   4.223   6.309   6.371
 5632SOL    HW217796   4.157   6.459   6.366
 5633SOL     OW17797   1.339   5.665   5.442
 5633SOL    HW117798   1.247   5.658   5.404
 5633SOL    HW217799   1.344   5.610   5.526
 5634SOL     OW17800   2.711   0.817   1.308
 5634SOL    HW117801   2.744   0.727   1.280
 5634SOL    HW217802   2.624   0.806   1.358
 5635SOL     OW17803   3.383   0.699   1.764
 5635SOL    HW117804   3.374   0.757   1.845
 5635SOL    HW217805   3.479   0.676   1.749
 5636SOL     OW17806   5.518   0.366   5.601
 5636SOL    HW117807   5.549   0.386   5.508
 5636SOL    HW217808   5.495   0.452   5.648
 5637SOL     OW17809   5.388   0.190   4.892
 5637SOL    HW117810   5.371   0.168   4.796
 5637SOL    HW217811   5.326   0.263   4.921
 5638SOL     OW17812   6.150   5.238   0.633
 5638SOL    HW117813   6.162   5.333   0.606
 5638SOL    HW217814   6.094   5.233   0.716
 5639SOL     OW17815   3.159   0.634   1.660
 5639SOL    HW117816   3.244   0.637   1.712
 5639SOL    HW217817   3.117   0.725   1.660
 5640SOL     OW17818   2.986   6.870   3.573
 5640SOL    HW117819   3.071   6.919   3.597
 5640SOL    HW217820   2.964   6.887   3.477
 5641SOL     OW17821   6.991   4.232   3.751
 5641SOL    HW117822   6.928   4.205   3.825
 5641SOL    HW217823   0.055   4.271   3.791
 5642SOL     OW17824   2.177   3.113   6.307
 5642SOL    HW117825   2.172   3.146   6.401
 5642SOL    HW217826   2.163   3.190   6.244
 5643SOL     OW17827   6.085   2.486   4.324
 5643SOL    HW117828   6.177   2.523   4.320
 5643SOL    HW217829   6.085   2.391   4.292
 5644SOL     OW17830   3.949   0.456   5.605
 5644SOL    HW117831   3.893   0.373   5.596
 5644SOL    HW217832   3.890   0.533   5.628
 5645SOL     OW17833   5.790   6.475   3.601
 5645SOL    HW117834   5.846   6.554   3.626
 5645SOL    HW217835   5.700   6.485   3.643
 5646SOL     OW17836   6.656   6.354   4.076
 5646SOL    HW117837   6.656   6.447   4.113
 5646SOL    HW217838   6.702   6.292   4.139
 5647SOL     OW17839   0.006   4.399   6.377
 5647SOL    HW117840   0.098   4.438   6.375
 5647SOL    HW217841   6.957   4.472   6.381
 5648SOL     OW17842   2.863   1.350   4.465
 5648SOL    HW117843   2.945   1.294   4.476
 5648SOL    HW217844   2.859   1.417   4.540
 5649SOL     OW17845   1.092   0.261   5.859
 5649SOL    HW117846   1.184   0.265   5.820
 5649SOL    HW217847   1.060   0.354   5.876
 5650SOL     OW17848   6.925   4.768   5.995
 5650SOL    HW117849   6.939   4.812   6.083
 5650SOL    HW217850   6.922   4.668   6.008
 5651SOL     OW17851   5.586   1.706   2.286
 5651SOL    HW117852   5.664   1.768   2.291
 5651SOL    HW217853   5.504   1.753   2.317
 5652SOL     OW17854   5.983   4.486   0.384
 5652SOL    HW117855   5.935   4.565   0.421
 5652SOL    HW217856   5.963   4.477   0.287
 5653SOL     OW17857   2.300   6.209   6.666
 5653SOL    HW117858   2.313   6.149   6.745
 5653SOL    HW217859   2.256   6.158   6.592
 5654SOL     OW17860   1.885   5.936   6.833
 5654SOL    HW117861   1.838   5.989   6.904
 5654SOL    HW217862   1.888   5.989   6.749
 5655SOL     OW17863   6.634   5.238   2.812
 5655SOL    HW117864   6.679   5.149   2.810
 5655SOL    HW217865   6.700   5.309   2.834
 5656SOL     OW17866   3.473   5.684   6.590
 5656SOL    HW117867   3.382   5.724   6.581
 5656SOL    HW217868   3.537   5.734   6.532
 5657SOL     OW17869   4.625   5.608   1.658
 5657SOL    HW117870   4.570   5.654   1.729
 5657SOL    HW217871   4.711   5.658   1.646
 5658SOL     OW17872   5.554   6.213   5.802
 5658SOL    HW117873   5.646   6.250   5.813
 5658SOL    HW217874   5.488   6.274   5.845
 5659SOL     OW17875   2.885   3.462   2.848
 5659SOL    HW117876   2.882   3.557   2.880
 5659SOL    HW217877   2.890   3.401   2.927
 5660SOL     OW17878   6.409   6.153   1.562
 5660SOL    HW117879   6.415   6.055   1.580
 5660SOL    HW217880   6.328   6.172   1.506
 5661SOL     OW17881   6.264   5.706   4.260
 5661SOL    HW117882   6.303   5.699   4.168
 5661SOL    HW217883   6.244   5.614   4.295
 5662SOL     OW17884   2.316   4.937   4.977
 5662SOL    HW117885   2.374   4.933   4.895
 5662SOL    HW217886   2.371   4.966   5.055
 5663SOL     OW17887   2.865   4.312   0.980
 5663SOL    HW117888   2.774   4.293   0.942
 5663SOL    HW217889   2.864   4.401   1.025
 5664SOL     OW17890   6.866   6.170   2.223
 5664SOL    HW117891   6.825   6.084   2.194
 5664SOL    HW217892   6.960   6.175   2.190
 5665SOL     OW17893   1.271   1.413   6.135
 5665SOL    HW117894   1.369   1.433   6.143
 5665SOL    HW217895   1.221   1.462   6.205
 5666SOL     OW17896   5.924   5.632   0.274
 5666SOL    HW117897   5.831   5.655   0.244
 5666SOL    HW217898   5.921   5.587   0.363
 5667SOL     OW17899   6.434   5.304   2.987
 5667SOL    HW117900   6.437   5.404   2.992
 5667SOL    HW217901   6.501   5.272   2.921
 5668SOL     OW17902   6.196   3.209   5.947
 5668SOL    HW117903   6.175   3.292   5.895
 5668SOL    HW217904   6.278   3.224   6.002
 5669SOL     OW17905   6.999   3.111   4.729
 5669SOL    HW117906   6.988   3.205   4.761
 5669SOL    HW217907   6.912   3.079   4.691
 5670SOL     OW17908   1.330   3.722   2.364
 5670SOL    HW117909   1.400   3.776   2.409
 5670SOL    HW217910   1.244   3.773   2.362
 5671SOL     OW17911   1.190   0.760   5.666
 5671SOL    HW117912   1.123   0.691   5.641
 5671SOL    HW217913   1.258   0.768   5.593
 5672SOL     OW17914   5.187   3.841   6.031
 5672SOL    HW117915   5.183   3.881   5.940
 5672SOL    HW217916   5.095   3.840   6.071
 5673SOL     OW17917   1.480   6.951   0.650
 5673SOL    HW117918   1.510   0.005   0.588
 5673SOL    HW217919   1.380   6.949   0.652
 5674SOL     OW17920   6.341   3.319   1.101
 5674SOL    HW117921   6.271   3.335   1.031
 5674SOL    HW217922   6.425   3.289   1.057
 5675SOL     OW17923   3.461   0.911   6.610
 5675SOL    HW117924   3.511   0.900   6.696
 5675SOL    HW217925   3.483   0.835   6.549
 5676SOL     OW17926   3.518   7.013   1.499
 5676SOL    HW117927   3.546   6.918   1.513
 5676SOL    HW217928   3.478   0.030   1.584
 5677SOL     OW17929   6.872   1.086   3.638
 5677SOL    HW117930   6.835   0.995   3.622
 5677SOL    HW217931   6.970   1.087   3.618
 5678SOL     OW17932   1.780   5.278   3.598
 5678SOL    HW117933   1.697   5.270   3.654
 5678SOL    HW217934   1.765   5.233   3.510
 5679SOL     OW17935   3.279   5.592   5.021
 5679SOL    HW117936   3.213   5.567   4.951
 5679SOL    HW217937   3.297   5.514   5.081
 5680SOL     OW17938   1.876   6.960   6.552
 5680SOL    HW117939   1.823   6.982   6.634
 5680SOL    HW217940   1.952   0.005   6.544
 5681SOL     OW17941   2.656   3.952   0.043
 5681SOL    HW117942   2.673   3.945   6.964
 5681SOL    HW217943   2.662   4.048   0.071
 5682SOL     OW17944   0.914   3.778   4.262
 5682SOL    HW117945   0.900   3.850   4.329
 5682SOL    HW217946   0.904   3.816   4.170
 5683SOL     OW17947   4.079   3.469   4.807
 5683SOL    HW117948   4.110   3.518   4.725
 5683SOL    HW217949   4.107   3.521   4.888
 5684SOL     OW17950   2.993   3.708   2.956
 5684SOL    HW117951   3.075   3.655   2.979
 5684SOL    HW217952   3.007   3.804   2.983
 5685SOL     OW17953   0.587   5.535   1.887
 5685SOL    HW117954   0.591   5.443   1.847
 5685SOL    HW217955   0.647   5.597   1.836
 5686SOL     OW17956   3.531   4.724   0.120
 5686SOL    HW117957   3.465   4.777   0.067
 5686SOL    HW217958   3.542   4.765   0.211
 5687SOL     OW17959   3.983   5.567   6.371
 5687SOL    HW117960   4.062   5.528   6.324
 5687SOL    HW217961   3.975   5.529   6.463
 5688SOL     OW17962   5.542   2.040   2.139
 5688SOL    HW117963   5.454   2.082   2.118
 5688SOL    HW217964   5.566   2.057   2.235
 5689SOL     OW17965   4.270   3.149   6.509
 5689SOL    HW117966   4.207   3.221   6.480
 5689SOL    HW217967   4.224   3.089   6.575
 5690SOL     OW17968   4.354   6.366   2.429
 5690SOL    HW117969   4.354   6.433   2.355
 5690SOL    HW217970   4.447   6.357   2.465
 5691SOL     OW17971   2.609   0.195   3.561
 5691SOL    HW117972   2.648   0.210   3.470
 5691SOL    HW217973   2.674   0.225   3.631
 5692SOL     OW17974   5.862   3.355   6.818
 5692SOL    HW117975   5.896   3.324   6.907
 5692SOL    HW217976   5.937   3.358   6.752
 5693SOL     OW17977   4.778   2.213   2.659
 5693SOL    HW117978   4.817   2.180   2.573
 5693SOL    HW217979   4.680   2.192   2.662
 5694SOL     OW17980   1.170   1.488   4.096
 5694SOL    HW117981   1.183   1.453   4.003
 5694SOL    HW217982   1.230   1.438   4.159
 5695SOL     OW17983   1.805   4.161   3.581
 5695SOL    HW117984   1.833   4.071   3.546
 5695SOL    HW217985   1.816   4.163   3.680
 5696SOL     OW17986   3.239   0.401   5.968
 5696SOL    HW117987   3.308   0.397   6.041
 5696SOL    HW217988   3.194   0.490   5.970
 5697SOL     OW17989   6.500   3.486   0.363
 5697SOL    HW117990   6.507   3.401   0.309
 5697SOL    HW217991   6.591   3.521   0.382
 5698SOL     OW17992   0.767   4.274   3.171
 5698SOL    HW117993   0.799   4.310   3.259
 5698SOL    HW217994   0.686   4.218   3.186
 5699SOL     OW17995   6.356   2.254   4.827
 5699SOL    HW117996   6.307   2.172   4.797
 5699SOL    HW217997   6.452   2.231   4.843
 5700SOL     OW17998   1.190   5.527   3.356
 5700SOL    HW117999   1.163   5.623   3.359
 5700SOL    HW218000   1.118   5.471   3.398
 5701SOL     OW18001   5.618   4.384   2.374
 5701SOL    HW118002   5.687   4.382   2.302
 5701SOL    HW218003   5.547   4.450   2.350
 5702SOL     OW18004   2.155   0.127   7.016
 5702SOL    HW118005   2.141   0.190   0.074
 5702SOL    HW218006   2.085   0.144   6.947
 5703SOL     OW18007   4.924   4.349   1.821
 5703SOL    HW118008   4.917   4.254   1.851
 5703SOL    HW218009   4.835   4.393   1.826
 5704SOL     OW18010   4.694   4.168   3.103
 5704SOL    HW118011   4.668   4.183   3.198
 5704SOL    HW218012   4.769   4.230   3.079
 5705SOL     OW18013   5.977   1.912   3.412
 5705SOL    HW118014   5.934   1.994   3.449
 5705SOL    HW218015   6.076   1.926   3.406
 5706SOL     OW18016   1.747   1.159   0.007
 5706SOL    HW118017   1.814   1.147   6.952
 5706SOL    HW218018   1.658   1.124   6.995
 5707SOL     OW18019   3.069   1.605   6.578
 5707SOL    HW118020   3.132   1.551   6.522
 5707SOL    HW218021   3.120   1.670   6.633
 5708SOL     OW18022   6.844   6.836   1.683
 5708SOL    HW118023   6.922   6.816   1.623
 5708SOL    HW218024   6.759   6.827   1.632
 5709SOL     OW18025   1.169   1.681   1.879
 5709SOL    HW118026   1.077   1.719   1.881
 5709SOL    HW218027   1.164   1.582   1.871
 5710SOL     OW18028   3.272   4.378   6.256
 5710SOL    HW118029   3.295   4.462   6.207
 5710SOL    HW218030   3.174   4.363   6.253
 5711SOL     OW18031   4.700   1.193   4.879
 5711SOL    HW118032   4.604   1.169   4.865
 5711SOL    HW218033   4.733   1.245   4.800
 5712SOL     OW18034   6.590   6.249   6.942
 5712SOL    HW118035   6.596   6.322   7.011
 5712SOL    HW218036   6.681   6.226   6.911
 5713SOL     OW18037   0.126   2.526   2.605
 5713SOL    HW118038   0.110   2.616   2.646
 5713SOL    HW218039   0.224   2.504   2.611
 5714SOL     OW18040   2.243   0.729   6.103
 5714SOL    HW118041   2.207   0.817   6.134
 5714SOL    HW218042   2.323   0.705   6.158
 5715SOL     OW18043   0.988   6.414   3.657
 5715SOL    HW118044   0.910   6.402   3.597
 5715SOL    HW218045   1.069   6.370   3.617
 5716SOL     OW18046   2.022   2.525   5.099
 5716SOL    HW118047   1.994   2.620   5.085
 5716SOL    HW218048   1.977   2.489   5.180
 5717SOL     OW18049   0.309   3.225   6.935
 5717SOL    HW118050   0.222   3.243   6.980
 5717SOL    HW218051   0.293   3.170   6.852
 5718SOL     OW18052   2.393   5.315   5.172
 5718SOL    HW118053   2.342   5.266   5.243
 5718SOL    HW218054   2.363   5.284   5.082
 5719SOL     OW18055   2.408   0.436   7.018
 5719SOL    HW118056   2.319   0.442   0.044
 5719SOL    HW218057   2.463   0.365   0.044
 5720SOL     OW18058   1.899   6.007   3.856
 5720SOL    HW118059   1.949   5.937   3.908
 5720SOL    HW218060   1.841   5.962   3.788
 5721SOL     OW18061   6.901   4.389   0.645
 5721SOL    HW118062   6.914   4.488   0.641
 5721SOL    HW218063   6.974   4.347   0.699
 5722SOL     OW18064   5.472   1.302   3.826
 5722SOL    HW118065   5.409   1.348   3.889
 5722SOL    HW218066   5.562   1.296   3.869
 5723SOL     OW18067   1.105   4.031   0.894
 5723SOL    HW118068   1.068   3.938   0.902
 5723SOL    HW218069   1.096   4.077   0.982
 5724SOL     OW18070   4.933   2.481   6.100
 5724SOL    HW118071   4.870   2.476   6.177
 5724SOL    HW218072   4.997   2.403   6.104
 5725SOL     OW18073   5.054   5.828   5.521
 5725SOL    HW118074   5.121   5.756   5.538
 5725SOL    HW218075   5.060   5.859   5.426
 5726SOL     OW18076   4.312   3.837   5.381
 5726SOL    HW118077   4.390   3.783   5.351
 5726SOL    HW218078   4.344   3.925   5.417
 5727SOL     OW18079   6.059   1.885   3.829
 5727SOL    HW118080   6.098   1.818   3.766
 5727SOL    HW218081   5.967   1.857   3.856
 5728SOL     OW18082   4.515   0.525   5.790
 5728SOL    HW118083   4.492   0.583   5.868
 5728SOL    HW218084   4.438   0.526   5.725
 5729SOL     OW18085   1.275   3.021   4.966
 5729SOL    HW118086   1.301   3.005   5.062
 5729SOL    HW218087   1.334   2.965   4.907
 5730SOL     OW18088   4.425   5.599   0.135
 5730SOL    HW118089   4.332   5.594   0.099
 5730SOL    HW218090   4.422   5.631   0.230
 5731SOL     OW18091   4.520   1.388   5.102
 5731SOL    HW118092   4.620   1.377   5.102
 5731SOL    HW218093   4.497   1.482   5.127
 5732SOL     OW18094   5.451   4.435   4.095
 5732SOL    HW118095   5.439   4.377   4.014
 5732SOL    HW218096   5.374   4.498   4.102
 5733SOL     OW18097   2.684   6.877   1.413
 5733SOL    HW118098   2.758   6.944   1.424
 5733SOL    HW218099   2.693   6.806   1.483
 5734SOL     OW18100   1.294   6.313   6.631
 5734SOL    HW118101   1.374   6.288   6.686
 5734SOL    HW218102   1.241   6.383   6.678
 5735SOL     OW18103   5.180   1.041   2.244
 5735SOL    HW118104   5.114   1.077   2.309
 5735SOL    HW218105   5.250   1.109   2.226
 5736SOL     OW18106   6.169   4.479   6.745
 5736SOL    HW118107   6.235   4.418   6.790
 5736SOL    HW218108   6.077   4.440   6.751
 5737SOL     OW18109   4.756   5.468   1.871
 5737SOL    HW118110   4.745   5.487   1.969
 5737SOL    HW218111   4.670   5.487   1.824
 5738SOL     OW18112   2.209   0.480   0.713
 5738SOL    HW118113   2.204   0.566   0.663
 5738SOL    HW218114   2.294   0.478   0.766
 5739SOL     OW18115   2.099   1.307   5.971
 5739SOL    HW118116   2.022   1.335   6.028
 5739SOL    HW218117   2.175   1.277   6.030
 5740SOL     OW18118   4.931   3.516   2.593
 5740SOL    HW118119   4.907   3.419   2.601
 5740SOL    HW218120   5.030   3.526   2.602
 5741SOL     OW18121   1.140   3.750   4.021
 5741SOL    HW118122   1.068   3.801   3.974
 5741SOL    HW218123   1.103   3.662   4.052
 5742SOL     OW18124   5.888   6.718   3.321
 5742SOL    HW118125   5.927   6.748   3.233
 5742SOL    HW218126   5.947   6.648   3.361
 5743SOL     OW18127   3.507   5.452   6.988
 5743SOL    HW118128   3.559   5.369   7.006
 5743SOL    HW218129   3.461   5.444   6.900
 5744SOL     OW18130   5.186   6.732   3.311
 5744SOL    HW118131   5.223   6.825   3.310
 5744SOL    HW218132   5.224   6.679   3.235
 5745SOL     OW18133   0.864   3.015   1.989
 5745SOL    HW118134   0.800   3.077   2.034
 5745SOL    HW218135   0.958   3.036   2.018
 5746SOL     OW18136   4.997   6.829   3.010
 5746SOL    HW118137   4.971   6.846   3.105
 5746SOL    HW218138   4.923   6.858   2.949
 5747SOL     OW18139   1.578   6.541   0.977
 5747SOL    HW118140   1.528   6.472   1.030
 5747SOL    HW218141   1.518   6.575   0.904
 5748SOL     OW18142   0.019   6.335   0.707
 5748SOL    HW118143   6.943   6.341   0.677
 5748SOL    HW218144   0.042   6.240   0.727
 5749SOL     OW18145   1.929   5.647   6.478
 5749SOL    HW118146   1.890   5.594   6.553
 5749SOL    HW218147   1.978   5.585   6.416
 5750SOL     OW18148   6.944   3.124   4.338
 5750SOL    HW118149   6.922   3.050   4.275
 5750SOL    HW218150   0.006   3.099   4.392
 5751SOL     OW18151   1.043   3.982   4.602
 5751SOL    HW118152   1.108   4.009   4.531
 5751SOL    HW218153   1.060   3.887   4.629
 5752SOL     OW18154   5.264   0.740   0.561
 5752SOL    HW118155   5.317   0.825   0.562
 5752SOL    HW218156   5.201   0.738   0.638
 5753SOL     OW18157   3.552   4.095   4.515
 5753SOL    HW118158   3.636   4.110   4.568
 5753SOL    HW218159   3.473   4.108   4.575
 5754SOL     OW18160   0.423   5.771   1.315
 5754SOL    HW118161   0.329   5.759   1.347
 5754SOL    HW218162   0.427   5.755   1.216
 5755SOL     OW18163   0.784   2.908   6.059
 5755SOL    HW118164   0.773   3.004   6.084
 5755SOL    HW218165   0.865   2.871   6.104
 5756SOL     OW18166   5.852   6.019   1.659
 5756SOL    HW118167   5.803   5.976   1.735
 5756SOL    HW218168   5.888   5.948   1.598
 5757SOL     OW18169   0.190   0.935   3.843
 5757SOL    HW118170   0.147   0.846   3.854
 5757SOL    HW218171   0.282   0.924   3.805
 5758SOL     OW18172   6.073   6.442   2.701
 5758SOL    HW118173   6.074   6.481   2.609
 5758SOL    HW218174   6.000   6.483   2.754
 5759SOL     OW18175   3.157   0.289   1.321
 5759SOL    HW118176   3.225   0.216   1.320
 5759SOL    HW218177   3.147   0.326   1.413
 5760SOL     OW18178   1.811   2.673   0.112
 5760SOL    HW118179   1.731   2.703   0.060
 5760SOL    HW218180   1.845   2.749   0.168
 5761SOL     OW18181   6.566   7.003   4.626
 5761SOL    HW118182   6.621   0.066   4.610
 5761SOL    HW218183   6.578   6.940   4.549
 5762SOL     OW18184   0.793   5.601   6.285
 5762SOL    HW118185   0.815   5.517   6.235
 5762SOL    HW218186   0.695   5.619   6.278
 5763SOL     OW18187   5.989   0.458   0.560
 5763SOL    HW118188   5.976   0.379   0.620
 5763SOL    HW218189   6.004   0.540   0.617
 5764SOL     OW18190   4.675   6.114   4.058
 5764SOL    HW118191   4.584   6.087   4.091
 5764SOL    HW218192   4.741   6.107   4.132
 5765SOL     OW18193   6.355   5.029   2.600
 5765SOL    HW118194   6.382   4.946   2.551
 5765SOL    HW218195   6.256   5.036   2.603
 5766SOL     OW18196   0.443   1.209   4.229
 5766SOL    HW118197   0.362   1.196   4.171
 5766SOL    HW218198   0.494   1.123   4.234
 5767SOL     OW18199   4.330   6.838   6.731
 5767SOL    HW118200   4.302   6.889   6.813
 5767SOL    HW218201   4.250   6.814   6.677
 5768SOL     OW18202   0.706   0.948   5.259
 5768SOL    HW118203   0.634   0.886   5.228
 5768SOL    HW218204   0.773   0.961   5.185
 5769SOL     OW18205   1.659   3.721   5.738
 5769SOL    HW118206   1.739   3.691   5.685
 5769SOL    HW218207   1.578   3.718   5.680
 5770SOL     OW18208   2.317   3.897   1.823
 5770SOL    HW118209   2.278   3.985   1.852
 5770SOL    HW218210   2.273   3.823   1.874
 5771SOL     OW18211   3.657   4.960   4.111
 5771SOL    HW118212   3.723   4.921   4.046
 5771SOL    HW218213   3.697   5.040   4.155
 5772SOL     OW18214   3.479   0.098   2.326
 5772SOL    HW118215   3.562   0.145   2.358
 5772SOL    HW218216   3.413   0.093   2.402
 5773SOL     OW18217   5.402   1.262   2.567
 5773SOL    HW118218   5.481   1.201   2.565
 5773SOL    HW218219   5.412   1.327   2.642
 5774SOL     OW18220   0.967   6.223   2.643
 5774SOL    HW118221   1.042   6.157   2.643
 5774SOL    HW218222   1.004   6.315   2.641
 5775SOL     OW18223   6.287   5.305   1.690
 5775SOL    HW118224   6.347   5.385   1.694
 5775SOL    HW218225   6.211   5.324   1.628
 5776SOL     OW18226   2.599   1.023   3.802
 5776SOL    HW118227   2.555   1.089   3.863
 5776SOL    HW218228   2.650   0.956   3.856
 5777SOL     OW18229   2.011   6.538   2.196
 5777SOL    HW118230   1.920   6.515   2.231
 5777SOL    HW218231   2.080   6.484   2.245
 5778SOL     OW18232   0.497   1.020   0.635
 5778SOL    HW118233   0.576   0.994   0.578
 5778SOL    HW218234   0.514   1.110   0.675
 5779SOL     OW18235   5.794   0.866   5.921
 5779SOL    HW118236   5.780   0.768   5.909
 5779SOL    HW218237   5.884   0.892   5.889
 5780SOL     OW18238   5.295   5.208   4.505
 5780SOL    HW118239   5.232   5.131   4.501
 5780SOL    HW218240   5.260   5.276   4.570
 5781SOL     OW18241   1.283   4.842   5.764
 5781SOL    HW118242   1.371   4.806   5.795
 5781SOL    HW218243   1.293   4.882   5.673
 5782SOL     OW18244   0.693   0.540   0.173
 5782SOL    HW118245   0.671   0.586   0.087
 5782SOL    HW218246   0.609   0.510   0.217
 5783SOL     OW18247   2.216   2.447   0.631
 5783SOL    HW118248   2.219   2.450   0.731
 5783SOL    HW218249   2.278   2.515   0.593
 5784SOL     OW18250   6.419   6.030   6.923
 5784SOL    HW118251   6.487   6.104   6.922
 5784SOL    HW218252   6.351   6.046   6.852
 5785SOL     OW18253   0.937   1.243   0.777
 5785SOL    HW118254   0.878   1.319   0.804
 5785SOL    HW218255   0.966   1.256   0.682
 5786SOL     OW18256   5.749   5.014   1.909
 5786SOL    HW118257   5.749   5.114   1.918
 5786SOL    HW218258   5.701   4.974   1.987
 5787SOL     OW18259   2.378   2.722   6.457
 5787SOL    HW118260   2.385   2.623   6.444
 5787SOL    HW218261   2.461   2.755   6.503
 5788SOL     OW18262   3.008   0.713   3.305
 5788SOL    HW118263   2.963   0.668   3.227
 5788SOL    HW218264   2.939   0.742   3.371
 5789SOL     OW18265   3.533   4.780   6.125
 5789SOL    HW118266   3.535   4.817   6.218
 5789SOL    HW218267   3.626   4.780   6.088
 5790SOL     OW18268   1.511   3.528   3.341
 5790SOL    HW118269   1.465   3.529   3.252
 5790SOL    HW218270   1.450   3.567   3.410
 5791SOL     OW18271   1.767   0.998   3.014
 5791SOL    HW118272   1.797   1.073   2.956
 5791SOL    HW218273   1.813   0.913   2.986
 5792SOL     OW18274   6.706   2.226   2.734
 5792SOL    HW118275   6.637   2.294   2.710
 5792SOL    HW218276   6.797   2.262   2.712
 5793SOL     OW18277   0.414   0.859   4.053
 5793SOL    HW118278   0.323   0.901   4.060
 5793SOL    HW218279   0.440   0.853   3.957
 5794SOL     OW18280   5.023   4.488   6.350
 5794SOL    HW118281   5.061   4.408   6.397
 5794SOL    HW218282   4.930   4.505   6.383
 5795SOL     OW18283   5.554   4.465   6.872
 5795SOL    HW118284   5.536   4.480   6.775
 5795SOL    HW218285   5.534   4.370   6.896
 5796SOL     OW18286   3.576   2.432   0.526
 5796SOL    HW118287   3.642   2.358   0.539
 5796SOL    HW218288   3.517   2.410   0.448
 5797SOL     OW18289   3.273   2.344   6.012
 5797SOL    HW118290   3.285   2.412   6.084
 5797SOL    HW218291   3.177   2.345   5.981
 5798SOL     OW18292   6.535   5.447   4.009
 5798SOL    HW118293   6.536   5.546   3.995
 5798SOL    HW218294   6.557   5.401   3.923
 5799SOL     OW18295   5.486   0.675   3.765
 5799SOL    HW118296   5.465   0.586   3.726
 5799SOL    HW218297   5.411   0.738   3.747
 5800SOL     OW18298   5.448   5.169   0.849
 5800SOL    HW118299   5.420   5.083   0.893
 5800SOL    HW218300   5.388   5.243   0.880
 5801SOL     OW18301   2.751   1.104   2.894
 5801SOL    HW118302   2.791   1.178   2.838
 5801SOL    HW218303   2.717   1.032   2.834
 5802SOL     OW18304   0.292   2.807   4.654
 5802SOL    HW118305   0.330   2.774   4.741
 5802SOL    HW218306   0.205   2.761   4.637
 5803SOL     OW18307   1.979   4.688   0.426
 5803SOL    HW118308   1.903   4.695   0.490
 5803SOL    HW218309   1.953   4.631   0.348
 5804SOL     OW18310   6.480   3.216   5.254
 5804SOL    HW118311   6.394   3.255   5.220
 5804SOL    HW218312   6.557   3.255   5.202
 5805SOL     OW18313   5.713   3.241   0.189
 5805SOL    HW118314   5.642   3.195   0.135
 5805SOL    HW218315   5.669   3.294   0.262
 5806SOL     OW18316   0.347   6.648   0.251
 5806SOL    HW118317   0.424   6.664   0.188
 5806SOL    HW218318   0.382   6.615   0.338
 5807SOL     OW18319   2.052   3.692   1.820
 5807SOL    HW118320   2.040   3.787   1.851
 5807SOL    HW218321   2.098   3.640   1.892
 5808SOL     OW18322   6.368   3.119   3.623
 5808SOL    HW118323   6.435   3.178   3.668
 5808SOL    HW218324   6.353   3.037   3.679
 5809SOL     OW18325   6.607   3.518   3.934
 5809SOL    HW118326   6.510   3.543   3.944
 5809SOL    HW218327   6.639   3.474   4.017
 5810SOL     OW18328   2.703   2.254   2.495
 5810SOL    HW118329   2.612   2.220   2.471
 5810SOL    HW218330   2.751   2.281   2.412
 5811SOL     OW18331   2.668   1.298   3.082
 5811SOL    HW118332   2.687   1.221   3.021
 5811SOL    HW218333   2.575   1.331   3.066
 5812SOL     OW18334   4.048   0.698   4.921
 5812SOL    HW118335   4.001   0.692   5.010
 5812SOL    HW218336   3.984   0.675   4.848
 5813SOL     OW18337   1.697   0.908   5.452
 5813SOL    HW118338   1.752   0.850   5.392
 5813SOL    HW218339   1.608   0.924   5.411
 5814SOL     OW18340   0.531   4.941   1.009
 5814SOL    HW118341   0.481   4.860   0.979
 5814SOL    HW218342   0.600   4.965   0.940
 5815SOL     OW18343   3.377   1.598   3.138
 5815SOL    HW118344   3.341   1.677   3.187
 5815SOL    HW218345   3.320   1.581   3.057
 5816SOL     OW18346   5.059   0.011   1.182
 5816SOL    HW118347   4.988   6.962   1.161
 5816SOL    HW218348   5.019   0.103   1.179
 5817SOL     OW18349   5.122   1.708   5.192
 5817SOL    HW118350   5.048   1.643   5.209
 5817SOL    HW218351   5.159   1.693   5.101
 5818SOL     OW18352   5.840   6.100   5.808
 5818SOL    HW118353   5.913   6.032   5.814
 5818SOL    HW218354   5.861   6.176   5.869
 5819SOL     OW18355   6.205   0.316   0.868
 5819SOL    HW118356   6.127   0.375   0.888
 5819SOL    HW218357   6.227   0.260   0.948
 5820SOL     OW18358   5.805   6.225   3.035
 5820SOL    HW118359   5.871   6.296   3.059
 5820SOL    HW218360   5.746   6.257   2.961
 5821SOL     OW18361   3.290   0.393   1.548
 5821SOL    HW118362   3.267   0.301   1.579
 5821SOL    HW218363   3.232   0.459   1.595
 5822SOL     OW18364   0.880   1.035   2.046
 5822SOL    HW118365   0.830   1.036   2.132
 5822SOL    HW218366   0.868   1.123   2.000
 5823SOL     OW18367   2.568   2.510   4.059
 5823SOL    HW118368   2.592   2.487   3.965
 5823SOL    HW218369   2.492   2.453   4.090
 5824SOL     OW18370   4.706   0.409   3.604
 5824SOL    HW118371   4.614   0.435   3.632
 5824SOL    HW218372   4.773   0.464   3.653
 5825SOL     OW18373   2.713   0.745   0.676
 5825SOL    HW118374   2.677   0.678   0.612
 5825SOL    HW218375   2.766   0.814   0.626
 5826SOL     OW18376   6.594   0.813   4.962
 5826SOL    HW118377   6.656   0.867   5.018
 5826SOL    HW218378   6.638   0.725   4.940
 5827SOL     OW18379   1.109   5.299   5.010
 5827SOL    HW118380   1.056   5.223   5.048
 5827SOL    HW218381   1.153   5.269   4.925
 5828SOL     OW18382   6.901   2.854   1.708
 5828SOL    HW118383   6.837   2.780   1.686
 5828SOL    HW218384   6.854   2.942   1.702
 5829SOL     OW18385   1.805   0.906   1.712
 5829SOL    HW118386   1.841   0.999   1.724
 5829SOL    HW218387   1.738   0.887   1.784
 5830SOL     OW18388   1.892   1.397   5.692
 5830SOL    HW118389   1.811   1.375   5.748
 5830SOL    HW218390   1.974   1.393   5.750
 5831SOL     OW18391   5.454   6.590   2.809
 5831SOL    HW118392   5.511   6.622   2.884
 5831SOL    HW218393   5.361   6.625   2.819
 5832SOL     OW18394   3.650   3.879   5.077
 5832SOL    HW118395   3.681   3.921   4.991
 5832SOL    HW218396   3.576   3.934   5.116
 5833SOL     OW18397   3.771   3.416   4.962
 5833SOL    HW118398   3.701   3.347   4.980
 5833SOL    HW218399   3.825   3.390   4.883
 5834SOL     OW18400   5.826   1.109   0.493
 5834SOL    HW118401   5.788   1.028   0.450
 5834SOL    HW218402   5.916   1.088   0.531
 5835SOL     OW18403   5.109   2.465   4.216
 5835SOL    HW118404   5.117   2.541   4.152
 5835SOL    HW218405   5.131   2.380   4.169
 5836SOL     OW18406   3.567   5.855   2.384
 5836SOL    HW118407   3.609   5.856   2.293
 5836SOL    HW218408   3.608   5.782   2.439
 5837SOL     OW18409   4.729   4.505   6.354
 5837SOL    HW118410   4.699   4.497   6.258
 5837SOL    HW218411   4.653   4.540   6.409
 5838SOL     OW18412   0.733   1.830   5.375
 5838SOL    HW118413   0.700   1.915   5.416
 5838SOL    HW218414   0.731   1.757   5.443
 5839SOL     OW18415   0.144   3.239   2.662
 5839SOL    HW118416   0.211   3.311   2.677
 5839SOL    HW218417   0.069   3.248   2.728
 5840SOL     OW18418   1.815   5.189   6.727
 5840SOL    HW118419   1.792   5.092   6.723
 5840SOL    HW218420   1.886   5.209   6.659
 5841SOL     OW18421   6.575   2.442   3.146
 5841SOL    HW118422   6.578   2.345   3.170
 5841SOL    HW218423   6.483   2.478   3.163
 5842SOL     OW18424   4.059   2.955   0.639
 5842SOL    HW118425   4.071   2.858   0.656
 5842SOL    HW218426   4.002   2.995   0.712
 5843SOL     OW18427   1.285   3.174   1.827
 5843SOL    HW118428   1.376   3.143   1.855
 5843SOL    HW218429   1.292   3.217   1.737
 5844SOL     OW18430   1.415   6.311   0.440
 5844SOL    HW118431   1.508   6.289   0.469
 5844SOL    HW218432   1.391   6.256   0.360
 5845SOL     OW18433   1.119   2.359   4.446
 5845SOL    HW118434   1.090   2.265   4.464
 5845SOL    HW218435   1.044   2.422   4.469
 5846SOL     OW18436   7.005   3.002   6.019
 5846SOL    HW118437   6.986   3.013   6.117
 5846SOL    HW218438   7.009   3.092   5.976
 5847SOL     OW18439   1.901   2.671   3.180
 5847SOL    HW118440   1.967   2.701   3.249
 5847SOL    HW218441   1.875   2.749   3.122
 5848SOL     OW18442   1.578   4.885   3.904
 5848SOL    HW118443   1.597   4.792   3.933
 5848SOL    HW218444   1.663   4.936   3.895
 5849SOL     OW18445   2.865   6.760   5.768
 5849SOL    HW118446   2.894   6.670   5.735
 5849SOL    HW218447   2.862   6.760   5.868
 5850SOL     OW18448   0.841   4.204   2.886
 5850SOL    HW118449   0.795   4.162   2.964
 5850SOL    HW218450   0.773   4.252   2.829
 5851SOL     OW18451   6.164   3.271   1.960
 5851SOL    HW118452   6.099   3.334   2.003
 5851SOL    HW218453   6.116   3.211   1.896
 5852SOL     OW18454   4.144   5.806   2.919
 5852SOL    HW118455   4.195   5.842   2.997
 5852SOL    HW218456   4.091   5.879   2.876
 5853SOL     OW18457   3.815   4.210   5.886
 5853SOL    HW118458   3.745   4.262   5.935
 5853SOL    HW218459   3.904   4.252   5.900
 5854SOL     OW18460   6.938   1.112   6.588
 5854SOL    HW118461   0.019   1.121   6.582
 5854SOL    HW218462   6.907   1.139   6.679
 5855SOL     OW18463   1.656   1.244   4.801
 5855SOL    HW118464   1.740   1.290   4.830
 5855SOL    HW218465   1.645   1.159   4.852
 5856SOL     OW18466   2.401   5.047   3.914
 5856SOL    HW118467   2.487   5.022   3.870
 5856SOL    HW218468   2.334   5.073   3.844
 5857SOL     OW18469   6.786   2.728   5.568
 5857SOL    HW118470   6.687   2.742   5.573
 5857SOL    HW218471   6.831   2.782   5.639
 5858SOL     OW18472   3.660   0.579   2.680
 5858SOL    HW118473   3.760   0.578   2.669
 5858SOL    HW218474   3.628   0.486   2.700
 5859SOL     OW18475   6.372   5.668   1.241
 5859SOL    HW118476   6.455   5.703   1.284
 5859SOL    HW218477   6.381   5.569   1.229
 5860SOL     OW18478   1.771   3.737   1.155
 5860SOL    HW118479   1.812   3.808   1.212
 5860SOL    HW218480   1.825   3.653   1.163
 5861SOL     OW18481   6.071   2.129   3.932
 5861SOL    HW118482   5.982   2.139   3.977
 5861SOL    HW218483   6.080   2.037   3.895
 5862SOL     OW18484   4.919   4.323   3.034
 5862SOL    HW118485   4.948   4.293   2.943
 5862SOL    HW218486   4.994   4.307   3.099
 5863SOL     OW18487   2.116   1.166   0.316
 5863SOL    HW118488   2.058   1.210   0.248
 5863SOL    HW218489   2.188   1.113   0.271
 5864SOL     OW18490   4.917   4.926   0.881
 5864SOL    HW118491   4.905   4.987   0.802
 5864SOL    HW218492   4.832   4.875   0.897
 5865SOL     OW18493   4.055   1.079   3.303
 5865SOL    HW118494   4.069   1.168   3.346
 5865SOL    HW218495   3.980   1.084   3.237
 5866SOL     OW18496   4.026   0.300   6.558
 5866SOL    HW118497   3.951   0.234   6.560
 5866SOL    HW218498   4.042   0.329   6.464
 5867SOL     OW18499   0.060   2.479   0.779
 5867SOL    HW118500   0.087   2.415   0.850
 5867SOL    HW218501   0.140   2.529   0.746
 5868SOL     OW18502   1.369   0.234   4.950
 5868SOL    HW118503   1.428   0.215   4.870
 5868SOL    HW218504   1.323   0.322   4.937
 5869SOL     OW18505   2.986   4.812   3.523
 5869SOL    HW118506   2.944   4.872   3.454
 5869SOL    HW218507   2.915   4.758   3.567
 5870SOL     OW18508   5.545   4.745   4.839
 5870SOL    HW118509   5.472   4.813   4.837
 5870SOL    HW218510   5.585   4.736   4.748
 5871SOL     OW18511   2.891   2.758   6.581
 5871SOL    HW118512   2.882   2.856   6.600
 5871SOL    HW218513   2.801   2.720   6.556
 5872SOL     OW18514   3.841   5.838   4.756
 5872SOL    HW118515   3.762   5.783   4.780
 5872SOL    HW218516   3.811   5.927   4.721
 5873SOL     OW18517   2.777   3.690   0.308
 5873SOL    HW118518   2.844   3.764   0.305
 5873SOL    HW218519   2.686   3.728   0.318
 5874SOL     OW18520   1.843   4.158   0.773
 5874SOL    HW118521   1.840   4.236   0.711
 5874SOL    HW218522   1.846   4.073   0.720
 5875SOL     OW18523   4.256   1.873   0.270
 5875SOL    HW118524   4.226   1.962   0.236
 5875SOL    HW218525   4.272   1.878   0.368
 5876SOL     OW18526   3.629   4.434   6.054
 5876SOL    HW118527   3.669   4.525   6.049
 5876SOL    HW218528   3.533   4.438   6.026
 5877SOL     OW18529   6.674   6.704   2.483
 5877SOL    HW118530   6.580   6.729   2.505
 5877SOL    HW218531   6.680   6.678   2.387
 5878SOL     OW18532   5.157   4.661   2.442
 5878SOL    HW118533   5.254   4.679   2.460
 5878SOL    HW218534   5.103   4.692   2.520
 5879SOL     OW18535   3.908   3.212   5.718
 5879SOL    HW118536   3.864   3.160   5.644
 5879SOL    HW218537   4.006   3.196   5.717
 5880SOL     OW18538   5.812   2.737   5.870
 5880SOL    HW118539   5.753   2.780   5.802
 5880SOL    HW218540   5.906   2.739   5.838
 5881SOL     OW18541   1.527   6.031   2.465
 5881SOL    HW118542   1.462   6.027   2.541
 5881SOL    HW218543   1.614   6.068   2.497
 5882SOL     OW18544   1.648   5.120   5.371
 5882SOL    HW118545   1.730   5.177   5.372
 5882SOL    HW218546   1.644   5.070   5.284
 5883SOL     OW18547   6.558   4.967   0.041
 5883SOL    HW118548   6.524   4.951   6.967
 5883SOL    HW218549   6.484   5.002   0.098
 5884SOL     OW18550   6.169   2.188   2.767
 5884SOL    HW118551   6.173   2.111   2.831
 5884SOL    HW218552   6.138   2.270   2.815
 5885SOL     OW18553   6.505   5.307   0.576
 5885SOL    HW118554   6.424   5.357   0.547
 5885SOL    HW218555   6.482   5.252   0.657
 5886SOL     OW18556   1.987   4.381   3.582
 5886SOL    HW118557   2.059   4.347   3.643
 5886SOL    HW218558   1.919   4.310   3.566
 5887SOL     OW18559   2.427   2.667   0.844
 5887SOL    HW118560   2.375   2.739   0.797
 5887SOL    HW218561   2.438   2.692   0.940
 5888SOL     OW18562   3.125   6.524   1.490
 5888SOL    HW118563   3.026   6.533   1.500
 5888SOL    HW218564   3.154   6.434   1.525
 5889SOL     OW18565   5.880   1.426   1.968
 5889SOL    HW118566   5.901   1.330   1.950
 5889SOL    HW218567   5.853   1.471   1.882
 5890SOL     OW18568   1.487   5.496   2.681
 5890SOL    HW118569   1.402   5.472   2.634
 5890SOL    HW218570   1.499   5.436   2.761
 5891SOL     OW18571   2.544   3.657   6.853
 5891SOL    HW118572   2.470   3.590   6.862
 5891SOL    HW218573   2.613   3.640   6.923
 5892SOL     OW18574   1.024   3.102   0.255
 5892SOL    HW118575   1.048   3.030   0.320
 5892SOL    HW218576   1.107   3.139   0.214
 5893SOL     OW18577   0.981   6.644   0.903
 5893SOL    HW118578   0.979   6.597   0.990
 5893SOL    HW218579   0.928   6.593   0.835
 5894SOL     OW18580   2.263   5.372   6.727
 5894SOL    HW118581   2.302   5.317   6.800
 5894SOL    HW218582   2.323   5.370   6.647
 5895SOL     OW18583   5.145   3.895   3.718
 5895SOL    HW118584   5.182   3.903   3.626
 5895SOL    HW218585   5.159   3.802   3.752
 5896SOL     OW18586   5.727   3.048   2.245
 5896SOL    HW118587   5.629   3.062   2.258
 5896SOL    HW218588   5.745   2.950   2.232
 5897SOL     OW18589   3.751   2.242   0.515
 5897SOL    HW118590   3.699   2.180   0.456
 5897SOL    HW218591   3.832   2.195   0.550
 5898SOL     OW18592   1.899   1.292   6.420
 5898SOL    HW118593   1.899   1.362   6.348
 5898SOL    HW218594   1.980   1.235   6.412
 5899SOL     OW18595   0.281   6.274   6.735
 5899SOL    HW118596   0.195   6.326   6.737
 5899SOL    HW218597   0.348   6.319   6.794
 5900SOL     OW18598   5.728   6.582   3.023
 5900SOL    HW118599   5.817   6.548   3.053
 5900SOL    HW218600   5.665   6.585   3.100
 5901SOL     OW18601   2.512   0.613   4.896
 5901SOL    HW118602   2.534   0.700   4.853
 5901SOL    HW218603   2.425   0.621   4.945
 5902SOL     OW18604   4.507   3.973   5.848
 5902SOL    HW118605   4.414   4.009   5.855
 5902SOL    HW218606   4.537   3.979   5.753
 5903SOL     OW18607   6.266   1.702   5.280
 5903SOL    HW118608   6.224   1.788   5.309
 5903SOL    HW218609   6.213   1.662   5.206
 5904SOL     OW18610   0.898   4.852   1.561
 5904SOL    HW118611   0.930   4.761   1.534
 5904SOL    HW218612   0.961   4.921   1.527
 5905SOL     OW18613   5.984   1.392   4.199
 5905SOL    HW118614   5.902   1.399   4.143
 5905SOL    HW218615   5.960   1.364   4.291
 5906SOL     OW18616   4.549   1.064   5.641
 5906SOL    HW118617   4.469   1.103   5.595
 5906SOL    HW218618   4.630   1.119   5.619
 5907SOL     OW18619   1.339   3.911   5.565
 5907SOL    HW118620   1.375   3.818   5.568
 5907SOL    HW218621   1.253   3.912   5.514
 5908SOL     OW18622   4.818   3.549   6.414
 5908SOL    HW118623   4.750   3.623   6.409
 5908SOL    HW218624   4.818   3.510   6.506
 5909SOL     OW18625   6.555   4.822   3.712
 5909SOL    HW118626   6.456   4.834   3.701
 5909SOL    HW218627   6.581   4.731   3.679
 5910SOL     OW18628   3.244   4.776   0.848
 5910SOL    HW118629   3.320   4.777   0.913
 5910SOL    HW218630   3.230   4.682   0.815
 5911SOL     OW18631   5.792   6.508   0.338
 5911SOL    HW118632   5.871   6.498   0.277
 5911SOL    HW218633   5.810   6.460   0.424
 5912SOL     OW18634   0.405   2.993   5.326
 5912SOL    HW118635   0.467   2.979   5.248
 5912SOL    HW218636   0.453   3.042   5.398
 5913SOL     OW18637   1.147   2.157   5.099
 5913SOL    HW118638   1.127   2.201   5.186
 5913SOL    HW218639   1.217   2.087   5.112
 5914SOL     OW18640   2.081   5.663   0.767
 5914SOL    HW118641   2.006   5.604   0.737
 5914SOL    HW218642   2.139   5.613   0.831
 5915SOL     OW18643   5.126   3.129   3.914
 5915SOL    HW118644   5.202   3.134   3.849
 5915SOL    HW218645   5.143   3.056   3.980
 5916SOL     OW18646   2.982   0.155   6.275
 5916SOL    HW118647   2.931   0.149   6.189
 5916SOL    HW218648   3.029   0.068   6.292
 5917SOL     OW18649   4.029   3.761   2.738
 5917SOL    HW118650   3.938   3.801   2.744
 5917SOL    HW218651   4.068   3.753   2.829
 5918SOL     OW18652   2.351   2.689   3.503
 5918SOL    HW118653   2.401   2.606   3.478
 5918SOL    HW218654   2.401   2.770   3.471
 5919SOL     OW18655   1.381   2.648   0.041
 5919SOL    HW118656   1.284   2.670   0.055
 5919SOL    HW218657   1.401   2.560   0.085
 5920SOL     OW18658   2.939   5.360   0.095
 5920SOL    HW118659   2.888   5.286   0.137
 5920SOL    HW218660   2.940   5.439   0.157
 5921SOL     OW18661   3.586   5.309   5.456
 5921SOL    HW118662   3.593   5.300   5.555
 5921SOL    HW218663   3.677   5.309   5.415
 5922SOL     OW18664   6.039   4.299   1.512
 5922SOL    HW118665   6.024   4.248   1.427
 5922SOL    HW218666   5.978   4.263   1.583
 5923SOL     OW18667   6.667   0.435   3.514
 5923SOL    HW118668   6.719   0.441   3.429
 5923SOL    HW218669   6.593   0.503   3.513
 5924SOL     OW18670   5.511   1.700   4.727
 5924SOL    HW118671   5.539   1.781   4.779
 5924SOL    HW218672   5.531   1.618   4.780
 5925SOL     OW18673   6.313   5.722   0.916
 5925SOL    HW118674   6.398   5.671   0.907
 5925SOL    HW218675   6.289   5.763   0.827
 5926SOL     OW18676   3.811   4.869   2.253
 5926SOL    HW118677   3.744   4.943   2.263
 5926SOL    HW218678   3.764   4.786   2.221
 5927SOL     OW18679   2.326   5.231   2.262
 5927SOL    HW118680   2.391   5.165   2.300
 5927SOL    HW218681   2.280   5.192   2.182
 5928SOL     OW18682   0.967   6.513   1.845
 5928SOL    HW118683   0.886   6.571   1.829
 5928SOL    HW218684   1.025   6.513   1.764
 5929SOL     OW18685   1.229   7.015   5.493
 5929SOL    HW118686   1.277   6.997   5.407
 5929SOL    HW218687   1.294   7.011   5.569
 5930SOL     OW18688   0.015   1.154   5.024
 5930SOL    HW118689   0.091   1.159   4.960
 5930SOL    HW218690   0.042   1.196   5.111
 5931SOL     OW18691   5.708   5.170   1.630
 5931SOL    HW118692   5.690   5.129   1.719
 5931SOL    HW218693   5.797   5.140   1.597
 5932SOL     OW18694   2.308   6.903   6.996
 5932SOL    HW118695   2.250   6.823   7.014
 5932SOL    HW218696   2.262   6.985   0.010
 5933SOL     OW18697   5.927   3.523   2.809
 5933SOL    HW118698   5.855   3.463   2.775
 5933SOL    HW218699   5.995   3.469   2.859
 5934SOL     OW18700   3.269   4.045   2.723
 5934SOL    HW118701   3.341   4.052   2.654
 5934SOL    HW218702   3.183   4.020   2.679
 5935SOL     OW18703   3.984   3.488   3.090
 5935SOL    HW118704   3.977   3.408   3.030
 5935SOL    HW218705   3.905   3.548   3.075
 5936SOL     OW18706   5.625   6.001   6.031
 5936SOL    HW118707   5.529   5.979   6.050
 5936SOL    HW218708   5.629   6.073   5.962
 5937SOL     OW18709   1.046   4.071   0.424
 5937SOL    HW118710   1.017   4.038   0.334
 5937SOL    HW218711   1.138   4.037   0.443
 5938SOL     OW18712   1.890   4.299   1.437
 5938SOL    HW118713   1.940   4.384   1.457
 5938SOL    HW218714   1.943   4.221   1.471
 5939SOL     OW18715   2.420   1.134   2.845
 5939SOL    HW118716   2.346   1.191   2.880
 5939SOL    HW218717   2.454   1.172   2.759
 5940SOL     OW18718   4.046   5.162   3.606
 5940SOL    HW118719   4.126   5.156   3.547
 5940SOL    HW218720   4.070   5.211   3.690
 5941SOL     OW18721   6.382   4.082   2.451
 5941SOL    HW118722   6.468   4.035   2.433
 5941SOL    HW218723   6.355   4.135   2.370
 5942SOL     OW18724   6.034   1.867   5.191
 5942SOL    HW118725   5.992   1.882   5.280
 5942SOL    HW218726   6.033   1.952   5.139
 5943SOL     OW18727   0.896   5.265   0.264
 5943SOL    HW118728   0.914   5.363   0.258
 5943SOL    HW218729   0.889   5.226   0.172
 5944SOL     OW18730   4.614   2.125   2.901
 5944SOL    HW118731   4.673   2.045   2.903
 5944SOL    HW218732   4.519   2.096   2.890
 5945SOL     OW18733   0.149   5.343   5.712
 5945SOL    HW118734   0.239   5.302   5.714
 5945SOL    HW218735   0.150   5.423   5.652
 5946SOL     OW18736   3.950   2.752   5.328
 5946SOL    HW118737   3.901   2.783   5.246
 5946SOL    HW218738   4.022   2.688   5.301
 5947SOL     OW18739   4.189   3.737   1.460
 5947SOL    HW118740   4.220   3.761   1.552
 5947SOL    HW218741   4.224   3.804   1.395
 5948SOL     OW18742   3.644   5.377   3.098
 5948SOL    HW118743   3.668   5.474   3.099
 5948SOL    HW218744   3.545   5.367   3.106
 5949SOL     OW18745   4.508   4.625   2.151
 5949SOL    HW118746   4.494   4.573   2.235
 5949SOL    HW218747   4.605   4.619   2.124
 5950SOL     OW18748   6.640   2.190   3.752
 5950SOL    HW118749   6.554   2.226   3.715
 5950SOL    HW218750   6.626   2.095   3.781
 5951SOL     OW18751   1.899   6.477   3.559
 5951SOL    HW118752   1.922   6.478   3.656
 5951SOL    HW218753   1.862   6.566   3.532
 5952SOL     OW18754   6.836   6.479   4.999
 5952SOL    HW118755   6.805   6.532   4.920
 5952SOL    HW218756   6.777   6.499   5.077
 5953SOL     OW18757   0.158   3.339   6.198
 5953SOL    HW118758   0.200   3.411   6.253
 5953SOL    HW218759   0.181   3.250   6.237
 5954SOL     OW18760   1.281   4.806   6.839
 5954SOL    HW118761   1.223   4.782   6.761
 5954SOL    HW218762   1.251   4.894   6.876
 5955SOL     OW18763   5.000   5.505   2.944
 5955SOL    HW118764   5.090   5.477   2.911
 5955SOL    HW218765   5.003   5.601   2.971
 5956SOL     OW18766   5.923   2.475   6.984
 5956SOL    HW118767   5.919   2.480   0.065
 5956SOL    HW218768   5.984   2.401   6.956
 5957SOL     OW18769   4.521   6.721   5.614
 5957SOL    HW118770   4.475   6.669   5.542
 5957SOL    HW218771   4.462   6.726   5.694
 5958SOL     OW18772   1.061   5.707   2.472
 5958SOL    HW118773   1.053   5.727   2.374
 5958SOL    HW218774   1.157   5.718   2.500
 5959SOL     OW18775   1.669   1.347   6.536
 5959SOL    HW118776   1.767   1.336   6.520
 5959SOL    HW218777   1.646   1.312   6.627
 5960SOL     OW18778   3.495   0.179   4.506
 5960SOL    HW118779   3.588   0.200   4.537
 5960SOL    HW218780   3.474   0.234   4.425
 5961SOL     OW18781   2.465   1.334   6.245
 5961SOL    HW118782   2.380   1.363   6.288
 5961SOL    HW218783   2.532   1.408   6.248
 5962SOL     OW18784   5.261   5.483   2.798
 5962SOL    HW118785   5.348   5.487   2.848
 5962SOL    HW218786   5.255   5.397   2.748
 5963SOL     OW18787   3.906   3.864   2.060
 5963SOL    HW118788   3.903   3.917   2.145
 5963SOL    HW218789   3.947   3.775   2.077
 5964SOL     OW18790   1.000   4.197   5.828
 5964SOL    HW118791   1.026   4.173   5.921
 5964SOL    HW218792   1.071   4.253   5.787
 5965SOL     OW18793   2.388   1.700   4.134
 5965SOL    HW118794   2.347   1.686   4.043
 5965SOL    HW218795   2.376   1.796   4.161
 5966SOL     OW18796   1.451   6.692   4.123
 5966SOL    HW118797   1.548   6.717   4.127
 5966SOL    HW218798   1.412   6.722   4.036
 5967SOL     OW18799   4.532   6.884   2.049
 5967SOL    HW118800   4.464   6.825   2.005
 5967SOL    HW218801   4.567   6.950   1.983
 5968SOL     OW18802   0.446   2.076   4.517
 5968SOL    HW118803   0.396   2.118   4.441
 5968SOL    HW218804   0.488   1.991   4.487
 5969SOL     OW18805   5.725   3.052   2.649
 5969SOL    HW118806   5.674   3.018   2.727
 5969SOL    HW218807   5.723   2.985   2.575
 5970SOL     OW18808   1.866   2.883   3.887
 5970SOL    HW118809   1.826   2.924   3.969
 5970SOL    HW218810   1.918   2.802   3.913
 5971SOL     OW18811   2.721   6.903   2.912
 5971SOL    HW118812   2.805   6.944   2.948
 5971SOL    HW218813   2.703   6.940   2.820
 5972SOL     OW18814   4.777   6.667   1.278
 5972SOL    HW118815   4.752   6.593   1.216
 5972SOL    HW218816   4.814   6.744   1.226
 5973SOL     OW18817   0.918   4.707   3.891
 5973SOL    HW118818   0.939   4.721   3.794
 5973SOL    HW218819   1.000   4.676   3.939
 5974SOL     OW18820   1.197   3.834   6.354
 5974SOL    HW118821   1.251   3.914   6.380
 5974SOL    HW218822   1.244   3.750   6.384
 5975SOL     OW18823   1.651   3.138   6.846
 5975SOL    HW118824   1.575   3.186   6.890
 5975SOL    HW218825   1.616   3.058   6.797
 5976SOL     OW18826   3.370   3.883   4.873
 5976SOL    HW118827   3.308   3.858   4.799
 5976SOL    HW218828   3.431   3.806   4.893
 5977SOL     OW18829   1.099   3.476   3.078
 5977SOL    HW118830   1.093   3.485   3.177
 5977SOL    HW218831   1.069   3.384   3.051
 5978SOL     OW18832   5.780   5.475   3.153
 5978SOL    HW118833   5.683   5.470   3.177
 5978SOL    HW218834   5.815   5.565   3.178
 5979SOL     OW18835   0.530   0.698   2.669
 5979SOL    HW118836   0.598   0.737   2.731
 5979SOL    HW218837   0.511   0.763   2.595
 5980SOL     OW18838   6.148   3.892   6.122
 5980SOL    HW118839   6.101   3.804   6.135
 5980SOL    HW218840   6.152   3.940   6.209
 5981SOL     OW18841   3.588   1.959   1.507
 5981SOL    HW118842   3.597   2.008   1.594
 5981SOL    HW218843   3.616   2.019   1.432
 5982SOL     OW18844   5.781   2.662   6.807
 5982SOL    HW118845   5.761   2.613   6.722
 5982SOL    HW218846   5.831   2.602   6.869
 5983SOL     OW18847   1.204   1.461   4.732
 5983SOL    HW118848   1.250   1.491   4.648
 5983SOL    HW218849   1.109   1.490   4.731
 5984SOL     OW18850   0.547   0.146   5.527
 5984SOL    HW118851   0.479   0.077   5.502
 5984SOL    HW218852   0.534   0.173   5.623
 5985SOL     OW18853   4.852   3.054   4.484
 5985SOL    HW118854   4.870   3.141   4.530
 5985SOL    HW218855   4.801   2.993   4.544
 5986SOL     OW18856   3.818   2.978   2.378
 5986SOL    HW118857   3.904   3.003   2.423
 5986SOL    HW218858   3.764   3.061   2.362
 5987SOL     OW18859   4.174   6.869   5.241
 5987SOL    HW118860   4.098   6.821   5.284
 5987SOL    HW218861   4.256   6.811   5.242
 5988SOL     OW18862   4.324   0.580   4.170
 5988SOL    HW118863   4.359   0.554   4.260
 5988SOL    HW218864   4.304   0.678   4.169
 5989SOL     OW18865   2.891   0.705   6.225
 5989SOL    HW118866   2.868   0.621   6.175
 5989SOL    HW218867   2.985   0.701   6.256
 5990SOL     OW18868   3.218   4.994   1.994
 5990SOL    HW118869   3.254   4.942   1.916
 5990SOL    HW218870   3.259   5.086   1.994
 5991SOL     OW18871   3.183   5.329   3.867
 5991SOL    HW118872   3.247   5.300   3.795
 5991SOL    HW218873   3.138   5.414   3.839
 5992SOL     OW18874   4.614   1.092   4.565
 5992SOL    HW118875   4.692   1.031   4.547
 5992SOL    HW218876   4.635   1.184   4.532
 5993SOL     OW18877   3.449   5.454   4.474
 5993SOL    HW118878   3.520   5.510   4.431
 5993SOL    HW218879   3.361   5.500   4.466
 5994SOL     OW18880   6.718   2.437   1.868
 5994SOL    HW118881   6.704   2.451   1.966
 5994SOL    HW218882   6.773   2.354   1.855
 5995SOL     OW18883   0.414   4.630   1.019
 5995SOL    HW118884   0.336   4.677   1.060
 5995SOL    HW218885   0.469   4.589   1.092
 5996SOL     OW18886   0.744   5.069   6.137
 5996SOL    HW118887   0.697   5.031   6.058
 5996SOL    HW218888   0.843   5.059   6.125
 5997SOL     OW18889   0.878   0.097   1.905
 5997SOL    HW118890   0.910   0.008   1.939
 5997SOL    HW218891   0.849   0.088   1.810
 5998SOL     OW18892   4.183   1.950   3.623
 5998SOL    HW118893   4.191   2.008   3.543
 5998SOL    HW218894   4.179   1.854   3.595
 5999SOL     OW18895   2.057   1.769   2.866
 5999SOL    HW118896   2.067   1.724   2.777
 5999SOL    HW218897   1.987   1.840   2.860
 6000SOL     OW18898   4.351   6.554   2.878
 6000SOL    HW118899   4.373   6.500   2.959
 6000SOL    HW218900   4.431   6.556   2.817
 6001SOL     OW18901   6.153   1.798   6.920
 6001SOL    HW118902   6.067   1.749   6.933
 6001SOL    HW218903   6.149   1.850   6.834
 6002SOL     OW18904   1.883   6.889   2.064
 6002SOL    HW118905   1.842   6.976   2.093
 6002SOL    HW218906   1.822   6.814   2.090
 6003SOL     OW18907   4.696   4.224   3.781
 6003SOL    HW118908   4.648   4.284   3.716
 6003SOL    HW218909   4.713   4.135   3.737
 6004SOL     OW18910   0.066   3.686   1.404
 6004SOL    HW118911   0.102   3.701   1.312
 6004SOL    HW218912   0.051   3.774   1.449
 6005SOL     OW18913   2.801   5.884   2.224
 6005SOL    HW118914   2.833   5.978   2.234
 6005SOL    HW218915   2.824   5.832   2.306
 6006SOL     OW18916   2.425   5.602   6.907
 6006SOL    HW118917   2.458   5.671   6.972
 6006SOL    HW218918   2.489   5.597   6.830
 6007SOL     OW18919   5.561   2.126   4.144
 6007SOL    HW118920   5.568   2.028   4.161
 6007SOL    HW218921   5.529   2.143   4.051
 6008SOL     OW18922   3.996   4.912   6.900
 6008SOL    HW118923   3.957   4.827   6.935
 6008SOL    HW218924   4.014   4.903   6.802
 6009SOL     OW18925   3.388   1.561   4.190
 6009SOL    HW118926   3.435   1.531   4.273
 6009SOL    HW218927   3.289   1.563   4.208
 6010SOL     OW18928   1.682   2.868   3.680
 6010SOL    HW118929   1.682   2.962   3.645
 6010SOL    HW218930   1.756   2.857   3.747
 6011SOL     OW18931   0.043   2.727   2.409
 6011SOL    HW118932   6.976   2.680   2.390
 6011SOL    HW218933   0.086   2.688   2.491
 6012SOL     OW18934   6.815   3.187   0.677
 6012SOL    HW118935   6.750   3.260   0.696
 6012SOL    HW218936   6.866   3.165   0.760
 6013SOL     OW18937   5.857   0.616   2.483
 6013SOL    HW118938   5.875   0.618   2.582
 6013SOL    HW218939   5.767   0.577   2.467
 6014SOL     OW18940   5.594   0.359   1.188
 6014SOL    HW118941   5.548   0.288   1.133
 6014SOL    HW218942   5.528   0.401   1.250
 6015SOL     OW18943   4.914   1.806   5.005
 6015SOL    HW118944   4.940   1.852   4.920
 6015SOL    HW218945   4.941   1.862   5.083
 6016SOL     OW18946   1.852   0.140   5.206
 6016SOL    HW118947   1.841   0.213   5.274
 6016SOL    HW218948   1.945   0.142   5.169
 6017SOL     OW18949   6.600   3.943   2.484
 6017SOL    HW118950   6.657   3.929   2.565
 6017SOL    HW218951   6.638   3.890   2.407
 6018SOL     OW18952   2.493   5.374   0.758
 6018SOL    HW118953   2.495   5.287   0.709
 6018SOL    HW218954   2.510   5.358   0.855
 6019SOL     OW18955   5.233   6.757   4.078
 6019SOL    HW118956   5.276   6.673   4.045
 6019SOL    HW218957   5.139   6.761   4.046
 6020SOL     OW18958   3.571   0.440   2.277
 6020SOL    HW118959   3.587   0.477   2.186
 6020SOL    HW218960   3.483   0.473   2.311
 6021SOL     OW18961   4.089   0.969   2.861
 6021SOL    HW118962   4.057   0.893   2.918
 6021SOL    HW218963   4.185   0.955   2.838
 6022SOL     OW18964   4.149   1.420   5.869
 6022SOL    HW118965   4.214   1.473   5.815
 6022SOL    HW218966   4.111   1.347   5.813
 6023SOL     OW18967   0.025   1.812   2.437
 6023SOL    HW118968   6.948   1.793   2.462
 6023SOL    HW218969   0.040   1.784   2.342
 6024SOL     OW18970   0.673   5.128   2.190
 6024SOL    HW118971   0.671   5.109   2.288
 6024SOL    HW218972   0.718   5.053   2.142
 6025SOL     OW18973   3.942   2.147   2.438
 6025SOL    HW118974   4.009   2.172   2.368
 6025SOL    HW218975   3.990   2.125   2.523
 6026SOL     OW18976   0.680   4.676   5.344
 6026SOL    HW118977   0.728   4.633   5.267
 6026SOL    HW218978   0.725   4.763   5.366
 6027SOL     OW18979   3.234   3.435   1.173
 6027SOL    HW118980   3.333   3.427   1.170
 6027SOL    HW218981   3.205   3.520   1.130
 6028SOL     OW18982   1.582   4.056   6.921
 6028SOL    HW118983   1.588   4.124   6.848
 6028SOL    HW218984   1.511   3.989   6.898
 6029SOL     OW18985   1.568   5.482   1.489
 6029SOL    HW118986   1.663   5.498   1.463
 6029SOL    HW218987   1.526   5.417   1.425
 6030SOL     OW18988   2.053   6.633   1.300
 6030SOL    HW118989   2.100   6.680   1.374
 6030SOL    HW218990   2.119   6.605   1.231
 6031SOL     OW18991   5.261   0.395   5.027
 6031SOL    HW118992   5.165   0.407   5.004
 6031SOL    HW218993   5.278   0.429   5.119
 6032SOL     OW18994   0.257   3.702   2.553
 6032SOL    HW118995   0.243   3.630   2.484
 6032SOL    HW218996   0.185   3.696   2.622
 6033SOL     OW18997   0.687   0.503   4.329
 6033SOL    HW118998   0.711   0.556   4.410
 6033SOL    HW218999   0.764   0.447   4.301
 6034SOL     OW19000   2.181   4.033   4.687
 6034SOL    HW119001   2.259   4.034   4.749
 6034SOL    HW219002   2.160   4.126   4.658
 6035SOL     OW19003   5.652   0.857   4.204
 6035SOL    HW119004   5.634   0.897   4.294
 6035SOL    HW219005   5.726   0.791   4.211
 6036SOL     OW19006   0.925   1.111   3.981
 6036SOL    HW119007   0.842   1.061   4.005
 6036SOL    HW219008   0.906   1.209   3.980
 6037SOL     OW19009   6.762   5.247   5.063
 6037SOL    HW119010   6.832   5.290   5.120
 6037SOL    HW219011   6.722   5.316   5.002
 6038SOL     OW19012   5.118   4.183   6.401
 6038SOL    HW119013   5.029   4.138   6.401
 6038SOL    HW219014   5.178   4.139   6.334
 6039SOL     OW19015   3.574   3.229   3.569
 6039SOL    HW119016   3.594   3.200   3.663
 6039SOL    HW219017   3.625   3.171   3.505
 6040SOL     OW19018   0.882   1.473   0.437
 6040SOL    HW119019   0.837   1.492   0.525
 6040SOL    HW219020   0.887   1.557   0.384
 6041SOL     OW19021   0.599   2.833   0.305
 6041SOL    HW119022   0.684   2.780   0.296
 6041SOL    HW219023   0.614   2.911   0.366
 6042SOL     OW19024   5.832   5.048   4.665
 6042SOL    HW119025   5.903   5.106   4.624
 6042SOL    HW219026   5.869   5.001   4.745
 6043SOL     OW19027   0.443   5.091   4.114
 6043SOL    HW119028   0.488   5.147   4.044
 6043SOL    HW219029   0.476   4.997   4.107
 6044SOL     OW19030   1.322   0.717   1.565
 6044SOL    HW119031   1.253   0.646   1.582
 6044SOL    HW219032   1.392   0.682   1.504
 6045SOL     OW19033   0.339   3.650   0.981
 6045SOL    HW119034   0.354   3.624   1.076
 6045SOL    HW219035   0.425   3.639   0.930
 6046SOL     OW19036   2.829   2.903   0.208
 6046SOL    HW119037   2.788   2.974   0.264
 6046SOL    HW219038   2.816   2.814   0.252
 6047SOL     OW19039   0.317   6.175   4.651
 6047SOL    HW119040   0.340   6.273   4.645
 6047SOL    HW219041   0.280   6.156   4.742
 6048SOL     OW19042   5.074   5.966   4.990
 6048SOL    HW119043   5.032   5.878   5.009
 6048SOL    HW219044   5.174   5.957   4.989
 6049SOL     OW19045   6.044   5.338   1.565
 6049SOL    HW119046   5.983   5.386   1.628
 6049SOL    HW219047   6.045   5.386   1.477
 6050SOL     OW19048   4.875   4.367   5.302
 6050SOL    HW119049   4.903   4.334   5.392
 6050SOL    HW219050   4.933   4.443   5.274
 6051SOL     OW19051   2.277   2.096   3.509
 6051SOL    HW119052   2.275   2.194   3.530
 6051SOL    HW219053   2.183   2.061   3.507
 6052SOL     OW19054   6.727   1.170   0.396
 6052SOL    HW119055   6.812   1.203   0.356
 6052SOL    HW219056   6.734   1.072   0.416
 6053SOL     OW19057   2.003   0.272   6.098
 6053SOL    HW119058   2.014   0.197   6.033
 6053SOL    HW219059   1.918   0.261   6.149
 6054SOL     OW19060   2.599   4.691   6.915
 6054SOL    HW119061   2.677   4.750   6.895
 6054SOL    HW219062   2.631   4.602   6.946
 6055SOL     OW19063   4.738   0.708   4.008
 6055SOL    HW119064   4.767   0.612   4.010
 6055SOL    HW219065   4.817   0.767   4.022
 6056SOL     OW19066   4.773   2.913   6.508
 6056SOL    HW119067   4.803   2.820   6.528
 6056SOL    HW219068   4.844   2.978   6.537
 6057SOL     OW19069   3.351   0.659   6.410
 6057SOL    HW119070   3.407   0.583   6.444
 6057SOL    HW219071   3.409   0.722   6.358
 6058SOL     OW19072   5.567   1.711   3.937
 6058SOL    HW119073   5.488   1.749   3.891
 6058SOL    HW219074   5.593   1.625   3.894
 6059SOL     OW19075   6.866   5.964   6.515
 6059SOL    HW119076   6.767   5.975   6.509
 6059SOL    HW219077   6.891   5.938   6.608
 6060SOL     OW19078   3.316   6.403   6.285
 6060SOL    HW119079   3.290   6.355   6.201
 6060SOL    HW219080   3.277   6.496   6.283
 6061SOL     OW19081   2.074   1.667   6.674
 6061SOL    HW119082   1.996   1.718   6.636
 6061SOL    HW219083   2.112   1.717   6.751
 6062SOL     OW19084   2.304   0.981   4.298
 6062SOL    HW119085   2.231   0.942   4.242
 6062SOL    HW219086   2.387   0.991   4.244
 6063SOL     OW19087   4.524   0.101   0.306
 6063SOL    HW119088   4.531   0.194   0.268
 6063SOL    HW219089   4.616   0.068   0.329
 6064SOL     OW19090   0.596   5.899   3.478
 6064SOL    HW119091   0.558   5.916   3.569
 6064SOL    HW219092   0.580   5.803   3.452
 6065SOL     OW19093   6.521   0.069   0.884
 6065SOL    HW119094   6.566   7.000   0.871
 6065SOL    HW219095   6.508   0.114   0.795
 6066SOL     OW19096   4.241   2.348   6.680
 6066SOL    HW119097   4.199   2.377   6.766
 6066SOL    HW219098   4.281   2.428   6.635
 6067SOL     OW19099   5.569   2.139   6.977
 6067SOL    HW119100   5.608   2.162   0.048
 6067SOL    HW219101   5.472   2.116   6.988
 6068SOL     OW19102   4.967   1.948   5.261
 6068SOL    HW119103   5.042   1.914   5.319
 6068SOL    HW219104   4.985   2.043   5.236
 6069SOL     OW19105   6.040   3.767   4.432
 6069SOL    HW119106   5.974   3.837   4.458
 6069SOL    HW219107   5.993   3.693   4.383
 6070SOL     OW19108   3.387   2.395   6.840
 6070SOL    HW119109   3.395   2.479   6.893
 6070SOL    HW219110   3.342   2.415   6.753
 6071SOL     OW19111   4.706   6.188   5.055
 6071SOL    HW119112   4.656   6.133   4.987
 6071SOL    HW219113   4.771   6.130   5.104
 6072SOL     OW19114   6.703   1.674   0.909
 6072SOL    HW119115   6.752   1.588   0.921
 6072SOL    HW219116   6.757   1.737   0.853
 6073SOL     OW19117   6.901   2.256   1.429
 6073SOL    HW119118   6.934   2.348   1.449
 6073SOL    HW219119   6.974   2.202   1.386
 6074SOL     OW19120   0.703   0.559   4.962
 6074SOL    HW119121   0.628   0.576   4.898
 6074SOL    HW219122   0.788   0.597   4.926
 6075SOL     OW19123   4.712   4.084   6.765
 6075SOL    HW119124   4.723   3.996   6.812
 6075SOL    HW219125   4.790   4.143   6.786
 6076SOL     OW19126   2.164   6.994   3.676
 6076SOL    HW119127   2.263   7.002   3.681
 6076SOL    HW219128   2.136   6.904   3.712
 6077SOL     OW19129   5.451   5.721   2.371
 6077SOL    HW119130   5.488   5.781   2.300
 6077SOL    HW219131   5.472   5.626   2.349
 6078SOL     OW19132   2.519   4.957   3.195
 6078SOL    HW119133   2.449   4.902   3.240
 6078SOL    HW219134   2.520   4.937   3.097
 6079SOL     OW19135   1.807   1.530   0.437
 6079SOL    HW119136   1.776   1.584   0.359
 6079SOL    HW219137   1.903   1.506   0.425
 6080SOL     OW19138   5.889   2.016   2.825
 6080SOL    HW119139   5.971   1.977   2.865
 6080SOL    HW219140   5.810   1.958   2.848
 6081SOL     OW19141   0.378   3.967   2.591
 6081SOL    HW119142   0.348   3.874   2.612
 6081SOL    HW219143   0.367   3.984   2.493
 6082SOL     OW19144   3.797   1.723   4.804
 6082SOL    HW119145   3.868   1.678   4.750
 6082SOL    HW219146   3.711   1.721   4.754
 6083SOL     OW19147   1.952   6.787   0.502
 6083SOL    HW119148   2.017   6.743   0.564
 6083SOL    HW219149   1.859   6.766   0.530
 6084SOL     OW19150   0.336   5.064   6.246
 6084SOL    HW119151   0.316   4.977   6.291
 6084SOL    HW219152   0.390   5.122   6.307
 6085SOL     OW19153   4.856   4.270   1.539
 6085SOL    HW119154   4.859   4.287   1.638
 6085SOL    HW219155   4.862   4.171   1.522
 6086SOL     OW19156   2.828   1.768   2.992
 6086SOL    HW119157   2.729   1.784   2.987
 6086SOL    HW219158   2.869   1.831   3.059
 6087SOL     OW19159   4.563   6.924   0.527
 6087SOL    HW119160   4.515   6.966   0.451
 6087SOL    HW219161   4.605   6.838   0.497
 6088SOL     OW19162   6.845   6.947   5.379
 6088SOL    HW119163   6.794   0.009   5.350
 6088SOL    HW219164   6.943   6.966   5.378
 6089SOL     OW19165   0.019   3.458   0.382
 6089SOL    HW119166   0.086   3.485   0.451
 6089SOL    HW219167   0.026   3.518   0.303
 6090SOL     OW19168   0.269   5.861   3.679
 6090SOL    HW119169   0.326   5.941   3.695
 6090SOL    HW219170   0.181   5.873   3.725
 6091SOL     OW19171   5.794   1.912   1.753
 6091SOL    HW119172   5.706   1.865   1.748
 6091SOL    HW219173   5.804   1.954   1.843
 6092SOL     OW19174   1.754   2.793   0.802
 6092SOL    HW119175   1.805   2.711   0.829
 6092SOL    HW219176   1.675   2.805   0.863
 6093SOL     OW19177   1.085   3.239   0.562
 6093SOL    HW119178   1.184   3.225   0.568
 6093SOL    HW219179   1.037   3.156   0.589
 6094SOL     OW19180   0.680   0.831   1.104
 6094SOL    HW119181   0.713   0.826   1.010
 6094SOL    HW219182   0.745   0.785   1.165
 6095SOL     OW19183   6.752   4.019   5.344
 6095SOL    HW119184   6.741   4.035   5.246
 6095SOL    HW219185   6.820   3.948   5.360
 6096SOL     OW19186   3.642   1.595   3.066
 6096SOL    HW119187   3.551   1.606   3.106
 6096SOL    HW219188   3.645   1.638   2.976
 6097SOL     OW19189   3.150   1.937   1.702
 6097SOL    HW119190   3.175   1.892   1.616
 6097SOL    HW219191   3.055   1.918   1.723
 6098SOL     OW19192   1.661   1.375   5.851
 6098SOL    HW119193   1.582   1.315   5.837
 6098SOL    HW219194   1.634   1.470   5.838
 6099SOL     OW19195   6.103   5.020   4.952
 6099SOL    HW119196   6.157   5.018   5.035
 6099SOL    HW219197   6.160   5.050   4.875
 6100SOL     OW19198   6.493   2.360   0.398
 6100SOL    HW119199   6.553   2.308   0.338
 6100SOL    HW219200   6.548   2.405   0.469
 6101SOL     OW19201   5.556   1.349   4.210
 6101SOL    HW119202   5.539   1.447   4.218
 6101SOL    HW219203   5.622   1.332   4.137
 6102SOL     OW19204   3.143   0.765   5.011
 6102SOL    HW119205   3.080   0.689   4.997
 6102SOL    HW219206   3.091   0.851   5.014
 6103SOL     OW19207   6.445   0.700   5.470
 6103SOL    HW119208   6.417   0.663   5.559
 6103SOL    HW219209   6.442   0.628   5.401
 6104SOL     OW19210   1.833   3.242   0.824
 6104SOL    HW119211   1.885   3.244   0.738
 6104SOL    HW219212   1.846   3.154   0.869
 6105SOL     OW19213   3.185   5.529   4.439
 6105SOL    HW119214   3.124   5.604   4.465
 6105SOL    HW219215   3.134   5.462   4.385
 6106SOL     OW19216   3.587   5.449   4.715
 6106SOL    HW119217   3.675   5.403   4.705
 6106SOL    HW219218   3.541   5.452   4.626
 6107SOL     OW19219   2.302   5.194   5.441
 6107SOL    HW119220   2.211   5.230   5.464
 6107SOL    HW219221   2.305   5.097   5.463
 6108SOL     OW19222   6.890   1.820   4.043
 6108SOL    HW119223   6.950   1.818   4.123
 6108SOL    HW219224   6.925   1.886   3.976
 6109SOL     OW19225   6.579   4.271   1.903
 6109SOL    HW119226   6.495   4.288   1.852
 6109SOL    HW219227   6.658   4.295   1.846
 6110SOL     OW19228   3.552   2.087   3.809
 6110SOL    HW119229   3.648   2.099   3.833
 6110SOL    HW219230   3.545   2.023   3.733
 6111SOL     OW19231   0.367   4.739   3.056
 6111SOL    HW119232   0.441   4.682   3.092
 6111SOL    HW219233   0.404   4.828   3.028
 6112SOL     OW19234   1.220   1.827   2.110
 6112SOL    HW119235   1.208   1.766   2.032
 6112SOL    HW219236   1.215   1.775   2.195
 6113SOL     OW19237   2.046   5.962   5.261
 6113SOL    HW119238   2.083   6.023   5.331
 6113SOL    HW219239   1.948   5.948   5.277
 6114SOL     OW19240   5.260   5.325   0.974
 6114SOL    HW119241   5.265   5.226   0.985
 6114SOL    HW219242   5.182   5.349   0.916
 6115SOL     OW19243   6.221   4.778   2.692
 6115SOL    HW119244   6.271   4.782   2.606
 6115SOL    HW219245   6.284   4.754   2.766
 6116SOL     OW19246   3.374   2.295   0.939
 6116SOL    HW119247   3.325   2.210   0.918
 6116SOL    HW219248   3.356   2.321   1.034
 6117SOL     OW19249   5.438   6.521   4.051
 6117SOL    HW119250   5.506   6.593   4.037
 6117SOL    HW219251   5.455   6.474   4.137
 6118SOL     OW19252   5.930   0.162   2.829
 6118SOL    HW119253   6.017   0.192   2.868
 6118SOL    HW219254   5.915   0.066   2.852
 6119SOL     OW19255   6.516   5.209   3.527
 6119SOL    HW119256   6.610   5.191   3.500
 6119SOL    HW219257   6.477   5.279   3.467
 6120SOL     OW19258   2.533   0.619   3.263
 6120SOL    HW119259   2.496   0.620   3.356
 6120SOL    HW219260   2.570   0.709   3.240
 6121SOL     OW19261   6.644   2.289   4.243
 6121SOL    HW119262   6.731   2.336   4.253
 6121SOL    HW219263   6.585   2.340   4.180
 6122SOL     OW19264   4.430   5.987   3.873
 6122SOL    HW119265   4.466   5.975   3.966
 6122SOL    HW219266   4.358   6.055   3.874
 6123SOL     OW19267   6.759   1.225   1.899
 6123SOL    HW119268   6.829   1.278   1.851
 6123SOL    HW219269   6.676   1.281   1.906
 6124SOL     OW19270   2.758   0.571   5.493
 6124SOL    HW119271   2.814   0.575   5.410
 6124SOL    HW219272   2.711   0.658   5.506
 6125SOL     OW19273   1.875   5.010   2.201
 6125SOL    HW119274   1.851   5.107   2.209
 6125SOL    HW219275   1.963   4.993   2.245
 6126SOL     OW19276   5.034   5.211   2.092
 6126SOL    HW119277   5.027   5.234   1.995
 6126SOL    HW219278   5.006   5.290   2.147
 6127SOL     OW19279   2.178   4.149   1.905
 6127SOL    HW119280   2.145   4.202   1.983
 6127SOL    HW219281   2.264   4.189   1.872
 6128SOL     OW19282   5.096   2.355   1.082
 6128SOL    HW119283   5.015   2.377   1.138
 6128SOL    HW219284   5.171   2.415   1.107
 6129SOL     OW19285   6.103   4.184   3.633
 6129SOL    HW119286   6.050   4.101   3.618
 6129SOL    HW219287   6.106   4.203   3.732
 6130SOL     OW19288   5.456   4.325   2.857
 6130SOL    HW119289   5.406   4.398   2.812
 6130SOL    HW219290   5.554   4.335   2.837
 6131SOL     OW19291   6.801   0.975   5.091
 6131SOL    HW119292   6.730   1.039   5.120
 6131SOL    HW219293   6.884   1.025   5.065
 6132SOL     OW19294   6.310   2.206   0.513
 6132SOL    HW119295   6.272   2.240   0.599
 6132SOL    HW219296   6.355   2.281   0.464
 6133SOL     OW19297   1.527   4.446   0.296
 6133SOL    HW119298   1.608   4.413   0.249
 6133SOL    HW219299   1.457   4.374   0.298
 6134SOL     OW19300   4.612   3.075   0.364
 6134SOL    HW119301   4.661   2.992   0.391
 6134SOL    HW219302   4.561   3.110   0.443
 6135SOL     OW19303   5.407   0.425   1.898
 6135SOL    HW119304   5.499   0.392   1.921
 6135SOL    HW219305   5.413   0.520   1.867
 6136SOL     OW19306   0.146   1.510   2.089
 6136SOL    HW119307   0.121   1.443   2.158
 6136SOL    HW219308   0.197   1.465   2.016
 6137SOL     OW19309   2.916   6.479   5.616
 6137SOL    HW119310   2.982   6.475   5.691
 6137SOL    HW219311   2.902   6.386   5.580
 6138SOL     OW19312   4.128   0.055   2.862
 6138SOL    HW119313   4.145   6.992   2.808
 6138SOL    HW219314   4.146   0.035   2.959
 6139SOL     OW19315   2.202   5.500   4.507
 6139SOL    HW119316   2.103   5.518   4.511
 6139SOL    HW219317   2.229   5.484   4.412
 6140SOL     OW19318   2.250   6.537   1.158
 6140SOL    HW119319   2.246   6.445   1.198
 6140SOL    HW219320   2.328   6.586   1.196
 6141SOL     OW19321   6.612   6.440   5.559
 6141SOL    HW119322   6.685   6.504   5.535
 6141SOL    HW219323   6.531   6.459   5.503
 6142SOL     OW19324   0.253   4.228   2.907
 6142SOL    HW119325   0.340   4.184   2.883
 6142SOL    HW219326   0.177   4.171   2.876
 6143SOL     OW19327   6.503   4.536   6.651
 6143SOL    HW119328   6.464   4.600   6.717
 6143SOL    HW219329   6.547   4.461   6.700
 6144SOL     OW19330   0.233   5.073   4.302
 6144SOL    HW119331   0.311   5.066   4.239
 6144SOL    HW219332   0.205   5.169   4.309
 6145SOL     OW19333   4.988   5.824   3.654
 6145SOL    HW119334   5.082   5.793   3.640
 6145SOL    HW219335   4.965   5.893   3.585
 6146SOL     OW19336   5.526   1.079   3.496
 6146SOL    HW119337   5.589   1.136   3.444
 6146SOL    HW219338   5.510   0.993   3.448
 6147SOL     OW19339   0.985   3.870   3.157
 6147SOL    HW119340   1.039   3.952   3.140
 6147SOL    HW219341   0.889   3.888   3.136
 6148SOL     OW19342   5.942   6.003   4.017
 6148SOL    HW119343   6.010   6.067   3.980
 6148SOL    HW219344   5.850   6.037   3.996
 6149SOL     OW19345   2.192   0.249   4.482
 6149SOL    HW119346   2.259   0.321   4.462
 6149SOL    HW219347   2.146   0.223   4.397
 6150SOL     OW19348   3.948   5.618   5.907
 6150SOL    HW119349   3.892   5.598   5.827
 6150SOL    HW219350   3.892   5.663   5.976
 6151SOL     OW19351   4.489   1.193   5.897
 6151SOL    HW119352   4.478   1.290   5.874
 6151SOL    HW219353   4.534   1.146   5.821
 6152SOL     OW19354   0.011   5.029   6.126
 6152SOL    HW119355   0.103   5.038   6.087
 6152SOL    HW219356   0.019   5.000   6.222
 6153SOL     OW19357   4.887   4.112   0.103
 6153SOL    HW119358   4.810   4.171   0.128
 6153SOL    HW219359   4.852   4.027   0.063
 6154SOL     OW19360   4.897   3.022   2.870
 6154SOL    HW119361   4.907   2.971   2.955
 6154SOL    HW219362   4.957   2.983   2.800
 6155SOL     OW19363   1.547   3.699   4.192
 6155SOL    HW119364   1.497   3.763   4.134
 6155SOL    HW219365   1.515   3.606   4.175
 6156SOL     OW19366   6.317   0.579   4.233
 6156SOL    HW119367   6.255   0.648   4.272
 6156SOL    HW219368   6.352   0.521   4.306
 6157SOL     OW19369   1.630   1.745   3.495
 6157SOL    HW119370   1.603   1.797   3.576
 6157SOL    HW219371   1.729   1.747   3.485
 6158SOL     OW19372   4.451   0.805   0.569
 6158SOL    HW119373   4.505   0.888   0.579
 6158SOL    HW219374   4.363   0.827   0.525
 6159SOL     OW19375   5.527   3.178   7.015
 6159SOL    HW119376   5.524   3.089   0.042
 6159SOL    HW219377   5.434   3.209   6.996
 6160SOL     OW19378   6.702   4.805   1.804
 6160SOL    HW119379   6.731   4.711   1.822
 6160SOL    HW219380   6.673   4.814   1.709
 6161SOL     OW19381   5.632   0.227   6.368
 6161SOL    HW119382   5.533   0.238   6.362
 6161SOL    HW219383   5.675   0.268   6.288
 6162SOL     OW19384   6.184   5.187   3.915
 6162SOL    HW119385   6.099   5.145   3.948
 6162SOL    HW219386   6.204   5.154   3.822
 6163SOL     OW19387   6.850   3.861   1.753
 6163SOL    HW119388   6.761   3.820   1.773
 6163SOL    HW219389   6.922   3.798   1.780
 6164SOL     OW19390   4.812   2.510   0.598
 6164SOL    HW119391   4.765   2.424   0.618
 6164SOL    HW219392   4.836   2.513   0.501
 6165SOL     OW19393   4.578   6.403   0.315
 6165SOL    HW119394   4.581   6.502   0.324
 6165SOL    HW219395   4.659   6.371   0.266
 6166SOL     OW19396   3.743   1.598   7.010
 6166SOL    HW119397   3.700   1.602   6.920
 6166SOL    HW219398   3.671   1.598   0.062
 6167SOL     OW19399   6.884   4.878   2.971
 6167SOL    HW119400   6.889   4.783   2.940
 6167SOL    HW219401   6.941   4.889   3.052
 6168SOL     OW19402   0.498   2.581   1.693
 6168SOL    HW119403   0.574   2.607   1.751
 6168SOL    HW219404   0.529   2.574   1.598
 6169SOL     OW19405   1.886   4.006   2.203
 6169SOL    HW119406   1.962   3.984   2.264
 6169SOL    HW219407   1.800   3.998   2.254
 6170SOL     OW19408   6.863   2.000   3.596
 6170SOL    HW119409   6.848   2.090   3.554
 6170SOL    HW219410   6.883   2.013   3.693
 6171SOL     OW19411   6.586   0.670   6.472
 6171SOL    HW119412   6.685   0.678   6.463
 6171SOL    HW219413   6.550   0.612   6.399
 6172SOL     OW19414   1.037   4.480   4.164
 6172SOL    HW119415   1.083   4.434   4.240
 6172SOL    HW219416   1.105   4.509   4.096
 6173SOL     OW19417   6.039   6.179   3.557
 6173SOL    HW119418   6.093   6.202   3.476
 6173SOL    HW219419   6.063   6.241   3.632
 6174SOL     OW19420   5.944   2.806   1.862
 6174SOL    HW119421   5.988   2.716   1.864
 6174SOL    HW219422   5.986   2.864   1.932
 6175SOL     OW19423   3.860   2.316   6.107
 6175SOL    HW119424   3.859   2.217   6.117
 6175SOL    HW219425   3.920   2.342   6.031
 6176SOL     OW19426   3.719   4.306   6.291
 6176SOL    HW119427   3.701   4.347   6.201
 6176SOL    HW219428   3.645   4.330   6.353
 6177SOL     OW19429   5.838   6.718   1.197
 6177SOL    HW119430   5.888   6.789   1.247
 6177SOL    HW219431   5.900   6.644   1.172
 6178SOL     OW19432   4.148   4.750   1.366
 6178SOL    HW119433   4.077   4.807   1.325
 6178SOL    HW219434   4.114   4.657   1.377
 6179SOL     OW19435   5.862   4.894   4.911
 6179SOL    HW119436   5.867   4.794   4.902
 6179SOL    HW219437   5.952   4.933   4.895
 6180SOL     OW19438   2.955   4.642   6.871
 6180SOL    HW119439   3.047   4.644   6.833
 6180SOL    HW219440   2.898   4.711   6.825
 6181SOL     OW19441   6.022   6.502   0.200
 6181SOL    HW119442   6.089   6.532   0.132
 6181SOL    HW219443   6.061   6.429   0.256
 6182SOL     OW19444   3.122   2.624   0.304
 6182SOL    HW119445   3.140   2.533   0.266
 6182SOL    HW219446   3.029   2.652   0.279
 6183SOL     OW19447   0.178   6.616   0.694
 6183SOL    HW119448   0.131   6.678   0.631
 6183SOL    HW219449   0.178   6.524   0.656
 6184SOL     OW19450   3.066   6.643   5.437
 6184SOL    HW119451   3.013   6.580   5.494
 6184SOL    HW219452   3.049   6.624   5.341
 6185SOL     OW19453   4.073   3.620   5.034
 6185SOL    HW119454   3.985   3.597   5.075
 6185SOL    HW219455   4.140   3.636   5.106
 6186SOL     OW19456   0.819   1.838   2.150
 6186SOL    HW119457   0.896   1.902   2.154
 6186SOL    HW219458   0.743   1.873   2.204
 6187SOL     OW19459   3.306   1.488   6.277
 6187SOL    HW119460   3.326   1.404   6.227
 6187SOL    HW219461   3.310   1.471   6.375
 6188SOL     OW19462   1.873   1.375   4.908
 6188SOL    HW119463   1.832   1.460   4.941
 6188SOL    HW219464   1.918   1.328   4.983
 6189SOL     OW19465   6.416   5.183   1.083
 6189SOL    HW119466   6.496   5.227   1.123
 6189SOL    HW219467   6.355   5.152   1.157
 6190SOL     OW19468   0.676   2.938   4.352
 6190SOL    HW119469   0.585   2.901   4.368
 6190SOL    HW219470   0.679   3.034   4.381
 6191SOL     OW19471   3.357   3.642   0.376
 6191SOL    HW119472   3.291   3.567   0.378
 6191SOL    HW219473   3.309   3.730   0.374
 6192SOL     OW19474   3.064   1.644   0.937
 6192SOL    HW119475   3.124   1.679   1.009
 6192SOL    HW219476   3.027   1.556   0.964
 6193SOL     OW19477   4.393   5.921   6.623
 6193SOL    HW119478   4.440   6.009   6.633
 6193SOL    HW219479   4.333   5.906   6.701
 6194SOL     OW19480   5.529   6.898   6.817
 6194SOL    HW119481   5.549   6.896   6.719
 6194SOL    HW219482   5.494   6.808   6.845
 6195SOL     OW19483   5.699   6.204   6.521
 6195SOL    HW119484   5.670   6.300   6.519
 6195SOL    HW219485   5.700   6.168   6.428
 6196SOL     OW19486   5.804   3.748   2.900
 6196SOL    HW119487   5.828   3.662   2.855
 6196SOL    HW219488   5.789   3.819   2.832
 6197SOL     OW19489   1.107   5.555   0.851
 6197SOL    HW119490   1.198   5.597   0.859
 6197SOL    HW219491   1.104   5.472   0.905
 6198SOL     OW19492   5.551   1.350   6.694
 6198SOL    HW119493   5.618   1.420   6.673
 6198SOL    HW219494   5.567   1.314   6.786
 6199SOL     OW19495   2.067   0.071   5.913
 6199SOL    HW119496   2.163   0.043   5.901
 6199SOL    HW219497   2.019   0.061   5.826
 6200SOL     OW19498   1.756   0.458   0.985
 6200SOL    HW119499   1.677   0.395   0.988
 6200SOL    HW219500   1.784   0.481   1.078
 6201SOL     OW19501   0.180   4.502   2.889
 6201SOL    HW119502   0.211   4.409   2.908
 6201SOL    HW219503   0.235   4.567   2.943
 6202SOL     OW19504   5.632   1.129   2.592
 6202SOL    HW119505   5.684   1.060   2.642
 6202SOL    HW219506   5.695   1.200   2.559
 6203SOL     OW19507   6.335   0.112   1.981
 6203SOL    HW119508   6.280   0.107   2.064
 6203SOL    HW219509   6.384   0.026   1.968
 6204SOL     OW19510   1.238   6.424   5.085
 6204SOL    HW119511   1.199   6.424   4.993
 6204SOL    HW219512   1.249   6.518   5.116
 6205SOL     OW19513   5.369   4.660   3.855
 6205SOL    HW119514   5.368   4.568   3.815
 6205SOL    HW219515   5.350   4.727   3.783
 6206SOL     OW19516   5.311   1.879   3.488
 6206SOL    HW119517   5.355   1.835   3.410
 6206SOL    HW219518   5.315   1.978   3.477
 6207SOL     OW19519   0.643   5.886   4.178
 6207SOL    HW119520   0.609   5.914   4.267
 6207SOL    HW219521   0.619   5.790   4.162
 6208SOL     OW19522   4.308   4.155   5.590
 6208SOL    HW119523   4.390   4.099   5.589
 6208SOL    HW219524   4.328   4.243   5.546
 6209SOL     OW19525   3.684   2.366   1.489
 6209SOL    HW119526   3.645   2.447   1.534
 6209SOL    HW219527   3.722   2.305   1.559
 6210SOL     OW19528   5.460   1.545   4.430
 6210SOL    HW119529   5.404   1.613   4.477
 6210SOL    HW219530   5.547   1.533   4.479
 6211SOL     OW19531   5.793   4.056   5.127
 6211SOL    HW119532   5.709   4.009   5.102
 6211SOL    HW219533   5.779   4.155   5.121
 6212SOL     OW19534   5.151   4.664   4.985
 6212SOL    HW119535   5.198   4.577   4.970
 6212SOL    HW219536   5.130   4.706   4.897
 6213SOL     OW19537   4.048   5.701   0.502
 6213SOL    HW119538   3.989   5.658   0.434
 6213SOL    HW219539   4.071   5.793   0.472
 6214SOL     OW19540   5.955   6.873   0.203
 6214SOL    HW119541   5.990   6.948   0.148
 6214SOL    HW219542   5.907   6.910   0.283
 6215SOL     OW19543   5.764   2.386   5.211
 6215SOL    HW119544   5.667   2.407   5.201
 6215SOL    HW219545   5.814   2.471   5.229
 6216SOL     OW19546   4.327   1.614   4.652
 6216SOL    HW119547   4.313   1.529   4.602
 6216SOL    HW219548   4.328   1.691   4.589
 6217SOL     OW19549   0.476   4.114   2.802
 6217SOL    HW119550   0.448   4.060   2.722
 6217SOL    HW219551   0.512   4.203   2.771
 6218SOL     OW19552   4.514   5.965   0.088
 6218SOL    HW119553   4.524   5.885   0.030
 6218SOL    HW219554   4.604   6.001   0.111
 6219SOL     OW19555   1.933   1.135   6.820
 6219SOL    HW119556   1.978   1.225   6.822
 6219SOL    HW219557   1.893   1.121   6.729
 6220SOL     OW19558   3.329   6.242   0.821
 6220SOL    HW119559   3.360   6.304   0.894
 6220SOL    HW219560   3.281   6.165   0.862
 6221SOL     OW19561   5.133   5.611   6.418
 6221SOL    HW119562   5.080   5.555   6.482
 6221SOL    HW219563   5.229   5.581   6.420
 6222SOL     OW19564   6.895   1.902   2.189
 6222SOL    HW119565   6.919   1.811   2.154
 6222SOL    HW219566   6.977   1.959   2.191
 6223SOL     OW19567   7.011   5.112   3.788
 6223SOL    HW119568   6.918   5.131   3.818
 6223SOL    HW219569   7.017   5.020   3.750
 6224SOL     OW19570   4.007   0.025   0.387
 6224SOL    HW119571   4.100   0.021   0.352
 6224SOL    HW219572   3.941   0.022   0.312
 6225SOL     OW19573   5.102   6.500   6.509
 6225SOL    HW119574   5.052   6.547   6.582
 6225SOL    HW219575   5.087   6.401   6.518
 6226SOL     OW19576   0.880   0.945   4.293
 6226SOL    HW119577   0.800   0.931   4.234
 6226SOL    HW219578   0.952   0.881   4.267
 6227SOL     OW19579   2.861   4.650   5.701
 6227SOL    HW119580   2.935   4.683   5.760
 6227SOL    HW219581   2.894   4.572   5.648
 6228SOL     OW19582   1.126   3.114   3.724
 6228SOL    HW119583   1.195   3.185   3.706
 6228SOL    HW219584   1.097   3.074   3.637
 6229SOL     OW19585   0.524   3.420   3.876
 6229SOL    HW119586   0.456   3.346   3.879
 6229SOL    HW219587   0.574   3.416   3.790
 6230SOL     OW19588   0.401   1.279   1.376
 6230SOL    HW119589   0.485   1.286   1.430
 6230SOL    HW219590   0.352   1.196   1.401
 6231SOL     OW19591   2.143   5.555   5.730
 6231SOL    HW119592   2.093   5.518   5.808
 6231SOL    HW219593   2.241   5.555   5.750
 6232SOL     OW19594   4.305   0.620   6.515
 6232SOL    HW119595   4.247   0.589   6.439
 6232SOL    HW219596   4.299   0.720   6.522
 6233SOL     OW19597   6.668   3.271   1.278
 6233SOL    HW119598   6.634   3.301   1.189
 6233SOL    HW219599   6.640   3.336   1.348
 6234SOL     OW19600   5.048   4.726   4.466
 6234SOL    HW119601   5.019   4.786   4.541
 6234SOL    HW219602   4.986   4.648   4.459
 6235SOL     OW19603   7.009   0.700   2.379
 6235SOL    HW119604   0.054   0.726   2.307
 6235SOL    HW219605   0.041   0.688   2.465
 6236SOL     OW19606   6.916   5.775   1.658
 6236SOL    HW119607   6.848   5.783   1.732
 6236SOL    HW219608   6.881   5.714   1.587
 6237SOL     OW19609   3.320   1.448   1.951
 6237SOL    HW119610   3.247   1.398   1.905
 6237SOL    HW219611   3.292   1.469   2.045
 6238SOL     OW19612   2.277   0.838   3.462
 6238SOL    HW119613   2.198   0.848   3.523
 6238SOL    HW219614   2.350   0.791   3.511
 6239SOL     OW19615   5.015   1.295   4.659
 6239SOL    HW119616   4.923   1.329   4.679
 6239SOL    HW219617   5.054   1.253   4.741
 6240SOL     OW19618   4.100   3.234   3.867
 6240SOL    HW119619   4.129   3.329   3.859
 6240SOL    HW219620   4.126   3.198   3.957
 6241SOL     OW19621   3.731   6.820   3.531
 6241SOL    HW119622   3.699   6.806   3.624
 6241SOL    HW219623   3.707   6.740   3.475
 6242SOL     OW19624   2.826   2.159   3.654
 6242SOL    HW119625   2.857   2.210   3.735
 6242SOL    HW219626   2.751   2.098   3.680
 6243SOL     OW19627   4.367   1.709   6.945
 6243SOL    HW119628   4.320   1.666   0.002
 6243SOL    HW219629   4.403   1.639   6.883
 6244SOL     OW19630   4.552   2.686   1.840
 6244SOL    HW119631   4.505   2.615   1.787
 6244SOL    HW219632   4.564   2.655   1.935
 6245SOL     OW19633   0.085   5.357   2.050
 6245SOL    HW119634   0.092   5.274   2.105
 6245SOL    HW219635   0.154   5.356   1.978
 6246SOL     OW19636   6.894   6.810   4.706
 6246SOL    HW119637   6.814   6.789   4.763
 6246SOL    HW219638   6.902   6.743   4.633
 6247SOL     OW19639   6.470   5.980   3.559
 6247SOL    HW119640   6.520   5.895   3.541
 6247SOL    HW219641   6.533   6.057   3.552
 6248SOL     OW19642   3.954   3.157   5.155
 6248SOL    HW119643   3.927   3.248   5.188
 6248SOL    HW219644   4.022   3.118   5.217
 6249SOL     OW19645   5.840   3.478   2.371
 6249SOL    HW119646   5.913   3.526   2.420
 6249SOL    HW219647   5.759   3.536   2.365
 6250SOL     OW19648   5.500   6.874   6.476
 6250SOL    HW119649   5.578   6.935   6.485
 6250SOL    HW219650   5.433   6.915   6.413
 6251SOL     OW19651   2.577   1.036   4.411
 6251SOL    HW119652   2.610   1.126   4.384
 6251SOL    HW219653   2.477   1.037   4.418
 6252SOL     OW19654   3.213   5.162   6.825
 6252SOL    HW119655   3.221   5.217   6.909
 6252SOL    HW219656   3.298   5.166   6.774
 6253SOL     OW19657   3.632   6.172   4.056
 6253SOL    HW119658   3.686   6.088   4.049
 6253SOL    HW219659   3.643   6.226   3.973
 6254SOL     OW19660   0.590   6.909   1.854
 6254SOL    HW119661   0.515   6.873   1.799
 6254SOL    HW219662   0.654   6.958   1.796
 6255SOL     OW19663   1.050   1.705   0.679
 6255SOL    HW119664   1.109   1.739   0.605
 6255SOL    HW219665   1.098   1.712   0.766
 6256SOL     OW19666   5.730   5.761   2.202
 6256SOL    HW119667   5.648   5.814   2.177
 6256SOL    HW219668   5.791   5.754   2.124
 6257SOL     OW19669   3.548   4.850   0.662
 6257SOL    HW119670   3.501   4.932   0.627
 6257SOL    HW219671   3.489   4.771   0.651
 6258SOL     OW19672   4.210   5.216   5.087
 6258SOL    HW119673   4.239   5.299   5.135
 6258SOL    HW219674   4.290   5.159   5.069
 6259SOL     OW19675   4.141   1.022   5.278
 6259SOL    HW119676   4.204   1.098   5.263
 6259SOL    HW219677   4.192   0.936   5.279
 6260SOL     OW19678   2.210   1.402   0.711
 6260SOL    HW119679   2.152   1.484   0.710
 6260SOL    HW219680   2.227   1.374   0.805
 6261SOL     OW19681   3.425   0.047   0.889
 6261SOL    HW119682   3.452   0.069   0.796
 6261SOL    HW219683   3.377   6.978   0.890
 6262SOL     OW19684   5.998   0.866   2.362
 6262SOL    HW119685   5.975   0.777   2.402
 6262SOL    HW219686   6.035   0.926   2.434
 6263SOL     OW19687   6.193   5.768   5.983
 6263SOL    HW119688   6.151   5.843   5.932
 6263SOL    HW219689   6.237   5.803   6.065
 6264SOL     OW19690   2.504   5.845   0.031
 6264SOL    HW119691   2.463   5.936   0.029
 6264SOL    HW219692   2.524   5.820   0.126
 6265SOL     OW19693   4.325   6.312   6.049
 6265SOL    HW119694   4.236   6.266   6.043
 6265SOL    HW219695   4.397   6.245   6.066
 6266SOL     OW19696   3.194   5.187   2.757
 6266SOL    HW119697   3.209   5.099   2.712
 6266SOL    HW219698   3.138   5.246   2.697
 6267SOL     OW19699   1.234   6.385   4.804
 6267SOL    HW119700   1.308   6.451   4.793
 6267SOL    HW219701   1.271   6.293   4.792
 6268SOL     OW19702   3.260   1.752   1.119
 6268SOL    HW119703   3.323   1.734   1.195
 6268SOL    HW219704   3.307   1.736   1.032
 6269SOL     OW19705   6.932   5.602   6.453
 6269SOL    HW119706   6.918   5.662   6.532
 6269SOL    HW219707   0.007   5.610   6.420
 6270SOL     OW19708   1.954   6.158   0.899
 6270SOL    HW119709   1.957   6.073   0.846
 6270SOL    HW219710   2.037   6.165   0.955
 6271SOL     OW19711   6.555   2.971   5.847
 6271SOL    HW119712   6.597   2.945   5.934
 6271SOL    HW219713   6.593   3.057   5.815
 6272SOL     OW19714   0.149   0.903   6.883
 6272SOL    HW119715   0.177   0.995   6.907
 6272SOL    HW219716   0.094   0.864   6.957
 6273SOL     OW19717   0.724   6.681   2.852
 6273SOL    HW119718   0.651   6.719   2.795
 6273SOL    HW219719   0.697   6.592   2.887
 6274SOL     OW19720   2.757   5.839   3.851
 6274SOL    HW119721   2.747   5.751   3.897
 6274SOL    HW219722   2.725   5.912   3.912
 6275SOL     OW19723   2.878   5.839   6.553
 6275SOL    HW119724   2.930   5.887   6.483
 6275SOL    HW219725   2.929   5.760   6.586
 6276SOL     OW19726   1.339   5.752   2.517
 6276SOL    HW119727   1.397   5.783   2.441
 6276SOL    HW219728   1.302   5.832   2.565
 6277SOL     OW19729   5.397   2.549   1.416
 6277SOL    HW119730   5.308   2.573   1.455
 6277SOL    HW219731   5.410   2.599   1.330
 6278SOL     OW19732   4.421   2.121   0.796
 6278SOL    HW119733   4.493   2.122   0.866
 6278SOL    HW219734   4.390   2.215   0.779
 6279SOL     OW19735   3.297   6.755   1.442
 6279SOL    HW119736   3.257   6.665   1.463
 6279SOL    HW219737   3.310   6.806   1.527
 6280SOL     OW19738   5.171   2.309   6.583
 6280SOL    HW119739   5.172   2.348   6.491
 6280SOL    HW219740   5.135   2.216   6.579
 6281SOL     OW19741   5.030   4.480   6.062
 6281SOL    HW119742   5.027   4.473   6.162
 6281SOL    HW219743   5.114   4.528   6.035
 6282SOL     OW19744   0.627   3.704   6.194
 6282SOL    HW119745   0.682   3.772   6.242
 6282SOL    HW219746   0.531   3.714   6.221
 6283SOL     OW19747   2.692   6.730   4.655
 6283SOL    HW119748   2.663   6.699   4.564
 6283SOL    HW219749   2.635   6.686   4.725
 6284SOL     OW19750   1.753   3.281   5.352
 6284SOL    HW119751   1.695   3.363   5.349
 6284SOL    HW219752   1.701   3.204   5.314
 6285SOL     OW19753   1.269   3.204   2.835
 6285SOL    HW119754   1.273   3.292   2.789
 6285SOL    HW219755   1.343   3.197   2.902
 6286SOL     OW19756   0.682   2.203   6.641
 6286SOL    HW119757   0.684   2.231   6.545
 6286SOL    HW219758   0.654   2.107   6.647
 6287SOL     OW19759   4.408   5.020   5.067
 6287SOL    HW119760   4.339   4.948   5.064
 6287SOL    HW219761   4.443   5.030   5.160
 6288SOL     OW19762   2.622   3.736   5.742
 6288SOL    HW119763   2.527   3.737   5.774
 6288SOL    HW219764   2.661   3.646   5.758
 6289SOL     OW19765   2.054   4.886   4.885
 6289SOL    HW119766   2.143   4.916   4.919
 6289SOL    HW219767   2.065   4.846   4.794
 6290SOL     OW19768   5.916   6.957   4.143
 6290SOL    HW119769   5.889   6.984   4.051
 6290SOL    HW219770   5.854   6.885   4.175
 6291SOL     OW19771   3.768   3.479   2.160
 6291SOL    HW119772   3.747   3.440   2.071
 6291SOL    HW219773   3.722   3.567   2.171
 6292SOL     OW19774   1.865   4.705   4.662
 6292SOL    HW119775   1.829   4.725   4.753
 6292SOL    HW219776   1.960   4.737   4.656
 6293SOL     OW19777   2.934   1.838   6.480
 6293SOL    HW119778   2.980   1.755   6.513
 6293SOL    HW219779   3.001   1.912   6.473
 6294SOL     OW19780   2.163   1.408   2.158
 6294SOL    HW119781   2.194   1.316   2.182
 6294SOL    HW219782   2.073   1.425   2.198
 6295SOL     OW19783   4.433   3.487   6.472
 6295SOL    HW119784   4.381   3.481   6.387
 6295SOL    HW219785   4.515   3.542   6.457
 6296SOL     OW19786   0.880   2.775   6.739
 6296SOL    HW119787   0.904   2.769   6.642
 6296SOL    HW219788   0.875   2.871   6.766
 6297SOL     OW19789   6.672   1.347   3.999
 6297SOL    HW119790   6.683   1.273   3.933
 6297SOL    HW219791   6.756   1.357   4.053
 6298SOL     OW19792   0.408   6.340   0.807
 6298SOL    HW119793   0.336   6.271   0.816
 6298SOL    HW219794   0.481   6.320   0.873
 6299SOL     OW19795   3.829   1.505   4.436
 6299SOL    HW119796   3.842   1.407   4.455
 6299SOL    HW219797   3.849   1.557   4.519
 6300SOL     OW19798   2.685   2.073   0.466
 6300SOL    HW119799   2.703   1.980   0.497
 6300SOL    HW219800   2.648   2.070   0.373
 6301SOL     OW19801   4.306   6.197   6.705
 6301SOL    HW119802   4.291   6.208   6.803
 6301SOL    HW219803   4.233   6.245   6.655
 6302SOL     OW19804   1.416   3.364   6.926
 6302SOL    HW119805   1.333   3.389   6.977
 6302SOL    HW219806   1.480   3.441   6.927
 6303SOL     OW19807   0.624   5.435   4.399
 6303SOL    HW119808   0.572   5.373   4.456
 6303SOL    HW219809   0.593   5.529   4.414
 6304SOL     OW19810   3.038   0.851   4.033
 6304SOL    HW119811   3.060   0.947   4.014
 6304SOL    HW219812   2.998   0.843   4.124
 6305SOL     OW19813   1.032   5.797   6.002
 6305SOL    HW119814   1.011   5.895   6.004
 6305SOL    HW219815   0.951   5.746   5.975
 6306SOL     OW19816   0.521   4.528   5.166
 6306SOL    HW119817   0.575   4.533   5.082
 6306SOL    HW219818   0.556   4.595   5.232
 6307SOL     OW19819   3.630   2.805   2.352
 6307SOL    HW119820   3.671   2.716   2.374
 6307SOL    HW219821   3.703   2.873   2.339
 6308SOL     OW19822   0.692   2.220   0.331
 6308SOL    HW119823   0.635   2.235   0.411
 6308SOL    HW219824   0.644   2.251   0.249
 6309SOL     OW19825   1.881   6.369   4.750
 6309SOL    HW119826   1.822   6.317   4.690
 6309SOL    HW219827   1.968   6.321   4.763
 6310SOL     OW19828   0.936   6.834   3.802
 6310SOL    HW119829   0.883   6.897   3.859
 6310SOL    HW219830   0.985   6.886   3.732
 6311SOL     OW19831   6.313   1.245   6.548
 6311SOL    HW119832   6.288   1.336   6.516
 6311SOL    HW219833   6.271   1.227   6.637
 6312SOL     OW19834   3.147   5.755   0.247
 6312SOL    HW119835   3.179   5.795   0.333
 6312SOL    HW219836   3.225   5.728   0.191
 6313SOL     OW19837   6.273   4.410   3.869
 6313SOL    HW119838   6.249   4.473   3.795
 6313SOL    HW219839   6.349   4.449   3.922
 6314SOL     OW19840   1.947   6.014   2.846
 6314SOL    HW119841   1.867   5.961   2.874
 6314SOL    HW219842   1.949   6.022   2.746
 6315SOL     OW19843   2.078   1.758   3.714
 6315SOL    HW119844   2.084   1.778   3.812
 6315SOL    HW219845   2.134   1.678   3.693
 6316SOL     OW19846   4.237   0.458   5.085
 6316SOL    HW119847   4.181   0.541   5.081
 6316SOL    HW219848   4.332   0.481   5.063
 6317SOL     OW19849   5.279   4.436   3.046
 6317SOL    HW119850   5.284   4.375   2.967
 6317SOL    HW219851   5.368   4.478   3.061
 6318SOL     OW19852   6.366   6.900   6.875
 6318SOL    HW119853   6.385   6.827   6.810
 6318SOL    HW219854   6.286   6.876   6.930
 6319SOL     OW19855   4.710   1.941   4.431
 6319SOL    HW119856   4.633   1.972   4.374
 6319SOL    HW219857   4.676   1.885   4.506
 6320SOL     OW19858   6.328   1.397   5.219
 6320SOL    HW119859   6.230   1.379   5.214
 6320SOL    HW219860   6.356   1.403   5.315
 6321SOL     OW19861   0.296   2.595   0.286
 6321SOL    HW119862   0.289   2.672   0.349
 6321SOL    HW219863   0.230   2.524   0.313
 6322SOL     OW19864   1.352   1.386   3.013
 6322SOL    HW119865   1.429   1.439   3.048
 6322SOL    HW219866   1.289   1.447   2.964
 6323SOL     OW19867   2.235   5.033   0.613
 6323SOL    HW119868   2.190   5.118   0.639
 6323SOL    HW219869   2.225   4.965   0.686
 6324SOL     OW19870   4.796   3.569   1.275
 6324SOL    HW119871   4.828   3.484   1.314
 6324SOL    HW219872   4.862   3.642   1.294
 6325SOL     OW19873   1.819   3.219   3.959
 6325SOL    HW119874   1.807   3.130   4.004
 6325SOL    HW219875   1.860   3.283   4.024
 6326SOL     OW19876   5.506   5.592   5.230
 6326SOL    HW119877   5.539   5.508   5.274
 6326SOL    HW219878   5.575   5.625   5.166
 6327SOL     OW19879   0.777   1.391   3.407
 6327SOL    HW119880   0.806   1.323   3.475
 6327SOL    HW219881   0.723   1.462   3.452
 6328SOL     OW19882   4.839   3.819   5.239
 6328SOL    HW119883   4.790   3.732   5.229
 6328SOL    HW219884   4.919   3.820   5.180
 6329SOL     OW19885   0.927   2.065   6.019
 6329SOL    HW119886   1.014   2.092   5.977
 6329SOL    HW219887   0.927   1.965   6.033
 6330SOL     OW19888   4.375   1.686   4.208
 6330SOL    HW119889   4.291   1.731   4.178
 6330SOL    HW219890   4.411   1.630   4.134
 6331SOL     OW19891   1.031   3.187   3.973
 6331SOL    HW119892   1.106   3.216   4.033
 6331SOL    HW219893   1.069   3.153   3.887
 6332SOL     OW19894   3.204   1.455   6.948
 6332SOL    HW119895   3.179   1.445   0.025
 6332SOL    HW219896   3.193   1.550   6.920
 6333SOL     OW19897   5.603   0.580   0.890
 6333SOL    HW119898   5.518   0.608   0.935
 6333SOL    HW219899   5.589   0.493   0.843
 6334SOL     OW19900   1.612   1.018   1.548
 6334SOL    HW119901   1.665   1.047   1.468
 6334SOL    HW219902   1.674   0.984   1.618
 6335SOL     OW19903   6.727   3.198   5.814
 6335SOL    HW119904   6.736   3.254   5.731
 6335SOL    HW219905   6.806   3.211   5.873
 6336SOL     OW19906   0.443   3.875   5.521
 6336SOL    HW119907   0.438   3.968   5.485
 6336SOL    HW219908   0.437   3.810   5.445
 6337SOL     OW19909   5.562   0.062   5.213
 6337SOL    HW119910   5.607   0.081   5.300
 6337SOL    HW219911   5.620   0.093   5.137
 6338SOL     OW19912   1.148   0.828   3.212
 6338SOL    HW119913   1.130   0.733   3.188
 6338SOL    HW219914   1.089   0.888   3.158
 6339SOL     OW19915   0.138   3.536   3.315
 6339SOL    HW119916   0.149   3.443   3.279
 6339SOL    HW219917   0.163   3.537   3.412
 6340SOL     OW19918   2.790   4.691   0.554
 6340SOL    HW119919   2.790   4.787   0.529
 6340SOL    HW219920   2.736   4.678   0.637
 6341SOL     OW19921   0.245   5.820   2.029
 6341SOL    HW119922   0.312   5.829   1.956
 6341SOL    HW219923   0.271   5.744   2.089
 6342SOL     OW19924   2.237   0.768   2.012
 6342SOL    HW119925   2.238   0.812   1.922
 6342SOL    HW219926   2.220   0.670   2.001
 6343SOL     OW19927   1.102   5.455   0.439
 6343SOL    HW119928   1.175   5.387   0.439
 6343SOL    HW219929   1.093   5.494   0.348
 6344SOL     OW19930   1.296   1.358   4.306
 6344SOL    HW119931   1.372   1.316   4.257
 6344SOL    HW219932   1.331   1.406   4.387
 6345SOL     OW19933   5.709   2.758   2.759
 6345SOL    HW119934   5.684   2.665   2.732
 6345SOL    HW219935   5.808   2.767   2.761
 6346SOL     OW19936   6.946   4.254   5.122
 6346SOL    HW119937   7.010   4.187   5.083
 6346SOL    HW219938   6.854   4.213   5.125
 6347SOL     OW19939   1.729   2.504   3.317
 6347SOL    HW119940   1.695   2.563   3.390
 6347SOL    HW219941   1.796   2.553   3.262
 6348SOL     OW19942   0.945   2.744   6.252
 6348SOL    HW119943   0.993   2.731   6.339
 6348SOL    HW219944   0.999   2.803   6.192
 6349SOL     OW19945   6.175   0.851   0.982
 6349SOL    HW119946   6.109   0.870   0.910
 6349SOL    HW219947   6.138   0.883   1.070
 6350SOL     OW19948   1.063   6.237   1.595
 6350SOL    HW119949   1.135   6.269   1.656
 6350SOL    HW219950   0.983   6.211   1.649
 6351SOL     OW19951   5.630   3.915   1.320
 6351SOL    HW119952   5.679   3.994   1.357
 6351SOL    HW219953   5.671   3.888   1.233
 6352SOL     OW19954   3.942   0.459   4.730
 6352SOL    HW119955   3.843   0.446   4.741
 6352SOL    HW219956   3.966   0.454   4.633
 6353SOL     OW19957   3.615   6.128   5.226
 6353SOL    HW119958   3.594   6.112   5.130
 6353SOL    HW219959   3.601   6.224   5.248
 6354SOL     OW19960   5.037   4.833   2.620
 6354SOL    HW119961   4.947   4.807   2.653
 6354SOL    HW219962   5.035   4.926   2.584
 6355SOL     OW19963   3.447   5.530   0.934
 6355SOL    HW119964   3.354   5.493   0.922
 6355SOL    HW219965   3.445   5.628   0.917
 6356SOL     OW19966   0.245   6.012   6.581
 6356SOL    HW119967   0.181   6.050   6.513
 6356SOL    HW219968   0.249   6.073   6.660
 6357SOL     OW19969   5.042   1.117   3.047
 6357SOL    HW119970   4.967   1.139   2.985
 6357SOL    HW219971   5.081   1.028   3.022
 6358SOL     OW19972   1.289   2.033   4.652
 6358SOL    HW119973   1.240   1.972   4.713
 6358SOL    HW219974   1.349   2.092   4.706
 6359SOL     OW19975   5.322   6.039   1.977
 6359SOL    HW119976   5.246   5.997   1.926
 6359SOL    HW219977   5.334   6.134   1.947
 6360SOL     OW19978   1.908   2.005   1.226
 6360SOL    HW119979   1.911   1.933   1.157
 6360SOL    HW219980   1.963   2.083   1.196
 6361SOL     OW19981   0.362   1.472   1.177
 6361SOL    HW119982   0.363   1.394   1.240
 6361SOL    HW219983   0.285   1.531   1.198
 6362SOL     OW19984   1.686   5.274   0.468
 6362SOL    HW119985   1.593   5.242   0.449
 6362SOL    HW219986   1.741   5.197   0.503
 6363SOL     OW19987   1.569   3.503   1.609
 6363SOL    HW119988   1.543   3.599   1.606
 6363SOL    HW219989   1.638   3.490   1.680
 6364SOL     OW19990   2.627   2.038   4.174
 6364SOL    HW119991   2.646   2.128   4.212
 6364SOL    HW219992   2.551   1.996   4.224
 6365SOL     OW19993   5.847   6.948   2.948
 6365SOL    HW119994   5.895   6.863   2.972
 6365SOL    HW219995   5.760   6.953   2.996
 6366SOL     OW19996   5.817   0.730   4.947
 6366SOL    HW119997   5.725   0.749   4.981
 6366SOL    HW219998   5.875   0.811   4.960
 6367SOL     OW19999   0.883   2.333   3.487
 6367SOL    HW120000   0.947   2.308   3.414
 6367SOL    HW220001   0.832   2.415   3.460
 6368SOL     OW20002   4.919   3.583   4.761
 6368SOL    HW120003   5.016   3.605   4.770
 6368SOL    HW220004   4.875   3.587   4.851
 6369SOL     OW20005   4.467   4.492   0.355
 6369SOL    HW120006   4.525   4.412   0.374
 6369SOL    HW220007   4.522   4.564   0.314
 6370SOL     OW20008   5.719   4.376   4.618
 6370SOL    HW120009   5.703   4.362   4.520
 6370SOL    HW220010   5.634   4.361   4.668
 6371SOL     OW20011   5.527   4.873   0.876
 6371SOL    HW120012   5.443   4.822   0.892
 6371SOL    HW220013   5.564   4.905   0.963
 6372SOL     OW20014   6.555   1.570   1.689
 6372SOL    HW120015   6.548   1.494   1.625
 6372SOL    HW220016   6.531   1.656   1.643
 6373SOL     OW20017   4.831   3.086   2.502
 6373SOL    HW120018   4.805   3.045   2.415
 6373SOL    HW220019   4.796   3.180   2.507
 6374SOL     OW20020   4.862   3.454   6.658
 6374SOL    HW120021   4.956   3.436   6.687
 6374SOL    HW220022   4.799   3.419   6.727
 6375SOL     OW20023   4.937   1.025   2.026
 6375SOL    HW120024   5.022   1.006   2.075
 6375SOL    HW220025   4.956   1.084   1.948
 6376SOL     OW20026   2.642   0.235   0.309
 6376SOL    HW120027   2.618   0.229   0.212
 6376SOL    HW220028   2.654   0.331   0.334
 6377SOL     OW20029   0.570   0.689   6.957
 6377SOL    HW120030   0.540   0.737   6.875
 6377SOL    HW220031   0.510   0.611   6.973
 6378SOL     OW20032   5.848   4.760   2.614
 6378SOL    HW120033   5.932   4.775   2.665
 6378SOL    HW220034   5.780   4.828   2.641
 6379SOL     OW20035   1.742   5.093   6.358
 6379SOL    HW120036   1.733   5.137   6.268
 6379SOL    HW220037   1.793   5.153   6.420
 6380SOL     OW20038   1.283   3.603   5.215
 6380SOL    HW120039   1.383   3.609   5.212
 6380SOL    HW220040   1.244   3.692   5.237
 6381SOL     OW20041   4.044   3.714   0.319
 6381SOL    HW120042   3.963   3.672   0.359
 6381SOL    HW220043   4.061   3.803   0.363
 6382SOL     OW20044   1.734   1.381   0.661
 6382SOL    HW120045   1.775   1.418   0.745
 6382SOL    HW220046   1.784   1.415   0.582
 6383SOL     OW20047   2.465   2.601   2.080
 6383SOL    HW120048   2.442   2.671   2.012
 6383SOL    HW220049   2.539   2.543   2.045
 6384SOL     OW20050   6.562   2.724   2.050
 6384SOL    HW120051   6.465   2.699   2.058
 6384SOL    HW220052   6.618   2.649   2.084
 6385SOL     OW20053   6.629   3.860   0.104
 6385SOL    HW120054   6.569   3.843   0.182
 6385SOL    HW220055   6.622   3.784   0.040
 6386SOL     OW20056   2.827   3.100   0.531
 6386SOL    HW120057   2.789   3.130   0.444
 6386SOL    HW220058   2.903   3.037   0.514
 6387SOL     OW20059   6.899   6.908   6.825
 6387SOL    HW120060   6.886   6.927   6.728
 6387SOL    HW220061   6.946   6.820   6.836
 6388SOL     OW20062   5.451   5.132   2.098
 6388SOL    HW120063   5.526   5.067   2.101
 6388SOL    HW220064   5.415   5.147   2.190
 6389SOL     OW20065   6.815   6.749   0.570
 6389SOL    HW120066   6.786   6.661   0.607
 6389SOL    HW220067   6.841   6.810   0.646
 6390SOL     OW20068   5.514   0.446   6.947
 6390SOL    HW120069   5.517   0.485   0.020
 6390SOL    HW220070   5.439   0.380   6.941
 6391SOL     OW20071   1.673   2.228   4.662
 6391SOL    HW120072   1.624   2.253   4.746
 6391SOL    HW220073   1.734   2.152   4.681
 6392SOL     OW20074   4.758   0.001   4.021
 6392SOL    HW120075   4.777   0.040   4.112
 6392SOL    HW220076   4.718   0.072   3.963
 6393SOL     OW20077   1.747   4.626   0.571
 6393SOL    HW120078   1.719   4.533   0.591
 6393SOL    HW220079   1.691   4.690   0.624
 6394SOL     OW20080   1.896   4.989   1.536
 6394SOL    HW120081   1.983   4.940   1.530
 6394SOL    HW220082   1.821   4.923   1.547
 6395SOL     OW20083   1.989   4.403   3.982
 6395SOL    HW120084   1.925   4.388   4.058
 6395SOL    HW220085   2.026   4.496   3.988
 6396SOL     OW20086   2.100   2.879   5.469
 6396SOL    HW120087   2.044   2.962   5.465
 6396SOL    HW220088   2.167   2.880   5.396
 6397SOL     OW20089   5.974   3.622   4.875
 6397SOL    HW120090   6.049   3.677   4.912
 6397SOL    HW220091   5.907   3.605   4.947
 6398SOL     OW20092   2.263   0.253   2.517
 6398SOL    HW120093   2.275   0.266   2.616
 6398SOL    HW220094   2.352   0.249   2.473
 6399SOL     OW20095   3.447   0.074   6.988
 6399SOL    HW120096   3.442   7.004   0.015
 6399SOL    HW220097   3.527   0.076   6.928
 6400SOL     OW20098   0.460   6.859   2.866
 6400SOL    HW120099   0.537   6.870   2.803
 6400SOL    HW220100   0.408   6.778   2.841
 6401SOL     OW20101   4.152   5.241   2.664
 6401SOL    HW120102   4.206   5.207   2.587
 6401SOL    HW220103   4.084   5.306   2.630
 6402SOL     OW20104   3.047   4.519   5.508
 6402SOL    HW120105   3.132   4.467   5.515
 6402SOL    HW220106   2.991   4.481   5.434
 6403SOL     OW20107   5.380   5.385   5.543
 6403SOL    HW120108   5.455   5.430   5.591
 6403SOL    HW220109   5.335   5.451   5.482
 6404SOL     OW20110   4.997   6.166   0.695
 6404SOL    HW120111   4.974   6.157   0.598
 6404SOL    HW220112   5.070   6.232   0.707
 6405SOL     OW20113   4.315   1.270   2.752
 6405SOL    HW120114   4.405   1.312   2.765
 6405SOL    HW220115   4.327   1.178   2.713
 6406SOL     OW20116   0.389   3.367   2.739
 6406SOL    HW120117   0.441   3.437   2.690
 6406SOL    HW220118   0.380   3.393   2.835
 6407SOL     OW20119   0.316   6.778   2.494
 6407SOL    HW120120   0.285   6.703   2.436
 6407SOL    HW220121   0.252   6.855   2.487
 6408SOL     OW20122   0.170   1.089   2.125
 6408SOL    HW120123   0.147   1.108   2.220
 6408SOL    HW220124   0.252   1.141   2.099
 6409SOL     OW20125   5.419   4.783   3.488
 6409SOL    HW120126   5.393   4.699   3.441
 6409SOL    HW220127   5.343   4.815   3.543
 6410SOL     OW20128   1.686   1.263   0.323
 6410SOL    HW120129   1.741   1.346   0.313
 6410SOL    HW220130   1.628   1.251   0.243
 6411SOL     OW20131   0.440   2.705   2.230
 6411SOL    HW120132   0.480   2.792   2.202
 6411SOL    HW220133   0.430   2.703   2.329
 6412SOL     OW20134   4.049   1.220   6.549
 6412SOL    HW120135   3.976   1.213   6.617
 6412SOL    HW220136   4.017   1.182   6.462
 6413SOL     OW20137   5.010   6.373   3.353
 6413SOL    HW120138   5.068   6.422   3.288
 6413SOL    HW220139   4.945   6.316   3.304
 6414SOL     OW20140   2.576   0.570   0.506
 6414SOL    HW120141   2.587   0.552   0.408
 6414SOL    HW220142   2.581   0.484   0.557
 6415SOL     OW20143   1.014   1.548   3.647
 6415SOL    HW120144   1.066   1.500   3.577
 6415SOL    HW220145   1.060   1.633   3.671
 6416SOL     OW20146   3.249   5.066   0.247
 6416SOL    HW120147   3.242   5.137   0.177
 6416SOL    HW220148   3.169   5.071   0.307
 6417SOL     OW20149   4.142   2.657   6.746
 6417SOL    HW120150   4.140   2.754   6.769
 6417SOL    HW220151   4.072   2.637   6.678
 6418SOL     OW20152   4.992   4.978   0.203
 6418SOL    HW120153   5.000   4.886   0.164
 6418SOL    HW220154   5.077   5.029   0.187
 6419SOL     OW20155   0.766   6.582   6.571
 6419SOL    HW120156   0.790   6.676   6.595
 6419SOL    HW220157   0.759   6.574   6.471
 6420SOL     OW20158   2.771   4.673   3.857
 6420SOL    HW120159   2.788   4.632   3.767
 6420SOL    HW220160   2.852   4.724   3.886
 6421SOL     OW20161   4.810   0.048   1.656
 6421SOL    HW120162   4.767   0.117   1.598
 6421SOL    HW220163   4.855   6.999   1.598
 6422SOL     OW20164   6.409   2.839   4.912
 6422SOL    HW120165   6.325   2.893   4.904
 6422SOL    HW220166   6.479   2.893   4.958
 6423SOL     OW20167   1.203   4.872   4.785
 6423SOL    HW120168   1.302   4.879   4.788
 6423SOL    HW220169   1.169   4.834   4.871
 6424SOL     OW20170   6.873   4.666   6.277
 6424SOL    HW120171   6.861   4.623   6.187
 6424SOL    HW220172   6.791   4.650   6.332
 6425SOL     OW20173   6.948   6.112   4.163
 6425SOL    HW120174   7.006   6.084   4.240
 6425SOL    HW220175   7.004   6.155   4.092
 6426SOL     OW20176   4.703   4.836   4.483
 6426SOL    HW120177   4.710   4.799   4.390
 6426SOL    HW220178   4.669   4.764   4.544
 6427SOL     OW20179   3.918   3.031   3.224
 6427SOL    HW120180   3.957   3.120   3.249
 6427SOL    HW220181   3.874   3.039   3.135
 6428SOL     OW20182   5.460   2.627   0.300
 6428SOL    HW120183   5.470   2.536   0.341
 6428SOL    HW220184   5.421   2.618   0.209
 6429SOL     OW20185   2.298   1.552   5.534
 6429SOL    HW120186   2.277   1.515   5.625
 6429SOL    HW220187   2.243   1.504   5.465
 6430SOL     OW20188   6.404   1.009   5.433
 6430SOL    HW120189   6.400   0.912   5.457
 6430SOL    HW220190   6.396   1.019   5.334
 6431SOL     OW20191   3.512   5.133   2.492
 6431SOL    HW120192   3.468   5.048   2.462
 6431SOL    HW220193   3.596   5.148   2.439
 6432SOL     OW20194   4.709   3.396   5.769
 6432SOL    HW120195   4.692   3.368   5.675
 6432SOL    HW220196   4.658   3.336   5.832
 6433SOL     OW20197   3.571   4.527   5.642
 6433SOL    HW120198   3.508   4.454   5.669
 6433SOL    HW220199   3.630   4.495   5.568
 6434SOL     OW20200   5.184   5.714   5.812
 6434SOL    HW120201   5.137   5.765   5.884
 6434SOL    HW220202   5.174   5.616   5.829
 6435SOL     OW20203   4.831   1.203   0.833
 6435SOL    HW120204   4.738   1.167   0.826
 6435SOL    HW220205   4.872   1.171   0.919
 6436SOL     OW20206   0.360   3.530   3.572
 6436SOL    HW120207   0.459   3.525   3.583
 6436SOL    HW220208   0.318   3.536   3.663
 6437SOL     OW20209   1.529   2.874   5.713
 6437SOL    HW120210   1.492   2.781   5.707
 6437SOL    HW220211   1.461   2.934   5.755
 6438SOL     OW20212   0.579   5.739   6.954
 6438SOL    HW120213   0.532   5.776   6.874
 6438SOL    HW220214   0.557   5.795   0.016
 6439SOL     OW20215   5.546   6.950   2.314
 6439SOL    HW120216   5.484   6.955   2.392
 6439SOL    HW220217   5.518   7.017   2.245
 6440SOL     OW20218   2.674   1.567   6.289
 6440SOL    HW120219   2.732   1.505   6.342
 6440SOL    HW220220   2.665   1.654   6.338
 6441SOL     OW20221   0.243   2.066   1.898
 6441SOL    HW120222   0.322   2.032   1.847
 6441SOL    HW220223   0.271   2.144   1.954
 6442SOL     OW20224   2.577   2.135   4.784
 6442SOL    HW120225   2.650   2.152   4.851
 6442SOL    HW220226   2.507   2.076   4.825
 6443SOL     OW20227   3.494   2.914   6.423
 6443SOL    HW120228   3.433   2.959   6.358
 6443SOL    HW220229   3.552   2.982   6.467
 6444SOL     OW20230   6.956   4.054   4.535
 6444SOL    HW120231   7.000   4.099   4.458
 6444SOL    HW220232   7.013   3.976   4.565
 6445SOL     OW20233   2.930   3.304   3.603
 6445SOL    HW120234   2.836   3.270   3.604
 6445SOL    HW220235   2.964   3.306   3.509
 6446SOL     OW20236   1.398   1.285   0.463
 6446SOL    HW120237   1.490   1.275   0.501
 6446SOL    HW220238   1.403   1.290   0.363
 6447SOL     OW20239   5.261   3.608   2.120
 6447SOL    HW120240   5.258   3.701   2.082
 6447SOL    HW220241   5.198   3.602   2.197
 6448SOL     OW20242   4.419   4.600   1.057
 6448SOL    HW120243   4.516   4.621   1.043
 6448SOL    HW220244   4.385   4.548   0.979
 6449SOL     OW20245   3.142   4.997   0.709
 6449SOL    HW120246   3.160   4.911   0.758
 6449SOL    HW220247   3.044   5.006   0.693
 6450SOL     OW20248   6.043   4.050   6.784
 6450SOL    HW120249   6.045   4.066   6.883
 6450SOL    HW220250   5.949   4.039   6.753
 6451SOL     OW20251   4.210   2.612   1.740
 6451SOL    HW120252   4.180   2.703   1.770
 6451SOL    HW220253   4.142   2.575   1.676
 6452SOL     OW20254   3.698   1.991   4.901
 6452SOL    HW120255   3.725   2.005   4.996
 6452SOL    HW220256   3.735   1.904   4.868
 6453SOL     OW20257   1.851   0.272   2.636
 6453SOL    HW120258   1.809   0.206   2.574
 6453SOL    HW220259   1.918   0.225   2.694
 6454SOL     OW20260   5.045   2.634   3.913
 6454SOL    HW120261   5.003   2.716   3.876
 6454SOL    HW220262   5.121   2.659   3.972
 6455SOL     OW20263   6.762   3.215   3.978
 6455SOL    HW120264   6.855   3.222   4.013
 6455SOL    HW220265   6.697   3.240   4.050
 6456SOL     OW20266   6.650   1.858   1.948
 6456SOL    HW120267   6.700   1.775   1.971
 6456SOL    HW220268   6.626   1.906   2.032
 6457SOL     OW20269   2.914   6.320   2.703
 6457SOL    HW120270   2.947   6.335   2.796
 6457SOL    HW220271   2.836   6.380   2.686
 6458SOL     OW20272   0.138   6.914   4.684
 6458SOL    HW120273   0.183   6.967   4.756
 6458SOL    HW220274   0.043   6.897   4.709
 6459SOL     OW20275   0.749   3.262   2.992
 6459SOL    HW120276   0.779   3.300   3.080
 6459SOL    HW220277   0.740   3.336   2.925
 6460SOL     OW20278   1.326   5.422   6.505
 6460SOL    HW120279   1.249   5.368   6.538
 6460SOL    HW220280   1.295   5.515   6.483
 6461SOL     OW20281   1.145   6.319   0.908
 6461SOL    HW120282   1.164   6.414   0.885
 6461SOL    HW220283   1.192   6.259   0.842
 6462SOL     OW20284   1.804   3.684   5.273
 6462SOL    HW120285   1.893   3.666   5.231
 6462SOL    HW220286   1.816   3.703   5.370
 6463SOL     OW20287   5.107   3.145   1.313
 6463SOL    HW120288   5.130   3.131   1.217
 6463SOL    HW220289   5.149   3.230   1.345
 6464SOL     OW20290   0.669   4.085   3.968
 6464SOL    HW120291   0.652   4.184   3.966
 6464SOL    HW220292   0.594   4.039   4.015
 6465SOL     OW20293   3.019   0.747   3.765
 6465SOL    HW120294   3.055   0.813   3.699
 6465SOL    HW220295   3.038   0.778   3.858
 6466SOL     OW20296   0.050   4.962   6.962
 6466SOL    HW120297   0.016   4.988   6.872
 6466SOL    HW220298   0.106   4.879   6.954
 6467SOL     OW20299   1.880   1.835   6.607
 6467SOL    HW120300   1.906   1.913   6.550
 6467SOL    HW220301   1.799   1.791   6.568
 6468SOL     OW20302   1.821   0.158   1.027
 6468SOL    HW120303   1.730   0.148   0.986
 6468SOL    HW220304   1.836   0.086   1.094
 6469SOL     OW20305   2.249   0.893   1.773
 6469SOL    HW120306   2.207   0.983   1.760
 6469SOL    HW220307   2.193   0.824   1.728
 6470SOL     OW20308   6.205   1.721   0.185
 6470SOL    HW120309   6.217   1.795   0.251
 6470SOL    HW220310   6.174   1.759   0.097
 6471SOL     OW20311   0.340   6.538   5.849
 6471SOL    HW120312   0.328   6.638   5.854
 6471SOL    HW220313   0.380   6.505   5.934
 6472SOL     OW20314   6.834   6.337   2.673
 6472SOL    HW120315   6.872   6.284   2.597
 6472SOL    HW220316   6.823   6.279   2.753
 6473SOL     OW20317   2.428   0.901   3.005
 6473SOL    HW120318   2.360   0.907   3.079
 6473SOL    HW220319   2.433   0.990   2.959
 6474SOL     OW20320   3.917   6.448   3.968
 6474SOL    HW120321   3.888   6.364   4.014
 6474SOL    HW220322   3.838   6.505   3.949
 6475SOL     OW20323   5.618   5.593   2.662
 6475SOL    HW120324   5.698   5.651   2.679
 6475SOL    HW220325   5.575   5.620   2.576
 6476SOL     OW20326   4.164   2.884   6.425
 6476SOL    HW120327   4.166   2.889   6.525
 6476SOL    HW220328   4.243   2.832   6.392
 6477SOL     OW20329   0.354   6.484   1.253
 6477SOL    HW120330   0.308   6.475   1.164
 6477SOL    HW220331   0.430   6.419   1.257
 6478SOL     OW20332   2.683   5.897   1.133
 6478SOL    HW120333   2.620   5.851   1.196
 6478SOL    HW220334   2.671   5.860   1.041
 6479SOL     OW20335   4.546   5.881   3.100
 6479SOL    HW120336   4.536   5.947   3.175
 6479SOL    HW220337   4.612   5.810   3.127
 6480SOL     OW20338   3.863   1.516   6.194
 6480SOL    HW120339   3.948   1.546   6.237
 6480SOL    HW220340   3.879   1.499   6.097
 6481SOL     OW20341   4.183   3.260   1.966
 6481SOL    HW120342   4.219   3.172   1.997
 6481SOL    HW220343   4.177   3.260   1.866
 6482SOL     OW20344   4.908   3.705   5.711
 6482SOL    HW120345   4.968   3.651   5.651
 6482SOL    HW220346   4.855   3.643   5.769
 6483SOL     OW20347   1.862   6.112   4.986
 6483SOL    HW120348   1.806   6.179   5.035
 6483SOL    HW220349   1.829   6.020   5.006
 6484SOL     OW20350   3.579   1.126   3.128
 6484SOL    HW120351   3.610   1.221   3.123
 6484SOL    HW220352   3.490   1.117   3.083
 6485SOL     OW20353   2.406   5.961   4.969
 6485SOL    HW120354   2.464   5.963   4.888
 6485SOL    HW220355   2.445   5.900   5.037
 6486SOL     OW20356   6.990   4.625   2.507
 6486SOL    HW120357   0.016   4.539   2.532
 6486SOL    HW220358   6.931   4.655   2.581
 6487SOL     OW20359   6.770   4.939   3.558
 6487SOL    HW120360   6.694   4.890   3.600
 6487SOL    HW220361   6.743   5.034   3.542
 6488SOL     OW20362   3.281   5.257   4.125
 6488SOL    HW120363   3.378   5.281   4.135
 6488SOL    HW220364   3.252   5.273   4.031
 6489SOL     OW20365   5.255   3.269   4.614
 6489SOL    HW120366   5.180   3.283   4.550
 6489SOL    HW220367   5.301   3.183   4.595
 6490SOL     OW20368   2.329   2.330   0.353
 6490SOL    HW120369   2.231   2.322   0.368
 6490SOL    HW220370   2.357   2.426   0.361
 6491SOL     OW20371   1.749   6.491   1.708
 6491SOL    HW120372   1.677   6.524   1.769
 6491SOL    HW220373   1.837   6.492   1.756
 6492SOL     OW20374   4.097   3.604   4.237
 6492SOL    HW120375   4.051   3.601   4.148
 6492SOL    HW220376   4.072   3.689   4.284
 6493SOL     OW20377   1.250   4.141   4.160
 6493SOL    HW120378   1.325   4.205   4.150
 6493SOL    HW220379   1.205   4.127   4.072
 6494SOL     OW20380   6.882   0.914   1.497
 6494SOL    HW120381   6.959   0.856   1.469
 6494SOL    HW220382   6.817   0.921   1.421
 6495SOL     OW20383   6.636   6.756   3.076
 6495SOL    HW120384   6.645   6.820   3.000
 6495SOL    HW220385   6.726   6.742   3.118
 6496SOL     OW20386   3.370   2.078   1.763
 6496SOL    HW120387   3.292   2.031   1.722
 6496SOL    HW220388   3.398   2.029   1.845
 6497SOL     OW20389   6.790   1.369   0.616
 6497SOL    HW120390   6.718   1.346   0.551
 6497SOL    HW220391   6.866   1.304   0.607
 6498SOL     OW20392   2.312   4.341   4.297
 6498SOL    HW120393   2.371   4.406   4.345
 6498SOL    HW220394   2.334   4.342   4.199
 6499SOL     OW20395   4.423   2.466   3.562
 6499SOL    HW120396   4.477   2.449   3.479
 6499SOL    HW220397   4.464   2.542   3.612
 6500SOL     OW20398   1.087   3.949   3.509
 6500SOL    HW120399   1.165   4.010   3.493
 6500SOL    HW220400   1.094   3.871   3.446
 6501SOL     OW20401   5.966   1.526   3.018
 6501SOL    HW120402   5.926   1.456   3.077
 6501SOL    HW220403   5.992   1.606   3.072
 6502SOL     OW20404   0.159   3.559   1.639
 6502SOL    HW120405   0.145   3.620   1.717
 6502SOL    HW220406   0.115   3.597   1.558
 6503SOL     OW20407   7.006   3.492   5.579
 6503SOL    HW120408   6.996   3.422   5.508
 6503SOL    HW220409   0.085   3.505   5.600
 6504SOL     OW20410   3.443   0.156   6.288
 6504SOL    HW120411   3.418   0.067   6.326
 6504SOL    HW220412   3.362   0.200   6.249
 6505SOL     OW20413   0.271   6.515   0.996
 6505SOL    HW120414   0.277   6.436   0.935
 6505SOL    HW220415   0.277   6.599   0.943
 6506SOL     OW20416   0.827   3.717   2.153
 6506SOL    HW120417   0.916   3.676   2.171
 6506SOL    HW220418   0.756   3.662   2.197
 6507SOL     OW20419   4.096   5.466   0.916
 6507SOL    HW120420   4.135   5.409   0.845
 6507SOL    HW220421   4.149   5.456   1.001
 6508SOL     OW20422   0.168   0.895   3.549
 6508SOL    HW120423   0.069   0.883   3.536
 6508SOL    HW220424   0.208   0.807   3.575
 6509SOL     OW20425   2.621   1.791   0.020
 6509SOL    HW120426   2.545   1.726   0.022
 6509SOL    HW220427   2.613   1.849   6.958
 6510SOL     OW20428   3.187   5.541   4.772
 6510SOL    HW120429   3.264   5.549   4.709
 6510SOL    HW220430   3.136   5.627   4.774
 6511SOL     OW20431   2.791   2.622   0.302
 6511SOL    HW120432   2.804   2.528   0.269
 6511SOL    HW220433   2.779   2.620   0.401
 6512SOL     OW20434   4.634   0.912   0.204
 6512SOL    HW120435   4.695   0.926   0.282
 6512SOL    HW220436   4.672   0.842   0.144
 6513SOL     OW20437   2.627   4.678   2.821
 6513SOL    HW120438   2.568   4.606   2.857
 6513SOL    HW220439   2.609   4.690   2.724
 6514SOL     OW20440   5.105   6.309   5.794
 6514SOL    HW120441   5.150   6.221   5.812
 6514SOL    HW220442   5.150   6.353   5.716
 6515SOL     OW20443   0.694   4.625   2.785
 6515SOL    HW120444   0.603   4.647   2.751
 6515SOL    HW220445   0.694   4.628   2.885
 6516SOL     OW20446   6.368   2.595   2.341
 6516SOL    HW120447   6.363   2.613   2.440
 6516SOL    HW220448   6.413   2.508   2.325
 6517SOL     OW20449   6.560   3.842   0.475
 6517SOL    HW120450   6.631   3.779   0.445
 6517SOL    HW220451   6.599   3.934   0.485
 6518SOL     OW20452   1.102   0.691   2.268
 6518SOL    HW120453   1.202   0.698   2.263
 6518SOL    HW220454   1.078   0.607   2.317
 6519SOL     OW20455   1.383   1.124   2.948
 6519SOL    HW120456   1.407   1.217   2.974
 6519SOL    HW220457   1.398   1.063   3.026
 6520SOL     OW20458   6.658   5.547   0.534
 6520SOL    HW120459   6.623   5.456   0.556
 6520SOL    HW220460   6.747   5.537   0.488
 6521SOL     OW20461   1.936   4.930   4.145
 6521SOL    HW120462   1.902   4.838   4.162
 6521SOL    HW220463   1.920   4.987   4.225
 6522SOL     OW20464   2.699   2.986   5.394
 6522SOL    HW120465   2.774   3.051   5.388
 6522SOL    HW220466   2.641   2.993   5.312
 6523SOL     OW20467   6.466   6.540   0.912
 6523SOL    HW120468   6.565   6.528   0.910
 6523SOL    HW220469   6.424   6.458   0.951
 6524SOL     OW20470   3.113   2.938   1.005
 6524SOL    HW120471   3.094   2.916   1.101
 6524SOL    HW220472   3.082   2.864   0.946
 6525SOL     OW20473   1.229   4.959   3.624
 6525SOL    HW120474   1.217   5.058   3.625
 6525SOL    HW220475   1.270   4.928   3.710
 6526SOL     OW20476   0.201   6.386   0.518
 6526SOL    HW120477   0.232   6.297   0.485
 6526SOL    HW220478   0.137   6.373   0.594
 6527SOL     OW20479   6.362   1.498   1.204
 6527SOL    HW120480   6.276   1.459   1.173
 6527SOL    HW220481   6.373   1.482   1.302
 6528SOL     OW20482   4.364   6.480   0.470
 6528SOL    HW120483   4.280   6.438   0.434
 6528SOL    HW220484   4.438   6.465   0.404
 6529SOL     OW20485   4.841   0.226   2.169
 6529SOL    HW120486   4.755   0.203   2.215
 6529SOL    HW220487   4.833   0.315   2.125
 6530SOL     OW20488   0.448   2.543   3.680
 6530SOL    HW120489   0.358   2.502   3.692
 6530SOL    HW220490   0.454   2.586   3.590
 6531SOL     OW20491   3.943   3.884   4.343
 6531SOL    HW120492   3.907   3.960   4.290
 6531SOL    HW220493   3.889   3.872   4.426
 6532SOL     OW20494   0.958   6.205   0.685
 6532SOL    HW120495   0.964   6.146   0.766
 6532SOL    HW220496   1.049   6.213   0.644
 6533SOL     OW20497   4.663   4.680   1.424
 6533SOL    HW120498   4.659   4.581   1.410
 6533SOL    HW220499   4.691   4.699   1.518
 6534SOL     OW20500   7.015   4.277   3.185
 6534SOL    HW120501   6.983   4.320   3.270
 6534SOL    HW220502   6.938   4.257   3.126
 6535SOL     OW20503   5.157   4.093   5.485
 6535SOL    HW120504   5.146   3.996   5.507
 6535SOL    HW220505   5.150   4.147   5.569
 6536SOL     OW20506   0.451   4.626   5.797
 6536SOL    HW120507   0.470   4.605   5.893
 6536SOL    HW220508   0.512   4.574   5.738
 6537SOL     OW20509   6.915   5.484   3.506
 6537SOL    HW120510   6.865   5.502   3.591
 6537SOL    HW220511   6.853   5.493   3.429
 6538SOL     OW20512   0.773   2.544   4.273
 6538SOL    HW120513   0.812   2.542   4.364
 6538SOL    HW220514   0.829   2.490   4.211
 6539SOL     OW20515   4.221   6.573   6.237
 6539SOL    HW120516   4.309   6.528   6.244
 6539SOL    HW220517   4.207   6.632   6.318
 6540SOL     OW20518   6.778   2.495   5.814
 6540SOL    HW120519   6.748   2.472   5.907
 6540SOL    HW220520   6.824   2.583   5.814
 6541SOL     OW20521   4.952   1.816   5.750
 6541SOL    HW120522   4.973   1.762   5.669
 6541SOL    HW220523   4.884   1.769   5.805
 6542SOL     OW20524   1.710   3.640   2.681
 6542SOL    HW120525   1.754   3.604   2.599
 6542SOL    HW220526   1.698   3.739   2.671
 6543SOL     OW20527   3.855   1.435   5.011
 6543SOL    HW120528   3.823   1.512   5.065
 6543SOL    HW220529   3.951   1.450   4.986
 6544SOL     OW20530   0.515   0.151   0.772
 6544SOL    HW120531   0.505   0.247   0.745
 6544SOL    HW220532   0.443   0.096   0.729
 6545SOL     OW20533   5.020   6.460   1.297
 6545SOL    HW120534   4.960   6.516   1.354
 6545SOL    HW220535   4.965   6.394   1.246
 6546SOL     OW20536   5.005   4.902   6.073
 6546SOL    HW120537   5.098   4.903   6.037
 6546SOL    HW220538   5.007   4.874   6.169
 6547SOL     OW20539   0.938   6.289   5.181
 6547SOL    HW120540   0.872   6.279   5.107
 6547SOL    HW220541   0.891   6.311   5.266
 6548SOL     OW20542   0.562   1.724   6.028
 6548SOL    HW120543   0.491   1.659   6.001
 6548SOL    HW220544   0.559   1.738   6.127
 6549SOL     OW20545   3.902   1.912   3.025
 6549SOL    HW120546   3.825   1.976   3.018
 6549SOL    HW220547   3.896   1.862   3.112
 6550SOL     OW20548   6.085   6.220   2.543
 6550SOL    HW120549   6.166   6.211   2.486
 6550SOL    HW220550   6.102   6.288   2.615
 6551SOL     OW20551   2.545   4.767   0.794
 6551SOL    HW120552   2.586   4.709   0.865
 6551SOL    HW220553   2.600   4.851   0.784
 6552SOL     OW20554   1.796   4.766   0.074
 6552SOL    HW120555   1.739   4.709   0.014
 6552SOL    HW220556   1.769   4.750   0.170
 6553SOL     OW20557   0.715   1.945   3.648
 6553SOL    HW120558   0.778   1.927   3.573
 6553SOL    HW220559   0.754   1.912   3.734
 6554SOL     OW20560   1.487   2.817   4.280
 6554SOL    HW120561   1.568   2.758   4.287
 6554SOL    HW220562   1.405   2.761   4.269
 6555SOL     OW20563   0.852   4.035   4.387
 6555SOL    HW120564   0.755   4.053   4.402
 6555SOL    HW220565   0.904   4.069   4.466
 6556SOL     OW20566   4.565   2.575   2.699
 6556SOL    HW120567   4.550   2.545   2.605
 6556SOL    HW220568   4.619   2.659   2.699
 6557SOL     OW20569   2.212   1.077   2.139
 6557SOL    HW120570   2.203   1.018   2.058
 6557SOL    HW220571   2.300   1.058   2.184
 6558SOL     OW20572   5.252   6.031   0.703
 6558SOL    HW120573   5.161   6.074   0.703
 6558SOL    HW220574   5.322   6.102   0.712
 6559SOL     OW20575   6.712   2.436   6.064
 6559SOL    HW120576   6.717   2.336   6.064
 6559SOL    HW220577   6.665   2.466   6.147
 6560SOL     OW20578   6.393   4.691   6.870
 6560SOL    HW120579   6.301   4.666   6.837
 6560SOL    HW220580   6.419   4.630   6.945
 6561SOL     OW20581   2.795   4.106   0.499
 6561SOL    HW120582   2.829   4.034   0.559
 6561SOL    HW220583   2.736   4.066   0.429
 6562SOL     OW20584   4.901   2.610   1.708
 6562SOL    HW120585   4.899   2.695   1.761
 6562SOL    HW220586   4.972   2.551   1.746
 6563SOL     OW20587   6.294   5.012   5.542
 6563SOL    HW120588   6.362   5.071   5.585
 6563SOL    HW220589   6.329   4.918   5.538
 6564SOL     OW20590   5.577   3.295   2.403
 6564SOL    HW120591   5.569   3.195   2.396
 6564SOL    HW220592   5.547   3.336   2.317
 6565SOL     OW20593   5.212   6.968   2.256
 6565SOL    HW120594   5.248   0.030   2.208
 6565SOL    HW220595   5.224   6.980   2.354
 6566SOL     OW20596   5.093   5.469   4.065
 6566SOL    HW120597   5.003   5.508   4.046
 6566SOL    HW220598   5.163   5.524   4.021
 6567SOL     OW20599   3.937   0.566   2.245
 6567SOL    HW120600   4.009   0.537   2.181
 6567SOL    HW220601   3.975   0.569   2.338
 6568SOL     OW20602   4.858   1.211   0.565
 6568SOL    HW120603   4.848   1.212   0.665
 6568SOL    HW220604   4.789   1.270   0.524
 6569SOL     OW20605   1.204   5.051   4.155
 6569SOL    HW120606   1.303   5.065   4.151
 6569SOL    HW220607   1.180   5.010   4.243
 6570SOL     OW20608   4.376   6.908   2.295
 6570SOL    HW120609   4.442   6.902   2.219
 6570SOL    HW220610   4.296   6.961   2.265
 6571SOL     OW20611   3.194   6.266   3.392
 6571SOL    HW120612   3.186   6.278   3.293
 6571SOL    HW220613   3.108   6.291   3.436
 6572SOL     OW20614   2.067   6.221   3.686
 6572SOL    HW120615   2.115   6.134   3.674
 6572SOL    HW220616   1.973   6.211   3.655
 6573SOL     OW20617   0.081   1.911   3.461
 6573SOL    HW120618   0.048   1.822   3.431
 6573SOL    HW220619   0.031   1.938   3.544
 6574SOL     OW20620   1.523   4.571   1.975
 6574SOL    HW120621   1.604   4.587   2.031
 6574SOL    HW220622   1.551   4.550   1.881
 6575SOL     OW20623   0.041   1.274   3.418
 6575SOL    HW120624   0.107   1.244   3.487
 6575SOL    HW220625   0.090   1.306   3.337
 6576SOL     OW20626   4.108   0.024   1.471
 6576SOL    HW120627   4.028   7.003   1.515
 6576SOL    HW220628   4.099   0.124   1.469
 6577SOL     OW20629   3.572   1.219   4.450
 6577SOL    HW120630   3.573   1.151   4.523
 6577SOL    HW220631   3.494   1.203   4.391
 6578SOL     OW20632   1.230   4.666   0.661
 6578SOL    HW120633   1.164   4.632   0.593
 6578SOL    HW220634   1.236   4.601   0.736
 6579SOL     OW20635   1.455   0.999   3.513
 6579SOL    HW120636   1.376   1.060   3.521
 6579SOL    HW220637   1.454   0.933   3.588
 6580SOL     OW20638   2.631   2.012   0.200
 6580SOL    HW120639   2.651   1.941   0.132
 6580SOL    HW220640   2.577   2.084   0.158
 6581SOL     OW20641   0.941   2.253   1.005
 6581SOL    HW120642   0.930   2.236   1.103
 6581SOL    HW220643   1.038   2.264   0.984
 6582SOL     OW20644   5.629   0.991   3.130
 6582SOL    HW120645   5.577   0.931   3.191
 6582SOL    HW220646   5.601   0.976   3.036
 6583SOL     OW20647   3.151   4.230   0.287
 6583SOL    HW120648   3.250   4.234   0.277
 6583SOL    HW220649   3.126   4.242   0.383
 6584SOL     OW20650   4.261   1.901   6.445
 6584SOL    HW120651   4.297   1.973   6.503
 6584SOL    HW220652   4.235   1.939   6.356
 6585SOL     OW20653   5.849   0.104   2.098
 6585SOL    HW120654   5.871   0.048   2.178
 6585SOL    HW220655   5.926   0.165   2.079
 6586SOL     OW20656   6.612   1.249   6.604
 6586SOL    HW120657   6.608   1.318   6.676
 6586SOL    HW220658   6.529   1.254   6.549
 6587SOL     OW20659   2.810   5.091   4.860
 6587SOL    HW120660   2.834   4.994   4.855
 6587SOL    HW220661   2.892   5.147   4.848
 6588SOL     OW20662   0.462   1.962   0.510
 6588SOL    HW120663   0.384   1.941   0.451
 6588SOL    HW220664   0.436   1.948   0.605
 6589SOL     OW20665   6.832   6.431   1.975
 6589SOL    HW120666   6.762   6.362   1.960
 6589SOL    HW220667   6.899   6.398   2.043
 6590SOL     OW20668   1.295   6.189   4.517
 6590SOL    HW120669   1.300   6.288   4.529
 6590SOL    HW220670   1.210   6.165   4.470
 6591SOL     OW20671   6.177   3.293   3.973
 6591SOL    HW120672   6.213   3.384   3.956
 6591SOL    HW220673   6.252   3.226   3.968
 6592SOL     OW20674   6.217   6.861   3.918
 6592SOL    HW120675   6.238   6.938   3.978
 6592SOL    HW220676   6.199   6.779   3.973
 6593SOL     OW20677   2.079   1.391   1.880
 6593SOL    HW120678   2.057   1.476   1.833
 6593SOL    HW220679   2.109   1.412   1.973
 6594SOL     OW20680   5.244   6.717   0.126
 6594SOL    HW120681   5.256   6.756   0.034
 6594SOL    HW220682   5.257   6.618   0.121
 6595SOL     OW20683   0.941   1.652   5.217
 6595SOL    HW120684   0.990   1.629   5.301
 6595SOL    HW220685   0.860   1.705   5.240
 6596SOL     OW20686   5.097   1.085   2.516
 6596SOL    HW120687   5.179   1.037   2.547
 6596SOL    HW220688   5.098   1.179   2.550
 6597SOL     OW20689   0.466   4.534   1.297
 6597SOL    HW120690   0.520   4.484   1.364
 6597SOL    HW220691   0.378   4.559   1.337
 6598SOL     OW20692   1.429   4.893   3.133
 6598SOL    HW120693   1.514   4.923   3.089
 6598SOL    HW220694   1.369   4.852   3.065
 6599SOL     OW20695   0.274   5.718   6.137
 6599SOL    HW120696   0.250   5.623   6.117
 6599SOL    HW220697   0.242   5.777   6.063
 6600SOL     OW20698   4.660   6.810   5.292
 6600SOL    HW120699   4.724   6.735   5.310
 6600SOL    HW220700   4.711   6.896   5.281
 6601SOL     OW20701   1.282   2.362   1.666
 6601SOL    HW120702   1.199   2.418   1.661
 6601SOL    HW220703   1.359   2.414   1.631
 6602SOL     OW20704   0.017   5.420   1.300
 6602SOL    HW120705   7.017   5.324   1.284
 6602SOL    HW220706   0.114   5.439   1.280
 6603SOL     OW20707   0.432   4.775   1.954
 6603SOL    HW120708   0.464   4.783   2.049
 6603SOL    HW220709   0.510   4.762   1.894
 6604SOL     OW20710   1.708   5.553   3.599
 6604SOL    HW120711   1.783   5.488   3.587
 6604SOL    HW220712   1.689   5.565   3.696
 6605SOL     OW20713   6.998   5.593   0.844
 6605SOL    HW120714   6.973   5.566   0.937
 6605SOL    HW220715   6.955   5.531   0.778
 6606SOL     OW20716   1.596   3.640   2.944
 6606SOL    HW120717   1.651   3.626   3.026
 6606SOL    HW220718   1.655   3.640   2.863
 6607SOL     OW20719   6.388   3.124   4.091
 6607SOL    HW120720   6.460   3.076   4.041
 6607SOL    HW220721   6.332   3.058   4.140
 6608SOL     OW20722   1.394   6.997   5.742
 6608SOL    HW120723   1.476   6.998   5.685
 6608SOL    HW220724   1.378   6.904   5.776
 6609SOL     OW20725   4.036   2.041   6.618
 6609SOL    HW120726   4.012   1.946   6.599
 6609SOL    HW220727   4.077   2.082   6.536
 6610SOL     OW20728   3.147   5.926   1.097
 6610SOL    HW120729   3.187   5.961   1.012
 6610SOL    HW220730   3.082   5.993   1.133
 6611SOL     OW20731   2.917   1.974   4.845
 6611SOL    HW120732   2.895   1.927   4.759
 6611SOL    HW220733   2.994   1.928   4.889
 6612SOL     OW20734   0.838   0.233   7.013
 6612SOL    HW120735   0.921   0.213   6.961
 6612SOL    HW220736   0.849   0.320   0.042
 6613SOL     OW20737   4.876   6.459   0.473
 6613SOL    HW120738   4.829   6.412   0.548
 6613SOL    HW220739   4.892   6.394   0.398
 6614SOL     OW20740   3.793   5.063   0.946
 6614SOL    HW120741   3.817   5.118   0.866
 6614SOL    HW220742   3.855   4.985   0.953
 6615SOL     OW20743   3.578   5.683   5.891
 6615SOL    HW120744   3.580   5.606   5.955
 6615SOL    HW220745   3.497   5.678   5.834
 6616SOL     OW20746   4.158   1.337   6.921
 6616SOL    HW120747   4.094   1.401   6.964
 6616SOL    HW220748   4.174   1.366   6.826
 6617SOL     OW20749   3.394   0.586   3.788
 6617SOL    HW120750   3.472   0.584   3.725
 6617SOL    HW220751   3.379   0.680   3.820
 6618SOL     OW20752   5.891   1.976   4.446
 6618SOL    HW120753   5.957   1.935   4.383
 6618SOL    HW220754   5.802   1.933   4.433
 6619SOL     OW20755   5.013   5.221   3.948
 6619SOL    HW120756   5.046   5.304   3.994
 6619SOL    HW220757   4.934   5.243   3.891
 6620SOL     OW20758   1.221   2.553   3.404
 6620SOL    HW120759   1.281   2.571   3.482
 6620SOL    HW220760   1.128   2.583   3.426
 6621SOL     OW20761   3.031   3.388   3.895
 6621SOL    HW120762   2.967   3.411   3.968
 6621SOL    HW220763   3.026   3.290   3.876
 6622SOL     OW20764   6.914   5.201   1.029
 6622SOL    HW120765   6.856   5.125   1.057
 6622SOL    HW220766   7.006   5.188   1.066
 6623SOL     OW20767   3.112   4.048   3.829
 6623SOL    HW120768   3.153   4.036   3.920
 6623SOL    HW220769   3.051   3.972   3.809
 6624SOL     OW20770   2.568   2.450   2.627
 6624SOL    HW120771   2.633   2.376   2.613
 6624SOL    HW220772   2.507   2.456   2.548
 6625SOL     OW20773   6.892   3.934   5.710
 6625SOL    HW120774   6.960   3.893   5.649
 6625SOL    HW220775   6.878   4.030   5.685
 6626SOL     OW20776   3.294   5.625   5.450
 6626SOL    HW120777   3.358   5.680   5.396
 6626SOL    HW220778   3.295   5.531   5.415
 6627SOL     OW20779   2.420   6.612   4.191
 6627SOL    HW120780   2.415   6.526   4.241
 6627SOL    HW220781   2.328   6.637   4.159
 6628SOL     OW20782   3.899   6.851   3.306
 6628SOL    HW120783   3.997   6.861   3.324
 6628SOL    HW220784   3.849   6.844   3.392
 6629SOL     OW20785   5.058   5.413   5.065
 6629SOL    HW120786   5.072   5.477   5.140
 6629SOL    HW220787   5.129   5.343   5.067
 6630SOL     OW20788   1.664   1.011   0.440
 6630SOL    HW120789   1.667   1.096   0.387
 6630SOL    HW220790   1.736   1.013   0.510
 6631SOL     OW20791   2.188   3.262   5.611
 6631SOL    HW120792   2.155   3.199   5.541
 6631SOL    HW220793   2.288   3.258   5.614
 6632SOL     OW20794   1.213   0.208   6.720
 6632SOL    HW120795   1.135   0.169   6.768
 6632SOL    HW220796   1.184   0.288   6.668
 6633SOL     OW20797   4.453   5.693   6.484
 6633SOL    HW120798   4.406   5.759   6.542
 6633SOL    HW220799   4.414   5.696   6.392
 6634SOL     OW20800   3.792   2.111   4.139
 6634SOL    HW120801   3.820   2.024   4.098
 6634SOL    HW220802   3.793   2.182   4.069
 6635SOL     OW20803   5.237   5.233   5.154
 6635SOL    HW120804   5.329   5.254   5.120
 6635SOL    HW220805   5.240   5.217   5.252
 6636SOL     OW20806   4.446   1.229   6.783
 6636SOL    HW120807   4.543   1.207   6.773
 6636SOL    HW220808   4.414   1.196   6.872
 6637SOL     OW20809   0.306   2.380   6.981
 6637SOL    HW120810   0.347   2.375   6.889
 6637SOL    HW220811   0.278   2.474   7.000
 6638SOL     OW20812   2.976   3.841   3.534
 6638SOL    HW120813   2.923   3.777   3.589
 6638SOL    HW220814   2.993   3.925   3.586
 6639SOL     OW20815   5.196   2.404   1.636
 6639SOL    HW120816   5.256   2.429   1.560
 6639SOL    HW220817   5.246   2.348   1.702
 6640SOL     OW20818   1.596   4.230   4.890
 6640SOL    HW120819   1.664   4.212   4.961
 6640SOL    HW220820   1.507   4.196   4.921
 6641SOL     OW20821   5.932   2.411   0.239
 6641SOL    HW120822   5.943   2.477   0.314
 6641SOL    HW220823   6.012   2.351   0.236
 6642SOL     OW20824   1.619   5.822   0.280
 6642SOL    HW120825   1.707   5.865   0.295
 6642SOL    HW220826   1.555   5.849   0.353
 6643SOL     OW20827   3.143   6.178   6.355
 6643SOL    HW120828   3.103   6.091   6.327
 6643SOL    HW220829   3.221   6.161   6.415
 6644SOL     OW20830   2.438   0.007   3.687
 6644SOL    HW120831   2.476   7.002   3.777
 6644SOL    HW220832   2.500   0.071   3.641
 6645SOL     OW20833   5.452   2.868   6.263
 6645SOL    HW120834   5.383   2.914   6.318
 6645SOL    HW220835   5.520   2.826   6.322
 6646SOL     OW20836   3.700   6.957   5.567
 6646SOL    HW120837   3.762   6.899   5.620
 6646SOL    HW220838   3.608   6.950   5.604
 6647SOL     OW20839   4.026   4.740   0.601
 6647SOL    HW120840   4.003   4.837   0.592
 6647SOL    HW220841   4.112   4.731   0.651
 6648SOL     OW20842   3.054   5.648   5.158
 6648SOL    HW120843   3.141   5.649   5.109
 6648SOL    HW220844   2.997   5.574   5.123
 6649SOL     OW20845   4.623   2.708   6.087
 6649SOL    HW120846   4.656   2.617   6.062
 6649SOL    HW220847   4.700   2.763   6.118
 6650SOL     OW20848   1.481   1.260   5.654
 6650SOL    HW120849   1.498   1.322   5.577
 6650SOL    HW220850   1.469   1.167   5.619
 6651SOL     OW20851   0.030   1.798   5.792
 6651SOL    HW120852   0.038   1.866   5.719
 6651SOL    HW220853   6.984   1.727   5.764
 6652SOL     OW20854   6.965   5.076   0.516
 6652SOL    HW120855   7.018   5.089   0.432
 6652SOL    HW220856   6.883   5.132   0.513
 6653SOL     OW20857   5.599   4.556   0.092
 6653SOL    HW120858   5.594   4.655   0.080
 6653SOL    HW220859   5.588   4.511   0.004
 6654SOL     OW20860   6.210   3.332   3.612
 6654SOL    HW120861   6.253   3.242   3.625
 6654SOL    HW220862   6.268   3.387   3.551
 6655SOL     OW20863   0.253   5.990   1.627
 6655SOL    HW120864   0.156   6.010   1.613
 6655SOL    HW220865   0.289   6.049   1.699
 6656SOL     OW20866   4.132   1.425   3.195
 6656SOL    HW120867   4.062   1.482   3.152
 6656SOL    HW220868   4.168   1.360   3.128
 6657SOL     OW20869   5.419   1.228   4.395
 6657SOL    HW120870   5.468   1.282   4.327
 6657SOL    HW220871   5.381   1.290   4.464
 6658SOL     OW20872   6.678   6.190   5.436
 6658SOL    HW120873   6.618   6.242   5.496
 6658SOL    HW220874   6.765   6.239   5.425
 6659SOL     OW20875   0.979   5.209   1.321
 6659SOL    HW120876   0.939   5.163   1.242
 6659SOL    HW220877   0.911   5.269   1.363
 6660SOL     OW20878   6.954   0.134   4.681
 6660SOL    HW120879   6.888   0.180   4.621
 6660SOL    HW220880   6.938   0.035   4.678
 6661SOL     OW20881   4.164   5.636   3.854
 6661SOL    HW120882   4.141   5.733   3.860
 6661SOL    HW220883   4.088   5.581   3.888
 6662SOL     OW20884   3.823   6.566   2.655
 6662SOL    HW120885   3.865   6.615   2.732
 6662SOL    HW220886   3.725   6.554   2.673
 6663SOL     OW20887   1.050   4.375   6.167
 6663SOL    HW120888   1.074   4.400   6.073
 6663SOL    HW220889   0.992   4.445   6.207
 6664SOL     OW20890   2.809   0.564   1.405
 6664SOL    HW120891   2.860   0.495   1.456
 6664SOL    HW220892   2.754   0.618   1.469
 6665SOL     OW20893   2.693   0.539   6.642
 6665SOL    HW120894   2.742   0.453   6.624
 6665SOL    HW220895   2.616   0.521   6.704
 6666SOL     OW20896   3.835   6.207   4.920
 6666SOL    HW120897   3.830   6.266   5.001
 6666SOL    HW220898   3.882   6.122   4.944
 6667SOL     OW20899   1.248   5.684   6.432
 6667SOL    HW120900   1.218   5.729   6.516
 6667SOL    HW220901   1.342   5.711   6.411
 6668SOL     OW20902   0.329   4.197   0.472
 6668SOL    HW120903   0.336   4.119   0.411
 6668SOL    HW220904   0.233   4.221   0.486
 6669SOL     OW20905   1.800   2.254   3.229
 6669SOL    HW120906   1.900   2.245   3.231
 6669SOL    HW220907   1.774   2.350   3.237
 6670SOL     OW20908   3.514   3.240   0.314
 6670SOL    HW120909   3.565   3.267   0.396
 6670SOL    HW220910   3.503   3.318   0.254
 6671SOL     OW20911   4.478   4.876   0.125
 6671SOL    HW120912   4.539   4.871   0.046
 6671SOL    HW220913   4.422   4.793   0.129
 6672SOL     OW20914   1.156   2.129   1.551
 6672SOL    HW120915   1.210   2.200   1.596
 6672SOL    HW220916   1.113   2.167   1.469
 6673SOL     OW20917   6.245   2.672   4.023
 6673SOL    HW120918   6.220   2.618   3.943
 6673SOL    HW220919   6.162   2.704   4.069
 6674SOL     OW20920   7.008   1.134   0.616
 6674SOL    HW120921   6.980   1.064   0.682
 6674SOL    HW220922   0.087   1.126   0.598
 6675SOL     OW20923   4.907   0.374   6.783
 6675SOL    HW120924   4.946   0.452   6.734
 6675SOL    HW220925   4.981   0.314   6.814
 6676SOL     OW20926   0.557   4.135   4.410
 6676SOL    HW120927   0.561   4.197   4.488
 6676SOL    HW220928   0.522   4.046   4.440
 6677SOL     OW20929   0.672   1.908   6.586
 6677SOL    HW120930   0.702   1.817   6.558
 6677SOL    HW220931   0.580   1.903   6.624
 6678SOL     OW20932   3.021   4.600   6.522
 6678SOL    HW120933   2.958   4.677   6.536
 6678SOL    HW220934   3.099   4.609   6.585
 6679SOL     OW20935   1.721   0.383   3.955
 6679SOL    HW120936   1.685   0.388   4.048
 6679SOL    HW220937   1.821   0.395   3.957
 6680SOL     OW20938   6.286   5.406   1.156
 6680SOL    HW120939   6.336   5.358   1.084
 6680SOL    HW220940   6.203   5.447   1.117
 6681SOL     OW20941   3.273   6.082   1.787
 6681SOL    HW120942   3.221   6.150   1.839
 6681SOL    HW220943   3.226   5.994   1.792
 6682SOL     OW20944   3.310   5.692   5.735
 6682SOL    HW120945   3.272   5.783   5.750
 6682SOL    HW220946   3.303   5.669   5.638
 6683SOL     OW20947   6.731   5.243   5.741
 6683SOL    HW120948   6.802   5.243   5.811
 6683SOL    HW220949   6.772   5.230   5.651
 6684SOL     OW20950   2.718   5.838   6.849
 6684SOL    HW120951   2.661   5.763   6.816
 6684SOL    HW220952   2.709   5.917   6.789
 6685SOL     OW20953   5.019   2.828   1.002
 6685SOL    HW120954   5.055   2.759   1.065
 6685SOL    HW220955   5.082   2.905   0.998
 6686SOL     OW20956   4.964   4.927   5.172
 6686SOL    HW120957   4.976   4.877   5.257
 6686SOL    HW220958   4.925   5.017   5.191
 6687SOL     OW20959   6.937   1.404   1.773
 6687SOL    HW120960   6.952   1.492   1.729
 6687SOL    HW220961   6.965   1.330   1.712
 6688SOL     OW20962   4.062   5.093   0.058
 6688SOL    HW120963   4.156   5.085   0.092
 6688SOL    HW220964   4.042   5.017   7.016
 6689SOL     OW20965   2.814   4.122   5.714
 6689SOL    HW120966   2.886   4.116   5.645
 6689SOL    HW220967   2.789   4.030   5.744
 6690SOL     OW20968   0.690   0.321   6.771
 6690SOL    HW120969   0.739   0.285   6.850
 6690SOL    HW220970   0.600   0.354   6.799
 6691SOL     OW20971   2.906   1.782   2.106
 6691SOL    HW120972   3.001   1.793   2.077
 6691SOL    HW220973   2.850   1.854   2.064
 6692SOL     OW20974   4.498   5.393   2.437
 6692SOL    HW120975   4.486   5.319   2.371
 6692SOL    HW220976   4.410   5.416   2.478
 6693SOL     OW20977   3.559   1.276   5.545
 6693SOL    HW120978   3.485   1.210   5.559
 6693SOL    HW220979   3.542   1.358   5.601
 6694SOL     OW20980   4.182   4.313   1.334
 6694SOL    HW120981   4.115   4.381   1.304
 6694SOL    HW220982   4.260   4.313   1.271
 6695SOL     OW20983   2.523   2.288   0.531
 6695SOL    HW120984   2.447   2.298   0.467
 6695SOL    HW220985   2.576   2.206   0.507
 6696SOL     OW20986   4.096   3.336   4.360
 6696SOL    HW120987   3.997   3.351   4.366
 6696SOL    HW220988   4.142   3.424   4.346
 6697SOL     OW20989   4.467   2.232   2.045
 6697SOL    HW120990   4.470   2.214   2.143
 6697SOL    HW220991   4.404   2.169   2.001
 6698SOL     OW20992   3.915   4.324   1.665
 6698SOL    HW120993   3.859   4.247   1.632
 6698SOL    HW220994   3.866   4.409   1.651
 6699SOL     OW20995   1.332   3.027   5.825
 6699SOL    HW120996   1.388   3.110   5.827
 6699SOL    HW220997   1.280   3.024   5.740
 6700SOL     OW20998   5.856   0.196   1.018
 6700SOL    HW120999   5.866   0.229   1.112
 6700SOL    HW221000   5.807   0.109   1.019
 6701SOL     OW21001   6.312   6.745   1.559
 6701SOL    HW121002   6.265   6.686   1.495
 6701SOL    HW221003   6.318   6.700   1.648
 6702SOL     OW21004   3.751   3.150   0.821
 6702SOL    HW121005   3.787   3.205   0.744
 6702SOL    HW221006   3.655   3.128   0.804
 6703SOL     OW21007   0.124   1.363   0.133
 6703SOL    HW121008   0.101   1.450   0.089
 6703SOL    HW221009   0.055   1.341   0.202
 6704SOL     OW21010   3.511   6.786   5.772
 6704SOL    HW121011   3.414   6.779   5.792
 6704SOL    HW221012   3.529   6.749   5.680
 6705SOL     OW21013   0.207   4.391   2.305
 6705SOL    HW121014   0.256   4.358   2.224
 6705SOL    HW221015   0.270   4.400   2.382
 6706SOL     OW21016   0.370   6.707   1.393
 6706SOL    HW121017   0.364   6.618   1.348
 6706SOL    HW221018   0.383   6.779   1.324
 6707SOL     OW21019   4.379   1.199   2.463
 6707SOL    HW121020   4.457   1.142   2.491
 6707SOL    HW221021   4.411   1.292   2.444
 6708SOL     OW21022   0.854   3.158   0.050
 6708SOL    HW121023   0.779   3.092   0.040
 6708SOL    HW221024   0.917   3.127   0.121
 6709SOL     OW21025   2.440   4.383   2.567
 6709SOL    HW121026   2.375   4.415   2.499
 6709SOL    HW221027   2.442   4.283   2.567
 6710SOL     OW21028   4.666   1.465   0.944
 6710SOL    HW121029   4.612   1.548   0.958
 6710SOL    HW221030   4.739   1.460   1.011
 6711SOL     OW21031   3.113   5.949   6.127
 6711SOL    HW121032   3.055   5.989   6.198
 6711SOL    HW221033   3.056   5.911   6.055
 6712SOL     OW21034   5.370   4.661   1.193
 6712SOL    HW121035   5.296   4.693   1.252
 6712SOL    HW221036   5.455   4.709   1.218
 6713SOL     OW21037   1.472   5.060   4.520
 6713SOL    HW121038   1.400   5.014   4.468
 6713SOL    HW221039   1.442   5.153   4.544
 6714SOL     OW21040   5.533   1.197   1.517
 6714SOL    HW121041   5.575   1.143   1.444
 6714SOL    HW221042   5.501   1.136   1.590
 6715SOL     OW21043   1.766   0.255   6.221
 6715SOL    HW121044   1.713   0.340   6.212
 6715SOL    HW221045   1.753   0.217   6.312
 6716SOL     OW21046   0.195   6.058   2.150
 6716SOL    HW121047   0.247   6.057   2.236
 6716SOL    HW221048   0.203   5.970   2.105
 6717SOL     OW21049   5.669   1.763   5.893
 6717SOL    HW121050   5.703   1.671   5.910
 6717SOL    HW221051   5.697   1.824   5.967
 6718SOL     OW21052   4.969   1.400   1.174
 6718SOL    HW121053   5.068   1.402   1.184
 6718SOL    HW221054   4.931   1.489   1.200
 6719SOL     OW21055   1.678   1.635   0.188
 6719SOL    HW121056   1.581   1.624   0.166
 6719SOL    HW221057   1.730   1.652   0.104
 6720SOL     OW21058   1.348   0.902   6.144
 6720SOL    HW121059   1.287   0.981   6.140
 6720SOL    HW221060   1.313   0.829   6.084
 6721SOL     OW21061   6.197   6.675   1.172
 6721SOL    HW121062   6.208   6.745   1.102
 6721SOL    HW221063   6.119   6.616   1.147
 6722SOL     OW21064   5.778   3.689   0.101
 6722SOL    HW121065   5.730   3.624   0.042
 6722SOL    HW221066   5.870   3.656   0.120
 6723SOL     OW21067   0.990   3.041   5.736
 6723SOL    HW121068   0.895   3.010   5.746
 6723SOL    HW221069   1.051   2.971   5.773
 6724SOL     OW21070   2.155   3.648   4.314
 6724SOL    HW121071   2.130   3.649   4.217
 6724SOL    HW221072   2.141   3.557   4.352
 6725SOL     OW21073   5.182   2.871   3.588
 6725SOL    HW121074   5.228   2.854   3.501
 6725SOL    HW221075   5.236   2.831   3.662
 6726SOL     OW21076   0.481   0.514   6.201
 6726SOL    HW121077   0.510   0.464   6.282
 6726SOL    HW221078   0.387   0.545   6.213
 6727SOL     OW21079   1.470   5.343   5.339
 6727SOL    HW121080   1.444   5.323   5.245
 6727SOL    HW221081   1.520   5.266   5.377
 6728SOL     OW21082   3.671   1.288   3.783
 6728SOL    HW121083   3.672   1.252   3.876
 6728SOL    HW221084   3.737   1.239   3.727
 6729SOL     OW21085   4.073   0.926   2.238
 6729SOL    HW121086   4.083   0.893   2.144
 6729SOL    HW221087   4.110   1.019   2.244
 6730SOL     OW21088   0.044   1.599   0.858
 6730SOL    HW121089   7.001   1.634   0.788
 6730SOL    HW221090   0.138   1.626   0.836
 6731SOL     OW21091   3.916   0.103   6.262
 6731SOL    HW121092   4.007   0.064   6.253
 6731SOL    HW221093   3.859   0.073   6.186
 6732SOL     OW21094   0.079   5.032   5.724
 6732SOL    HW121095   0.133   5.044   5.808
 6732SOL    HW221096   0.072   5.120   5.677
 6733SOL     OW21097   4.758   4.925   5.516
 6733SOL    HW121098   4.772   4.899   5.612
 6733SOL    HW221099   4.830   4.886   5.460
 6734SOL     OW21100   6.393   1.843   4.220
 6734SOL    HW121101   6.482   1.852   4.177
 6734SOL    HW221102   6.397   1.772   4.291
 6735SOL     OW21103   6.466   2.691   3.446
 6735SOL    HW121104   6.439   2.783   3.420
 6735SOL    HW221105   6.526   2.652   3.375
 6736SOL     OW21106   3.933   3.526   1.024
 6736SOL    HW121107   4.009   3.522   0.959
 6736SOL    HW221108   3.910   3.434   1.054
 6737SOL     OW21109   6.775   3.709   0.381
 6737SOL    HW121110   6.837   3.676   0.453
 6737SOL    HW221111   6.821   3.780   0.328
 6738SOL     OW21112   1.340   5.751   4.163
 6738SOL    HW121113   1.403   5.829   4.167
 6738SOL    HW221114   1.277   5.754   4.241
 6739SOL     OW21115   0.042   0.153   5.440
 6739SOL    HW121116   0.007   0.108   5.522
 6739SOL    HW221117   0.008   0.247   5.437
 6740SOL     OW21118   0.226   0.072   2.879
 6740SOL    HW121119   0.318   0.038   2.863
 6740SOL    HW221120   0.218   0.166   2.844
 6741SOL     OW21121   3.664   2.036   0.310
 6741SOL    HW121122   3.625   1.966   0.371
 6741SOL    HW221123   3.753   2.004   0.276
 6742SOL     OW21124   5.891   4.280   3.459
 6742SOL    HW121125   5.842   4.287   3.546
 6742SOL    HW221126   5.948   4.198   3.459
 6743SOL     OW21127   3.957   3.597   0.653
 6743SOL    HW121128   3.933   3.685   0.692
 6743SOL    HW221129   3.916   3.588   0.562
 6744SOL     OW21130   6.011   6.715   6.129
 6744SOL    HW121131   5.913   6.719   6.150
 6744SOL    HW221132   6.051   6.806   6.137
 6745SOL     OW21133   0.043   4.523   5.151
 6745SOL    HW121134   0.017   4.533   5.247
 6745SOL    HW221135   0.001   4.441   5.114
 6746SOL     OW21136   1.134   2.197   2.771
 6746SOL    HW121137   1.069   2.241   2.709
 6746SOL    HW221138   1.184   2.126   2.721
 6747SOL     OW21139   0.913   6.088   5.680
 6747SOL    HW121140   0.923   6.132   5.591
 6747SOL    HW221141   0.822   6.047   5.687
 6748SOL     OW21142   1.940   1.017   4.906
 6748SOL    HW121143   2.017   1.080   4.892
 6748SOL    HW221144   1.907   0.984   4.817
 6749SOL     OW21145   4.346   5.018   2.056
 6749SOL    HW121146   4.269   5.066   2.016
 6749SOL    HW221147   4.351   4.925   2.019
 6750SOL     OW21148   3.477   0.955   4.916
 6750SOL    HW121149   3.576   0.944   4.904
 6750SOL    HW221150   3.445   0.892   4.987
 6751SOL     OW21151   4.433   0.222   4.619
 6751SOL    HW121152   4.489   0.247   4.540
 6751SOL    HW221153   4.487   0.166   4.682
 6752SOL     OW21154   2.143   4.672   2.444
 6752SOL    HW121155   2.109   4.741   2.508
 6752SOL    HW221156   2.144   4.710   2.352
 6753SOL     OW21157   3.860   3.198   6.340
 6753SOL    HW121158   3.930   3.246   6.394
 6753SOL    HW221159   3.894   3.108   6.313
 6754SOL     OW21160   6.157   1.876   0.619
 6754SOL    HW121161   6.093   1.952   0.613
 6754SOL    HW221162   6.198   1.859   0.529
 6755SOL     OW21163   2.644   5.853   6.327
 6755SOL    HW121164   2.640   5.771   6.384
 6755SOL    HW221165   2.560   5.907   6.339
 6756SOL     OW21166   3.556   2.452   6.325
 6756SOL    HW121167   3.537   2.528   6.387
 6756SOL    HW221168   3.583   2.488   6.235
 6757SOL     OW21169   4.228   0.504   1.214
 6757SOL    HW121170   4.138   0.469   1.240
 6757SOL    HW221171   4.251   0.472   1.122
 6758SOL     OW21172   5.396   2.116   3.381
 6758SOL    HW121173   5.325   2.167   3.430
 6758SOL    HW221174   5.486   2.151   3.406
 6759SOL     OW21175   0.661   1.836   2.803
 6759SOL    HW121176   0.656   1.931   2.774
 6759SOL    HW221177   0.656   1.830   2.902
 6760SOL     OW21178   5.225   2.118   4.687
 6760SOL    HW121179   5.235   2.159   4.597
 6760SOL    HW221180   5.297   2.152   4.748
 6761SOL     OW21181   3.428   1.408   5.153
 6761SOL    HW121182   3.331   1.421   5.177
 6761SOL    HW221183   3.434   1.366   5.063
 6762SOL     OW21184   6.971   5.235   4.475
 6762SOL    HW121185   6.992   5.138   4.485
 6762SOL    HW221186   6.917   5.266   4.554
 6763SOL     OW21187   5.923   5.808   4.673
 6763SOL    HW121188   5.856   5.882   4.680
 6763SOL    HW221189   5.918   5.767   4.582
 6764SOL     OW21190   1.012   5.002   0.840
 6764SOL    HW121191   1.038   4.958   0.926
 6764SOL    HW221192   1.080   4.981   0.770
 6765SOL     OW21193   0.131   4.014   2.757
 6765SOL    HW121194   0.055   3.963   2.716
 6765SOL    HW221195   0.209   4.013   2.694
 6766SOL     OW21196   5.769   0.600   1.366
 6766SOL    HW121197   5.754   0.605   1.267
 6766SOL    HW221198   5.843   0.535   1.385
 6767SOL     OW21199   3.237   0.434   0.750
 6767SOL    HW121200   3.151   0.437   0.699
 6767SOL    HW221201   3.240   0.350   0.805
 6768SOL     OW21202   1.667   0.801   0.263
 6768SOL    HW121203   1.664   0.876   0.328
 6768SOL    HW221204   1.741   0.738   0.288
 6769SOL     OW21205   4.390   2.759   1.528
 6769SOL    HW121206   4.324   2.706   1.582
 6769SOL    HW221207   4.449   2.812   1.589
 6770SOL     OW21208   0.253   1.064   1.780
 6770SOL    HW121209   0.169   1.027   1.822
 6770SOL    HW221210   0.269   1.156   1.815
 6771SOL     OW21211   4.533   1.751   3.335
 6771SOL    HW121212   4.552   1.655   3.314
 6771SOL    HW221213   4.480   1.791   3.261
 6772SOL     OW21214   3.201   1.654   3.422
 6772SOL    HW121215   3.197   1.559   3.392
 6772SOL    HW221216   3.227   1.712   3.344
 6773SOL     OW21217   0.476   3.897   1.291
 6773SOL    HW121218   0.535   3.873   1.368
 6773SOL    HW221219   0.450   3.813   1.241
 6774SOL     OW21220   0.491   2.161   6.415
 6774SOL    HW121221   0.437   2.077   6.415
 6774SOL    HW221222   0.432   2.239   6.435
 6775SOL     OW21223   2.300   4.641   0.029
 6775SOL    HW121224   2.336   4.584   0.103
 6775SOL    HW221225   2.223   4.695   0.063
 6776SOL     OW21226   5.733   5.680   7.007
 6776SOL    HW121227   5.783   5.654   6.924
 6776SOL    HW221228   5.722   5.601   0.047
 6777SOL     OW21229   4.916   5.304   6.825
 6777SOL    HW121230   5.009   5.289   6.859
 6777SOL    HW221231   4.857   5.229   6.855
 6778SOL     OW21232   0.173   6.025   2.756
 6778SOL    HW121233   0.089   6.055   2.799
 6778SOL    HW221234   0.157   6.008   2.659
 6779SOL     OW21235   0.674   4.358   0.504
 6779SOL    HW121236   0.578   4.333   0.494
 6779SOL    HW221237   0.724   4.333   0.421
 6780SOL     OW21238   0.326   2.703   1.979
 6780SOL    HW121239   0.345   2.800   1.966
 6780SOL    HW221240   0.358   2.674   2.069
 6781SOL     OW21241   6.299   4.911   6.083
 6781SOL    HW121242   6.251   4.929   6.169
 6781SOL    HW221243   6.234   4.909   6.007
 6782SOL     OW21244   6.039   1.486   2.605
 6782SOL    HW121245   5.980   1.516   2.680
 6782SOL    HW221246   5.984   1.443   2.534
 6783SOL     OW21247   0.555   6.081   6.772
 6783SOL    HW121248   0.504   6.160   6.804
 6783SOL    HW221249   0.497   5.999   6.780
 6784SOL     OW21250   3.413   3.083   0.132
 6784SOL    HW121251   3.474   3.153   0.169
 6784SOL    HW221252   3.330   3.077   0.188
 6785SOL     OW21253   5.986   6.412   2.278
 6785SOL    HW121254   5.907   6.412   2.339
 6785SOL    HW221255   5.964   6.464   2.195
 6786SOL     OW21256   1.770   3.145   6.251
 6786SOL    HW121257   1.791   3.238   6.281
 6786SOL    HW221258   1.829   3.080   6.299
 6787SOL     OW21259   0.992   4.064   1.913
 6787SOL    HW121260   0.912   4.026   1.960
 6787SOL    HW221261   1.072   4.008   1.934
 6788SOL     OW21262   2.576   4.558   0.981
 6788SOL    HW121263   2.525   4.553   1.066
 6788SOL    HW221264   2.581   4.467   0.939
 6789SOL     OW21265   0.033   6.697   3.487
 6789SOL    HW121266   0.071   6.735   3.402
 6789SOL    HW221267   0.022   6.598   3.477
 6790SOL     OW21268   1.827   3.340   6.947
 6790SOL    HW121269   1.771   3.265   6.911
 6790SOL    HW221270   1.919   3.333   6.910
 6791SOL     OW21271   3.970   3.679   6.377
 6791SOL    HW121272   3.922   3.594   6.354
 6791SOL    HW221273   3.916   3.757   6.347
 6792SOL     OW21274   0.212   5.149   0.394
 6792SOL    HW121275   0.260   5.194   0.469
 6792SOL    HW221276   0.268   5.151   0.312
 6793SOL     OW21277   6.212   1.819   1.010
 6793SOL    HW121278   6.217   1.751   1.083
 6793SOL    HW221279   6.212   1.773   0.921
 6794SOL     OW21280   4.847   1.259   5.170
 6794SOL    HW121281   4.914   1.322   5.131
 6794SOL    HW221282   4.807   1.203   5.097
 6795SOL     OW21283   2.943   6.154   0.163
 6795SOL    HW121284   3.036   6.118   0.169
 6795SOL    HW221285   2.878   6.085   0.196
 6796SOL     OW21286   4.113   2.216   2.872
 6796SOL    HW121287   4.075   2.203   2.964
 6796SOL    HW221288   4.197   2.269   2.878
 6797SOL     OW21289   6.475   3.087   2.410
 6797SOL    HW121290   6.427   3.126   2.332
 6797SOL    HW221291   6.555   3.035   2.378
 6798SOL     OW21292   6.249   6.165   2.188
 6798SOL    HW121293   6.308   6.101   2.238
 6798SOL    HW221294   6.191   6.215   2.253
 6799SOL     OW21295   5.203   6.231   1.701
 6799SOL    HW121296   5.200   6.132   1.699
 6799SOL    HW221297   5.174   6.264   1.790
 6800SOL     OW21298   3.305   4.888   6.756
 6800SOL    HW121299   3.275   4.984   6.757
 6800SOL    HW221300   3.325   4.859   6.850
 6801SOL     OW21301   1.845   2.152   2.721
 6801SOL    HW121302   1.821   2.124   2.814
 6801SOL    HW221303   1.928   2.207   2.723
 6802SOL     OW21304   2.168   5.588   2.390
 6802SOL    HW121305   2.070   5.588   2.411
 6802SOL    HW221306   2.206   5.498   2.411
 6803SOL     OW21307   5.148   2.790   0.383
 6803SOL    HW121308   5.151   2.692   0.402
 6803SOL    HW221309   5.227   2.835   0.423
 6804SOL     OW21310   1.417   6.736   3.848
 6804SOL    HW121311   1.417   6.755   3.750
 6804SOL    HW221312   1.325   6.750   3.884
 6805SOL     OW21313   5.486   0.602   4.326
 6805SOL    HW121314   5.441   0.598   4.237
 6805SOL    HW221315   5.574   0.649   4.318
 6806SOL     OW21316   4.363   0.289   5.704
 6806SOL    HW121317   4.413   0.295   5.790
 6806SOL    HW221318   4.314   0.202   5.699
 6807SOL     OW21319   3.137   3.103   6.917
 6807SOL    HW121320   3.168   3.008   6.909
 6807SOL    HW221321   3.072   3.122   6.843
 6808SOL     OW21322   1.870   3.189   4.968
 6808SOL    HW121323   1.847   3.263   5.032
 6808SOL    HW221324   1.969   3.170   4.974
 6809SOL     OW21325   1.918   4.008   6.603
 6809SOL    HW121326   1.938   4.104   6.623
 6809SOL    HW221327   1.819   3.994   6.602
 6810SOL     OW21328   5.913   1.499   2.321
 6810SOL    HW121329   5.993   1.559   2.326
 6810SOL    HW221330   5.940   1.409   2.289
 6811SOL     OW21331   5.048   5.333   1.480
 6811SOL    HW121332   5.042   5.245   1.432
 6811SOL    HW221333   4.967   5.387   1.460
 6812SOL     OW21334   3.086   3.144   2.631
 6812SOL    HW121335   2.987   3.134   2.616
 6812SOL    HW221336   3.135   3.086   2.566
 6813SOL     OW21337   4.570   3.976   1.343
 6813SOL    HW121338   4.654   3.989   1.396
 6813SOL    HW221339   4.570   4.039   1.265
 6814SOL     OW21340   2.252   4.020   0.245
 6814SOL    HW121341   2.174   4.025   0.307
 6814SOL    HW221342   2.297   3.932   0.255
 6815SOL     OW21343   2.378   0.017   2.036
 6815SOL    HW121344   2.438   0.097   2.031
 6815SOL    HW221345   2.326   0.020   2.122
 6816SOL     OW21346   6.367   4.293   1.704
 6816SOL    HW121347   6.281   4.244   1.707
 6816SOL    HW221348   6.350   4.391   1.689
 6817SOL     OW21349   0.288   1.829   5.887
 6817SOL    HW121350   0.194   1.808   5.861
 6817SOL    HW221351   0.339   1.744   5.901
 6818SOL     OW21352   3.284   5.978   2.723
 6818SOL    HW121353   3.251   6.072   2.718
 6818SOL    HW221354   3.212   5.915   2.694
 6819SOL     OW21355   3.081   1.114   3.980
 6819SOL    HW121356   3.079   1.183   4.052
 6819SOL    HW221357   3.038   1.150   3.898
 6820SOL     OW21358   0.966   4.133   3.932
 6820SOL    HW121359   0.967   4.036   3.910
 6820SOL    HW221360   1.052   4.175   3.904
 6821SOL     OW21361   2.306   2.018   4.613
 6821SOL    HW121362   2.362   1.938   4.592
 6821SOL    HW221363   2.212   1.989   4.630
 6822SOL     OW21364   5.058   2.536   5.852
 6822SOL    HW121365   5.024   2.504   5.940
 6822SOL    HW221366   4.981   2.543   5.788
 6823SOL     OW21367   3.095   3.015   2.004
 6823SOL    HW121368   3.132   2.923   2.007
 6823SOL    HW221369   3.165   3.078   1.971
 6824SOL     OW21370   1.322   4.306   6.336
 6824SOL    HW121371   1.376   4.389   6.343
 6824SOL    HW221372   1.226   4.329   6.317
 6825SOL     OW21373   5.030   6.992   3.960
 6825SOL    HW121374   4.935   7.015   3.983
 6825SOL    HW221375   5.031   6.914   3.898
 6826SOL     OW21376   1.296   2.970   2.699
 6826SOL    HW121377   1.255   3.048   2.747
 6826SOL    HW221378   1.387   2.995   2.666
 6827SOL     OW21379   5.834   6.230   4.968
 6827SOL    HW121380   5.766   6.282   5.020
 6827SOL    HW221381   5.812   6.133   4.974
 6828SOL     OW21382   1.562   2.762   1.308
 6828SOL    HW121383   1.574   2.771   1.209
 6828SOL    HW221384   1.628   2.696   1.343
 6829SOL     OW21385   4.542   5.381   3.928
 6829SOL    HW121386   4.512   5.477   3.923
 6829SOL    HW221387   4.640   5.377   3.909
 6830SOL     OW21388   5.796   1.872   3.890
 6830SOL    HW121389   5.771   1.908   3.800
 6830SOL    HW221390   5.724   1.809   3.921
 6831SOL     OW21391   0.320   1.247   6.413
 6831SOL    HW121392   0.392   1.181   6.391
 6831SOL    HW221393   0.260   1.209   6.483
 6832SOL     OW21394   3.209   5.133   2.445
 6832SOL    HW121395   3.218   5.080   2.361
 6832SOL    HW221396   3.299   5.153   2.482
 6833SOL     OW21397   3.781   5.361   0.379
 6833SOL    HW121398   3.794   5.330   0.285
 6833SOL    HW221399   3.704   5.313   0.419
 6834SOL     OW21400   4.045   5.127   2.222
 6834SOL    HW121401   4.033   5.224   2.241
 6834SOL    HW221402   4.028   5.074   2.305
 6835SOL     OW21403   4.003   6.656   4.585
 6835SOL    HW121404   3.982   6.754   4.580
 6835SOL    HW221405   3.957   6.617   4.664
 6836SOL     OW21406   3.443   5.964   6.788
 6836SOL    HW121407   3.396   6.013   6.860
 6836SOL    HW221408   3.469   5.873   6.820
 6837SOL     OW21409   1.114   3.091   2.081
 6837SOL    HW121410   1.196   3.037   2.092
 6837SOL    HW221411   1.138   3.183   2.050
 6838SOL     OW21412   2.412   1.615   7.003
 6838SOL    HW121413   2.353   1.536   0.002
 6838SOL    HW221414   2.462   1.600   6.917
 6839SOL     OW21415   4.150   1.073   0.889
 6839SOL    HW121416   4.059   1.033   0.898
 6839SOL    HW221417   4.146   1.149   0.824
 6840SOL     OW21418   0.945   1.963   6.528
 6840SOL    HW121419   0.846   1.968   6.527
 6840SOL    HW221420   0.980   1.984   6.436
 6841SOL     OW21421   6.775   3.796   6.436
 6841SOL    HW121422   6.742   3.706   6.463
 6841SOL    HW221423   6.754   3.812   6.340
 6842SOL     OW21424   1.874   4.596   3.154
 6842SOL    HW121425   1.931   4.556   3.225
 6842SOL    HW221426   1.785   4.549   3.152
 6843SOL     OW21427   4.186   6.565   0.028
 6843SOL    HW121428   4.094   6.566   0.066
 6843SOL    HW221429   4.244   6.630   0.079
 6844SOL     OW21430   5.003   0.405   5.639
 6844SOL    HW121431   4.929   0.464   5.670
 6844SOL    HW221432   5.028   0.342   5.713
 6845SOL     OW21433   5.246   1.747   2.354
 6845SOL    HW121434   5.261   1.840   2.389
 6845SOL    HW221435   5.230   1.750   2.256
 6846SOL     OW21436   2.281   3.763   0.123
 6846SOL    HW121437   2.231   3.815   0.054
 6846SOL    HW221438   2.239   3.673   0.135
 6847SOL     OW21439   6.772   3.506   3.730
 6847SOL    HW121440   6.722   3.518   3.816
 6847SOL    HW221441   6.791   3.595   3.689
 6848SOL     OW21442   5.979   4.466   3.295
 6848SOL    HW121443   5.987   4.547   3.353
 6848SOL    HW221444   5.948   4.389   3.350
 6849SOL     OW21445   2.860   4.095   6.436
 6849SOL    HW121446   2.767   4.096   6.472
 6849SOL    HW221447   2.923   4.126   6.507
 6850SOL     OW21448   4.293   1.438   4.466
 6850SOL    HW121449   4.228   1.513   4.453
 6850SOL    HW221450   4.294   1.380   4.384
 6851SOL     OW21451   2.062   3.237   3.374
 6851SOL    HW121452   2.077   3.323   3.325
 6851SOL    HW221453   2.089   3.248   3.469
 6852SOL     OW21454   3.123   4.636   0.063
 6852SOL    HW121455   3.064   4.605   7.008
 6852SOL    HW221456   3.186   4.563   0.089
 6853SOL     OW21457   5.210   3.769   6.747
 6853SOL    HW121458   5.152   3.758   6.828
 6853SOL    HW221459   5.302   3.796   6.775
 6854SOL     OW21460   5.742   6.076   6.293
 6854SOL    HW121461   5.730   6.070   6.194
 6854SOL    HW221462   5.748   5.984   6.332
 6855SOL     OW21463   4.163   5.255   3.852
 6855SOL    HW121464   4.179   5.342   3.900
 6855SOL    HW221465   4.250   5.206   3.842
 6856SOL     OW21466   0.284   1.778   6.191
 6856SOL    HW121467   0.375   1.796   6.228
 6856SOL    HW221468   0.291   1.754   6.094
 6857SOL     OW21469   0.973   3.790   5.185
 6857SOL    HW121470   0.970   3.759   5.090
 6857SOL    HW221471   0.981   3.712   5.246
 6858SOL     OW21472   2.440   3.676   1.702
 6858SOL    HW121473   2.408   3.769   1.722
 6858SOL    HW221474   2.385   3.610   1.753
 6859SOL     OW21475   1.700   1.801   2.445
 6859SOL    HW121476   1.791   1.804   2.406
 6859SOL    HW221477   1.680   1.888   2.491
 6860SOL     OW21478   1.010   6.346   2.045
 6860SOL    HW121479   0.950   6.268   2.030
 6860SOL    HW221480   0.996   6.414   1.973
 6861SOL     OW21481   5.946   2.983   5.635
 6861SOL    HW121482   6.045   2.995   5.628
 6861SOL    HW221483   5.921   2.971   5.731
 6862SOL     OW21484   0.780   4.395   4.984
 6862SOL    HW121485   0.807   4.378   4.890
 6862SOL    HW221486   0.741   4.312   5.023
 6863SOL     OW21487   6.186   1.032   5.600
 6863SOL    HW121488   6.265   1.006   5.544
 6863SOL    HW221489   6.115   1.072   5.542
 6864SOL     OW21490   0.959   3.670   5.879
 6864SOL    HW121491   0.943   3.763   5.847
 6864SOL    HW221492   0.989   3.672   5.975
 6865SOL     OW21493   2.279   0.331   3.540
 6865SOL    HW121494   2.285   0.410   3.601
 6865SOL    HW221495   2.363   0.277   3.547
 6866SOL     OW21496   1.454   4.901   0.325
 6866SOL    HW121497   1.381   4.834   0.312
 6866SOL    HW221498   1.540   4.852   0.344
 6867SOL     OW21499   2.465   3.839   6.692
 6867SOL    HW121500   2.509   3.771   6.751
 6867SOL    HW221501   2.376   3.864   6.730
 6868SOL     OW21502   2.822   5.307   3.892
 6868SOL    HW121503   2.856   5.372   3.825
 6868SOL    HW221504   2.861   5.216   3.874
 6869SOL     OW21505   3.489   0.831   6.244
 6869SOL    HW121506   3.493   0.828   6.144
 6869SOL    HW221507   3.578   0.858   6.281
 6870SOL     OW21508   5.969   2.129   0.326
 6870SOL    HW121509   6.003   2.119   0.420
 6870SOL    HW221510   6.039   2.176   0.271
 6871SOL     OW21511   6.657   3.572   2.511
 6871SOL    HW121512   6.589   3.623   2.563
 6871SOL    HW221513   6.641   3.585   2.413
 6872SOL     OW21514   1.815   3.895   0.724
 6872SOL    HW121515   1.827   3.810   0.776
 6872SOL    HW221516   1.749   3.879   0.650
 6873SOL     OW21517   0.518   4.271   3.552
 6873SOL    HW121518   0.421   4.257   3.571
 6873SOL    HW221519   0.528   4.320   3.465
 6874SOL     OW21520   5.570   6.538   3.240
 6874SOL    HW121521   5.476   6.528   3.210
 6874SOL    HW221522   5.609   6.448   3.261
 6875SOL     OW21523   2.436   1.266   0.294
 6875SOL    HW121524   2.364   1.305   0.236
 6875SOL    HW221525   2.428   1.166   0.293
 6876SOL     OW21526   4.898   5.288   3.518
 6876SOL    HW121527   4.954   5.357   3.562
 6876SOL    HW221528   4.916   5.287   3.419
 6877SOL     OW21529   0.757   3.296   1.777
 6877SOL    HW121530   0.699   3.244   1.714
 6877SOL    HW221531   0.846   3.250   1.786
 6878SOL     OW21532   2.408   0.854   4.637
 6878SOL    HW121533   2.339   0.785   4.617
 6878SOL    HW221534   2.494   0.830   4.591
 6879SOL     OW21535   1.822   1.086   0.992
 6879SOL    HW121536   1.818   1.043   0.902
 6879SOL    HW221537   1.747   1.151   1.002
 6880SOL     OW21538   1.483   5.416   6.811
 6880SOL    HW121539   1.451   5.509   6.794
 6880SOL    HW221540   1.432   5.352   6.753
 6881SOL     OW21541   0.850   2.821   0.768
 6881SOL    HW121542   0.939   2.775   0.763
 6881SOL    HW221543   0.860   2.914   0.731
 6882SOL     OW21544   2.187   6.628   6.680
 6882SOL    HW121545   2.176   6.649   6.777
 6882SOL    HW221546   2.191   6.529   6.668
 6883SOL     OW21547   4.612   0.450   0.927
 6883SOL    HW121548   4.690   0.425   0.871
 6883SOL    HW221549   4.550   0.371   0.933
 6884SOL     OW21550   1.761   4.019   3.072
 6884SOL    HW121551   1.820   3.956   3.122
 6884SOL    HW221552   1.817   4.084   3.022
 6885SOL     OW21553   6.065   5.170   4.597
 6885SOL    HW121554   6.135   5.158   4.668
 6885SOL    HW221555   6.042   5.267   4.589
 6886SOL     OW21556   4.756   2.441   0.203
 6886SOL    HW121557   4.841   2.426   0.153
 6886SOL    HW221558   4.715   2.352   0.226
 6887SOL     OW21559   5.583   5.467   5.933
 6887SOL    HW121560   5.517   5.480   5.859
 6887SOL    HW221561   5.640   5.387   5.913
 6888SOL     OW21562   6.239   4.804   6.567
 6888SOL    HW121563   6.316   4.866   6.555
 6888SOL    HW221564   6.257   4.719   6.518
 6889SOL     OW21565   6.855   2.597   6.472
 6889SOL    HW121566   6.917   2.525   6.503
 6889SOL    HW221567   6.850   2.596   6.372
 6890SOL     OW21568   4.604   4.391   3.578
 6890SOL    HW121569   4.535   4.373   3.508
 6890SOL    HW221570   4.688   4.422   3.534
 6891SOL     OW21571   1.788   1.116   1.360
 6891SOL    HW121572   1.839   1.044   1.313
 6891SOL    HW221573   1.852   1.180   1.402
 6892SOL     OW21574   3.119   1.069   4.334
 6892SOL    HW121575   3.216   1.077   4.311
 6892SOL    HW221576   3.090   0.974   4.323
 6893SOL     OW21577   6.241   3.068   0.871
 6893SOL    HW121578   6.186   3.089   0.952
 6893SOL    HW221579   6.189   3.007   0.810
 6894SOL     OW21580   5.928   5.132   0.775
 6894SOL    HW121581   5.885   5.083   0.700
 6894SOL    HW221582   5.861   5.151   0.847
 6895SOL     OW21583   0.542   6.631   2.348
 6895SOL    HW121584   0.484   6.697   2.300
 6895SOL    HW221585   0.486   6.557   2.385
 6896SOL     OW21586   4.948   1.516   5.067
 6896SOL    HW121587   4.954   1.446   4.996
 6896SOL    HW221588   4.926   1.604   5.024
 6897SOL     OW21589   4.826   2.856   4.734
 6897SOL    HW121590   4.802   2.784   4.800
 6897SOL    HW221591   4.907   2.828   4.683
 6898SOL     OW21592   1.640   6.379   1.473
 6898SOL    HW121593   1.682   6.399   1.562
 6898SOL    HW221594   1.665   6.451   1.408
 6899SOL     OW21595   6.324   5.699   2.141
 6899SOL    HW121596   6.400   5.659   2.192
 6899SOL    HW221597   6.358   5.776   2.086
 6900SOL     OW21598   6.446   3.854   4.973
 6900SOL    HW121599   6.376   3.924   4.979
 6900SOL    HW221600   6.430   3.783   5.043
 6901SOL     OW21601   5.171   4.876   6.874
 6901SOL    HW121602   5.265   4.859   6.903
 6901SOL    HW221603   5.109   4.849   6.947
 6902SOL     OW21604   0.407   6.004   5.903
 6902SOL    HW121605   0.399   5.960   5.814
 6902SOL    HW221606   0.332   5.973   5.962
 6903SOL     OW21607   0.964   5.840   4.443
 6903SOL    HW121608   0.943   5.755   4.493
 6903SOL    HW221609   0.941   5.918   4.500
 6904SOL     OW21610   6.640   6.998   6.213
 6904SOL    HW121611   6.733   0.015   6.219
 6904SOL    HW221612   6.633   6.936   6.134
 6905SOL     OW21613   4.880   6.356   6.232
 6905SOL    HW121614   4.928   6.313   6.309
 6905SOL    HW221615   4.839   6.285   6.175
 6906SOL     OW21616   3.247   1.272   3.696
 6906SOL    HW121617   3.321   1.336   3.717
 6906SOL    HW221618   3.274   1.180   3.723
 6907SOL     OW21619   5.771   2.577   0.908
 6907SOL    HW121620   5.794   2.502   0.970
 6907SOL    HW221621   5.819   2.660   0.937
 6908SOL     OW21622   3.007   5.160   0.348
 6908SOL    HW121623   2.924   5.148   0.294
 6908SOL    HW221624   2.997   5.239   0.408
 6909SOL     OW21625   6.006   4.953   1.845
 6909SOL    HW121626   6.078   5.017   1.871
 6909SOL    HW221627   5.919   4.985   1.881
 6910SOL     OW21628   0.795   2.880   2.762
 6910SOL    HW121629   0.871   2.937   2.792
 6910SOL    HW221630   0.760   2.916   2.675
 6911SOL     OW21631   1.459   6.462   5.387
 6911SOL    HW121632   1.550   6.434   5.355
 6911SOL    HW221633   1.394   6.388   5.370
 6912SOL     OW21634   2.758   3.620   6.673
 6912SOL    HW121635   2.839   3.568   6.702
 6912SOL    HW221636   2.683   3.603   6.736
 6913SOL     OW21637   4.693   6.252   6.017
 6913SOL    HW121638   4.664   6.307   5.939
 6913SOL    HW221639   4.788   6.222   6.002
 6914SOL     OW21640   6.037   2.728   2.326
 6914SOL    HW121641   5.991   2.769   2.247
 6914SOL    HW221642   6.108   2.790   2.359
 6915SOL     OW21643   6.388   3.525   3.451
 6915SOL    HW121644   6.426   3.617   3.465
 6915SOL    HW221645   6.453   3.457   3.483
 6916SOL     OW21646   4.971   6.672   6.709
 6916SOL    HW121647   4.975   6.624   6.797
 6916SOL    HW221648   5.033   6.750   6.711
 6917SOL     OW21649   4.380   6.698   1.893
 6917SOL    HW121650   4.308   6.635   1.921
 6917SOL    HW221651   4.359   6.736   1.803
 6918SOL     OW21652   2.335   3.320   0.747
 6918SOL    HW121653   2.282   3.398   0.783
 6918SOL    HW221654   2.407   3.354   0.686
 6919SOL     OW21655   5.326   5.897   3.541
 6919SOL    HW121656   5.263   5.895   3.464
 6919SOL    HW221657   5.417   5.925   3.509
 6920SOL     OW21658   6.216   1.074   6.119
 6920SOL    HW121659   6.285   1.034   6.058
 6920SOL    HW221660   6.239   1.051   6.214
 6921SOL     OW21661   4.176   0.110   4.586
 6921SOL    HW121662   4.216   0.034   4.535
 6921SOL    HW221663   4.247   0.158   4.636
 6922SOL     OW21664   1.838   4.698   6.047
 6922SOL    HW121665   1.876   4.733   6.133
 6922SOL    HW221666   1.761   4.638   6.067
 6923SOL     OW21667   6.048   6.845   2.262
 6923SOL    HW121668   6.123   6.909   2.282
 6923SOL    HW221669   5.961   6.887   2.290
 6924SOL     OW21670   3.274   5.749   1.965
 6924SOL    HW121671   3.267   5.684   2.041
 6924SOL    HW221672   3.235   5.837   1.992
 6925SOL     OW21673   5.821   6.863   5.415
 6925SOL    HW121674   5.900   6.920   5.394
 6925SOL    HW221675   5.850   6.783   5.469
 6926SOL     OW21676   3.150   2.365   0.264
 6926SOL    HW121677   3.170   2.304   0.187
 6926SOL    HW221678   3.167   2.316   0.350
 6927SOL     OW21679   4.631   0.611   0.695
 6927SOL    HW121680   4.557   0.665   0.655
 6927SOL    HW221681   4.595   0.559   0.773
 6928SOL     OW21682   3.837   5.070   0.205
 6928SOL    HW121683   3.911   5.090   0.141
 6928SOL    HW221684   3.843   4.975   0.235
 6929SOL     OW21685   5.630   4.912   2.123
 6929SOL    HW121686   5.555   4.854   2.091
 6929SOL    HW221687   5.682   4.864   2.193
 6930SOL     OW21688   0.423   6.747   1.688
 6930SOL    HW121689   0.381   6.698   1.763
 6930SOL    HW221690   0.390   6.711   1.601
 6931SOL     OW21691   3.044   3.321   0.984
 6931SOL    HW121692   3.088   3.359   1.065
 6931SOL    HW221693   3.063   3.380   0.906
 6932SOL     OW21694   3.853   6.555   6.414
 6932SOL    HW121695   3.936   6.509   6.382
 6932SOL    HW221696   3.868   6.590   6.507
 6933SOL     OW21697   3.280   5.563   6.228
 6933SOL    HW121698   3.203   5.551   6.165
 6933SOL    HW221699   3.338   5.639   6.196
 6934SOL     OW21700   5.136   4.923   6.609
 6934SOL    HW121701   5.139   4.922   6.709
 6934SOL    HW221702   5.225   4.952   6.574
 6935SOL     OW21703   4.309   6.093   1.719
 6935SOL    HW121704   4.272   6.056   1.634
 6935SOL    HW221705   4.241   6.084   1.792
 6936SOL     OW21706   0.016   1.617   5.319
 6936SOL    HW121707   6.983   1.689   5.366
 6936SOL    HW221708   0.078   1.659   5.253
 6937SOL     OW21709   5.495   5.262   0.109
 6937SOL    HW121710   5.472   5.275   0.206
 6937SOL    HW221711   5.419   5.291   0.052
 6938SOL     OW21712   2.721   1.146   4.928
 6938SOL    HW121713   2.687   1.204   5.003
 6938SOL    HW221714   2.708   1.193   4.841
 6939SOL     OW21715   5.751   3.211   3.454
 6939SOL    HW121716   5.697   3.190   3.535
 6939SOL    HW221717   5.689   3.221   3.375
 6940SOL     OW21718   2.944   6.140   0.852
 6940SOL    HW121719   2.894   6.212   0.899
 6940SOL    HW221720   2.879   6.071   0.819
 6941SOL     OW21721   3.594   3.707   2.907
 6941SOL    HW121722   3.558   3.618   2.879
 6941SOL    HW221723   3.521   3.775   2.903
 6942SOL     OW21724   5.992   5.498   2.374
 6942SOL    HW121725   5.934   5.460   2.446
 6942SOL    HW221726   6.024   5.588   2.401
 6943SOL     OW21727   4.431   4.364   6.278
 6943SOL    HW121728   4.386   4.311   6.205
 6943SOL    HW221729   4.516   4.403   6.243
 6944SOL     OW21730   1.359   4.175   4.996
 6944SOL    HW121731   1.329   4.267   5.019
 6944SOL    HW221732   1.279   4.115   4.990
 6945SOL     OW21733   5.115   1.718   1.181
 6945SOL    HW121734   5.138   1.692   1.087
 6945SOL    HW221735   5.077   1.811   1.181
 6946SOL     OW21736   5.176   6.301   3.089
 6946SOL    HW121737   5.130   6.263   3.169
 6946SOL    HW221738   5.219   6.227   3.037
 6947SOL     OW21739   6.362   4.468   5.087
 6947SOL    HW121740   6.310   4.501   5.008
 6947SOL    HW221741   6.309   4.482   5.170
 6948SOL     OW21742   0.465   4.651   6.944
 6948SOL    HW121743   0.394   4.700   6.894
 6948SOL    HW221744   0.441   4.647   0.022
 6949SOL     OW21745   2.604   1.962   3.675
 6949SOL    HW121746   2.571   1.999   3.762
 6949SOL    HW221747   2.532   1.905   3.634
 6950SOL     OW21748   0.496   1.039   4.558
 6950SOL    HW121749   0.568   1.106   4.540
 6950SOL    HW221750   0.522   0.951   4.517
 6951SOL     OW21751   0.724   4.241   0.025
 6951SOL    HW121752   0.748   4.192   6.960
 6951SOL    HW221753   0.730   4.339   0.009
 6952SOL     OW21754   4.904   5.760   4.331
 6952SOL    HW121755   4.806   5.741   4.334
 6952SOL    HW221756   4.919   5.856   4.310
 6953SOL     OW21757   6.497   1.861   1.037
 6953SOL    HW121758   6.501   1.790   0.966
 6953SOL    HW221759   6.402   1.890   1.050
 6954SOL     OW21760   6.800   4.720   6.868
 6954SOL    HW121761   6.770   4.626   6.852
 6954SOL    HW221762   6.846   4.726   6.957
 6955SOL     OW21763   4.741   6.380   2.852
 6955SOL    HW121764   4.801   6.451   2.890
 6955SOL    HW221765   4.725   6.310   2.921
 6956SOL     OW21766   5.606   5.242   2.538
 6956SOL    HW121767   5.688   5.204   2.495
 6956SOL    HW221768   5.612   5.233   2.637
 6957SOL     OW21769   6.301   5.590   5.547
 6957SOL    HW121770   6.244   5.591   5.466
 6957SOL    HW221771   6.393   5.622   5.524
 6958SOL     OW21772   3.350   3.797   3.196
 6958SOL    HW121773   3.264   3.834   3.233
 6958SOL    HW221774   3.350   3.807   3.097
 6959SOL     OW21775   1.564   3.959   2.804
 6959SOL    HW121776   1.620   3.966   2.887
 6959SOL    HW221777   1.467   3.960   2.829
 6960SOL     OW21778   3.929   4.277   0.351
 6960SOL    HW121779   3.986   4.198   0.369
 6960SOL    HW221780   3.960   4.354   0.406
 6961SOL     OW21781   4.735   2.440   5.140
 6961SOL    HW121782   4.718   2.346   5.111
 6961SOL    HW221783   4.824   2.446   5.185
 6962SOL     OW21784   2.268   6.827   6.472
 6962SOL    HW121785   2.212   6.829   6.389
 6962SOL    HW221786   2.234   6.754   6.532
 6963SOL     OW21787   6.244   5.842   0.671
 6963SOL    HW121788   6.165   5.789   0.644
 6963SOL    HW221789   6.314   5.837   0.600
 6964SOL     OW21790   1.822   1.383   5.421
 6964SOL    HW121791   1.846   1.385   5.518
 6964SOL    HW221792   1.758   1.308   5.404
 6965SOL     OW21793   1.015   1.236   0.524
 6965SOL    HW121794   1.078   1.175   0.475
 6965SOL    HW221795   0.993   1.315   0.466
 6966SOL     OW21796   1.444   6.364   1.122
 6966SOL    HW121797   1.385   6.287   1.146
 6966SOL    HW221798   1.433   6.437   1.190
 6967SOL     OW21799   4.337   1.132   6.566
 6967SOL    HW121800   4.392   1.187   6.628
 6967SOL    HW221801   4.242   1.166   6.567
 6968SOL     OW21802   3.944   6.440   2.925
 6968SOL    HW121803   3.922   6.527   2.970
 6968SOL    HW221804   3.861   6.401   2.886
 6969SOL     OW21805   2.222   2.057   2.172
 6969SOL    HW121806   2.194   2.145   2.209
 6969SOL    HW221807   2.143   2.007   2.137
 6970SOL     OW21808   3.711   5.243   5.131
 6970SOL    HW121809   3.679   5.332   5.164
 6970SOL    HW221810   3.688   5.172   5.198
 6971SOL     OW21811   6.677   4.120   0.443
 6971SOL    HW121812   6.760   4.170   0.421
 6971SOL    HW221813   6.598   4.168   0.405
 6972SOL     OW21814   5.509   4.336   1.406
 6972SOL    HW121815   5.532   4.421   1.453
 6972SOL    HW221816   5.463   4.358   1.320
 6973SOL     OW21817   1.581   2.215   3.072
 6973SOL    HW121818   1.601   2.271   2.991
 6973SOL    HW221819   1.666   2.198   3.122
 6974SOL     OW21820   4.152   3.684   2.990
 6974SOL    HW121821   4.106   3.603   3.024
 6974SOL    HW221822   4.248   3.682   3.017
 6975SOL     OW21823   2.745   5.704   4.461
 6975SOL    HW121824   2.795   5.725   4.378
 6975SOL    HW221825   2.809   5.672   4.531
 6976SOL     OW21826   4.712   4.112   6.017
 6976SOL    HW121827   4.650   4.062   5.957
 6976SOL    HW221828   4.730   4.058   6.099
 6977SOL     OW21829   4.891   5.082   2.356
 6977SOL    HW121830   4.886   4.990   2.316
 6977SOL    HW221831   4.984   5.098   2.390
 6978SOL     OW21832   0.177   3.785   1.163
 6978SOL    HW121833   0.202   3.747   1.074
 6978SOL    HW221834   0.214   3.877   1.172
 6979SOL     OW21835   1.373   3.466   2.284
 6979SOL    HW121836   1.360   3.562   2.310
 6979SOL    HW221837   1.444   3.460   2.213
 6980SOL     OW21838   1.992   5.368   2.816
 6980SOL    HW121839   1.920   5.396   2.752
 6980SOL    HW221840   2.056   5.307   2.770
 6981SOL     OW21841   4.112   2.441   6.928
 6981SOL    HW121842   4.159   2.455   7.015
 6981SOL    HW221843   4.128   2.519   6.868
 6982SOL     OW21844   1.520   0.572   2.667
 6982SOL    HW121845   1.490   0.654   2.715
 6982SOL    HW221846   1.442   0.531   2.620
 6983SOL     OW21847   6.071   1.037   4.268
 6983SOL    HW121848   6.089   0.962   4.204
 6983SOL    HW221849   6.112   1.016   4.357
 6984SOL     OW21850   1.362   2.843   3.025
 6984SOL    HW121851   1.300   2.906   3.072
 6984SOL    HW221852   1.377   2.762   3.082
 6985SOL     OW21853   5.787   3.748   6.450
 6985SOL    HW121854   5.723   3.809   6.405
 6985SOL    HW221855   5.741   3.662   6.473
 6986SOL     OW21856   4.662   4.453   5.494
 6986SOL    HW121857   4.738   4.458   5.429
 6986SOL    HW221858   4.682   4.385   5.564
 6987SOL     OW21859   0.492   0.963   6.861
 6987SOL    HW121860   0.495   0.940   6.959
 6987SOL    HW221861   0.583   0.953   6.822
 6988SOL     OW21862   2.708   1.333   6.679
 6988SOL    HW121863   2.765   1.345   6.598
 6988SOL    HW221864   2.620   1.379   6.665
 6989SOL     OW21865   0.626   4.340   2.729
 6989SOL    HW121866   0.662   4.309   2.642
 6989SOL    HW221867   0.656   4.434   2.746
 6990SOL     OW21868   3.822   3.595   0.399
 6990SOL    HW121869   3.780   3.518   0.351
 6990SOL    HW221870   3.753   3.666   0.415
 6991SOL     OW21871   6.664   2.974   2.220
 6991SOL    HW121872   6.714   2.959   2.136
 6991SOL    HW221873   6.682   2.900   2.285
 6992SOL     OW21874   1.030   5.883   0.265
 6992SOL    HW121875   0.948   5.853   0.313
 6992SOL    HW221876   1.013   5.883   0.166
 6993SOL     OW21877   4.364   2.081   1.569
 6993SOL    HW121878   4.355   2.171   1.527
 6993SOL    HW221879   4.455   2.072   1.611
 6994SOL     OW21880   2.752   1.294   3.588
 6994SOL    HW121881   2.819   1.287   3.661
 6994SOL    HW221882   2.687   1.218   3.595
 6995SOL     OW21883   0.178   4.002   0.867
 6995SOL    HW121884   0.206   4.027   0.960
 6995SOL    HW221885   0.109   3.930   0.871
 6996SOL     OW21886   0.873   1.100   6.817
 6996SOL    HW121887   0.827   1.094   6.906
 6996SOL    HW221888   0.822   1.046   6.751
 6997SOL     OW21889   6.090   5.997   5.822
 6997SOL    HW121890   6.094   6.039   5.913
 6997SOL    HW221891   6.165   6.033   5.766
 6998SOL     OW21892   6.904   1.345   0.284
 6998SOL    HW121893   6.941   1.422   0.335
 6998SOL    HW221894   6.847   1.378   0.209
 6999SOL     OW21895   7.004   3.239   6.462
 6999SOL    HW121896   0.005   3.221   6.559
 6999SOL    HW221897   0.069   3.263   6.415
 7000SOL     OW21898   0.177   5.707   3.110
 7000SOL    HW121899   0.146   5.793   3.150
 7000SOL    HW221900   0.099   5.647   3.095
 7001SOL     OW21901   6.962   2.016   3.873
 7001SOL    HW121902   6.938   2.108   3.904
 7001SOL    HW221903   0.034   2.017   3.832
 7002SOL     OW21904   1.054   5.412   2.569
 7002SOL    HW121905   1.019   5.505   2.556
 7002SOL    HW221906   1.099   5.381   2.485
 7003SOL     OW21907   0.095   4.175   0.672
 7003SOL    HW121908   0.130   4.130   0.755
 7003SOL    HW221909   0.043   4.109   0.618
 7004SOL     OW21910   1.697   0.044   0.423
 7004SOL    HW121911   1.748   6.983   0.455
 7004SOL    HW221912   1.757   0.124   0.422
 7005SOL     OW21913   1.231   5.235   0.587
 7005SOL    HW121914   1.208   5.138   0.591
 7005SOL    HW221915   1.149   5.289   0.607
 7006SOL     OW21916   0.596   0.120   4.110
 7006SOL    HW121917   0.612   0.198   4.051
 7006SOL    HW221918   0.540   0.148   4.188
 7007SOL     OW21919   2.185   0.443   6.191
 7007SOL    HW121920   2.115   0.381   6.156
 7007SOL    HW221921   2.172   0.534   6.153
 7008SOL     OW21922   5.513   3.630   2.986
 7008SOL    HW121923   5.430   3.666   3.029
 7008SOL    HW221924   5.506   3.531   2.979
 7009SOL     OW21925   5.016   5.860   2.563
 7009SOL    HW121926   5.035   5.762   2.570
 7009SOL    HW221927   4.949   5.886   2.633
 7010SOL     OW21928   4.954   3.816   2.133
 7010SOL    HW121929   4.971   3.742   2.069
 7010SOL    HW221930   4.920   3.779   2.220
 7011SOL     OW21931   3.099   6.903   6.337
 7011SOL    HW121932   3.046   6.932   6.417
 7011SOL    HW221933   3.105   6.803   6.336
 7012SOL     OW21934   6.844   3.024   6.961
 7012SOL    HW121935   6.782   3.090   6.918
 7012SOL    HW221936   6.810   2.931   6.944
 7013SOL     OW21937   3.105   3.004   0.175
 7013SOL    HW121938   3.113   2.979   0.078
 7013SOL    HW221939   3.014   2.980   0.208
 7014SOL     OW21940   5.614   3.333   0.422
 7014SOL    HW121941   5.603   3.249   0.475
 7014SOL    HW221942   5.546   3.400   0.452
 7015SOL     OW21943   6.108   6.614   1.430
 7015SOL    HW121944   6.124   6.652   1.339
 7015SOL    HW221945   6.036   6.666   1.476
 7016SOL     OW21946   3.383   5.108   1.026
 7016SOL    HW121947   3.414   5.016   1.003
 7016SOL    HW221948   3.383   5.165   0.944
 7017SOL     OW21949   5.964   4.523   5.580
 7017SOL    HW121950   6.013   4.599   5.537
 7017SOL    HW221951   6.029   4.462   5.625
 7018SOL     OW21952   5.188   3.594   4.728
 7018SOL    HW121953   5.199   3.636   4.637
 7018SOL    HW221954   5.227   3.654   4.797
 7019SOL     OW21955   4.288   5.452   2.109
 7019SOL    HW121956   4.268   5.535   2.161
 7019SOL    HW221957   4.332   5.477   2.022
 7020SOL     OW21958   0.558   2.826   6.649
 7020SOL    HW121959   0.526   2.835   6.555
 7020SOL    HW221960   0.616   2.745   6.656
 7021SOL     OW21961   0.659   2.397   4.684
 7021SOL    HW121962   0.636   2.383   4.588
 7021SOL    HW221963   0.756   2.419   4.693
 7022SOL     OW21964   2.802   2.410   0.927
 7022SOL    HW121965   2.776   2.461   1.008
 7022SOL    HW221966   2.735   2.424   0.855
 7023SOL     OW21967   0.304   1.729   0.430
 7023SOL    HW121968   0.328   1.663   0.501
 7023SOL    HW221969   0.273   1.680   0.348
 7024SOL     OW21970   3.409   3.839   4.575
 7024SOL    HW121971   3.446   3.759   4.622
 7024SOL    HW221972   3.483   3.901   4.550
 7025SOL     OW21973   2.961   0.325   1.136
 7025SOL    HW121974   3.030   0.315   1.207
 7025SOL    HW221975   2.931   0.234   1.107
 7026SOL     OW21976   3.377   2.789   1.165
 7026SOL    HW121977   3.304   2.784   1.096
 7026SOL    HW221978   3.369   2.876   1.215
 7027SOL     OW21979   2.941   5.064   2.513
 7027SOL    HW121980   3.026   5.093   2.468
 7027SOL    HW221981   2.944   4.965   2.530
 7028SOL     OW21982   3.398   6.842   3.272
 7028SOL    HW121983   3.347   6.767   3.315
 7028SOL    HW221984   3.337   6.896   3.214
 7029SOL     OW21985   3.576   3.537   3.754
 7029SOL    HW121986   3.544   3.558   3.661
 7029SOL    HW221987   3.651   3.471   3.748
 7030SOL     OW21988   6.773   0.853   4.432
 7030SOL    HW121989   6.709   0.855   4.509
 7030SOL    HW221990   6.807   0.760   4.420
 7031SOL     OW21991   5.127   6.483   0.409
 7031SOL    HW121992   5.180   6.567   0.394
 7031SOL    HW221993   5.033   6.506   0.432
 7032SOL     OW21994   4.846   5.306   4.320
 7032SOL    HW121995   4.746   5.308   4.310
 7032SOL    HW221996   4.883   5.233   4.263
 7033SOL     OW21997   1.690   1.898   5.265
 7033SOL    HW121998   1.750   1.949   5.327
 7033SOL    HW221999   1.733   1.811   5.242
 7034SOL     OW22000   6.261   0.966   2.807
 7034SOL    HW122001   6.317   0.888   2.833
 7034SOL    HW222002   6.259   1.033   2.882
 7035SOL     OW22003   2.022   0.220   0.851
 7035SOL    HW122004   2.083   0.291   0.885
 7035SOL    HW222005   1.954   0.197   0.921
 7036SOL     OW22006   6.785   1.377   2.394
 7036SOL    HW122007   6.860   1.421   2.444
 7036SOL    HW222008   6.811   1.367   2.298
 7037SOL     OW22009   1.282   0.210   6.069
 7037SOL    HW122010   1.200   0.208   6.012
 7037SOL    HW222011   1.357   0.250   6.018
 7038SOL     OW22012   1.177   3.902   0.024
 7038SOL    HW122013   1.264   3.930   7.003
 7038SOL    HW222014   1.144   3.820   6.996
 7039SOL     OW22015   0.146   6.964   2.186
 7039SOL    HW122016   0.136   6.991   2.282
 7039SOL    HW222017   0.065   6.993   2.134
 7040SOL     OW22018   5.579   2.782   4.819
 7040SOL    HW122019   5.630   2.704   4.783
 7040SOL    HW222020   5.546   2.760   4.911
 7041SOL     OW22021   1.201   6.778   4.385
 7041SOL    HW122022   1.206   6.680   4.367
 7041SOL    HW222023   1.135   6.820   4.322
 7042SOL     OW22024   5.606   5.970   5.112
 7042SOL    HW122025   5.530   6.030   5.087
 7042SOL    HW222026   5.591   5.935   5.205
 7043SOL     OW22027   2.285   5.535   0.878
 7043SOL    HW122028   2.337   5.579   0.950
 7043SOL    HW222029   2.335   5.455   0.845
 7044SOL     OW22030   5.894   6.898   5.009
 7044SOL    HW122031   5.906   6.816   4.953
 7044SOL    HW222032   5.812   6.947   4.981
 7045SOL     OW22033   6.649   5.445   1.884
 7045SOL    HW122034   6.580   5.484   1.823
 7045SOL    HW222035   6.642   5.345   1.883
 7046SOL     OW22036   2.225   1.302   3.963
 7046SOL    HW122037   2.170   1.281   3.882
 7046SOL    HW222038   2.214   1.398   3.988
 7047SOL     OW22039   1.500   6.382   0.719
 7047SOL    HW122040   1.450   6.350   0.800
 7047SOL    HW222041   1.521   6.304   0.660
 7048SOL     OW22042   0.299   6.177   4.081
 7048SOL    HW122043   0.383   6.137   4.043
 7048SOL    HW222044   0.318   6.214   4.172
 7049SOL     OW22045   3.703   1.273   4.073
 7049SOL    HW122046   3.778   1.339   4.076
 7049SOL    HW222047   3.738   1.182   4.099
 7050SOL     OW22048   3.944   3.863   0.704
 7050SOL    HW122049   3.969   3.949   0.659
 7050SOL    HW222050   4.022   3.829   0.757
 7051SOL     OW22051   1.324   1.324   2.113
 7051SOL    HW122052   1.345   1.330   2.211
 7051SOL    HW222053   1.371   1.244   2.074
 7052SOL     OW22054   4.154   1.251   2.974
 7052SOL    HW122055   4.130   1.154   2.969
 7052SOL    HW222056   4.205   1.276   2.892
 7053SOL     OW22057   1.402   3.864   3.252
 7053SOL    HW122058   1.457   3.840   3.332
 7053SOL    HW222059   1.360   3.782   3.214
 7054SOL     OW22060   5.861   1.124   6.887
 7054SOL    HW122061   5.835   1.030   6.913
 7054SOL    HW222062   5.904   1.122   6.797
 7055SOL     OW22063   2.575   0.524   0.237
 7055SOL    HW122064   2.486   0.530   0.190
 7055SOL    HW222065   2.648   0.530   0.169
 7056SOL     OW22066   6.780   4.974   1.099
 7056SOL    HW122067   6.718   4.946   1.026
 7056SOL    HW222068   6.727   5.009   1.176
 7057SOL     OW22069   2.602   5.892   4.786
 7057SOL    HW122070   2.602   5.793   4.800
 7057SOL    HW222071   2.584   5.912   4.690
 7058SOL     OW22072   5.832   2.958   6.159
 7058SOL    HW122073   5.799   2.863   6.168
 7058SOL    HW222074   5.786   3.015   6.227
 7059SOL     OW22075   1.753   6.892   5.032
 7059SOL    HW122076   1.799   6.979   5.050
 7059SOL    HW222077   1.799   6.846   4.956
 7060SOL     OW22078   3.088   1.963   1.143
 7060SOL    HW122079   3.145   1.882   1.162
 7060SOL    HW222080   3.007   1.960   1.201
 7061SOL     OW22081   1.103   0.895   1.596
 7061SOL    HW122082   1.181   0.837   1.573
 7061SOL    HW222083   1.042   0.846   1.659
 7062SOL     OW22084   3.428   0.198   3.825
 7062SOL    HW122085   3.459   0.285   3.861
 7062SOL    HW222086   3.402   0.138   3.901
 7063SOL     OW22087   0.134   0.948   0.921
 7063SOL    HW122088   0.046   0.987   0.947
 7063SOL    HW222089   0.206   0.988   0.978
 7064SOL     OW22090   3.113   1.176   5.042
 7064SOL    HW122091   3.057   1.094   5.035
 7064SOL    HW222092   3.145   1.186   5.137
 7065SOL     OW22093   4.189   5.144   5.420
 7065SOL    HW122094   4.100   5.141   5.375
 7065SOL    HW222095   4.260   5.113   5.357
 7066SOL     OW22096   3.700   0.375   1.017
 7066SOL    HW122097   3.699   0.363   0.918
 7066SOL    HW222098   3.665   0.292   1.061
 7067SOL     OW22099   1.768   3.697   6.478
 7067SOL    HW122100   1.732   3.757   6.549
 7067SOL    HW222101   1.721   3.716   6.391
 7068SOL     OW22102   5.383   4.071   4.439
 7068SOL    HW122103   5.333   3.994   4.478
 7068SOL    HW222104   5.420   4.128   4.513
 7069SOL     OW22105   5.028   0.747   5.973
 7069SOL    HW122106   4.957   0.776   5.909
 7069SOL    HW222107   5.043   0.818   6.042
 7070SOL     OW22108   0.541   0.264   5.832
 7070SOL    HW122109   0.483   0.345   5.846
 7070SOL    HW222110   0.612   0.261   5.902
 7071SOL     OW22111   4.909   6.000   6.878
 7071SOL    HW122112   4.817   6.037   6.868
 7071SOL    HW222113   4.905   5.913   6.928
 7072SOL     OW22114   0.606   3.710   6.549
 7072SOL    HW122115   0.568   3.632   6.500
 7072SOL    HW222116   0.650   3.679   6.633
 7073SOL     OW22117   5.006   1.786   3.840
 7073SOL    HW122118   4.970   1.754   3.928
 7073SOL    HW222119   4.957   1.869   3.812
 7074SOL     OW22120   5.165   4.000   3.132
 7074SOL    HW122121   5.206   4.050   3.056
 7074SOL    HW222122   5.221   4.010   3.214
 7075SOL     OW22123   2.581   5.214   3.273
 7075SOL    HW122124   2.560   5.121   3.243
 7075SOL    HW222125   2.597   5.272   3.193
 7076SOL     OW22126   5.698   2.532   1.534
 7076SOL    HW122127   5.623   2.513   1.597
 7076SOL    HW222128   5.661   2.569   1.448
 7077SOL     OW22129   4.205   5.745   1.950
 7077SOL    HW122130   4.161   5.771   1.864
 7077SOL    HW222131   4.160   5.665   1.988
 7078SOL     OW22132   6.583   0.557   6.722
 7078SOL    HW122133   6.588   0.578   6.625
 7078SOL    HW222134   6.488   0.562   6.753
 7079SOL     OW22135   1.191   5.984   4.856
 7079SOL    HW122136   1.254   6.060   4.839
 7079SOL    HW222137   1.158   5.987   4.950
 7080SOL     OW22138   3.861   2.046   6.018
 7080SOL    HW122139   3.797   1.986   5.971
 7080SOL    HW222140   3.946   1.996   6.036
 7081SOL     OW22141   2.871   0.048   0.347
 7081SOL    HW122142   2.959   0.087   0.318
 7081SOL    HW222143   2.802   0.121   0.350
 7082SOL     OW22144   0.387   3.943   2.306
 7082SOL    HW122145   0.293   3.976   2.315
 7082SOL    HW222146   0.403   3.913   2.212
 7083SOL     OW22147   5.162   2.317   2.948
 7083SOL    HW122148   5.170   2.316   3.048
 7083SOL    HW222149   5.176   2.225   2.912
 7084SOL     OW22150   1.065   5.599   6.916
 7084SOL    HW122151   1.120   5.594   6.999
 7084SOL    HW222152   1.033   5.507   6.893
 7085SOL     OW22153   0.781   3.968   2.065
 7085SOL    HW122154   0.688   3.968   2.026
 7085SOL    HW222155   0.805   3.875   2.092
 7086SOL     OW22156   5.294   0.909   3.786
 7086SOL    HW122157   5.303   1.007   3.772
 7086SOL    HW222158   5.230   0.891   3.861
 7087SOL     OW22159   4.634   2.708   3.216
 7087SOL    HW122160   4.542   2.737   3.241
 7087SOL    HW222161   4.629   2.648   3.136
 7088SOL     OW22162   5.904   2.171   5.121
 7088SOL    HW122163   5.973   2.206   5.184
 7088SOL    HW222164   5.824   2.231   5.122
 7089SOL     OW22165   2.848   5.470   1.575
 7089SOL    HW122166   2.932   5.481   1.522
 7089SOL    HW222167   2.866   5.492   1.671
 7090SOL     OW22168   4.509   2.700   1.285
 7090SOL    HW122169   4.520   2.794   1.253
 7090SOL    HW222170   4.438   2.697   1.356
 7091SOL     OW22171   0.350   6.798   0.806
 7091SOL    HW122172   0.334   6.884   0.758
 7091SOL    HW222173   0.291   6.727   0.769
 7092SOL     OW22174   4.342   0.022   6.478
 7092SOL    HW122175   4.360   6.997   6.567
 7092SOL    HW222176   4.371   0.117   6.481
 7093SOL     OW22177   3.482   3.017   0.874
 7093SOL    HW122178   3.498   2.952   0.799
 7093SOL    HW222179   3.395   3.064   0.859
 7094SOL     OW22180   3.692   0.247   6.358
 7094SOL    HW122181   3.770   0.197   6.321
 7094SOL    HW222182   3.609   0.194   6.345
 7095SOL     OW22183   2.489   4.899   4.729
 7095SOL    HW122184   2.575   4.847   4.728
 7095SOL    HW222185   2.431   4.870   4.653
 7096SOL     OW22186   0.211   0.486   1.372
 7096SOL    HW122187   0.198   0.525   1.280
 7096SOL    HW222188   0.273   0.545   1.424
 7097SOL     OW22189   4.823   1.396   2.499
 7097SOL    HW122190   4.838   1.390   2.400
 7097SOL    HW222191   4.893   1.343   2.546
 7098SOL     OW22192   0.709   0.547   3.368
 7098SOL    HW122193   0.689   0.479   3.298
 7098SOL    HW222194   0.732   0.634   3.324
 7099SOL     OW22195   3.202   1.792   4.550
 7099SOL    HW122196   3.171   1.812   4.457
 7099SOL    HW222197   3.221   1.694   4.559
 7100SOL     OW22198   6.678   4.084   1.388
 7100SOL    HW122199   6.748   4.017   1.365
 7100SOL    HW222200   6.621   4.103   1.308
 7101SOL     OW22201   2.379   6.205   5.091
 7101SOL    HW122202   2.419   6.137   5.029
 7101SOL    HW222203   2.373   6.167   5.183
 7102SOL     OW22204   5.657   1.230   2.263
 7102SOL    HW122205   5.688   1.266   2.352
 7102SOL    HW222206   5.608   1.302   2.214
 7103SOL     OW22207   4.877   3.399   3.295
 7103SOL    HW122208   4.885   3.489   3.252
 7103SOL    HW222209   4.895   3.408   3.393
 7104SOL     OW22210   4.860   3.023   4.133
 7104SOL    HW122211   4.790   3.049   4.201
 7104SOL    HW222212   4.911   2.944   4.167
 7105SOL     OW22213   3.121   3.868   3.301
 7105SOL    HW122214   3.180   3.949   3.313
 7105SOL    HW222215   3.048   3.870   3.369
 7106SOL     OW22216   3.421   2.078   2.412
 7106SOL    HW122217   3.511   2.104   2.376
 7106SOL    HW222218   3.350   2.117   2.353
 7107SOL     OW22219   4.166   0.404   6.333
 7107SOL    HW122220   4.239   0.347   6.296
 7107SOL    HW222221   4.114   0.445   6.258
 7108SOL     OW22222   4.429   0.627   1.860
 7108SOL    HW122223   4.443   0.633   1.959
 7108SOL    HW222224   4.412   0.718   1.824
 7109SOL     OW22225   2.631   5.591   6.734
 7109SOL    HW122226   2.700   5.527   6.768
 7109SOL    HW222227   2.614   5.574   6.637
 7110SOL     OW22228   3.228   6.796   4.734
 7110SOL    HW122229   3.198   6.829   4.823
 7110SOL    HW222230   3.168   6.722   4.703
 7111SOL     OW22231   0.007   0.781   5.022
 7111SOL    HW122232   0.085   0.831   4.984
 7111SOL    HW222233   7.001   0.820   5.111
 7112SOL     OW22234   1.015   4.882   4.995
 7112SOL    HW122235   1.090   4.873   5.061
 7112SOL    HW222236   0.949   4.949   5.029
 7113SOL     OW22237   3.485   6.365   4.884
 7113SOL    HW122238   3.497   6.266   4.890
 7113SOL    HW222239   3.389   6.386   4.870
 7114SOL     OW22240   5.783   3.802   1.115
 7114SOL    HW122241   5.849   3.847   1.056
 7114SOL    HW222242   5.830   3.735   1.173
 7115SOL     OW22243   5.923   3.570   5.969
 7115SOL    HW122244   5.934   3.574   6.068
 7115SOL    HW222245   5.991   3.507   5.931
 7116SOL     OW22246   6.396   3.886   4.518
 7116SOL    HW122247   6.397   3.970   4.464
 7116SOL    HW222248   6.490   3.858   4.538
 7117SOL     OW22249   5.168   0.061   3.390
 7117SOL    HW122250   5.222   0.034   3.310
 7117SOL    HW222251   5.093   0.121   3.361
 7118SOL     OW22252   3.978   4.439   6.015
 7118SOL    HW122253   3.887   4.480   6.023
 7118SOL    HW222254   4.016   4.424   6.106
 7119SOL     OW22255   3.752   6.385   5.481
 7119SOL    HW122256   3.676   6.420   5.428
 7119SOL    HW222257   3.756   6.432   5.569
 7120SOL     OW22258   4.460   1.327   0.801
 7120SOL    HW122259   4.546   1.341   0.850
 7120SOL    HW222260   4.395   1.398   0.827
 7121SOL     OW22261   1.752   5.673   2.103
 7121SOL    HW122262   1.808   5.696   2.184
 7121SOL    HW222263   1.696   5.752   2.079
 7122SOL     OW22264   3.618   1.945   6.959
 7122SOL    HW122265   3.563   1.876   7.006
 7122SOL    HW222266   3.603   2.034   7.002
 7123SOL     OW22267   5.901   5.074   6.016
 7123SOL    HW122268   5.844   4.993   6.029
 7123SOL    HW222269   5.995   5.046   5.996
 7124SOL     OW22270   1.880   2.820   1.123
 7124SOL    HW122271   1.948   2.776   1.182
 7124SOL    HW222272   1.880   2.775   1.034
 7125SOL     OW22273   0.313   6.499   2.436
 7125SOL    HW122274   0.385   6.456   2.491
 7125SOL    HW222275   0.223   6.471   2.471
 7126SOL     OW22276   3.472   5.441   1.269
 7126SOL    HW122277   3.562   5.425   1.228
 7126SOL    HW222278   3.412   5.485   1.201
 7127SOL     OW22279   2.440   6.312   6.237
 7127SOL    HW122280   2.446   6.251   6.316
 7127SOL    HW222281   2.413   6.403   6.268
 7128SOL     OW22282   3.379   4.284   6.954
 7128SOL    HW122283   3.294   4.256   6.910
 7128SOL    HW222284   3.362   4.364   7.012
 7129SOL     OW22285   0.513   6.922   0.391
 7129SOL    HW122286   0.568   6.866   0.453
 7129SOL    HW222287   0.503   6.874   0.303
 7130SOL     OW22288   3.295   6.367   3.975
 7130SOL    HW122289   3.291   6.275   4.015
 7130SOL    HW222290   3.273   6.434   4.046
 7131SOL     OW22291   2.151   1.150   1.773
 7131SOL    HW122292   2.141   1.238   1.818
 7131SOL    HW222293   2.069   1.129   1.720
 7132SOL     OW22294   4.885   4.053   0.814
 7132SOL    HW122295   4.863   4.073   0.910
 7132SOL    HW222296   4.898   3.955   0.802
 7133SOL     OW22297   4.953   6.140   2.914
 7133SOL    HW122298   5.046   6.104   2.919
 7133SOL    HW222299   4.943   6.194   2.830
 7134SOL     OW22300   4.889   5.782   0.012
 7134SOL    HW122301   4.817   5.716   0.032
 7134SOL    HW222302   4.957   5.781   0.085
 7135SOL     OW22303   1.517   3.494   1.322
 7135SOL    HW122304   1.496   3.517   1.417
 7135SOL    HW222305   1.582   3.418   1.319
 7136SOL     OW22306   0.734   2.521   1.979
 7136SOL    HW122307   0.814   2.500   1.923
 7136SOL    HW222308   0.755   2.599   2.039
 7137SOL     OW22309   2.747   1.208   1.325
 7137SOL    HW122310   2.760   1.302   1.357
 7137SOL    HW222311   2.782   1.144   1.394
 7138SOL     OW22312   0.337   2.818   0.463
 7138SOL    HW122313   0.426   2.828   0.419
 7138SOL    HW222314   0.304   2.908   0.493
 7139SOL     OW22315   5.780   6.305   0.886
 7139SOL    HW122316   5.745   6.229   0.941
 7139SOL    HW222317   5.719   6.384   0.896
 7140SOL     OW22318   6.716   4.337   0.099
 7140SOL    HW122319   6.772   4.324   0.181
 7140SOL    HW222320   6.657   4.257   0.086
 7141SOL     OW22321   3.072   0.224   0.857
 7141SOL    HW122322   3.021   0.307   0.879
 7141SOL    HW222323   3.084   0.170   0.941
 7142SOL     OW22324   3.853   6.863   4.915
 7142SOL    HW122325   3.869   6.961   4.920
 7142SOL    HW222326   3.760   6.846   4.881
 7143SOL     OW22327   2.698   3.259   6.591
 7143SOL    HW122328   2.607   3.280   6.555
 7143SOL    HW222329   2.767   3.274   6.519
 7144SOL     OW22330   6.585   1.264   6.303
 7144SOL    HW122331   6.499   1.233   6.262
 7144SOL    HW222332   6.621   1.341   6.251
 7145SOL     OW22333   5.505   1.406   6.264
 7145SOL    HW122334   5.599   1.397   6.231
 7145SOL    HW222335   5.449   1.332   6.227
 7146SOL     OW22336   1.032   2.330   5.598
 7146SOL    HW122337   0.974   2.378   5.664
 7146SOL    HW222338   1.125   2.323   5.635
 7147SOL     OW22339   6.455   6.335   1.774
 7147SOL    HW122340   6.453   6.435   1.781
 7147SOL    HW222341   6.404   6.306   1.693
 7148SOL     OW22342   6.560   6.524   1.500
 7148SOL    HW122343   6.477   6.515   1.444
 7148SOL    HW222344   6.632   6.465   1.462
 7149SOL     OW22345   5.563   4.436   5.657
 7149SOL    HW122346   5.632   4.457   5.588
 7149SOL    HW222347   5.475   4.420   5.612
 7150SOL     OW22348   3.010   2.645   6.810
 7150SOL    HW122349   2.954   2.659   6.728
 7150SOL    HW222350   2.996   2.722   6.873
 7151SOL     OW22351   5.136   1.095   0.282
 7151SOL    HW122352   5.112   1.009   0.328
 7151SOL    HW222353   5.186   1.154   0.346
 7152SOL     OW22354   4.992   0.516   6.155
 7152SOL    HW122355   5.022   0.549   6.245
 7152SOL    HW222356   4.986   0.593   6.092
 7153SOL     OW22357   3.381   5.387   0.234
 7153SOL    HW122358   3.420   5.479   0.222
 7153SOL    HW222359   3.453   5.319   0.221
 7154SOL     OW22360   4.288   1.610   2.310
 7154SOL    HW122361   4.242   1.666   2.379
 7154SOL    HW222362   4.223   1.541   2.276
 7155SOL     OW22363   1.378   0.670   2.303
 7155SOL    HW122364   1.418   0.744   2.359
 7155SOL    HW222365   1.365   0.589   2.360
 7156SOL     OW22366   6.643   3.315   5.047
 7156SOL    HW122367   6.563   3.296   4.991
 7156SOL    HW222368   6.703   3.380   5.000
 7157SOL     OW22369   0.158   4.031   6.187
 7157SOL    HW122370   0.192   3.964   6.121
 7157SOL    HW222371   0.235   4.084   6.224
 7158SOL     OW22372   5.258   6.740   4.340
 7158SOL    HW122373   5.164   6.708   4.339
 7158SOL    HW222374   5.285   6.768   4.247
 7159SOL     OW22375   0.573   6.401   3.165
 7159SOL    HW122376   0.585   6.491   3.206
 7159SOL    HW222377   0.476   6.382   3.152
 7160SOL     OW22378   5.774   0.382   3.674
 7160SOL    HW122379   5.812   0.324   3.746
 7160SOL    HW222380   5.799   0.344   3.584
 7161SOL     OW22381   3.708   3.462   2.580
 7161SOL    HW122382   3.687   3.364   2.581
 7161SOL    HW222383   3.792   3.478   2.631
 7162SOL     OW22384   0.862   6.197   1.765
 7162SOL    HW122385   0.774   6.244   1.766
 7162SOL    HW222386   0.884   6.164   1.856
 7163SOL     OW22387   0.082   0.605   0.633
 7163SOL    HW122388   0.094   0.701   0.659
 7163SOL    HW222389   0.013   0.598   0.561
 7164SOL     OW22390   1.431   0.942   6.618
 7164SOL    HW122391   1.419   0.888   6.535
 7164SOL    HW222392   1.425   1.039   6.596
 7165SOL     OW22393   5.661   2.328   0.159
 7165SOL    HW122394   5.757   2.348   0.179
 7165SOL    HW222395   5.622   2.403   0.105
 7166SOL     OW22396   6.702   6.085   5.926
 7166SOL    HW122397   6.768   6.021   5.887
 7166SOL    HW222398   6.750   6.158   5.974
 7167SOL     OW22399   6.709   2.852   5.226
 7167SOL    HW122400   6.711   2.895   5.316
 7167SOL    HW222401   6.802   2.850   5.189
 7168SOL     OW22402   1.792   1.711   2.034
 7168SOL    HW122403   1.714   1.697   2.095
 7168SOL    HW222404   1.766   1.686   1.940
 7169SOL     OW22405   2.082   4.904   5.686
 7169SOL    HW122406   2.134   4.836   5.738
 7169SOL    HW222407   2.084   4.881   5.589
 7170SOL     OW22408   3.420   1.626   1.301
 7170SOL    HW122409   3.514   1.610   1.270
 7170SOL    HW222410   3.369   1.540   1.296
 7171SOL     OW22411   0.451   3.903   0.719
 7171SOL    HW122412   0.518   3.974   0.696
 7171SOL    HW222413   0.410   3.924   0.808
 7172SOL     OW22414   0.213   2.370   3.727
 7172SOL    HW122415   0.157   2.307   3.673
 7172SOL    HW222416   0.270   2.319   3.791
 7173SOL     OW22417   4.821   5.523   6.142
 7173SOL    HW122418   4.891   5.591   6.120
 7173SOL    HW222419   4.862   5.446   6.190
 7174SOL     OW22420   6.593   4.169   2.147
 7174SOL    HW122421   6.494   4.165   2.160
 7174SOL    HW222422   6.614   4.212   2.059
 7175SOL     OW22423   6.682   3.732   5.828
 7175SOL    HW122424   6.588   3.710   5.852
 7175SOL    HW222425   6.685   3.818   5.776
 7176SOL     OW22426   6.887   1.172   6.213
 7176SOL    HW122427   6.851   1.105   6.149
 7176SOL    HW222428   6.959   1.226   6.169
 7177SOL     OW22429   1.398   5.830   3.732
 7177SOL    HW122430   1.384   5.861   3.638
 7177SOL    HW222431   1.404   5.910   3.792
 7178SOL     OW22432   1.478   6.904   4.929
 7178SOL    HW122433   1.546   6.973   4.902
 7178SOL    HW222434   1.517   6.843   4.998
 7179SOL     OW22435   4.005   4.761   6.069
 7179SOL    HW122436   4.082   4.697   6.065
 7179SOL    HW222437   4.037   4.854   6.052
 7180SOL     OW22438   1.835   3.212   1.611
 7180SOL    HW122439   1.827   3.266   1.694
 7180SOL    HW222440   1.930   3.180   1.600
 7181SOL     OW22441   1.913   1.479   6.942
 7181SOL    HW122442   1.829   1.473   6.888
 7181SOL    HW222443   1.941   1.574   6.951
 7182SOL     OW22444   1.701   1.187   3.772
 7182SOL    HW122445   1.757   1.261   3.734
 7182SOL    HW222446   1.713   1.104   3.717
 7183SOL     OW22447   1.543   6.585   1.866
 7183SOL    HW122448   1.480   6.576   1.788
 7183SOL    HW222449   1.491   6.602   1.949
 7184SOL     OW22450   6.666   1.147   3.816
 7184SOL    HW122451   6.604   1.069   3.811
 7184SOL    HW222452   6.746   1.131   3.759
 7185SOL     OW22453   4.377   0.349   3.983
 7185SOL    HW122454   4.344   0.267   4.030
 7185SOL    HW222455   4.379   0.426   4.046
 7186SOL     OW22456   6.457   0.822   6.808
 7186SOL    HW122457   6.439   0.724   6.797
 7186SOL    HW222458   6.496   0.859   6.723
 7187SOL     OW22459   3.690   3.418   4.037
 7187SOL    HW122460   3.755   3.493   4.027
 7187SOL    HW222461   3.731   3.346   4.093
 7188SOL     OW22462   4.431   4.432   6.848
 7188SOL    HW122463   4.343   4.477   6.834
 7188SOL    HW222464   4.423   4.335   6.824
 7189SOL     OW22465   6.503   2.759   5.663
 7189SOL    HW122466   6.410   2.727   5.678
 7189SOL    HW222467   6.525   2.832   5.727
 7190SOL     OW22468   5.921   5.235   6.807
 7190SOL    HW122469   5.826   5.258   6.784
 7190SOL    HW222470   5.936   5.137   6.791
 7191SOL     OW22471   6.786   4.719   2.661
 7191SOL    HW122472   6.726   4.640   2.671
 7191SOL    HW222473   6.752   4.795   2.717
 7192SOL     OW22474   2.377   4.043   6.132
 7192SOL    HW122475   2.356   3.945   6.141
 7192SOL    HW222476   2.405   4.062   6.039
 7193SOL     OW22477   3.254   1.820   3.201
 7193SOL    HW122478   3.164   1.845   3.164
 7193SOL    HW222479   3.312   1.901   3.203
 7194SOL     OW22480   2.991   2.731   5.907
 7194SOL    HW122481   2.959   2.736   6.001
 7194SOL    HW222482   3.084   2.767   5.901
 7195SOL     OW22483   0.989   4.557   5.331
 7195SOL    HW122484   0.986   4.458   5.345
 7195SOL    HW222485   1.048   4.599   5.400
 7196SOL     OW22486   3.597   4.201   1.787
 7196SOL    HW122487   3.625   4.107   1.808
 7196SOL    HW222488   3.648   4.265   1.846
 7197SOL     OW22489   3.202   4.625   6.729
 7197SOL    HW122490   3.238   4.717   6.740
 7197SOL    HW222491   3.277   4.561   6.710
 7198SOL     OW22492   0.717   0.868   1.895
 7198SOL    HW122493   0.690   0.800   1.963
 7198SOL    HW222494   0.786   0.929   1.935
 7199SOL     OW22495   6.150   1.665   2.324
 7199SOL    HW122496   6.139   1.718   2.408
 7199SOL    HW222497   6.244   1.673   2.291
 7200SOL     OW22498   1.235   2.628   0.365
 7200SOL    HW122499   1.196   2.542   0.400
 7200SOL    HW222500   1.181   2.659   0.286
 7201SOL     OW22501   6.579   5.305   3.785
 7201SOL    HW122502   6.585   5.379   3.718
 7201SOL    HW222503   6.537   5.225   3.743
 7202SOL     OW22504   4.376   7.007   5.741
 7202SOL    HW122505   4.420   0.007   5.829
 7202SOL    HW222506   4.297   6.947   5.756
 7203SOL     OW22507   6.989   1.808   1.059
 7203SOL    HW122508   7.019   1.731   1.001
 7203SOL    HW222509   0.050   1.860   1.088
 7204SOL     OW22510   6.613   0.436   2.414
 7204SOL    HW122511   6.594   0.534   2.419
 7204SOL    HW222512   6.703   0.418   2.454
 7205SOL     OW22513   2.954   2.192   4.125
 7205SOL    HW122514   2.867   2.217   4.168
 7205SOL    HW222515   3.004   2.130   4.185
 7206SOL     OW22516   1.886   3.754   6.852
 7206SOL    HW122517   1.959   3.717   6.795
 7206SOL    HW222518   1.814   3.793   6.795
 7207SOL     OW22519   1.770   1.166   3.435
 7207SOL    HW122520   1.747   1.243   3.374
 7207SOL    HW222521   1.783   1.200   3.528
 7208SOL     OW22522   3.041   0.467   3.987
 7208SOL    HW122523   3.105   0.535   4.022
 7208SOL    HW222524   3.051   0.460   3.888
 7209SOL     OW22525   3.495   0.952   1.624
 7209SOL    HW122526   3.574   0.976   1.567
 7209SOL    HW222527   3.486   0.853   1.627
 7210SOL     OW22528   3.082   1.340   3.088
 7210SOL    HW122529   3.060   1.266   3.151
 7210SOL    HW222530   2.999   1.389   3.063
 7211SOL     OW22531   4.572   6.365   5.410
 7211SOL    HW122532   4.650   6.323   5.457
 7211SOL    HW222533   4.522   6.295   5.360
 7212SOL     OW22534   0.469   4.953   5.548
 7212SOL    HW122535   0.548   4.990   5.501
 7212SOL    HW222536   0.450   4.860   5.515
 7213SOL     OW22537   4.069   2.062   6.903
 7213SOL    HW122538   4.056   2.078   6.806
 7213SOL    HW222539   4.014   1.983   6.931
 7214SOL     OW22540   6.157   0.541   6.525
 7214SOL    HW122541   6.068   0.528   6.568
 7214SOL    HW222542   6.173   0.468   6.458
 7215SOL     OW22543   6.152   1.957   2.932
 7215SOL    HW122544   6.187   1.895   2.862
 7215SOL    HW222545   6.179   1.924   3.023
 7216SOL     OW22546   4.395   6.358   3.076
 7216SOL    HW122547   4.455   6.422   3.123
 7216SOL    HW222548   4.312   6.343   3.130
 7217SOL     OW22549   0.981   3.073   2.846
 7217SOL    HW122550   0.924   3.144   2.887
 7217SOL    HW222551   1.076   3.105   2.840
 7218SOL     OW22552   6.359   2.514   4.377
 7218SOL    HW122553   6.320   2.515   4.469
 7218SOL    HW222554   6.411   2.598   4.362
 7219SOL     OW22555   3.342   6.277   2.521
 7219SOL    HW122556   3.328   6.191   2.473
 7219SOL    HW222557   3.401   6.262   2.601
 7220SOL     OW22558   6.485   4.581   3.602
 7220SOL    HW122559   6.387   4.588   3.621
 7220SOL    HW222560   6.501   4.511   3.534
 7221SOL     OW22561   3.948   5.499   3.972
 7221SOL    HW122562   3.873   5.478   3.909
 7221SOL    HW222563   3.912   5.514   4.064
 7222SOL     OW22564   6.640   5.712   4.368
 7222SOL    HW122565   6.604   5.651   4.439
 7222SOL    HW222566   6.611   5.680   4.278
 7223SOL     OW22567   0.210   4.135   1.695
 7223SOL    HW122568   0.300   4.154   1.734
 7223SOL    HW222569   0.139   4.165   1.759
 7224SOL     OW22570   4.329   1.874   2.617
 7224SOL    HW122571   4.237   1.842   2.639
 7224SOL    HW222572   4.385   1.873   2.700
 7225SOL     OW22573   1.709   5.510   0.574
 7225SOL    HW122574   1.634   5.501   0.639
 7225SOL    HW222575   1.704   5.437   0.506
 7226SOL     OW22576   7.011   6.467   0.329
 7226SOL    HW122577   0.072   6.459   0.389
 7226SOL    HW222578   6.984   6.563   0.323
 7227SOL     OW22579   1.870   1.298   2.181
 7227SOL    HW122580   1.775   1.330   2.176
 7227SOL    HW222581   1.913   1.334   2.264
 7228SOL     OW22582   6.629   3.276   1.835
 7228SOL    HW122583   6.562   3.254   1.906
 7228SOL    HW222584   6.582   3.285   1.747
 7229SOL     OW22585   6.604   1.175   5.047
 7229SOL    HW122586   6.613   1.269   5.079
 7229SOL    HW222587   6.678   1.154   4.984
 7230SOL     OW22588   2.308   5.245   4.921
 7230SOL    HW122589   2.242   5.175   4.894
 7230SOL    HW222590   2.399   5.220   4.887
 7231SOL     OW22591   4.572   2.980   5.704
 7231SOL    HW122592   4.667   2.952   5.689
 7231SOL    HW222593   4.526   2.912   5.761
 7232SOL     OW22594   5.064   6.392   3.635
 7232SOL    HW122595   5.017   6.325   3.691
 7232SOL    HW222596   5.040   6.379   3.539
 7233SOL     OW22597   0.283   1.380   4.717
 7233SOL    HW122598   0.275   1.293   4.766
 7233SOL    HW222599   0.333   1.366   4.632
 7234SOL     OW22600   5.217   4.104   3.410
 7234SOL    HW122601   5.295   4.041   3.412
 7234SOL    HW222602   5.220   4.163   3.491
 7235SOL     OW22603   6.559   6.206   1.350
 7235SOL    HW122604   6.533   6.207   1.446
 7235SOL    HW222605   6.520   6.286   1.304
 7236SOL     OW22606   1.335   3.411   2.660
 7236SOL    HW122607   1.354   3.508   2.677
 7236SOL    HW222608   1.283   3.401   2.576
 7237SOL     OW22609   5.985   0.919   0.803
 7237SOL    HW122610   6.016   0.984   0.734
 7237SOL    HW222611   6.013   0.827   0.775
 7238SOL     OW22612   3.810   3.251   6.752
 7238SOL    HW122613   3.804   3.333   6.809
 7238SOL    HW222614   3.829   3.171   6.809
 7239SOL     OW22615   6.500   2.364   2.376
 7239SOL    HW122616   6.564   2.296   2.341
 7239SOL    HW222617   6.489   2.352   2.475
 7240SOL     OW22618   6.574   1.893   0.353
 7240SOL    HW122619   6.625   1.977   0.373
 7240SOL    HW222620   6.571   1.879   0.254
 7241SOL     OW22621   2.704   0.945   2.160
 7241SOL    HW122622   2.625   0.888   2.139
 7241SOL    HW222623   2.747   0.976   2.076
 7242SOL     OW22624   6.918   4.636   4.436
 7242SOL    HW122625   6.936   4.709   4.369
 7242SOL    HW222626   6.868   4.562   4.392
 7243SOL     OW22627   5.701   4.534   6.323
 7243SOL    HW122628   5.769   4.517   6.252
 7243SOL    HW222629   5.623   4.581   6.283
 7244SOL     OW22630   0.266   6.118   0.184
 7244SOL    HW122631   0.227   6.089   0.272
 7244SOL    HW222632   0.313   6.206   0.196
 7245SOL     OW22633   1.059   3.425   0.354
 7245SOL    HW122634   1.098   3.512   0.383
 7245SOL    HW222635   1.077   3.355   0.423
 7246SOL     OW22636   4.422   6.807   3.351
 7246SOL    HW122637   4.500   6.802   3.413
 7246SOL    HW222638   4.449   6.857   3.268
 7247SOL     OW22639   3.284   4.192   5.079
 7247SOL    HW122640   3.312   4.283   5.111
 7247SOL    HW222641   3.323   4.176   4.988
 7248SOL     OW22642   3.145   1.190   5.336
 7248SOL    HW122643   3.059   1.175   5.384
 7248SOL    HW222644   3.154   1.287   5.314
 7249SOL     OW22645   4.209   4.775   2.451
 7249SOL    HW122646   4.296   4.786   2.402
 7249SOL    HW222647   4.208   4.837   2.529
 7250SOL     OW22648   5.513   5.263   5.097
 7250SOL    HW122649   5.529   5.300   5.189
 7250SOL    HW222650   5.578   5.188   5.080
 7251SOL     OW22651   0.116   5.881   5.655
 7251SOL    HW122652   0.054   5.803   5.649
 7251SOL    HW222653   0.066   5.966   5.640
 7252SOL     OW22654   3.721   3.744   2.527
 7252SOL    HW122655   3.688   3.653   2.550
 7252SOL    HW222656   3.811   3.738   2.484
 7253SOL     OW22657   2.313   5.764   4.524
 7253SOL    HW122658   2.255   5.717   4.589
 7253SOL    HW222659   2.268   5.767   4.434
 7254SOL     OW22660   5.762   3.138   4.168
 7254SOL    HW122661   5.841   3.135   4.107
 7254SOL    HW222662   5.679   3.154   4.114
 7255SOL     OW22663   5.228   3.242   6.715
 7255SOL    HW122664   5.184   3.328   6.689
 7255SOL    HW222665   5.222   3.231   6.814
 7256SOL     OW22666   3.217   0.403   5.317
 7256SOL    HW122667   3.141   0.466   5.335
 7256SOL    HW222668   3.267   0.433   5.237
 7257SOL     OW22669   0.741   1.619   4.573
 7257SOL    HW122670   0.704   1.702   4.614
 7257SOL    HW222671   0.747   1.632   4.474
 7258SOL     OW22672   5.952   2.709   2.697
 7258SOL    HW122673   5.924   2.632   2.639
 7258SOL    HW222674   6.051   2.721   2.691
 7259SOL     OW22675   1.518   3.894   2.532
 7259SOL    HW122676   1.512   3.920   2.628
 7259SOL    HW222677   1.605   3.848   2.515
 7260SOL     OW22678   5.550   3.455   1.024
 7260SOL    HW122679   5.519   3.360   1.026
 7260SOL    HW222680   5.646   3.459   0.994
 7261SOL     OW22681   0.062   4.843   0.483
 7261SOL    HW122682   0.020   4.933   0.500
 7261SOL    HW222683   0.140   4.853   0.422
 7262SOL     OW22684   6.172   1.114   5.032
 7262SOL    HW122685   6.115   1.033   5.019
 7262SOL    HW222686   6.134   1.190   4.978
 7263SOL     OW22687   0.304   5.942   6.985
 7263SOL    HW122688   0.317   6.013   0.035
 7263SOL    HW222689   0.290   5.854   0.012
 7264SOL     OW22690   6.491   1.505   0.433
 7264SOL    HW122691   6.508   1.413   0.467
 7264SOL    HW222692   6.433   1.555   0.497
 7265SOL     OW22693   4.122   5.983   5.811
 7265SOL    HW122694   4.038   5.977   5.756
 7265SOL    HW222695   4.189   5.917   5.776
 7266SOL     OW22696   0.715   0.899   3.707
 7266SOL    HW122697   0.744   0.868   3.797
 7266SOL    HW222698   0.700   0.819   3.648
 7267SOL     OW22699   6.384   4.574   4.813
 7267SOL    HW122700   6.417   4.637   4.744
 7267SOL    HW222701   6.455   4.559   4.882
 7268SOL     OW22702   6.412   6.458   4.502
 7268SOL    HW122703   6.489   6.402   4.532
 7268SOL    HW222704   6.440   6.512   4.422
 7269SOL     OW22705   2.562   4.709   5.044
 7269SOL    HW122706   2.654   4.670   5.037
 7269SOL    HW222707   2.507   4.678   4.967
 7270SOL     OW22708   0.654   1.294   4.582
 7270SOL    HW122709   0.677   1.381   4.538
 7270SOL    HW222710   0.734   1.235   4.584
 7271SOL     OW22711   1.032   4.694   3.631
 7271SOL    HW122712   0.987   4.609   3.602
 7271SOL    HW222713   1.130   4.677   3.640
 7272SOL     OW22714   6.674   4.571   2.394
 7272SOL    HW122715   6.713   4.642   2.454
 7272SOL    HW222716   6.700   4.481   2.428
 7273SOL     OW22717   0.826   2.476   5.230
 7273SOL    HW122718   0.815   2.467   5.329
 7273SOL    HW222719   0.805   2.389   5.186
 7274SOL     OW22720   0.728   4.524   0.013
 7274SOL    HW122721   0.825   4.539   7.010
 7274SOL    HW222722   0.692   4.604   0.062
 7275SOL     OW22723   6.765   0.181   3.027
 7275SOL    HW122724   6.758   0.177   3.126
 7275SOL    HW222725   6.812   0.265   3.000
 7276SOL     OW22726   5.777   6.540   4.591
 7276SOL    HW122727   5.710   6.467   4.605
 7276SOL    HW222728   5.844   6.537   4.666
 7277SOL     OW22729   4.742   0.102   6.170
 7277SOL    HW122730   4.811   0.155   6.121
 7277SOL    HW222731   4.788   0.038   6.232
 7278SOL     OW22732   3.029   3.108   2.252
 7278SOL    HW122733   3.041   3.037   2.182
 7278SOL    HW222734   2.931   3.128   2.263
 7279SOL     OW22735   3.241   6.650   6.100
 7279SOL    HW122736   3.154   6.619   6.138
 7279SOL    HW222737   3.293   6.571   6.068
 7280SOL     OW22738   4.588   1.450   5.993
 7280SOL    HW122739   4.610   1.379   6.059
 7280SOL    HW222740   4.503   1.496   6.020
 7281SOL     OW22741   5.050   1.486   6.184
 7281SOL    HW122742   5.121   1.534   6.133
 7281SOL    HW222743   5.001   1.424   6.122
 7282SOL     OW22744   5.620   5.485   2.373
 7282SOL    HW122745   5.599   5.401   2.423
 7282SOL    HW222746   5.716   5.485   2.346
 7283SOL     OW22747   2.039   0.908   3.629
 7283SOL    HW122748   2.037   0.808   3.626
 7283SOL    HW222749   1.946   0.944   3.616
 7284SOL     OW22750   0.243   3.751   4.870
 7284SOL    HW122751   0.303   3.700   4.809
 7284SOL    HW222752   0.147   3.736   4.844
 7285SOL     OW22753   5.239   5.557   1.567
 7285SOL    HW122754   5.296   5.539   1.646
 7285SOL    HW222755   5.167   5.487   1.561
 7286SOL     OW22756   1.810   3.590   1.441
 7286SOL    HW122757   1.714   3.581   1.416
 7286SOL    HW222758   1.825   3.546   1.530
 7287SOL     OW22759   5.974   1.427   6.361
 7287SOL    HW122760   5.953   1.523   6.343
 7287SOL    HW222761   6.060   1.420   6.412
 7288SOL     OW22762   3.823   6.349   0.029
 7288SOL    HW122763   3.843   6.331   6.951
 7288SOL    HW222764   3.826   6.263   0.080
 7289SOL     OW22765   4.714   1.879   3.488
 7289SOL    HW122766   4.676   1.941   3.557
 7289SOL    HW222767   4.641   1.848   3.427
 7290SOL     OW22768   2.751   5.278   4.291
 7290SOL    HW122769   2.690   5.357   4.300
 7290SOL    HW222770   2.846   5.310   4.295
 7291SOL     OW22771   2.765   5.270   1.968
 7291SOL    HW122772   2.861   5.295   1.976
 7291SOL    HW222773   2.709   5.352   1.979
 7292SOL     OW22774   2.891   6.944   4.441
 7292SOL    HW122775   2.976   6.985   4.407
 7292SOL    HW222776   2.855   6.881   4.371
 7293SOL     OW22777   1.247   2.727   5.421
 7293SOL    HW122778   1.323   2.709   5.359
 7293SOL    HW222779   1.162   2.730   5.370
 7294SOL     OW22780   3.337   5.247   0.803
 7294SOL    HW122781   3.277   5.326   0.792
 7294SOL    HW222782   3.288   5.164   0.776
 7295SOL     OW22783   5.998   0.636   1.644
 7295SOL    HW122784   6.033   0.720   1.602
 7295SOL    HW222785   6.012   0.559   1.582
 7296SOL     OW22786   4.127   4.859   1.750
 7296SOL    HW122787   4.187   4.818   1.819
 7296SOL    HW222788   4.032   4.835   1.770
 7297SOL     OW22789   5.398   0.105   1.791
 7297SOL    HW122790   5.320   0.051   1.761
 7297SOL    HW222791   5.368   0.174   1.856
 7298SOL     OW22792   5.799   3.616   4.246
 7298SOL    HW122793   5.716   3.637   4.298
 7298SOL    HW222794   5.845   3.538   4.287
 7299SOL     OW22795   6.380   3.914   6.457
 7299SOL    HW122796   6.327   3.900   6.540
 7299SOL    HW222797   6.388   3.827   6.407
 7300SOL     OW22798   4.264   4.912   0.908
 7300SOL    HW122799   4.231   5.002   0.879
 7300SOL    HW222800   4.339   4.924   0.973
 7301SOL     OW22801   6.478   0.503   6.265
 7301SOL    HW122802   6.448   0.566   6.192
 7301SOL    HW222803   6.565   0.461   6.239
 7302SOL     OW22804   4.934   1.083   6.298
 7302SOL    HW122805   4.901   1.167   6.255
 7302SOL    HW222806   4.977   1.106   6.386
 7303SOL     OW22807   3.529   1.326   0.441
 7303SOL    HW122808   3.502   1.242   0.395
 7303SOL    HW222809   3.613   1.310   0.493
 7304SOL     OW22810   3.263   3.993   5.616
 7304SOL    HW122811   3.329   3.935   5.568
 7304SOL    HW222812   3.179   4.000   5.562
 7305SOL     OW22813   5.293   1.278   0.403
 7305SOL    HW122814   5.282   1.317   0.494
 7305SOL    HW222815   5.289   1.351   0.335
 7306SOL     OW22816   4.749   4.728   1.688
 7306SOL    HW122817   4.844   4.698   1.688
 7306SOL    HW222818   4.741   4.814   1.739
 7307SOL     OW22819   4.143   6.761   2.399
 7307SOL    HW122820   4.224   6.820   2.408
 7307SOL    HW222821   4.141   6.696   2.475
 7308SOL     OW22822   6.760   2.060   4.374
 7308SOL    HW122823   6.704   2.114   4.310
 7308SOL    HW222824   6.798   1.981   4.326
 7309SOL     OW22825   4.503   6.269   1.507
 7309SOL    HW122826   4.587   6.215   1.518
 7309SOL    HW222827   4.424   6.210   1.519
 7310SOL     OW22828   3.016   5.139   1.626
 7310SOL    HW122829   2.935   5.130   1.684
 7310SOL    HW222830   3.041   5.049   1.590
 7311SOL     OW22831   2.814   2.211   1.797
 7311SOL    HW122832   2.843   2.282   1.860
 7311SOL    HW222833   2.869   2.215   1.714
 7312SOL     OW22834   6.945   1.342   5.611
 7312SOL    HW122835   6.868   1.386   5.565
 7312SOL    HW222836   6.911   1.269   5.670
 7313SOL     OW22837   4.382   2.581   6.631
 7313SOL    HW122838   4.460   2.631   6.670
 7313SOL    HW222839   4.298   2.613   6.675
 7314SOL     OW22840   0.283   3.402   4.116
 7314SOL    HW122841   0.261   3.360   4.204
 7314SOL    HW222842   0.305   3.331   4.049
 7315SOL     OW22843   6.696   0.230   4.581
 7315SOL    HW122844   6.705   0.305   4.646
 7315SOL    HW222845   6.649   0.262   4.498
 7316SOL     OW22846   3.453   3.780   5.530
 7316SOL    HW122847   3.417   3.783   5.437
 7316SOL    HW222848   3.502   3.693   5.543
 7317SOL     OW22849   3.758   1.013   4.127
 7317SOL    HW122850   3.773   0.922   4.088
 7317SOL    HW222851   3.704   1.005   4.210
 7318SOL     OW22852   2.342   2.230   1.293
 7318SOL    HW122853   2.368   2.288   1.216
 7318SOL    HW222854   2.403   2.248   1.370
 7319SOL     OW22855   5.755   4.809   6.818
 7319SOL    HW122856   5.809   4.742   6.769
 7319SOL    HW222857   5.663   4.813   6.779
 7320SOL     OW22858   0.164   2.941   1.784
 7320SOL    HW122859   0.069   2.912   1.771
 7320SOL    HW222860   0.178   2.967   1.880
 7321SOL     OW22861   2.646   1.299   4.290
 7321SOL    HW122862   2.615   1.378   4.238
 7321SOL    HW222863   2.722   1.325   4.349
 7322SOL     OW22864   0.379   3.983   3.055
 7322SOL    HW122865   0.454   3.997   2.990
 7322SOL    HW222866   0.395   4.039   3.137
 7323SOL     OW22867   2.041   3.489   3.245
 7323SOL    HW122868   2.025   3.539   3.330
 7323SOL    HW222869   2.084   3.550   3.178
 7324SOL     OW22870   5.206   6.927   2.767
 7324SOL    HW122871   5.142   6.967   2.833
 7324SOL    HW222872   5.191   6.829   2.761
 7325SOL     OW22873   3.330   6.018   0.064
 7325SOL    HW122874   3.241   5.973   0.063
 7325SOL    HW222875   3.318   6.117   0.071
 7326SOL     OW22876   3.207   6.830   5.586
 7326SOL    HW122877   3.156   6.774   5.522
 7326SOL    HW222878   3.208   6.787   5.676
 7327SOL     OW22879   1.241   3.006   5.529
 7327SOL    HW122880   1.302   3.055   5.467
 7327SOL    HW222881   1.242   2.908   5.506
 7328SOL     OW22882   2.475   0.154   0.046
 7328SOL    HW122883   2.379   0.128   0.037
 7328SOL    HW222884   2.532   0.074   0.026
 7329SOL     OW22885   4.140   2.892   1.053
 7329SOL    HW122886   4.078   2.901   0.975
 7329SOL    HW222887   4.092   2.847   1.129
 7330SOL     OW22888   4.006   1.554   0.023
 7330SOL    HW122889   3.913   1.580   0.050
 7330SOL    HW222890   4.071   1.590   0.090
 7331SOL     OW22891   5.782   0.311   1.705
 7331SOL    HW122892   5.824   0.373   1.771
 7331SOL    HW222893   5.706   0.357   1.659
 7332SOL     OW22894   3.384   5.279   1.473
 7332SOL    HW122895   3.423   5.336   1.401
 7332SOL    HW222896   3.284   5.287   1.471
 7333SOL     OW22897   1.228   4.939   2.500
 7333SOL    HW122898   1.268   4.964   2.412
 7333SOL    HW222899   1.299   4.942   2.570
 7334SOL     OW22900   4.140   6.559   4.194
 7334SOL    HW122901   4.103   6.648   4.222
 7334SOL    HW222902   4.078   6.516   4.129
 7335SOL     OW22903   1.919   2.431   2.976
 7335SOL    HW122904   1.942   2.526   2.953
 7335SOL    HW222905   1.820   2.419   2.973
 7336SOL     OW22906   1.785   6.731   3.524
 7336SOL    HW122907   1.774   6.808   3.587
 7336SOL    HW222908   1.707   6.728   3.462
 7337SOL     OW22909   6.419   3.003   2.061
 7337SOL    HW122910   6.503   2.975   2.107
 7337SOL    HW222911   6.419   3.103   2.051
 7338SOL     OW22912   6.724   2.914   0.625
 7338SOL    HW122913   6.751   2.998   0.670
 7338SOL    HW222914   6.720   2.840   0.692
 7339SOL     OW22915   0.125   5.602   4.472
 7339SOL    HW122916   0.058   5.594   4.399
 7339SOL    HW222917   0.111   5.688   4.522
 7340SOL     OW22918   2.278   0.134   6.758
 7340SOL    HW122919   2.238   0.146   6.848
 7340SOL    HW222920   2.208   0.145   6.688
 7341SOL     OW22921   6.298   2.514   6.725
 7341SOL    HW122922   6.228   2.533   6.656
 7341SOL    HW222923   6.346   2.598   6.748
 7342SOL     OW22924   6.861   6.899   2.386
 7342SOL    HW122925   6.840   6.881   2.290
 7342SOL    HW222926   6.788   6.862   2.444
 7343SOL     OW22927   5.270   3.233   6.976
 7343SOL    HW122928   5.262   3.332   6.986
 7343SOL    HW222929   5.211   3.187   0.024
 7344SOL     OW22930   1.337   6.490   5.919
 7344SOL    HW122931   1.297   6.483   6.010
 7344SOL    HW222932   1.273   6.455   5.851
 7345SOL     OW22933   3.556   5.481   6.054
 7345SOL    HW122934   3.532   5.385   6.064
 7345SOL    HW222935   3.599   5.514   6.139
 7346SOL     OW22936   4.804   4.575   3.123
 7346SOL    HW122937   4.834   4.504   3.060
 7346SOL    HW222938   4.765   4.651   3.071
 7347SOL     OW22939   5.774   2.524   6.563
 7347SOL    HW122940   5.711   2.450   6.543
 7347SOL    HW222941   5.849   2.523   6.496
 7348SOL     OW22942   0.020   4.758   1.484
 7348SOL    HW122943   7.014   4.693   1.413
 7348SOL    HW222944   0.057   4.709   1.563
 7349SOL     OW22945   3.943   1.825   2.115
 7349SOL    HW122946   3.898   1.905   2.075
 7349SOL    HW222947   3.933   1.747   2.054
 7350SOL     OW22948   3.397   0.408   5.078
 7350SOL    HW122949   3.459   0.464   5.023
 7350SOL    HW222950   3.369   0.327   5.026
 7351SOL     OW22951   3.346   4.953   4.044
 7351SOL    HW122952   3.440   4.934   4.070
 7351SOL    HW222953   3.311   5.030   4.098
 7352SOL     OW22954   6.811   2.757   3.898
 7352SOL    HW122955   6.875   2.761   3.975
 7352SOL    HW222956   6.796   2.662   3.871
 7353SOL     OW22957   6.297   0.563   6.771
 7353SOL    HW122958   6.256   0.502   6.839
 7353SOL    HW222959   6.250   0.552   6.684
 7354SOL     OW22960   0.689   1.932   3.136
 7354SOL    HW122961   0.593   1.957   3.122
 7354SOL    HW222962   0.723   1.977   3.219
 7355SOL     OW22963   1.461   1.896   0.116
 7355SOL    HW122964   1.556   1.923   0.097
 7355SOL    HW222965   1.454   1.796   0.110
 7356SOL     OW22966   4.393   3.964   6.254
 7356SOL    HW122967   4.306   3.920   6.277
 7356SOL    HW222968   4.442   3.908   6.187
 7357SOL     OW22969   5.182   5.748   2.265
 7357SOL    HW122970   5.104   5.686   2.262
 7357SOL    HW222971   5.248   5.715   2.333
 7358SOL     OW22972   5.929   1.265   3.768
 7358SOL    HW122973   6.008   1.224   3.814
 7358SOL    HW222974   5.856   1.197   3.762
 7359SOL     OW22975   4.869   0.215   1.199
 7359SOL    HW122976   4.875   0.292   1.135
 7359SOL    HW222977   4.778   0.176   1.195
 7360SOL     OW22978   2.921   3.827   4.796
 7360SOL    HW122979   2.932   3.729   4.811
 7360SOL    HW222980   2.824   3.851   4.801
 7361SOL     OW22981   5.367   0.452   3.650
 7361SOL    HW122982   5.374   0.360   3.611
 7361SOL    HW222983   5.304   0.450   3.727
 7362SOL     OW22984   3.448   5.046   6.401
 7362SOL    HW122985   3.545   5.023   6.390
 7362SOL    HW222986   3.431   5.137   6.362
 7363SOL     OW22987   3.884   0.577   0.780
 7363SOL    HW122988   3.904   0.484   0.749
 7363SOL    HW222989   3.785   0.591   0.784
 7364SOL     OW22990   5.946   6.961   1.321
 7364SOL    HW122991   5.931   0.008   1.246
 7364SOL    HW222992   6.042   6.963   1.348
 7365SOL     OW22993   5.752   4.799   2.342
 7365SOL    HW122994   5.784   4.715   2.298
 7365SOL    HW222995   5.777   4.799   2.438
 7366SOL     OW22996   2.007   1.146   4.137
 7366SOL    HW122997   1.949   1.179   4.212
 7366SOL    HW222998   2.060   1.222   4.100
 7367SOL     OW22999   4.222   0.416   6.681
 7367SOL    HW123000   4.264   0.488   6.625
 7367SOL    HW223001   4.139   0.383   6.636
 7368SOL     OW23002   3.598   3.804   3.553
 7368SOL    HW123003   3.574   3.847   3.640
 7368SOL    HW223004   3.683   3.753   3.563
 7369SOL     OW23005   5.271   2.266   0.428
 7369SOL    HW123006   5.180   2.269   0.386
 7369SOL    HW223007   5.267   2.210   0.510
 7370SOL     OW23008   2.132   1.578   4.193
 7370SOL    HW123009   2.223   1.614   4.173
 7370SOL    HW223010   2.141   1.489   4.238
 7371SOL     OW23011   3.682   0.807   3.890
 7371SOL    HW123012   3.723   0.738   3.831
 7371SOL    HW223013   3.684   0.896   3.845
 7372SOL     OW23014   5.386   1.035   5.552
 7372SOL    HW123015   5.447   0.959   5.533
 7372SOL    HW223016   5.379   1.048   5.651
 7373SOL     OW23017   5.557   3.303   4.360
 7373SOL    HW123018   5.583   3.369   4.430
 7373SOL    HW223019   5.639   3.269   4.314
 7374SOL     OW23020   6.321   2.103   5.151
 7374SOL    HW123021   6.372   2.173   5.103
 7374SOL    HW223022   6.313   2.022   5.093
 7375SOL     OW23023   1.595   3.459   2.072
 7375SOL    HW123024   1.651   3.535   2.039
 7375SOL    HW223025   1.586   3.390   2.000
 7376SOL     OW23026   0.273   3.960   0.316
 7376SOL    HW123027   0.360   3.935   0.272
 7376SOL    HW223028   0.258   3.900   0.395
 7377SOL     OW23029   2.719   6.126   1.270
 7377SOL    HW123030   2.696   6.042   1.221
 7377SOL    HW223031   2.640   6.187   1.271
 7378SOL     OW23032   0.881   5.599   4.192
 7378SOL    HW123033   0.790   5.621   4.155
 7378SOL    HW223034   0.899   5.653   4.273
 7379SOL     OW23035   3.928   1.096   1.241
 7379SOL    HW123036   3.970   1.021   1.291
 7379SOL    HW223037   3.996   1.167   1.224
 7380SOL     OW23038   5.343   4.274   1.937
 7380SOL    HW123039   5.353   4.223   2.022
 7380SOL    HW223040   5.361   4.214   1.860
 7381SOL     OW23041   3.781   1.073   0.984
 7381SOL    HW123042   3.795   1.052   1.080
 7381SOL    HW223043   3.686   1.099   0.969
 7382SOL     OW23044   6.473   1.416   6.046
 7382SOL    HW123045   6.415   1.484   6.001
 7382SOL    HW223046   6.561   1.458   6.069
 7383SOL     OW23047   2.029   0.043   0.645
 7383SOL    HW123048   2.000   0.091   0.562
 7383SOL    HW223049   2.022   0.104   0.723
 7384SOL     OW23050   6.739   6.837   1.229
 7384SOL    HW123051   6.659   6.807   1.179
 7384SOL    HW223052   6.711   6.885   1.312
 7385SOL     OW23053   5.819   4.111   3.098
 7385SOL    HW123054   5.885   4.041   3.071
 7385SOL    HW223055   5.867   4.196   3.121
 7386SOL     OW23056   5.448   3.606   0.136
 7386SOL    HW123057   5.514   3.674   0.171
 7386SOL    HW223058   5.498   3.527   0.101
 7387SOL     OW23059   6.883   6.011   5.591
 7387SOL    HW123060   6.842   6.100   5.570
 7387SOL    HW223061   6.822   5.959   5.650
 7388SOL     OW23062   2.201   4.947   3.093
 7388SOL    HW123063   2.198   4.876   3.163
 7388SOL    HW223064   2.178   5.035   3.135
 7389SOL     OW23065   5.634   2.754   0.005
 7389SOL    HW123066   5.671   2.842   0.035
 7389SOL    HW223067   5.671   2.732   6.934
 7390SOL     OW23068   2.127   2.756   3.332
 7390SOL    HW123069   2.126   2.847   3.289
 7390SOL    HW223070   2.191   2.757   3.409
 7391SOL     OW23071   3.697   3.323   3.196
 7391SOL    HW123072   3.784   3.320   3.147
 7391SOL    HW223073   3.677   3.417   3.222
 7392SOL     OW23074   2.779   6.180   6.766
 7392SOL    HW123075   2.752   6.268   6.806
 7392SOL    HW223076   2.875   6.162   6.789
 7393SOL     OW23077   5.398   5.413   4.318
 7393SOL    HW123078   5.388   5.351   4.395
 7393SOL    HW223079   5.346   5.378   4.239
 7394SOL     OW23080   2.932   1.734   6.031
 7394SOL    HW123081   2.952   1.729   5.933
 7394SOL    HW223082   2.897   1.646   6.063
 7395SOL     OW23083   3.000   5.706   1.082
 7395SOL    HW123084   3.062   5.784   1.075
 7395SOL    HW223085   2.952   5.694   0.995
 7396SOL     OW23086   2.436   5.215   1.885
 7396SOL    HW123087   2.405   5.205   1.791
 7396SOL    HW223088   2.473   5.128   1.918
 7397SOL     OW23089   5.752   4.415   4.093
 7397SOL    HW123090   5.653   4.418   4.100
 7397SOL    HW223091   5.779   4.401   3.998
 7398SOL     OW23092   2.584   4.602   2.373
 7398SOL    HW123093   2.545   4.654   2.449
 7398SOL    HW223094   2.578   4.504   2.393
 7399SOL     OW23095   5.175   2.305   5.448
 7399SOL    HW123096   5.157   2.389   5.497
 7399SOL    HW223097   5.150   2.226   5.505
 7400SOL     OW23098   5.474   2.790   5.829
 7400SOL    HW123099   5.494   2.857   5.900
 7400SOL    HW223100   5.412   2.721   5.865
 7401SOL     OW23101   1.501   3.216   3.898
 7401SOL    HW123102   1.595   3.205   3.929
 7401SOL    HW223103   1.446   3.137   3.926
 7402SOL     OW23104   3.370   5.859   4.639
 7402SOL    HW123105   3.330   5.938   4.686
 7402SOL    HW223106   3.452   5.829   4.688
 7403SOL     OW23107   1.984   4.025   4.011
 7403SOL    HW123108   1.891   3.999   4.038
 7403SOL    HW223109   2.036   4.052   4.092
 7404SOL     OW23110   3.546   3.388   1.114
 7404SOL    HW123111   3.563   3.290   1.118
 7404SOL    HW223112   3.627   3.438   1.146
 7405SOL     OW23113   3.718   6.648   3.937
 7405SOL    HW123114   3.647   6.601   3.990
 7405SOL    HW223115   3.687   6.741   3.916
 7406SOL     OW23116   0.926   1.434   5.057
 7406SOL    HW123117   1.019   1.408   5.029
 7406SOL    HW223118   0.930   1.518   5.110
 7407SOL     OW23119   0.920   5.723   5.570
 7407SOL    HW123120   0.878   5.664   5.639
 7407SOL    HW223121   0.853   5.791   5.539
 7408SOL     OW23122   3.944   4.803   5.237
 7408SOL    HW123123   3.944   4.898   5.207
 7408SOL    HW223124   3.854   4.779   5.273
 7409SOL     OW23125   6.417   3.580   1.097
 7409SOL    HW123126   6.388   3.484   1.105
 7409SOL    HW223127   6.450   3.612   1.186
 7410SOL     OW23128   0.421   0.923   1.064
 7410SOL    HW123129   0.511   0.898   1.099
 7410SOL    HW223130   0.421   1.020   1.037
 7411SOL     OW23131   1.690   1.618   5.024
 7411SOL    HW123132   1.640   1.700   4.996
 7411SOL    HW223133   1.706   1.621   5.123
 7412SOL     OW23134   4.310   6.729   0.548
 7412SOL    HW123135   4.301   6.637   0.510
 7412SOL    HW223136   4.404   6.760   0.540
 7413SOL     OW23137   4.445   0.144   3.442
 7413SOL    HW123138   4.433   0.133   3.344
 7413SOL    HW223139   4.441   0.242   3.465
 7414SOL     OW23140   3.449   1.299   4.111
 7414SOL    HW123141   3.415   1.388   4.081
 7414SOL    HW223142   3.545   1.291   4.087
 7415SOL     OW23143   4.052   6.310   6.659
 7415SOL    HW123144   4.096   6.331   6.572
 7415SOL    HW223145   3.987   6.235   6.645
 7416SOL     OW23146   1.359   0.550   1.988
 7416SOL    HW123147   1.296   0.595   2.051
 7416SOL    HW223148   1.310   0.521   1.906
 7417SOL     OW23149   0.221   0.931   2.928
 7417SOL    HW123150   0.318   0.903   2.929
 7417SOL    HW223151   0.201   0.986   3.008
 7418SOL     OW23152   1.428   4.141   5.826
 7418SOL    HW123153   1.380   4.147   5.913
 7418SOL    HW223154   1.524   4.119   5.842
 7419SOL     OW23155   6.649   3.938   3.901
 7419SOL    HW123156   6.577   3.877   3.869
 7419SOL    HW223157   6.632   4.030   3.866
 7420SOL     OW23158   0.230   0.086   1.760
 7420SOL    HW123159   0.233   0.165   1.700
 7420SOL    HW223160   0.135   0.055   1.770
 7421SOL     OW23161   5.395   3.695   0.985
 7421SOL    HW123162   5.343   3.692   1.071
 7421SOL    HW223163   5.447   3.611   0.975
 7422SOL     OW23164   5.601   2.514   2.711
 7422SOL    HW123165   5.613   2.434   2.653
 7422SOL    HW223166   5.518   2.503   2.766
 7423SOL     OW23167   5.419   1.702   5.826
 7423SOL    HW123168   5.360   1.734   5.899
 7423SOL    HW223169   5.515   1.714   5.853
 7424SOL     OW23170   0.488   2.355   3.445
 7424SOL    HW123171   0.409   2.385   3.499
 7424SOL    HW223172   0.517   2.264   3.475
 7425SOL     OW23173   6.040   0.602   1.295
 7425SOL    HW123174   5.964   0.657   1.260
 7425SOL    HW223175   6.109   0.662   1.336
 7426SOL     OW23176   4.143   3.270   5.552
 7426SOL    HW123177   4.155   3.369   5.543
 7426SOL    HW223178   4.222   3.232   5.600
 7427SOL     OW23179   3.256   0.792   3.368
 7427SOL    HW123180   3.300   0.836   3.290
 7427SOL    HW223181   3.168   0.754   3.339
 7428SOL     OW23182   4.736   6.079   4.731
 7428SOL    HW123183   4.836   6.085   4.728
 7428SOL    HW223184   4.708   6.024   4.809
 7429SOL     OW23185   1.230   6.678   2.833
 7429SOL    HW123186   1.250   6.705   2.927
 7429SOL    HW223187   1.287   6.732   2.770
 7430SOL     OW23188   6.527   5.574   2.594
 7430SOL    HW123189   6.616   5.541   2.564
 7430SOL    HW223190   6.469   5.497   2.619
 7431SOL     OW23191   1.483   1.887   3.682
 7431SOL    HW123192   1.451   1.981   3.698
 7431SOL    HW223193   1.464   1.831   3.762
 7432SOL     OW23194   2.572   0.515   3.003
 7432SOL    HW123195   2.622   0.595   2.971
 7432SOL    HW223196   2.510   0.542   3.077
 7433SOL     OW23197   2.681   0.214   6.616
 7433SOL    HW123198   2.609   0.145   6.614
 7433SOL    HW223199   2.662   0.284   6.547
 7434SOL     OW23200   4.138   6.826   4.284
 7434SOL    HW123201   4.118   6.924   4.293
 7434SOL    HW223202   4.179   6.792   4.368
 7435SOL     OW23203   5.003   4.208   2.803
 7435SOL    HW123204   4.974   4.113   2.808
 7435SOL    HW223205   4.977   4.247   2.715
 7436SOL     OW23206   5.577   2.976   6.033
 7436SOL    HW123207   5.516   2.929   6.097
 7436SOL    HW223208   5.672   2.963   6.061
 7437SOL     OW23209   3.262   6.857   0.554
 7437SOL    HW123210   3.237   6.927   0.621
 7437SOL    HW223211   3.245   6.891   0.462
 7438SOL     OW23212   1.918   0.582   0.172
 7438SOL    HW123213   1.877   0.614   0.086
 7438SOL    HW223214   1.888   0.488   0.190
 7439SOL     OW23215   1.239   4.164   6.691
 7439SOL    HW123216   1.231   4.251   6.741
 7439SOL    HW223217   1.175   4.098   6.729
 7440SOL     OW23218   5.599   3.625   3.961
 7440SOL    HW123219   5.618   3.577   4.046
 7440SOL    HW223220   5.575   3.560   3.889
 7441SOL     OW23221   5.747   5.736   1.352
 7441SOL    HW123222   5.824   5.798   1.367
 7441SOL    HW223223   5.698   5.722   1.438
 7442SOL     OW23224   5.420   0.676   5.583
 7442SOL    HW123225   5.349   0.607   5.569
 7442SOL    HW223226   5.406   0.720   5.672
 7443SOL     OW23227   0.429   0.872   1.749
 7443SOL    HW123228   0.374   0.954   1.767
 7443SOL    HW223229   0.481   0.849   1.831
 7444SOL     OW23230   1.918   6.331   6.918
 7444SOL    HW123231   1.909   6.246   6.969
 7444SOL    HW223232   1.965   6.314   6.832
 7445SOL     OW23233   3.865   6.253   1.748
 7445SOL    HW123234   3.930   6.193   1.797
 7445SOL    HW223235   3.915   6.308   1.681
 7446SOL     OW23236   5.224   4.298   0.130
 7446SOL    HW123237   5.226   4.388   0.088
 7446SOL    HW223238   5.223   4.228   0.058
 7447SOL     OW23239   0.305   4.589   0.607
 7447SOL    HW123240   0.298   4.537   0.692
 7447SOL    HW223241   0.223   4.575   0.552
 7448SOL     OW23242   4.676   5.566   0.056
 7448SOL    HW123243   4.584   5.581   0.092
 7448SOL    HW223244   4.717   5.487   0.101
 7449SOL     OW23245   0.146   4.542   6.151
 7449SOL    HW123246   0.073   4.479   6.178
 7449SOL    HW223247   0.164   4.531   6.053
 7450SOL     OW23248   5.410   2.152   5.355
 7450SOL    HW123249   5.462   2.096   5.419
 7450SOL    HW223250   5.352   2.216   5.405
 7451SOL     OW23251   4.703   4.171   3.380
 7451SOL    HW123252   4.774   4.225   3.425
 7451SOL    HW223253   4.691   4.085   3.429
 7452SOL     OW23254   5.805   5.305   5.800
 7452SOL    HW123255   5.837   5.274   5.711
 7452SOL    HW223256   5.873   5.283   5.870
 7453SOL     OW23257   3.366   5.863   6.208
 7453SOL    HW123258   3.425   5.904   6.138
 7453SOL    HW223259   3.270   5.876   6.184
 7454SOL     OW23260   4.475   2.177   1.119
 7454SOL    HW123261   4.416   2.247   1.079
 7454SOL    HW223262   4.518   2.213   1.202
 7455SOL     OW23263   6.825   1.719   2.976
 7455SOL    HW123264   6.749   1.763   2.929
 7455SOL    HW223265   6.793   1.633   3.018
 7456SOL     OW23266   2.548   2.026   6.332
 7456SOL    HW123267   2.479   2.082   6.378
 7456SOL    HW223268   2.556   2.053   6.237
 7457SOL     OW23269   1.996   1.091   2.324
 7457SOL    HW123270   1.936   1.166   2.295
 7457SOL    HW223271   2.059   1.069   2.249
 7458SOL     OW23272   1.901   5.347   5.376
 7458SOL    HW123273   1.969   5.356   5.449
 7458SOL    HW223274   1.947   5.345   5.287
 7459SOL     OW23275   5.793   0.162   2.569
 7459SOL    HW123276   5.857   0.222   2.521
 7459SOL    HW223277   5.830   0.137   2.658
 7460SOL     OW23278   2.162   6.470   0.910
 7460SOL    HW123279   2.068   6.444   0.929
 7460SOL    HW223280   2.202   6.512   0.991
 7461SOL     OW23281   2.139   4.215   5.811
 7461SOL    HW123282   2.074   4.283   5.777
 7461SOL    HW223283   2.109   4.182   5.901
 7462SOL     OW23284   1.320   4.179   0.754
 7462SOL    HW123285   1.267   4.107   0.798
 7462SOL    HW223286   1.295   4.268   0.794
 7463SOL     OW23287   4.048   5.502   1.385
 7463SOL    HW123288   4.124   5.566   1.396
 7463SOL    HW223289   4.068   5.439   1.311
 7464SOL     OW23290   6.057   6.339   5.194
 7464SOL    HW123291   6.005   6.254   5.191
 7464SOL    HW223292   5.996   6.415   5.217
 7465SOL     OW23293   1.669   4.699   0.316
 7465SOL    HW123294   1.681   4.674   0.412
 7465SOL    HW223295   1.642   4.618   0.264
 7466SOL     OW23296   0.362   0.627   4.977
 7466SOL    HW123297   0.298   0.690   5.020
 7466SOL    HW223298   0.406   0.571   5.047
 7467SOL     OW23299   0.471   3.539   5.018
 7467SOL    HW123300   0.456   3.628   5.060
 7467SOL    HW223301   0.392   3.480   5.036
 7468SOL     OW23302   5.737   3.670   5.690
 7468SOL    HW123303   5.641   3.687   5.671
 7468SOL    HW223304   5.763   3.580   5.654
 7469SOL     OW23305   0.345   1.961   0.766
 7469SOL    HW123306   0.272   2.028   0.758
 7469SOL    HW223307   0.419   1.997   0.823
 7470SOL     OW23308   5.776   2.760   3.399
 7470SOL    HW123309   5.829   2.819   3.461
 7470SOL    HW223310   5.761   2.671   3.444
 7471SOL     OW23311   4.063   5.881   6.159
 7471SOL    HW123312   4.111   5.952   6.106
 7471SOL    HW223313   4.033   5.919   6.246
 7472SOL     OW23314   6.639   0.193   5.885
 7472SOL    HW123315   6.550   0.235   5.905
 7472SOL    HW223316   6.633   0.094   5.896
 7473SOL     OW23317   3.271   5.911   3.915
 7473SOL    HW123318   3.333   5.940   3.988
 7473SOL    HW223319   3.241   5.818   3.933
 7474SOL     OW23320   5.904   1.721   6.982
 7474SOL    HW123321   5.876   1.708   0.059
 7474SOL    HW223322   5.826   1.752   6.928
 7475SOL     OW23323   4.998   1.988   0.882
 7475SOL    HW123324   4.994   2.088   0.882
 7475SOL    HW223325   5.091   1.959   0.857
 7476SOL     OW23326   2.086   0.406   2.920
 7476SOL    HW123327   2.106   0.426   3.016
 7476SOL    HW223328   2.040   0.485   2.878
 7477SOL     OW23329   0.890   3.862   4.904
 7477SOL    HW123330   0.791   3.861   4.889
 7477SOL    HW223331   0.937   3.820   4.827
 7478SOL     OW23332   0.709   1.028   6.105
 7478SOL    HW123333   0.668   1.050   6.016
 7478SOL    HW223334   0.636   1.009   6.170
 7479SOL     OW23335   5.113   2.519   0.514
 7479SOL    HW123336   5.099   2.453   0.441
 7479SOL    HW223337   5.025   2.539   0.558
 7480SOL     OW23338   3.653   4.947   2.738
 7480SOL    HW123339   3.616   5.025   2.787
 7480SOL    HW223340   3.579   4.898   2.692
 7481SOL     OW23341   0.223   3.895   6.956
 7481SOL    HW123342   0.231   3.943   6.868
 7481SOL    HW223343   0.314   3.875   6.991
 7482SOL     OW23344   5.192   2.056   2.885
 7482SOL    HW123345   5.092   2.057   2.891
 7482SOL    HW223346   5.227   1.977   2.935
 7483SOL     OW23347   4.867   2.041   5.615
 7483SOL    HW123348   4.776   2.052   5.574
 7483SOL    HW223349   4.868   1.958   5.671
 7484SOL     OW23350   3.507   0.005   3.625
 7484SOL    HW123351   3.474   0.090   3.666
 7484SOL    HW223352   3.516   0.017   3.526
 7485SOL     OW23353   3.829   6.493   5.714
 7485SOL    HW123354   3.840   6.591   5.699
 7485SOL    HW223355   3.817   6.476   5.812
 7486SOL     OW23356   2.638   6.774   0.819
 7486SOL    HW123357   2.691   6.696   0.852
 7486SOL    HW223358   2.597   6.822   0.897
 7487SOL     OW23359   3.948   6.119   4.571
 7487SOL    HW123360   4.021   6.180   4.604
 7487SOL    HW223361   3.877   6.174   4.527
 7488SOL     OW23362   0.612   5.636   4.114
 7488SOL    HW123363   0.631   5.635   4.015
 7488SOL    HW223364   0.570   5.550   4.140
 7489SOL     OW23365   5.645   3.176   6.768
 7489SOL    HW123366   5.737   3.215   6.769
 7489SOL    HW223367   5.599   3.198   6.854
 7490SOL     OW23368   0.974   2.652   2.231
 7490SOL    HW123369   0.931   2.588   2.295
 7490SOL    HW223370   0.905   2.688   2.168
 7491SOL     OW23371   4.143   3.318   0.388
 7491SOL    HW123372   4.180   3.290   0.476
 7491SOL    HW223373   4.183   3.260   0.316
 7492SOL     OW23374   1.287   0.133   4.674
 7492SOL    HW123375   1.292   0.044   4.628
 7492SOL    HW223376   1.225   0.193   4.624
 7493SOL     OW23377   6.731   4.688   5.208
 7493SOL    HW123378   6.805   4.642   5.257
 7493SOL    HW223379   6.736   4.787   5.224
 7494SOL     OW23380   6.736   0.943   1.713
 7494SOL    HW123381   6.786   0.916   1.631
 7494SOL    HW223382   6.787   0.916   1.795
 7495SOL     OW23383   1.541   3.866   4.862
 7495SOL    HW123384   1.581   3.834   4.947
 7495SOL    HW223385   1.514   3.962   4.871
 7496SOL     OW23386   5.841   4.474   2.542
 7496SOL    HW123387   5.749   4.455   2.508
 7496SOL    HW223388   5.853   4.573   2.554
 7497SOL     OW23389   0.010   6.256   1.038
 7497SOL    HW123390   0.025   6.268   1.136
 7497SOL    HW223391   0.004   6.346   0.994
 7498SOL     OW23392   3.330   6.500   2.868
 7498SOL    HW123393   3.260   6.559   2.907
 7498SOL    HW223394   3.287   6.425   2.819
 7499SOL     OW23395   3.109   1.555   4.263
 7499SOL    HW123396   3.117   1.475   4.203
 7499SOL    HW223397   3.017   1.593   4.256
 7500SOL     OW23398   3.810   0.398   3.181
 7500SOL    HW123399   3.716   0.363   3.184
 7500SOL    HW223400   3.827   0.457   3.259
 7501SOL     OW23401   6.128   2.584   5.543
 7501SOL    HW123402   6.204   2.575   5.478
 7501SOL    HW223403   6.062   2.651   5.508
 7502SOL     OW23404   4.611   0.841   4.212
 7502SOL    HW123405   4.579   0.928   4.176
 7502SOL    HW223406   4.660   0.791   4.141
 7503SOL     OW23407   1.949   5.339   1.573
 7503SOL    HW123408   2.045   5.334   1.545
 7503SOL    HW223409   1.945   5.356   1.672
 7504SOL     OW23410   6.654   6.625   4.823
 7504SOL    HW123411   6.684   6.592   4.734
 7504SOL    HW223412   6.554   6.634   4.824
 7505SOL     OW23413   0.296   6.263   4.944
 7505SOL    HW123414   0.383   6.306   4.967
 7505SOL    HW223415   0.257   6.220   5.026
 7506SOL     OW23416   3.405   1.687   3.948
 7506SOL    HW123417   3.361   1.776   3.936
 7506SOL    HW223418   3.386   1.652   4.040
 7507SOL     OW23419   6.418   4.428   5.868
 7507SOL    HW123420   6.394   4.511   5.818
 7507SOL    HW223421   6.496   4.445   5.928
 7508SOL     OW23422   2.745   5.996   0.247
 7508SOL    HW123423   2.744   5.917   0.307
 7508SOL    HW223424   2.686   6.068   0.285
 7509SOL     OW23425   6.412   5.107   2.281
 7509SOL    HW123426   6.486   5.174   2.281
 7509SOL    HW223427   6.360   5.115   2.366
 7510SOL     OW23428   3.338   3.804   2.861
 7510SOL    HW123429   3.327   3.901   2.841
 7510SOL    HW223430   3.278   3.751   2.801
 7511SOL     OW23431   4.720   6.664   4.345
 7511SOL    HW123432   4.712   6.627   4.252
 7511SOL    HW223433   4.657   6.616   4.405
 7512SOL     OW23434   3.485   1.115   0.267
 7512SOL    HW123435   3.573   1.080   0.235
 7512SOL    HW223436   3.435   1.041   0.313
 7513SOL     OW23437   1.701   2.079   2.506
 7513SOL    HW123438   1.736   2.093   2.413
 7513SOL    HW223439   1.705   2.166   2.556
 7514SOL     OW23440   1.114   5.878   1.984
 7514SOL    HW123441   1.179   5.871   1.908
 7514SOL    HW223442   1.127   5.800   2.045
 7515SOL     OW23443   0.537   4.891   5.118
 7515SOL    HW123444   0.575   4.859   5.031
 7515SOL    HW223445   0.581   4.978   5.143
 7516SOL     OW23446   1.647   6.215   5.199
 7516SOL    HW123447   1.693   6.285   5.255
 7516SOL    HW223448   1.671   6.124   5.233
 7517SOL     OW23449   0.849   1.488   6.316
 7517SOL    HW123450   0.849   1.429   6.235
 7517SOL    HW223451   0.942   1.521   6.333
 7518SOL     OW23452   4.935   2.250   3.606
 7518SOL    HW123453   4.852   2.299   3.632
 7518SOL    HW223454   4.949   2.171   3.667
 7519SOL     OW23455   3.831   6.336   4.196
 7519SOL    HW123456   3.736   6.349   4.167
 7519SOL    HW223457   3.853   6.402   4.268
 7520SOL     OW23458   1.629   1.774   0.754
 7520SOL    HW123459   1.606   1.680   0.726
 7520SOL    HW223460   1.723   1.794   0.727
 7521SOL     OW23461   3.679   2.090   5.578
 7521SOL    HW123462   3.778   2.100   5.588
 7521SOL    HW223463   3.659   2.000   5.538
 7522SOL     OW23464   1.869   6.970   3.258
 7522SOL    HW123465   1.927   0.001   3.194
 7522SOL    HW223466   1.924   6.941   3.336
 7523SOL     OW23467   5.623   1.072   0.726
 7523SOL    HW123468   5.717   1.075   0.692
 7523SOL    HW223469   5.606   1.151   0.785
 7524SOL     OW23470   0.197   3.298   4.354
 7524SOL    HW123471   0.213   3.218   4.411
 7524SOL    HW223472   0.099   3.320   4.354
 7525SOL     OW23473   4.167   5.612   6.123
 7525SOL    HW123474   4.142   5.708   6.138
 7525SOL    HW223475   4.104   5.571   6.058
 7526SOL     OW23476   2.417   3.466   1.410
 7526SOL    HW123477   2.438   3.526   1.333
 7526SOL    HW223478   2.422   3.518   1.496
 7527SOL     OW23479   4.001   4.861   3.628
 7527SOL    HW123480   4.043   4.951   3.635
 7527SOL    HW223481   3.937   4.859   3.551
 7528SOL     OW23482   6.059   3.187   6.204
 7528SOL    HW123483   6.099   3.138   6.127
 7528SOL    HW223484   5.983   3.244   6.170
 7529SOL     OW23485   5.998   3.098   4.033
 7529SOL    HW123486   6.059   3.169   3.997
 7529SOL    HW223487   6.015   3.012   3.985
 7530SOL     OW23488   0.888   2.138   1.887
 7530SOL    HW123489   0.793   2.166   1.899
 7530SOL    HW223490   0.922   2.095   1.970
 7531SOL     OW23491   4.203   2.047   4.002
 7531SOL    HW123492   4.177   1.963   4.050
 7531SOL    HW223493   4.125   2.081   3.950
 7532SOL     OW23494   4.636   5.515   6.523
 7532SOL    HW123495   4.669   5.511   6.617
 7532SOL    HW223496   4.566   5.586   6.514
 7533SOL     OW23497   4.428   4.277   1.605
 7533SOL    HW123498   4.362   4.238   1.540
 7533SOL    HW223499   4.443   4.213   1.680
 7534SOL     OW23500   3.879   6.893   4.590
 7534SOL    HW123501   3.862   6.986   4.622
 7534SOL    HW223502   3.794   6.854   4.555
 7535SOL     OW23503   0.496   6.815   4.156
 7535SOL    HW123504   0.585   6.790   4.116
 7535SOL    HW223505   0.424   6.799   4.088
 7536SOL     OW23506   5.531   5.820   4.409
 7536SOL    HW123507   5.585   5.737   4.422
 7536SOL    HW223508   5.440   5.808   4.447
 7537SOL     OW23509   2.839   6.696   3.081
 7537SOL    HW123510   2.805   6.780   3.038
 7537SOL    HW223511   2.765   6.630   3.089
 7538SOL     OW23512   0.530   3.731   0.523
 7538SOL    HW123513   0.515   3.783   0.608
 7538SOL    HW223514   0.576   3.790   0.456
 7539SOL     OW23515   0.003   0.454   4.590
 7539SOL    HW123516   6.965   0.436   4.670
 7539SOL    HW223517   0.071   0.524   4.611
 7540SOL     OW23518   6.157   5.696   3.144
 7540SOL    HW123519   6.227   5.767   3.132
 7540SOL    HW223520   6.068   5.739   3.161
 7541SOL     OW23521   2.481   4.114   5.897
 7541SOL    HW123522   2.506   4.110   5.800
 7541SOL    HW223523   2.548   4.169   5.946
 7542SOL     OW23524   6.130   5.702   5.079
 7542SOL    HW123525   6.082   5.772   5.027
 7542SOL    HW223526   6.226   5.700   5.052
 7543SOL     OW23527   2.482   0.844   6.606
 7543SOL    HW123528   2.528   0.807   6.525
 7543SOL    HW223529   2.532   0.924   6.639
 7544SOL     OW23530   6.597   1.810   4.035
 7544SOL    HW123531   6.567   1.715   4.043
 7544SOL    HW223532   6.697   1.813   4.032
 7545SOL     OW23533   1.489   5.021   5.601
 7545SOL    HW123534   1.498   4.942   5.661
 7545SOL    HW223535   1.551   5.010   5.523
 7546SOL     OW23536   2.365   2.702   1.843
 7546SOL    HW123537   2.272   2.690   1.809
 7546SOL    HW223538   2.412   2.771   1.787
 7547SOL     OW23539   4.361   0.602   1.469
 7547SOL    HW123540   4.458   0.591   1.449
 7547SOL    HW223541   4.308   0.546   1.405
 7548SOL     OW23542   3.416   2.995   6.178
 7548SOL    HW123543   3.386   2.904   6.149
 7548SOL    HW223544   3.506   3.015   6.138
 7549SOL     OW23545   5.262   1.491   4.243
 7549SOL    HW123546   5.229   1.582   4.219
 7549SOL    HW223547   5.331   1.498   4.315
 7550SOL     OW23548   2.597   4.766   4.209
 7550SOL    HW123549   2.654   4.846   4.192
 7550SOL    HW223550   2.649   4.700   4.264
 7551SOL     OW23551   6.543   2.466   6.287
 7551SOL    HW123552   6.567   2.491   6.381
 7551SOL    HW223553   6.476   2.532   6.251
 7552SOL     OW23554   2.388   6.814   5.058
 7552SOL    HW123555   2.335   6.887   5.016
 7552SOL    HW223556   2.485   6.837   5.056
 7553SOL     OW23557   5.432   6.127   5.337
 7553SOL    HW123558   5.506   6.190   5.361
 7553SOL    HW223559   5.424   6.121   5.238
 7554SOL     OW23560   4.871   0.647   0.818
 7554SOL    HW123561   4.849   0.687   0.907
 7554SOL    HW223562   4.789   0.641   0.762
 7555SOL     OW23563   4.209   5.341   4.827
 7555SOL    HW123564   4.233   5.296   4.741
 7555SOL    HW223565   4.213   5.275   4.902
 7556SOL     OW23566   0.650   6.392   1.773
 7556SOL    HW123567   0.645   6.421   1.678
 7556SOL    HW223568   0.688   6.466   1.829
 7557SOL     OW23569   5.013   0.482   0.626
 7557SOL    HW123570   5.108   0.464   0.600
 7557SOL    HW223571   5.008   0.570   0.673
 7558SOL     OW23572   1.093   1.807   3.985
 7558SOL    HW123573   1.043   1.743   4.043
 7558SOL    HW223574   1.137   1.757   3.911
 7559SOL     OW23575   2.706   1.938   5.049
 7559SOL    HW123576   2.742   1.979   5.133
 7559SOL    HW223577   2.775   1.942   4.977
 7560SOL     OW23578   1.007   1.822   6.089
 7560SOL    HW123579   0.940   1.767   6.039
 7560SOL    HW223580   1.041   1.770   6.167
 7561SOL     OW23581   6.052   1.366   5.280
 7561SOL    HW123582   6.023   1.396   5.371
 7561SOL    HW223583   6.034   1.439   5.214
 7562SOL     OW23584   2.270   5.926   3.378
 7562SOL    HW123585   2.192   5.878   3.418
 7562SOL    HW223586   2.343   5.933   3.446
 7563SOL     OW23587   3.713   5.416   2.040
 7563SOL    HW123588   3.759   5.435   1.953
 7563SOL    HW223589   3.750   5.476   2.111
 7564SOL     OW23590   3.177   1.899   5.349
 7564SOL    HW123591   3.124   1.981   5.372
 7564SOL    HW223592   3.220   1.912   5.260
 7565SOL     OW23593   6.535   4.045   6.064
 7565SOL    HW123594   6.547   4.112   5.990
 7565SOL    HW223595   6.506   4.092   6.147
 7566SOL     OW23596   4.350   4.808   1.210
 7566SOL    HW123597   4.262   4.784   1.251
 7566SOL    HW223598   4.381   4.733   1.152
 7567SOL     OW23599   0.882   0.326   4.287
 7567SOL    HW123600   0.912   0.255   4.351
 7567SOL    HW223601   0.896   0.295   4.193
 7568SOL     OW23602   5.935   5.753   2.022
 7568SOL    HW123603   6.008   5.810   1.985
 7568SOL    HW223604   5.971   5.662   2.042
 7569SOL     OW23605   4.510   3.662   0.346
 7569SOL    HW123606   4.528   3.566   0.367
 7569SOL    HW223607   4.584   3.719   0.383
 7570SOL     OW23608   0.248   3.004   2.651
 7570SOL    HW123609   0.198   3.091   2.647
 7570SOL    HW223610   0.312   3.006   2.728
 7571SOL     OW23611   5.366   1.871   2.701
 7571SOL    HW123612   5.308   1.796   2.731
 7571SOL    HW223613   5.362   1.945   2.768
 7572SOL     OW23614   4.883   0.163   3.593
 7572SOL    HW123615   4.840   0.252   3.579
 7572SOL    HW223616   4.919   0.158   3.686
 7573SOL     OW23617   4.616   6.370   5.787
 7573SOL    HW123618   4.552   6.446   5.794
 7573SOL    HW223619   4.707   6.405   5.766
 7574SOL     OW23620   1.129   2.868   3.573
 7574SOL    HW123621   1.210   2.863   3.515
 7574SOL    HW223622   1.154   2.847   3.668
 7575SOL     OW23623   0.344   6.777   2.151
 7575SOL    HW123624   0.343   6.733   2.061
 7575SOL    HW223625   0.276   6.850   2.153
 7576SOL     OW23626   4.857   2.645   0.341
 7576SOL    HW123627   4.945   2.667   0.300
 7576SOL    HW223628   4.808   2.580   0.283
 7577SOL     OW23629   0.708   0.073   0.974
 7577SOL    HW123630   0.742   0.134   1.045
 7577SOL    HW223631   0.647   0.123   0.913
 7578SOL     OW23632   6.578   6.074   3.222
 7578SOL    HW123633   6.596   6.152   3.164
 7578SOL    HW223634   6.489   6.034   3.198
 7579SOL     OW23635   0.668   1.253   0.078
 7579SOL    HW123636   0.657   1.159   0.111
 7579SOL    HW223637   0.587   1.306   0.102
 7580SOL     OW23638   2.513   5.117   3.539
 7580SOL    HW123639   2.554   5.030   3.565
 7580SOL    HW223640   2.551   5.147   3.452
 7581SOL     OW23641   6.773   0.821   2.422
 7581SOL    HW123642   6.757   0.874   2.339
 7581SOL    HW223643   6.856   0.766   2.412
 7582SOL     OW23644   2.550   1.637   6.062
 7582SOL    HW123645   2.607   1.612   6.140
 7582SOL    HW223646   2.570   1.576   5.986
 7583SOL     OW23647   5.126   2.685   3.159
 7583SOL    HW123648   5.151   2.693   3.063
 7583SOL    HW223649   5.042   2.631   3.167
 7584SOL     OW23650   0.507   0.765   3.391
 7584SOL    HW123651   0.471   0.683   3.346
 7584SOL    HW223652   0.542   0.742   3.481
 7585SOL     OW23653   1.029   1.507   6.698
 7585SOL    HW123654   1.099   1.550   6.755
 7585SOL    HW223655   1.069   1.429   6.650
 7586SOL     OW23656   1.710   0.667   2.458
 7586SOL    HW123657   1.666   0.658   2.547
 7586SOL    HW223658   1.715   0.764   2.433
 7587SOL     OW23659   4.062   0.349   0.746
 7587SOL    HW123660   4.079   0.329   0.649
 7587SOL    HW223661   4.148   0.372   0.791
 7588SOL     OW23662   2.427   2.663   4.241
 7588SOL    HW123663   2.480   2.672   4.326
 7588SOL    HW223664   2.476   2.603   4.178
 7589SOL     OW23665   0.408   0.478   2.722
 7589SOL    HW123666   0.382   0.439   2.634
 7589SOL    HW223667   0.447   0.569   2.708
 7590SOL     OW23668   6.918   0.748   0.055
 7590SOL    HW123669   6.849   0.700   0.002
 7590SOL    HW223670   6.875   0.822   0.107
 7591SOL     OW23671   3.772   3.028   4.516
 7591SOL    HW123672   3.865   3.064   4.518
 7591SOL    HW223673   3.708   3.099   4.487
 7592SOL     OW23674   6.635   6.374   4.613
 7592SOL    HW123675   6.682   6.302   4.562
 7592SOL    HW223676   6.626   6.346   4.709
 7593SOL     OW23677   0.743   1.239   5.684
 7593SOL    HW123678   0.684   1.199   5.615
 7593SOL    HW223679   0.817   1.289   5.639
 7594SOL     OW23680   0.341   4.303   0.207
 7594SOL    HW123681   0.356   4.219   0.154
 7594SOL    HW223682   0.341   4.281   0.305
 7595SOL     OW23683   1.189   3.281   6.430
 7595SOL    HW123684   1.129   3.361   6.439
 7595SOL    HW223685   1.278   3.310   6.396
 7596SOL     OW23686   3.274   1.229   5.800
 7596SOL    HW123687   3.321   1.313   5.827
 7596SOL    HW223688   3.311   1.152   5.852
 7597SOL     OW23689   1.495   4.345   1.771
 7597SOL    HW123690   1.463   4.283   1.700
 7597SOL    HW223691   1.471   4.308   1.861
 7598SOL     OW23692   6.315   0.837   2.428
 7598SOL    HW123693   6.312   0.879   2.519
 7598SOL    HW223694   6.378   0.888   2.369
 7599SOL     OW23695   3.405   3.816   1.087
 7599SOL    HW123696   3.358   3.849   1.169
 7599SOL    HW223697   3.353   3.741   1.047
 7600SOL     OW23698   1.426   6.611   4.367
 7600SOL    HW123699   1.431   6.657   4.279
 7600SOL    HW223700   1.516   6.614   4.411
 7601SOL     OW23701   3.237   6.738   2.132
 7601SOL    HW123702   3.266   6.645   2.156
 7601SOL    HW223703   3.311   6.802   2.153
 7602SOL     OW23704   0.105   2.078   0.303
 7602SOL    HW123705   0.175   2.025   0.256
 7602SOL    HW223706   0.122   2.176   0.288
 7603SOL     OW23707   3.773   6.665   6.019
 7603SOL    HW123708   3.727   6.682   6.106
 7603SOL    HW223709   3.776   6.567   6.001
 7604SOL     OW23710   0.821   2.227   5.111
 7604SOL    HW123711   0.851   2.150   5.167
 7604SOL    HW223712   0.756   2.195   5.042
 7605SOL     OW23713   2.344   6.333   6.954
 7605SOL    HW123714   2.258   6.381   6.938
 7605SOL    HW223715   2.417   6.376   6.902
 7606SOL     OW23716   6.510   1.248   2.926
 7606SOL    HW123717   6.554   1.242   2.836
 7606SOL    HW223718   6.532   1.167   2.980
 7607SOL     OW23719   1.582   6.337   5.886
 7607SOL    HW123720   1.603   6.384   5.800
 7607SOL    HW223721   1.500   6.377   5.926
 7608SOL     OW23722   5.602   2.160   6.519
 7608SOL    HW123723   5.650   2.085   6.563
 7608SOL    HW223724   5.541   2.204   6.585
 7609SOL     OW23725   1.569   1.830   4.931
 7609SOL    HW123726   1.570   1.914   4.985
 7609SOL    HW223727   1.475   1.808   4.906
 7610SOL     OW23728   4.003   5.258   4.430
 7610SOL    HW123729   3.952   5.223   4.509
 7610SOL    HW223730   4.067   5.188   4.398
 7611SOL     OW23731   4.890   3.002   0.206
 7611SOL    HW123732   4.970   3.060   0.188
 7611SOL    HW223733   4.814   3.060   0.235
 7612SOL     OW23734   3.876   1.780   3.572
 7612SOL    HW123735   3.838   1.872   3.563
 7612SOL    HW223736   3.806   1.719   3.609
 7613SOL     OW23737   0.715   1.429   0.893
 7613SOL    HW123738   0.645   1.496   0.917
 7613SOL    HW223739   0.741   1.377   0.974
 7614SOL     OW23740   5.331   3.640   0.381
 7614SOL    HW123741   5.236   3.628   0.411
 7614SOL    HW223742   5.335   3.632   0.281
 7615SOL     OW23743   5.776   3.548   5.064
 7615SOL    HW123744   5.721   3.478   5.019
 7615SOL    HW223745   5.725   3.585   5.142
 7616SOL     OW23746   5.866   0.262   3.423
 7616SOL    HW123747   5.796   0.230   3.359
 7616SOL    HW223748   5.940   0.194   3.428
 7617SOL     OW23749   6.418   4.129   3.520
 7617SOL    HW123750   6.409   4.110   3.617
 7617SOL    HW223751   6.349   4.196   3.493
 7618SOL     OW23752   2.249   2.947   0.434
 7618SOL    HW123753   2.238   2.924   0.338
 7618SOL    HW223754   2.232   2.865   0.490
 7619SOL     OW23755   1.371   1.531   4.518
 7619SOL    HW123756   1.361   1.628   4.496
 7619SOL    HW223757   1.452   1.518   4.575
 7620SOL     OW23758   4.078   4.275   0.653
 7620SOL    HW123759   4.085   4.351   0.588
 7620SOL    HW223760   4.018   4.301   0.728
 7621SOL     OW23761   6.147   4.253   7.008
 7621SOL    HW123762   6.072   4.319   7.004
 7621SOL    HW223763   6.175   4.240   0.084
 7622SOL     OW23764   3.278   3.912   1.328
 7622SOL    HW123765   3.366   3.949   1.361
 7622SOL    HW223766   3.206   3.935   1.393
 7623SOL     OW23767   5.085   4.381   1.318
 7623SOL    HW123768   4.996   4.339   1.334
 7623SOL    HW223769   5.074   4.479   1.302
 7624SOL     OW23770   1.161   3.408   2.444
 7624SOL    HW123771   1.221   3.440   2.371
 7624SOL    HW223772   1.164   3.308   2.448
 7625SOL     OW23773   5.402   0.737   1.428
 7625SOL    HW123774   5.358   0.765   1.513
 7625SOL    HW223775   5.496   0.772   1.427
 7626SOL     OW23776   4.315   0.644   6.050
 7626SOL    HW123777   4.243   0.574   6.050
 7626SOL    HW223778   4.370   0.635   6.133
 7627SOL     OW23779   3.943   2.610   6.580
 7627SOL    HW123780   3.893   2.688   6.544
 7627SOL    HW223781   3.945   2.537   6.511
 7628SOL     OW23782   3.371   2.760   0.213
 7628SOL    HW123783   3.325   2.848   0.199
 7628SOL    HW223784   3.320   2.706   0.280
 7629SOL     OW23785   6.057   2.454   2.846
 7629SOL    HW123786   5.962   2.439   2.875
 7629SOL    HW223787   6.098   2.524   2.904
 7630SOL     OW23788   0.699   6.610   4.750
 7630SOL    HW123789   0.730   6.583   4.841
 7630SOL    HW223790   0.732   6.545   4.682
 7631SOL     OW23791   0.895   0.525   5.865
 7631SOL    HW123792   0.799   0.502   5.879
 7631SOL    HW223793   0.919   0.605   5.920
 7632SOL     OW23794   4.230   5.949   0.132
 7632SOL    HW123795   4.320   5.941   0.089
 7632SOL    HW223796   4.224   5.885   0.209
 7633SOL     OW23797   6.725   0.954   1.263
 7633SOL    HW123798   6.732   0.892   1.185
 7633SOL    HW223799   6.671   1.034   1.237
 7634SOL     OW23800   6.765   2.748   6.870
 7634SOL    HW123801   6.682   2.692   6.860
 7634SOL    HW223802   6.836   2.694   6.914
 7635SOL     OW23803   2.212   3.572   5.752
 7635SOL    HW123804   2.281   3.644   5.762
 7635SOL    HW223805   2.177   3.571   5.658
 7636SOL     OW23806   6.931   3.876   4.282
 7636SOL    HW123807   6.902   3.781   4.267
 7636SOL    HW223808   0.008   3.886   4.252
 7637SOL     OW23809   1.378   5.315   4.591
 7637SOL    HW123810   1.424   5.389   4.639
 7637SOL    HW223811   1.345   5.348   4.503
 7638SOL     OW23812   0.411   6.193   1.108
 7638SOL    HW123813   0.408   6.185   1.207
 7638SOL    HW223814   0.481   6.260   1.082
 7639SOL     OW23815   1.343   0.972   0.216
 7639SOL    HW123816   1.414   0.912   0.250
 7639SOL    HW223817   1.273   0.984   0.287
 7640SOL     OW23818   3.109   1.200   0.760
 7640SOL    HW123819   3.054   1.274   0.799
 7640SOL    HW223820   3.105   1.121   0.821
 7641SOL     OW23821   0.171   3.800   3.623
 7641SOL    HW123822   0.139   3.895   3.620
 7641SOL    HW223823   0.271   3.799   3.612
 7642SOL     OW23824   5.817   1.162   3.043
 7642SOL    HW123825   5.756   1.216   2.986
 7642SOL    HW223826   5.767   1.083   3.080
 7643SOL     OW23827   5.152   3.646   3.835
 7643SOL    HW123828   5.147   3.616   3.930
 7643SOL    HW223829   5.061   3.643   3.794
 7644SOL     OW23830   5.400   3.853   1.532
 7644SOL    HW123831   5.430   3.868   1.626
 7644SOL    HW223832   5.473   3.882   1.469
 7645SOL     OW23833   3.571   4.961   6.640
 7645SOL    HW123834   3.535   5.040   6.590
 7645SOL    HW223835   3.494   4.909   6.678
 7646SOL     OW23836   6.045   1.498   0.398
 7646SOL    HW123837   6.106   1.571   0.369
 7646SOL    HW223838   5.975   1.483   0.328
 7647SOL     OW23839   0.119   2.284   4.214
 7647SOL    HW123840   0.137   2.252   4.307
 7647SOL    HW223841   0.125   2.207   4.150
 7648SOL     OW23842   2.554   2.125   1.818
 7648SOL    HW123843   2.653   2.129   1.823
 7648SOL    HW223844   2.518   2.074   1.896
 7649SOL     OW23845   3.730   0.885   6.343
 7649SOL    HW123846   3.792   0.842   6.409
 7649SOL    HW223847   3.743   0.984   6.346
 7650SOL     OW23848   4.016   2.690   0.703
 7650SOL    HW123849   4.026   2.604   0.753
 7650SOL    HW223850   3.928   2.732   0.726
 7651SOL     OW23851   3.303   4.807   6.401
 7651SOL    HW123852   3.209   4.819   6.435
 7651SOL    HW223853   3.356   4.890   6.420
 7652SOL     OW23854   1.561   0.600   4.052
 7652SOL    HW123855   1.466   0.589   4.022
 7652SOL    HW223856   1.623   0.581   3.976
 7653SOL     OW23857   1.721   0.848   6.410
 7653SOL    HW123858   1.664   0.909   6.355
 7653SOL    HW223859   1.663   0.781   6.457
 7654SOL     OW23860   5.990   1.951   6.193
 7654SOL    HW123861   6.089   1.939   6.186
 7654SOL    HW223862   5.970   2.028   6.253
 7655SOL     OW23863   3.496   1.368   3.299
 7655SOL    HW123864   3.437   1.294   3.333
 7655SOL    HW223865   3.440   1.437   3.254
 7656SOL     OW23866   6.710   3.706   6.860
 7656SOL    HW123867   6.720   3.613   6.824
 7656SOL    HW223868   6.636   3.753   6.812
 7657SOL     OW23869   1.224   4.408   4.661
 7657SOL    HW123870   1.298   4.342   4.677
 7657SOL    HW223871   1.166   4.412   4.742
 7658SOL     OW23872   2.365   0.727   1.112
 7658SOL    HW123873   2.416   0.742   1.027
 7658SOL    HW223874   2.336   0.814   1.150
 7659SOL     OW23875   4.513   3.928   5.551
 7659SOL    HW123876   4.473   3.836   5.542
 7659SOL    HW223877   4.612   3.922   5.539
 7660SOL     OW23878   6.768   5.207   5.437
 7660SOL    HW123879   6.672   5.187   5.415
 7660SOL    HW223880   6.823   5.125   5.422
 7661SOL     OW23881   3.958   1.424   5.525
 7661SOL    HW123882   3.975   1.342   5.580
 7661SOL    HW223883   3.913   1.399   5.440
 7662SOL     OW23884   6.743   6.243   1.126
 7662SOL    HW123885   6.832   6.202   1.148
 7662SOL    HW223886   6.677   6.220   1.197
 7663SOL     OW23887   0.389   5.460   5.138
 7663SOL    HW123888   0.488   5.475   5.134
 7663SOL    HW223889   0.364   5.388   5.073
 7664SOL     OW23890   3.665   2.098   2.290
 7664SOL    HW123891   3.649   2.151   2.207
 7664SOL    HW223892   3.747   2.132   2.336
 7665SOL     OW23893   3.624   0.285   5.697
 7665SOL    HW123894   3.679   0.248   5.622
 7665SOL    HW223895   3.561   0.354   5.662
 7666SOL     OW23896   5.026   4.265   3.294
 7666SOL    HW123897   5.070   4.175   3.281
 7666SOL    HW223898   5.026   4.288   3.391
 7667SOL     OW23899   4.079   5.963   2.695
 7667SOL    HW123900   4.102   5.947   2.599
 7667SOL    HW223901   4.013   6.038   2.702
 7668SOL     OW23902   2.387   5.779   0.719
 7668SOL    HW123903   2.402   5.780   0.620
 7668SOL    HW223904   2.363   5.686   0.748
 7669SOL     OW23905   2.149   1.161   6.457
 7669SOL    HW123906   2.197   1.170   6.545
 7669SOL    HW223907   2.125   1.065   6.442
 7670SOL     OW23908   0.803   0.217   1.209
 7670SOL    HW123909   0.874   0.203   1.278
 7670SOL    HW223910   0.735   0.281   1.245
 7671SOL     OW23911   3.479   0.074   0.609
 7671SOL    HW123912   3.536   0.138   0.557
 7671SOL    HW223913   3.394   0.056   0.559
 7672SOL     OW23914   4.981   4.482   2.302
 7672SOL    HW123915   5.034   4.545   2.358
 7672SOL    HW223916   5.008   4.388   2.323
 7673SOL     OW23917   1.710   6.683   4.492
 7673SOL    HW123918   1.737   6.589   4.473
 7673SOL    HW223919   1.692   6.692   4.590
 7674SOL     OW23920   5.020   6.059   4.731
 7674SOL    HW123921   5.062   6.034   4.819
 7674SOL    HW223922   5.032   5.984   4.666
 7675SOL     OW23923   4.853   6.232   3.156
 7675SOL    HW123924   4.754   6.236   3.143
 7675SOL    HW223925   4.894   6.180   3.080
 7676SOL     OW23926   3.764   2.970   5.454
 7676SOL    HW123927   3.715   3.030   5.518
 7676SOL    HW223928   3.721   2.976   5.363
 7677SOL     OW23929   6.496   4.736   0.232
 7677SOL    HW123930   6.511   4.805   0.161
 7677SOL    HW223931   6.478   4.647   0.190
 7678SOL     OW23932   2.204   1.148   5.271
 7678SOL    HW123933   2.299   1.180   5.271
 7678SOL    HW223934   2.153   1.196   5.342
 7679SOL     OW23935   3.534   6.064   4.951
 7679SOL    HW123936   3.526   5.966   4.972
 7679SOL    HW223937   3.580   6.075   4.863
 7680SOL     OW23938   1.985   6.927   4.194
 7680SOL    HW123939   2.053   6.998   4.213
 7680SOL    HW223940   2.000   6.850   4.256
 7681SOL     OW23941   2.629   3.286   5.952
 7681SOL    HW123942   2.627   3.283   6.052
 7681SOL    HW223943   2.537   3.301   5.917
 7682SOL     OW23944   3.335   0.783   2.747
 7682SOL    HW123945   3.272   0.719   2.703
 7682SOL    HW223946   3.370   0.848   2.678
 7683SOL     OW23947   0.409   5.020   4.508
 7683SOL    HW123948   0.328   5.029   4.449
 7683SOL    HW223949   0.481   4.972   4.458
 7684SOL     OW23950   4.818   3.313   1.360
 7684SOL    HW123951   4.766   3.303   1.445
 7684SOL    HW223952   4.888   3.242   1.355
 7685SOL     OW23953   2.801   0.236   0.752
 7685SOL    HW123954   2.712   0.276   0.727
 7685SOL    HW223955   2.831   0.174   0.680
 7686SOL     OW23956   6.514   6.809   5.112
 7686SOL    HW123957   6.549   6.898   5.082
 7686SOL    HW223958   6.442   6.779   5.051
 7687SOL     OW23959   5.442   4.304   6.177
 7687SOL    HW123960   5.468   4.328   6.083
 7687SOL    HW223961   5.390   4.219   6.177
 7688SOL     OW23962   6.941   4.122   6.277
 7688SOL    HW123963   0.008   4.083   6.244
 7688SOL    HW223964   6.961   4.194   6.343
 7689SOL     OW23965   4.381   0.870   1.459
 7689SOL    HW123966   4.355   0.773   1.452
 7689SOL    HW223967   4.454   0.880   1.527
 7690SOL     OW23968   5.711   5.583   1.889
 7690SOL    HW123969   5.621   5.590   1.932
 7690SOL    HW223970   5.757   5.672   1.894
 7691SOL     OW23971   4.862   3.278   3.632
 7691SOL    HW123972   4.838   3.212   3.561
 7691SOL    HW223973   4.956   3.310   3.615
 7692SOL     OW23974   3.054   7.007   2.481
 7692SOL    HW123975   3.051   6.914   2.445
 7692SOL    HW223976   3.093   0.049   2.412
 7693SOL     OW23977   2.663   0.666   1.655
 7693SOL    HW123978   2.635   0.666   1.750
 7693SOL    HW223979   2.587   0.695   1.597
 7694SOL     OW23980   4.697   1.305   5.662
 7694SOL    HW123981   4.608   1.344   5.685
 7694SOL    HW223982   4.770   1.359   5.704
 7695SOL     OW23983   4.552   0.064   3.699
 7695SOL    HW123984   4.513   0.080   3.608
 7695SOL    HW223985   4.604   6.998   3.697
 7696SOL     OW23986   1.984   3.035   5.846
 7696SOL    HW123987   1.903   2.988   5.881
 7696SOL    HW223988   2.042   2.969   5.797
 7697SOL     OW23989   4.959   0.278   3.297
 7697SOL    HW123990   5.014   0.333   3.360
 7697SOL    HW223991   4.990   0.293   3.203
 7698SOL     OW23992   6.056   3.104   1.048
 7698SOL    HW123993   5.959   3.118   1.027
 7698SOL    HW223994   6.064   3.051   1.133
 7699SOL     OW23995   4.922   5.948   5.794
 7699SOL    HW123996   4.827   5.924   5.814
 7699SOL    HW223997   4.962   5.881   5.731
 7700SOL     OW23998   5.093   6.257   2.280
 7700SOL    HW123999   5.007   6.230   2.324
 7700SOL    HW224000   5.143   6.175   2.252
 7701SOL     OW24001   1.323   2.467   6.070
 7701SOL    HW124002   1.273   2.500   5.991
 7701SOL    HW224003   1.402   2.526   6.087
 7702SOL     OW24004   4.686   0.083   4.448
 7702SOL    HW124005   4.785   0.077   4.443
 7702SOL    HW224006   4.658   0.179   4.447
 7703SOL     OW24007   6.942   0.079   5.666
 7703SOL    HW124008   6.934   0.137   5.746
 7703SOL    HW224009   6.863   0.018   5.661
 7704SOL     OW24010   1.101   1.856   4.773
 7704SOL    HW124011   1.052   1.782   4.728
 7704SOL    HW224012   1.041   1.899   4.841
 7705SOL     OW24013   1.274   5.140   6.891
 7705SOL    HW124014   1.338   5.157   6.815
 7705SOL    HW224015   1.271   5.220   6.951
 7706SOL     OW24016   3.482   2.956   2.523
 7706SOL    HW124017   3.539   2.893   2.471
 7706SOL    HW224018   3.422   2.904   2.584
 7707SOL     OW24019   0.088   4.044   0.118
 7707SOL    HW124020   0.139   4.011   0.039
 7707SOL    HW224021   0.144   4.036   0.201
 7708SOL     OW24022   2.122   0.865   4.099
 7708SOL    HW124023   2.151   0.898   4.009
 7708SOL    HW224024   2.053   0.926   4.136
 7709SOL     OW24025   0.164   4.962   1.358
 7709SOL    HW124026   0.189   4.922   1.270
 7709SOL    HW224027   0.126   4.892   1.418
 7710SOL     OW24028   6.916   2.834   0.970
 7710SOL    HW124029   6.930   2.811   1.067
 7710SOL    HW224030   7.003   2.826   0.921
 7711SOL     OW24031   0.134   4.825   4.692
 7711SOL    HW124032   0.067   4.758   4.722
 7711SOL    HW224033   0.216   4.818   4.748
 7712SOL     OW24034   0.142   5.618   5.539
 7712SOL    HW124035   0.142   5.550   5.466
 7712SOL    HW224036   0.212   5.686   5.522
 7713SOL     OW24037   1.355   4.206   0.042
 7713SOL    HW124038   1.418   4.278   0.013
 7713SOL    HW224039   1.338   4.144   6.983
 7714SOL     OW24040   6.725   1.825   4.863
 7714SOL    HW124041   6.725   1.736   4.909
 7714SOL    HW224042   6.663   1.821   4.785
 7715SOL     OW24043   3.901   3.425   5.223
 7715SOL    HW124044   3.855   3.411   5.135
 7715SOL    HW224045   3.873   3.513   5.262
 7716SOL     OW24046   0.838   6.411   6.190
 7716SOL    HW124047   0.769   6.443   6.255
 7716SOL    HW224048   0.894   6.489   6.160
 7717SOL     OW24049   7.014   2.355   6.560
 7717SOL    HW124050   0.076   2.324   6.509
 7717SOL    HW224051   6.995   2.289   6.633
 7718SOL     OW24052   0.858   3.642   3.002
 7718SOL    HW124053   0.879   3.730   3.044
 7718SOL    HW224054   0.925   3.573   3.032
 7719SOL     OW24055   1.665   5.666   4.853
 7719SOL    HW124056   1.591   5.625   4.906
 7719SOL    HW224057   1.716   5.594   4.806
 7720SOL     OW24058   4.829   1.299   6.538
 7720SOL    HW124059   4.866   1.367   6.474
 7720SOL    HW224060   4.903   1.240   6.571
 7721SOL     OW24061   0.091   6.979   2.494
 7721SOL    HW124062   0.091   0.044   2.550
 7721SOL    HW224063   7.018   6.963   2.460
 7722SOL     OW24064   0.956   5.637   3.664
 7722SOL    HW124065   1.043   5.623   3.711
 7722SOL    HW224066   0.881   5.630   3.730
 7723SOL     OW24067   4.890   3.603   6.946
 7723SOL    HW124068   4.902   3.504   6.956
 7723SOL    HW224069   4.949   3.651   7.011
 7724SOL     OW24070   2.045   3.585   1.171
 7724SOL    HW124071   2.103   3.665   1.185
 7724SOL    HW224072   1.997   3.563   1.256
 7725SOL     OW24073   5.456   2.782   4.280
 7725SOL    HW124074   5.431   2.777   4.376
 7725SOL    HW224075   5.554   2.760   4.271
 7726SOL     OW24076   1.349   2.930   6.075
 7726SOL    HW124077   1.402   3.007   6.112
 7726SOL    HW224078   1.335   2.943   5.977
 7727SOL     OW24079   4.167   0.816   2.019
 7727SOL    HW124080   4.170   0.719   2.043
 7727SOL    HW224081   4.225   0.832   1.940
 7728SOL     OW24082   2.036   3.789   4.716
 7728SOL    HW124083   1.963   3.799   4.784
 7728SOL    HW224084   2.090   3.872   4.713
 7729SOL     OW24085   6.432   1.487   3.092
 7729SOL    HW124086   6.446   1.389   3.077
 7729SOL    HW224087   6.518   1.528   3.123
 7730SOL     OW24088   6.677   4.561   4.919
 7730SOL    HW124089   6.685   4.609   5.006
 7730SOL    HW224090   6.668   4.627   4.845
 7731SOL     OW24091   6.840   6.717   6.324
 7731SOL    HW124092   6.799   6.651   6.262
 7731SOL    HW224093   6.923   6.755   6.282
 7732SOL     OW24094   3.804   0.148   6.596
 7732SOL    HW124095   3.753   0.164   6.512
 7732SOL    HW224096   3.776   0.214   6.666
 7733SOL     OW24097   6.544   5.446   1.377
 7733SOL    HW124098   6.553   5.545   1.393
 7733SOL    HW224099   6.606   5.397   1.437
 7734SOL     OW24100   3.516   3.770   4.049
 7734SOL    HW124101   3.513   3.821   3.964
 7734SOL    HW224102   3.479   3.678   4.034
 7735SOL     OW24103   0.636   6.612   1.151
 7735SOL    HW124104   0.552   6.615   1.205
 7735SOL    HW224105   0.618   6.646   1.059
 7736SOL     OW24106   1.203   2.948   6.759
 7736SOL    HW124107   1.206   2.956   6.660
 7736SOL    HW224108   1.139   3.014   6.797
 7737SOL     OW24109   4.458   4.177   0.160
 7737SOL    HW124110   4.516   4.200   0.082
 7737SOL    HW224111   4.365   4.209   0.143
 7738SOL     OW24112   2.144   0.445   5.224
 7738SOL    HW124113   2.119   0.512   5.154
 7738SOL    HW224114   2.243   0.438   5.229
 7739SOL     OW24115   1.928   1.829   0.754
 7739SOL    HW124116   1.980   1.846   0.837
 7739SOL    HW224117   1.898   1.916   0.715
 7740SOL     OW24118   2.103   0.641   4.857
 7740SOL    HW124119   2.079   0.546   4.835
 7740SOL    HW224120   2.021   0.698   4.854
 7741SOL     OW24121   0.870   4.794   6.042
 7741SOL    HW124122   0.945   4.827   6.099
 7741SOL    HW224123   0.906   4.755   5.958
 7742SOL     OW24124   4.718   2.068   3.977
 7742SOL    HW124125   4.663   1.984   3.974
 7742SOL    HW224126   4.658   2.147   3.965
 7743SOL     OW24127   4.139   2.144   5.852
 7743SOL    HW124128   4.212   2.098   5.902
 7743SOL    HW224129   4.133   2.239   5.883
 7744SOL     OW24130   1.221   6.900   4.840
 7744SOL    HW124131   1.247   6.976   4.781
 7744SOL    HW224132   1.300   6.875   4.897
 7745SOL     OW24133   3.290   6.827   0.890
 7745SOL    HW124134   3.326   6.745   0.846
 7745SOL    HW224135   3.191   6.818   0.900
 7746SOL     OW24136   0.864   5.625   1.244
 7746SOL    HW124137   0.875   5.672   1.156
 7746SOL    HW224138   0.768   5.601   1.257
 7747SOL     OW24139   0.487   5.741   1.050
 7747SOL    HW124140   0.481   5.641   1.049
 7747SOL    HW224141   0.566   5.770   0.995
 7748SOL     OW24142   4.479   2.269   6.201
 7748SOL    HW124143   4.527   2.189   6.238
 7748SOL    HW224144   4.453   2.329   6.276
 7749SOL     OW24145   3.759   3.922   3.969
 7749SOL    HW124146   3.788   3.942   3.876
 7749SOL    HW224147   3.678   3.864   3.967
 7750SOL     OW24148   5.310   4.389   5.605
 7750SOL    HW124149   5.275   4.482   5.602
 7750SOL    HW224150   5.277   4.344   5.689
 7751SOL     OW24151   0.377   1.628   4.391
 7751SOL    HW124152   0.288   1.618   4.434
 7751SOL    HW224153   0.427   1.541   4.397
 7752SOL     OW24154   6.203   5.213   5.381
 7752SOL    HW124155   6.248   5.283   5.326
 7752SOL    HW224156   6.269   5.172   5.444
 7753SOL     OW24157   2.929   0.961   5.015
 7753SOL    HW124158   2.867   1.030   4.976
 7753SOL    HW224159   2.875   0.895   5.068
 7754SOL     OW24160   6.493   0.615   1.673
 7754SOL    HW124161   6.426   0.564   1.727
 7754SOL    HW224162   6.502   0.708   1.709
 7755SOL     OW24163   1.220   5.931   5.353
 7755SOL    HW124164   1.240   5.945   5.450
 7755SOL    HW224165   1.196   5.835   5.338
 7756SOL     OW24166   3.817   5.354   2.809
 7756SOL    HW124167   3.850   5.411   2.884
 7756SOL    HW224168   3.811   5.259   2.838
 7757SOL     OW24169   4.103   6.152   6.016
 7757SOL    HW124170   4.113   6.096   5.934
 7757SOL    HW224171   4.011   6.143   6.052
 7758SOL     OW24172   3.173   2.547   6.246
 7758SOL    HW124173   3.111   2.489   6.193
 7758SOL    HW224174   3.146   2.546   6.342
 7759SOL     OW24175   2.282   0.657   5.054
 7759SOL    HW124176   2.222   0.647   4.975
 7759SOL    HW224177   2.261   0.743   5.101
 7760SOL     OW24178   5.107   1.710   3.406
 7760SOL    HW124179   5.153   1.628   3.371
 7760SOL    HW224180   5.175   1.776   3.436
 7761SOL     OW24181   3.901   6.828   6.611
 7761SOL    HW124182   3.855   6.881   6.540
 7761SOL    HW224183   3.847   6.831   6.695
 7762SOL     OW24184   2.460   1.889   1.045
 7762SOL    HW124185   2.440   1.973   0.994
 7762SOL    HW224186   2.464   1.911   1.143
 7763SOL     OW24187   2.099   2.174   0.893
 7763SOL    HW124188   2.139   2.264   0.877
 7763SOL    HW224189   2.170   2.105   0.892
 7764SOL     OW24190   3.921   3.293   2.903
 7764SOL    HW124191   3.945   3.207   2.860
 7764SOL    HW224192   3.826   3.315   2.884
 7765SOL     OW24193   6.982   2.138   2.398
 7765SOL    HW124194   7.005   2.052   2.443
 7765SOL    HW224195   0.001   2.138   2.305
 7766SOL     OW24196   0.164   3.624   0.158
 7766SOL    HW124197   0.075   3.641   0.116
 7766SOL    HW224198   0.228   3.696   0.131
 7767SOL     OW24199   5.729   4.311   5.052
 7767SOL    HW124200   5.654   4.375   5.033
 7767SOL    HW224201   5.808   4.361   5.087
 7768SOL     OW24202   4.069   5.493   1.925
 7768SOL    HW124203   4.051   5.463   1.831
 7768SOL    HW224204   4.120   5.423   1.973
 7769SOL     OW24205   6.099   1.728   1.859
 7769SOL    HW124206   6.187   1.689   1.887
 7769SOL    HW224207   6.113   1.822   1.827
 7770SOL     OW24208   3.648   5.731   1.703
 7770SOL    HW124209   3.617   5.691   1.617
 7770SOL    HW224210   3.707   5.810   1.684
 7771SOL     OW24211   2.210   1.432   4.936
 7771SOL    HW124212   2.216   1.510   4.999
 7771SOL    HW224213   2.143   1.451   4.865
 7772SOL     OW24214   5.440   1.180   4.882
 7772SOL    HW124215   5.459   1.088   4.914
 7772SOL    HW224216   5.373   1.224   4.942
 7773SOL     OW24217   3.751   4.527   5.429
 7773SOL    HW124218   3.850   4.537   5.424
 7773SOL    HW224219   3.708   4.586   5.360
 7774SOL     OW24220   4.561   2.062   6.343
 7774SOL    HW124221   4.656   2.033   6.330
 7774SOL    HW224222   4.518   2.004   6.414
 7775SOL     OW24223   3.175   0.066   2.087
 7775SOL    HW124224   3.225   7.018   2.143
 7775SOL    HW224225   3.240   0.116   2.029
 7776SOL     OW24226   3.629   3.592   0.630
 7776SOL    HW124227   3.638   3.625   0.724
 7776SOL    HW224228   3.616   3.670   0.569
 7777SOL     OW24229   1.544   0.594   6.799
 7777SOL    HW124230   1.569   0.501   6.824
 7777SOL    HW224231   1.567   0.657   6.873
 7778SOL     OW24232   5.628   1.108   1.037
 7778SOL    HW124233   5.540   1.137   1.000
 7778SOL    HW224234   5.685   1.188   1.053
 7779SOL     OW24235   3.294   3.326   6.973
 7779SOL    HW124236   3.328   3.349   6.881
 7779SOL    HW224237   3.260   3.232   6.973
 7780SOL     OW24238   1.190   0.336   4.425
 7780SOL    HW124239   1.194   0.378   4.515
 7780SOL    HW224240   1.119   0.266   4.425
 7781SOL     OW24241   1.704   4.965   5.137
 7781SOL    HW124242   1.750   4.882   5.108
 7781SOL    HW224243   1.758   5.045   5.110
 7782SOL     OW24244   3.445   4.488   6.664
 7782SOL    HW124245   3.414   4.398   6.694
 7782SOL    HW224246   3.489   4.535   6.740
 7783SOL     OW24247   3.074   5.154   6.216
 7783SOL    HW124248   2.975   5.141   6.209
 7783SOL    HW224249   3.110   5.187   6.130
 7784SOL     OW24250   0.118   2.974   6.988
 7784SOL    HW124251   0.166   2.981   0.057
 7784SOL    HW224252   0.021   2.992   7.002
 7785SOL     OW24253   2.376   6.413   4.403
 7785SOL    HW124254   2.391   6.316   4.390
 7785SOL    HW224255   2.443   6.449   4.468
 7786SOL     OW24256   3.086   4.017   4.227
 7786SOL    HW124257   3.087   3.981   4.320
 7786SOL    HW224258   3.018   4.090   4.220
 7787SOL     OW24259   2.744   2.329   5.515
 7787SOL    HW124260   2.706   2.418   5.540
 7787SOL    HW224261   2.838   2.341   5.483
 7788SOL     OW24262   0.499   1.374   0.453
 7788SOL    HW124263   0.585   1.351   0.406
 7788SOL    HW224264   0.423   1.368   0.388
 7789SOL     OW24265   1.937   7.010   1.436
 7789SOL    HW124266   2.017   6.950   1.437
 7789SOL    HW224267   1.966   0.084   1.411
 7790SOL     OW24268   6.161   3.842   2.563
 7790SOL    HW124269   6.174   3.926   2.616
 7790SOL    HW224270   6.249   3.811   2.528
 7791SOL     OW24271   1.459   4.872   4.729
 7791SOL    HW124272   1.496   4.876   4.636
 7791SOL    HW224273   1.525   4.912   4.793
 7792SOL     OW24274   2.700   5.534   5.839
 7792SOL    HW124275   2.793   5.570   5.836
 7792SOL    HW224276   2.697   5.446   5.793
 7793SOL     OW24277   0.806   0.519   6.634
 7793SOL    HW124278   0.849   0.582   6.699
 7793SOL    HW224279   0.751   0.452   6.684
 7794SOL     OW24280   5.229   5.651   3.732
 7794SOL    HW124281   5.266   5.604   3.812
 7794SOL    HW224282   5.302   5.703   3.687
 7795SOL     OW24283   2.025   5.096   5.311
 7795SOL    HW124284   2.009   5.175   5.370
 7795SOL    HW224285   2.003   5.120   5.217
 7796SOL     OW24286   4.087   3.191   3.579
 7796SOL    HW124287   4.029   3.110   3.590
 7796SOL    HW224288   4.118   3.223   3.669
 7797SOL     OW24289   1.136   0.139   2.686
 7797SOL    HW124290   1.101   0.224   2.646
 7797SOL    HW224291   1.060   0.081   2.713
 7798SOL     OW24292   4.401   5.574   6.748
 7798SOL    HW124293   4.399   5.546   6.652
 7798SOL    HW224294   4.359   5.503   6.804
 7799SOL     OW24295   6.132   4.850   1.389
 7799SOL    HW124296   6.063   4.849   1.462
 7799SOL    HW224297   6.171   4.758   1.379
 7800SOL     OW24298   0.857   6.104   2.247
 7800SOL    HW124299   0.814   6.192   2.229
 7800SOL    HW224300   0.849   6.082   2.345
 7801SOL     OW24301   3.843   2.207   6.582
 7801SOL    HW124302   3.772   2.197   6.651
 7801SOL    HW224303   3.928   2.166   6.614
 7802SOL     OW24304   5.833   1.972   1.255
 7802SOL    HW124305   5.846   1.877   1.227
 7802SOL    HW224306   5.740   2.001   1.232
 7803SOL     OW24307   3.558   4.128   5.454
 7803SOL    HW124308   3.654   4.107   5.474
 7803SOL    HW224309   3.510   4.146   5.540
 7804SOL     OW24310   4.962   1.514   6.438
 7804SOL    HW124311   4.897   1.589   6.426
 7804SOL    HW224312   5.012   1.499   6.352
 7805SOL     OW24313   5.125   4.061   1.935
 7805SOL    HW124314   5.176   4.144   1.957
 7805SOL    HW224315   5.038   4.061   1.984
 7806SOL     OW24316   4.284   2.929   6.691
 7806SOL    HW124317   4.352   2.948   6.620
 7806SOL    HW224318   4.326   2.943   6.781
 7807SOL     OW24319   0.271   3.883   6.643
 7807SOL    HW124320   0.273   3.785   6.662
 7807SOL    HW224321   0.179   3.910   6.615
 7808SOL     OW24322   0.657   1.550   4.836
 7808SOL    HW124323   0.680   1.644   4.862
 7808SOL    HW224324   0.684   1.534   4.742
 7809SOL     OW24325   1.659   5.670   5.593
 7809SOL    HW124326   1.679   5.767   5.600
 7809SOL    HW224327   1.682   5.637   5.502
 7810SOL     OW24328   2.652   1.341   0.068
 7810SOL    HW124329   2.560   1.308   0.046
 7810SOL    HW224330   2.708   1.339   7.003
 7811SOL     OW24331   0.226   4.439   4.324
 7811SOL    HW124332   0.225   4.497   4.405
 7811SOL    HW224333   0.190   4.491   4.246
 7812SOL     OW24334   1.236   1.163   3.534
 7812SOL    HW124335   1.161   1.133   3.594
 7812SOL    HW224336   1.221   1.258   3.508
 7813SOL     OW24337   6.257   2.697   0.698
 7813SOL    HW124338   6.322   2.752   0.645
 7813SOL    HW224339   6.214   2.629   0.638
 7814SOL     OW24340   1.300   3.815   3.789
 7814SOL    HW124341   1.327   3.818   3.885
 7814SOL    HW224342   1.201   3.806   3.783
 7815SOL     OW24343   6.341   1.653   5.997
 7815SOL    HW124344   6.392   1.699   6.070
 7815SOL    HW224345   6.245   1.646   6.023
 7816SOL     OW24346   1.241   3.847   5.270
 7816SOL    HW124347   1.326   3.892   5.297
 7816SOL    HW224348   1.194   3.901   5.200
 7817SOL     OW24349   5.146   3.369   4.890
 7817SOL    HW124350   5.191   3.456   4.873
 7817SOL    HW224351   5.147   3.314   4.807
 7818SOL     OW24352   5.296   5.245   2.653
 7818SOL    HW124353   5.341   5.259   2.565
 7818SOL    HW224354   5.338   5.167   2.700
 7819SOL     OW24355   6.965   1.221   1.524
 7819SOL    HW124356   6.878   1.264   1.498
 7819SOL    HW224357   6.952   1.123   1.535
 7820SOL     OW24358   1.891   6.900   6.105
 7820SOL    HW124359   1.963   6.893   6.037
 7820SOL    HW224360   1.816   6.956   6.070
 7821SOL     OW24361   3.043   5.506   1.415
 7821SOL    HW124362   3.105   5.582   1.432
 7821SOL    HW224363   3.097   5.425   1.389
 7822SOL     OW24364   1.759   5.962   5.267
 7822SOL    HW124365   1.675   5.938   5.316
 7822SOL    HW224366   1.775   5.895   5.194
 7823SOL     OW24367   1.691   4.502   5.172
 7823SOL    HW124368   1.665   4.502   5.076
 7823SOL    HW224369   1.742   4.418   5.193
 7824SOL     OW24370   0.532   3.181   5.495
 7824SOL    HW124371   0.516   3.255   5.430
 7824SOL    HW224372   0.630   3.170   5.510
 7825SOL     OW24373   2.858   1.325   6.910
 7825SOL    HW124374   2.805   1.348   6.829
 7825SOL    HW224375   2.954   1.309   6.884
 7826SOL     OW24376   0.808   3.264   5.933
 7826SOL    HW124377   0.867   3.205   5.879
 7826SOL    HW224378   0.742   3.309   5.873
 7827SOL     OW24379   6.476   5.230   4.929
 7827SOL    HW124380   6.526   5.149   4.961
 7827SOL    HW224381   6.541   5.303   4.909
 7828SOL     OW24382   0.516   4.961   0.061
 7828SOL    HW124383   0.447   4.910   0.008
 7828SOL    HW224384   0.477   5.048   0.091
 7829SOL     OW24385   3.622   3.336   0.544
 7829SOL    HW124386   3.718   3.307   0.541
 7829SOL    HW224387   3.618   3.433   0.570
 7830SOL     OW24388   2.804   5.286   3.443
 7830SOL    HW124389   2.747   5.282   3.361
 7830SOL    HW224390   2.766   5.353   3.507
 7831SOL     OW24391   1.623   0.348   6.832
 7831SOL    HW124392   1.666   0.287   6.898
 7831SOL    HW224393   1.648   0.320   6.740
 7832SOL     OW24394   6.148   0.939   4.506
 7832SOL    HW124395   6.150   0.843   4.479
 7832SOL    HW224396   6.104   0.947   4.596
 7833SOL     OW24397   1.406   0.305   3.296
 7833SOL    HW124398   1.435   0.343   3.384
 7833SOL    HW224399   1.408   0.376   3.226
 7834SOL     OW24400   6.424   3.652   5.180
 7834SOL    HW124401   6.414   3.687   5.273
 7834SOL    HW224402   6.378   3.564   5.172
 7835SOL     OW24403   4.254   2.459   5.587
 7835SOL    HW124404   4.302   2.486   5.504
 7835SOL    HW224405   4.319   2.452   5.663
 7836SOL     OW24406   3.212   3.423   3.674
 7836SOL    HW124407   3.148   3.424   3.750
 7836SOL    HW224408   3.166   3.454   3.590
 7837SOL     OW24409   6.923   5.930   0.443
 7837SOL    HW124410   6.850   5.949   0.377
 7837SOL    HW224411   6.887   5.873   0.517
 7838SOL     OW24412   4.550   5.664   2.276
 7838SOL    HW124413   4.517   5.747   2.320
 7838SOL    HW224414   4.544   5.587   2.340
 7839SOL     OW24415   6.004   2.697   4.165
 7839SOL    HW124416   5.999   2.614   4.221
 7839SOL    HW224417   5.970   2.775   4.218
 7840SOL     OW24418   1.933   3.147   4.286
 7840SOL    HW124419   2.033   3.154   4.277
 7840SOL    HW224420   1.908   3.149   4.383
 7841SOL     OW24421   3.720   1.643   6.406
 7841SOL    HW124422   3.779   1.705   6.458
 7841SOL    HW224423   3.770   1.611   6.325
 7842SOL     OW24424   1.507   0.813   1.742
 7842SOL    HW124425   1.423   0.807   1.687
 7842SOL    HW224426   1.543   0.721   1.758
 7843SOL     OW24427   6.984   6.224   3.193
 7843SOL    HW124428   6.953   6.306   3.241
 7843SOL    HW224429   6.928   6.146   3.222
 7844SOL     OW24430   3.826   1.032   2.282
 7844SOL    HW124431   3.745   1.009   2.227
 7844SOL    HW224432   3.900   0.968   2.260
 7845SOL     OW24433   6.677   3.037   0.956
 7845SOL    HW124434   6.748   2.966   0.965
 7845SOL    HW224435   6.590   2.994   0.933
 7846SOL     OW24436   0.752   1.608   0.673
 7846SOL    HW124437   0.844   1.645   0.688
 7846SOL    HW224438   0.721   1.562   0.756
 7847SOL     OW24439   5.142   4.198   5.743
 7847SOL    HW124440   5.085   4.240   5.814
 7847SOL    HW224441   5.133   4.098   5.748
 7848SOL     OW24442   3.733   4.364   1.306
 7848SOL    HW124443   3.722   4.350   1.405
 7848SOL    HW224444   3.702   4.282   1.258
 7849SOL     OW24445   4.558   4.944   6.625
 7849SOL    HW124446   4.522   5.022   6.574
 7849SOL    HW224447   4.657   4.937   6.610
 7850SOL     OW24448   6.893   0.973   3.956
 7850SOL    HW124449   6.848   0.997   4.042
 7850SOL    HW224450   6.925   1.056   3.910
 7851SOL     OW24451   6.930   4.739   1.089
 7851SOL    HW124452   6.882   4.826   1.096
 7851SOL    HW224453   6.895   4.675   1.158
 7852SOL     OW24454   1.051   2.762   6.507
 7852SOL    HW124455   1.123   2.695   6.523
 7852SOL    HW224456   1.092   2.854   6.503
 7853SOL     OW24457   4.174   2.900   1.675
 7853SOL    HW124458   4.102   2.917   1.742
 7853SOL    HW224459   4.238   2.976   1.676
 7854SOL     OW24460   4.653   1.947   6.684
 7854SOL    HW124461   4.623   2.034   6.645
 7854SOL    HW224462   4.724   1.965   6.752
 7855SOL     OW24463   5.200   6.976   4.503
 7855SOL    HW124464   5.250   6.923   4.434
 7855SOL    HW224465   5.176   6.917   4.580
 7856SOL     OW24466   1.992   6.736   4.395
 7856SOL    HW124467   2.057   6.661   4.388
 7856SOL    HW224468   1.936   6.724   4.477
 7857SOL     OW24469   5.927   4.518   1.354
 7857SOL    HW124470   5.951   4.451   1.423
 7857SOL    HW224471   5.863   4.585   1.393
 7858SOL     OW24472   6.682   4.617   6.464
 7858SOL    HW124473   6.591   4.599   6.500
 7858SOL    HW224474   6.736   4.667   6.532
 7859SOL     OW24475   5.212   2.161   0.669
 7859SOL    HW124476   5.305   2.153   0.705
 7859SOL    HW224477   5.153   2.203   0.737
 7860SOL     OW24478   2.589   1.535   4.673
 7860SOL    HW124479   2.556   1.471   4.743
 7860SOL    HW224480   2.688   1.543   4.679
 7861SOL     OW24481   2.032   6.373   0.226
 7861SOL    HW124482   1.955   6.436   0.240
 7861SOL    HW224483   2.117   6.425   0.219
 7862SOL     OW24484   2.130   5.538   6.930
 7862SOL    HW124485   2.194   5.611   6.954
 7862SOL    HW224486   2.148   5.508   6.836
 7863SOL     OW24487   0.725   4.112   3.695
 7863SOL    HW124488   0.710   4.121   3.794
 7863SOL    HW224489   0.656   4.166   3.646
 7864SOL     OW24490   1.860   6.188   5.719
 7864SOL    HW124491   1.781   6.248   5.701
 7864SOL    HW224492   1.867   6.172   5.818
 7865SOL     OW24493   5.357   4.467   3.674
 7865SOL    HW124494   5.437   4.409   3.660
 7865SOL    HW224495   5.341   4.520   3.591
 7866SOL     OW24496   0.018   0.908   6.304
 7866SOL    HW124497   0.102   0.868   6.269
 7866SOL    HW224498   7.017   0.994   6.256
 7867SOL     OW24499   4.643   4.908   3.502
 7867SOL    HW124500   4.599   4.994   3.531
 7867SOL    HW224501   4.687   4.865   3.581
 7868SOL     OW24502   2.852   6.535   1.475
 7868SOL    HW124503   2.792   6.455   1.486
 7868SOL    HW224504   2.857   6.560   1.379
 7869SOL     OW24505   5.972   4.782   6.536
 7869SOL    HW124506   5.952   4.687   6.515
 7869SOL    HW224507   6.071   4.794   6.543
 7870SOL     OW24508   5.659   5.534   4.440
 7870SOL    HW124509   5.659   5.528   4.540
 7870SOL    HW224510   5.592   5.469   4.403
 7871SOL     OW24511   5.103   1.507   0.609
 7871SOL    HW124512   5.135   1.529   0.517
 7871SOL    HW224513   5.008   1.537   0.619
 7872SOL     OW24514   1.359   5.456   3.135
 7872SOL    HW124515   1.454   5.488   3.137
 7872SOL    HW224516   1.309   5.499   3.211
 7873SOL     OW24517   4.966   2.315   0.074
 7873SOL    HW124518   4.900   2.244   0.047
 7873SOL    HW224519   5.045   2.311   0.013
 7874SOL     OW24520   5.814   2.560   0.640
 7874SOL    HW124521   5.815   2.578   0.738
 7874SOL    HW224522   5.805   2.646   0.591
 7875SOL     OW24523   5.949   4.667   5.829
 7875SOL    HW124524   5.923   4.672   5.732
 7875SOL    HW224525   6.009   4.588   5.843
 7876SOL     OW24526   1.138   0.136   3.905
 7876SOL    HW124527   1.201   0.094   3.970
 7876SOL    HW224528   1.116   0.228   3.935
 7877SOL     OW24529   0.068   2.922   3.232
 7877SOL    HW124530   0.028   2.874   3.310
 7877SOL    HW224531   7.019   2.982   3.191
 7878SOL     OW24532   4.425   5.220   3.104
 7878SOL    HW124533   4.467   5.252   3.189
 7878SOL    HW224534   4.331   5.190   3.123
 7879SOL     OW24535   3.112   4.906   2.954
 7879SOL    HW124536   3.137   4.930   3.048
 7879SOL    HW224537   3.036   4.841   2.956
 7880SOL     OW24538   1.221   4.324   2.364
 7880SOL    HW124539   1.145   4.335   2.428
 7880SOL    HW224540   1.194   4.263   2.290
 7881SOL     OW24541   4.787   4.009   3.632
 7881SOL    HW124542   4.796   3.949   3.711
 7881SOL    HW224543   4.843   3.975   3.557
 7882SOL     OW24544   0.907   3.395   0.128
 7882SOL    HW124545   0.873   3.304   0.107
 7882SOL    HW224546   0.956   3.394   0.215
 7883SOL     OW24547   0.643   0.699   5.478
 7883SOL    HW124548   0.712   0.630   5.503
 7883SOL    HW224549   0.632   0.701   5.379
 7884SOL     OW24550   0.929   2.571   4.503
 7884SOL    HW124551   0.923   2.669   4.519
 7884SOL    HW224552   0.957   2.524   4.587
 7885SOL     OW24553   6.586   6.079   6.432
 7885SOL    HW124554   6.495   6.080   6.473
 7885SOL    HW224555   6.582   6.037   6.341
 7886SOL     OW24556   4.982   4.512   0.662
 7886SOL    HW124557   5.009   4.577   0.733
 7886SOL    HW224558   5.054   4.505   0.593
 7887SOL     OW24559   4.877   3.172   6.125
 7887SOL    HW124560   4.905   3.076   6.124
 7887SOL    HW224561   4.790   3.182   6.076
 7888SOL     OW24562   5.339   0.158   4.631
 7888SOL    HW124563   5.305   0.072   4.593
 7888SOL    HW224564   5.288   0.234   4.591
 7889SOL     OW24565   0.766   5.012   2.491
 7889SOL    HW124566   0.830   5.038   2.418
 7889SOL    HW224567   0.770   5.081   2.563
 7890SOL     OW24568   1.935   2.910   2.557
 7890SOL    HW124569   1.897   2.901   2.465
 7890SOL    HW224570   2.028   2.873   2.559
 7891SOL     OW24571   1.050   4.746   2.949
 7891SOL    HW124572   1.063   4.695   3.034
 7891SOL    HW224573   1.123   4.814   2.940
 7892SOL     OW24574   1.893   2.542   5.780
 7892SOL    HW124575   1.956   2.466   5.765
 7892SOL    HW224576   1.914   2.616   5.716
 7893SOL     OW24577   6.216   6.128   1.376
 7893SOL    HW124578   6.118   6.149   1.382
 7893SOL    HW224579   6.255   6.174   1.297
 7894SOL     OW24580   3.016   0.102   1.742
 7894SOL    HW124581   3.058   0.031   1.686
 7894SOL    HW224582   3.002   0.068   1.835
 7895SOL     OW24583   6.590   0.955   3.421
 7895SOL    HW124584   6.662   1.015   3.386
 7895SOL    HW224585   6.629   0.895   3.492
 7896SOL     OW24586   4.276   1.428   6.352
 7896SOL    HW124587   4.273   1.350   6.289
 7896SOL    HW224588   4.201   1.491   6.330
 7897SOL     OW24589   2.670   2.656   6.442
 7897SOL    HW124590   2.656   2.722   6.368
 7897SOL    HW224591   2.604   2.582   6.433
 7898SOL     OW24592   4.318   2.227   3.653
 7898SOL    HW124593   4.344   2.154   3.589
 7898SOL    HW224594   4.347   2.315   3.617
 7899SOL     OW24595   4.609   1.176   3.034
 7899SOL    HW124596   4.687   1.158   2.974
 7899SOL    HW224597   4.578   1.090   3.075
 7900SOL     OW24598   1.834   4.976   0.802
 7900SOL    HW124599   1.868   4.897   0.854
 7900SOL    HW224600   1.824   5.054   0.864
 7901SOL     OW24601   5.497   5.483   0.797
 7901SOL    HW124602   5.552   5.553   0.844
 7901SOL    HW224603   5.534   5.393   0.817
 7902SOL     OW24604   5.363   4.961   6.464
 7902SOL    HW124605   5.328   5.018   6.389
 7902SOL    HW224606   5.455   4.990   6.488
 7903SOL     OW24607   0.298   2.646   0.018
 7903SOL    HW124608   0.296   2.638   0.117
 7903SOL    HW224609   0.384   2.688   7.009
 7904SOL     OW24610   6.639   1.224   2.665
 7904SOL    HW124611   6.597   1.149   2.614
 7904SOL    HW224612   6.738   1.224   2.650
 7905SOL     OW24613   2.634   1.709   0.894
 7905SOL    HW124614   2.701   1.747   0.830
 7905SOL    HW224615   2.584   1.784   0.938
 7906SOL     OW24616   0.251   5.678   0.036
 7906SOL    HW124617   0.194   5.644   6.979
 7906SOL    HW224618   0.208   5.655   0.123
 7907SOL     OW24619   5.773   3.075   1.964
 7907SOL    HW124620   5.763   3.075   2.063
 7907SOL    HW224621   5.691   3.037   1.922
 7908SOL     OW24622   6.226   1.596   2.903
 7908SOL    HW124623   6.144   1.550   2.937
 7908SOL    HW224624   6.305   1.567   2.957
 7909SOL     OW24625   4.583   5.750   5.467
 7909SOL    HW124626   4.653   5.685   5.498
 7909SOL    HW224627   4.579   5.748   5.367
 7910SOL     OW24628   5.680   4.114   6.170
 7910SOL    HW124629   5.685   4.052   6.091
 7910SOL    HW224630   5.605   4.179   6.156
 7911SOL     OW24631   0.018   5.041   0.207
 7911SOL    HW124632   6.937   5.039   0.216
 7911SOL    HW224633   0.043   5.008   0.116
 7912SOL     OW24634   0.394   5.183   5.360
 7912SOL    HW124635   0.406   5.232   5.447
 7912SOL    HW224636   0.368   5.088   5.380
 7913SOL     OW24637   1.000   6.114   6.658
 7913SOL    HW124638   0.991   6.198   6.605
 7913SOL    HW224639   0.916   6.098   6.711
 7914SOL     OW24640   6.984   3.316   2.431
 7914SOL    HW124641   7.007   3.376   2.354
 7914SOL    HW224642   0.046   3.302   2.488
 7915SOL     OW24643   4.362   1.035   2.055
 7915SOL    HW124644   4.345   1.041   1.957
 7915SOL    HW224645   4.308   1.105   2.103
 7916SOL     OW24646   4.549   3.605   5.596
 7916SOL    HW124647   4.595   3.520   5.624
 7916SOL    HW224648   4.452   3.600   5.619
 7917SOL     OW24649   3.702   4.074   3.490
 7917SOL    HW124650   3.608   4.104   3.477
 7917SOL    HW224651   3.734   4.027   3.408
 7918SOL     OW24652   6.067   2.376   2.168
 7918SOL    HW124653   6.057   2.276   2.170
 7918SOL    HW224654   6.132   2.401   2.097
 7919SOL     OW24655   6.019   4.755   2.044
 7919SOL    HW124656   6.015   4.812   1.962
 7919SOL    HW224657   6.085   4.794   2.108
 7920SOL     OW24658   0.543   6.305   2.011
 7920SOL    HW124659   0.476   6.232   2.002
 7920SOL    HW224660   0.591   6.318   1.924
 7921SOL     OW24661   3.201   6.440   2.142
 7921SOL    HW124662   3.141   6.464   2.219
 7921SOL    HW224663   3.268   6.373   2.173
 7922SOL     OW24664   0.688   5.015   6.399
 7922SOL    HW124665   0.702   5.029   6.301
 7922SOL    HW224666   0.633   4.933   6.413
 7923SOL     OW24667   0.833   1.687   3.133
 7923SOL    HW124668   0.920   1.646   3.105
 7923SOL    HW224669   0.851   1.766   3.191
 7924SOL     OW24670   2.498   1.487   3.602
 7924SOL    HW124671   2.594   1.462   3.619
 7924SOL    HW224672   2.479   1.479   3.504
 7925SOL     OW24673   0.377   1.205   6.803
 7925SOL    HW124674   0.422   1.133   6.855
 7925SOL    HW224675   0.442   1.245   6.737
 7926SOL     OW24676   3.607   0.283   1.710
 7926SOL    HW124677   3.509   0.289   1.695
 7926SOL    HW224678   3.656   0.306   1.626
 7927SOL     OW24679   5.044   4.130   4.124
 7927SOL    HW124680   4.979   4.054   4.128
 7927SOL    HW224681   5.012   4.199   4.060
 7928SOL     OW24682   0.995   4.558   6.964
 7928SOL    HW124683   1.072   4.511   7.007
 7928SOL    HW224684   0.961   4.503   6.887
 7929SOL     OW24685   3.935   3.797   4.701
 7929SOL    HW124686   3.865   3.740   4.744
 7929SOL    HW224687   3.995   3.739   4.646
 7930SOL     OW24688   5.238   5.766   4.227
 7930SOL    HW124689   5.181   5.755   4.145
 7930SOL    HW224690   5.217   5.854   4.270
 7931SOL     OW24691   2.439   3.416   0.167
 7931SOL    HW124692   2.531   3.453   0.151
 7931SOL    HW224693   2.444   3.317   0.176
 7932SOL     OW24694   3.211   6.622   1.145
 7932SOL    HW124695   3.180   6.672   1.064
 7932SOL    HW224696   3.296   6.662   1.178
 7933SOL     OW24697   1.211   1.154   6.127
 7933SOL    HW124698   1.242   1.249   6.129
 7933SOL    HW224699   1.188   1.128   6.034
 7934SOL     OW24700   4.142   2.867   5.555
 7934SOL    HW124701   4.239   2.856   5.536
 7934SOL    HW224702   4.097   2.903   5.473
 7935SOL     OW24703   4.727   6.129   1.549
 7935SOL    HW124704   4.787   6.203   1.580
 7935SOL    HW224705   4.780   6.059   1.503
 7936SOL     OW24706   4.523   5.553   2.990
 7936SOL    HW124707   4.501   5.457   2.974
 7936SOL    HW224708   4.446   5.597   3.036
 7937SOL     OW24709   6.376   0.048   5.979
 7937SOL    HW124710   6.284   0.010   5.978
 7937SOL    HW224711   6.439   7.004   6.025
 7938SOL     OW24712   5.569   4.716   4.245
 7938SOL    HW124713   5.617   4.733   4.331
 7938SOL    HW224714   5.482   4.672   4.264
 7939SOL     OW24715   0.577   0.010   4.562
 7939SOL    HW124716   0.520   6.971   4.503
 7939SOL    HW224717   0.602   6.977   4.644
 7940SOL     OW24718   1.727   5.698   0.771
 7940SOL    HW124719   1.743   5.655   0.682
 7940SOL    HW224720   1.744   5.630   0.843
 7941SOL     OW24721   0.486   0.431   0.324
 7941SOL    HW124722   0.475   0.476   0.413
 7941SOL    HW224723   0.482   0.332   0.335
 7942SOL     OW24724   1.444   1.523   0.988
 7942SOL    HW124725   1.374   1.538   1.058
 7942SOL    HW224726   1.501   1.605   0.980
 7943SOL     OW24727   5.692   2.021   0.351
 7943SOL    HW124728   5.684   1.949   0.283
 7943SOL    HW224729   5.769   2.080   0.328
 7944SOL     OW24730   6.916   3.790   2.345
 7944SOL    HW124731   6.922   3.699   2.304
 7944SOL    HW224732   6.839   3.840   2.304
 7945SOL     OW24733   5.660   6.999   1.246
 7945SOL    HW124734   5.585   6.940   1.272
 7945SOL    HW224735   5.675   6.993   1.147
 7946SOL     OW24736   1.625   2.124   6.033
 7946SOL    HW124737   1.579   2.196   5.981
 7946SOL    HW224738   1.609   2.138   6.131
 7947SOL     OW24739   4.544   5.172   6.224
 7947SOL    HW124740   4.553   5.271   6.226
 7947SOL    HW224741   4.558   5.138   6.131
 7948SOL     OW24742   0.960   5.100   6.707
 7948SOL    HW124743   0.957   5.070   6.612
 7948SOL    HW224744   1.051   5.138   6.727
 7949SOL     OW24745   6.595   4.291   4.190
 7949SOL    HW124746   6.574   4.194   4.190
 7949SOL    HW224747   6.510   4.344   4.196
 7950SOL     OW24748   3.458   4.920   4.392
 7950SOL    HW124749   3.496   5.004   4.432
 7950SOL    HW224750   3.527   4.876   4.335
 7951SOL     OW24751   3.277   3.614   0.956
 7951SOL    HW124752   3.212   3.665   0.901
 7951SOL    HW224753   3.303   3.530   0.908
 7952SOL     OW24754   4.706   4.827   7.011
 7952SOL    HW124755   4.799   4.819   0.029
 7952SOL    HW224756   4.671   4.737   6.987
 7953SOL     OW24757   2.194   3.019   3.222
 7953SOL    HW124758   2.171   3.100   3.276
 7953SOL    HW224759   2.177   3.039   3.125
 7954SOL     OW24760   5.052   5.574   4.780
 7954SOL    HW124761   5.065   5.503   4.849
 7954SOL    HW224762   5.002   5.537   4.702
 7955SOL     OW24763   1.372   0.095   6.311
 7955SOL    HW124764   1.347   0.139   6.225
 7955SOL    HW224765   1.442   0.025   6.294
 7956SOL     OW24766   5.960   0.234   3.825
 7956SOL    HW124767   6.009   0.177   3.758
 7956SOL    HW224768   5.982   0.203   3.917
 7957SOL     OW24769   1.311   2.652   1.384
 7957SOL    HW124770   1.396   2.704   1.374
 7957SOL    HW224771   1.234   2.716   1.392
 7958SOL     OW24772   1.608   5.242   3.161
 7958SOL    HW124773   1.528   5.297   3.137
 7958SOL    HW224774   1.592   5.147   3.133
 7959SOL     OW24775   4.585   4.982   0.391
 7959SOL    HW124776   4.510   5.026   0.440
 7959SOL    HW224777   4.556   4.960   0.298
 7960SOL     OW24778   2.260   2.825   0.728
 7960SOL    HW124779   2.194   2.775   0.672
 7960SOL    HW224780   2.217   2.907   0.764
 7961SOL     OW24781   1.757   5.619   0.159
 7961SOL    HW124782   1.704   5.690   0.206
 7961SOL    HW224783   1.836   5.594   0.215
 7962SOL     OW24784   1.343   0.271   2.067
 7962SOL    HW124785   1.354   0.365   2.032
 7962SOL    HW224786   1.299   0.275   2.156
 7963SOL     OW24787   0.904   6.947   4.603
 7963SOL    HW124788   0.808   6.930   4.625
 7963SOL    HW224789   0.957   6.864   4.623
 7964SOL     OW24790   6.427   5.569   3.224
 7964SOL    HW124791   6.462   5.588   3.133
 7964SOL    HW224792   6.352   5.632   3.244
 7965SOL     OW24793   5.956   2.126   0.616
 7965SOL    HW124794   5.915   2.076   0.692
 7965SOL    HW224795   5.886   2.180   0.569
 7966SOL     OW24796   6.670   6.150   3.475
 7966SOL    HW124797   6.742   6.089   3.509
 7966SOL    HW224798   6.651   6.130   3.379
 7967SOL     OW24799   3.109   6.645   3.140
 7967SOL    HW124800   3.159   6.685   3.217
 7967SOL    HW224801   3.012   6.665   3.149
 7968SOL     OW24802   2.139   0.727   1.375
 7968SOL    HW124803   2.239   0.732   1.366
 7968SOL    HW224804   2.114   0.731   1.471
 7969SOL     OW24805   3.201   1.916   3.569
 7969SOL    HW124806   3.140   1.920   3.648
 7969SOL    HW224807   3.200   1.823   3.531
 7970SOL     OW24808   0.692   4.878   3.169
 7970SOL    HW124809   0.617   4.813   3.186
 7970SOL    HW224810   0.777   4.840   3.206
 7971SOL     OW24811   2.511   1.700   2.126
 7971SOL    HW124812   2.509   1.800   2.131
 7971SOL    HW224813   2.605   1.669   2.116
 7972SOL     OW24814   0.880   5.007   1.835
 7972SOL    HW124815   0.819   4.966   1.902
 7972SOL    HW224816   0.851   4.981   1.743
 7973SOL     OW24817   4.580   2.147   2.393
 7973SOL    HW124818   4.547   2.193   2.476
 7973SOL    HW224819   4.611   2.055   2.416
 7974SOL     OW24820   5.634   6.702   4.000
 7974SOL    HW124821   5.617   6.798   3.979
 7974SOL    HW224822   5.688   6.695   4.084
 7975SOL     OW24823   2.648   0.781   2.928
 7975SOL    HW124824   2.563   0.815   2.968
 7975SOL    HW224825   2.642   0.784   2.828
 7976SOL     OW24826   0.398   6.501   6.129
 7976SOL    HW124827   0.401   6.408   6.093
 7976SOL    HW224828   0.306   6.521   6.164
 7977SOL     OW24829   5.052   6.549   1.892
 7977SOL    HW124830   5.082   6.457   1.920
 7977SOL    HW224831   4.972   6.541   1.832
 7978SOL     OW24832   3.894   2.393   6.395
 7978SOL    HW124833   3.828   2.373   6.322
 7978SOL    HW224834   3.895   2.317   6.460
 7979SOL     OW24835   4.556   6.881   4.363
 7979SOL    HW124836   4.619   6.804   4.376
 7979SOL    HW224837   4.604   6.967   4.385
 7980SOL     OW24838   2.705   0.270   2.425
 7980SOL    HW124839   2.625   0.246   2.371
 7980SOL    HW224840   2.678   0.282   2.521
 7981SOL     OW24841   1.338   6.104   3.010
 7981SOL    HW124842   1.272   6.135   3.079
 7981SOL    HW224843   1.337   6.004   3.006
 7982SOL     OW24844   0.272   2.326   0.543
 7982SOL    HW124845   0.269   2.414   0.591
 7982SOL    HW224846   0.219   2.333   0.458
 7983SOL     OW24847   4.550   2.544   2.084
 7983SOL    HW124848   4.594   2.569   2.171
 7983SOL    HW224849   4.589   2.458   2.051
 7984SOL     OW24850   0.359   0.558   0.086
 7984SOL    HW124851   0.381   0.531   0.179
 7984SOL    HW224852   0.309   0.644   0.087
 7985SOL     OW24853   0.413   1.178   0.999
 7985SOL    HW124854   0.448   1.198   0.908
 7985SOL    HW224855   0.452   1.243   1.065
 7986SOL     OW24856   4.094   2.777   0.158
 7986SOL    HW124857   4.135   2.752   0.245
 7986SOL    HW224858   4.030   2.853   0.171
 7987SOL     OW24859   0.570   2.647   4.828
 7987SOL    HW124860   0.576   2.658   4.729
 7987SOL    HW224861   0.474   2.636   4.854
 7988SOL     OW24862   2.392   1.993   5.698
 7988SOL    HW124863   2.409   1.948   5.786
 7988SOL    HW224864   2.460   1.963   5.632
 7989SOL     OW24865   3.581   3.511   5.468
 7989SOL    HW124866   3.640   3.521   5.388
 7989SOL    HW224867   3.488   3.493   5.439
 7990SOL     OW24868   2.394   2.658   4.860
 7990SOL    HW124869   2.478   2.603   4.861
 7990SOL    HW224870   2.360   2.668   4.953
 7991SOL     OW24871   7.017   3.407   4.694
 7991SOL    HW124872   0.092   3.375   4.687
 7991SOL    HW224873   6.980   3.421   4.602
 7992SOL     OW24874   2.131   0.303   0.205
 7992SOL    HW124875   2.155   0.394   0.172
 7992SOL    HW224876   2.115   0.305   0.303
 7993SOL     OW24877   2.041   6.398   6.173
 7993SOL    HW124878   1.956   6.430   6.132
 7993SOL    HW224879   2.093   6.477   6.207
 7994SOL     OW24880   5.877   0.691   4.250
 7994SOL    HW124881   5.889   0.711   4.347
 7994SOL    HW224882   5.946   0.739   4.197
 7995SOL     OW24883   4.104   5.340   3.254
 7995SOL    HW124884   4.134   5.407   3.186
 7995SOL    HW224885   4.023   5.374   3.301
 7996SOL     OW24886   3.722   0.833   5.195
 7996SOL    HW124887   3.630   0.853   5.229
 7996SOL    HW224888   3.727   0.857   5.098
 7997SOL     OW24889   5.327   2.444   2.399
 7997SOL    HW124890   5.320   2.487   2.309
 7997SOL    HW224891   5.272   2.495   2.465
 7998SOL     OW24892   5.953   5.063   6.505
 7998SOL    HW124893   5.979   5.103   6.592
 7998SOL    HW224894   5.934   4.965   6.517
 7999SOL     OW24895   1.376   0.716   5.479
 7999SOL    HW124896   1.361   0.625   5.518
 7999SOL    HW224897   1.403   0.707   5.383
 8000SOL     OW24898   5.636   0.000   5.521
 8000SOL    HW124899   5.700   6.949   5.489
 8000SOL    HW224900   5.671   0.091   5.498
 8001SOL     OW24901   2.428   6.677   1.303
 8001SOL    HW124902   2.401   6.649   1.395
 8001SOL    HW224903   2.455   6.773   1.304
 8002SOL     OW24904   5.266   3.237   5.677
 8002SOL    HW124905   5.271   3.336   5.694
 8002SOL    HW224906   5.329   3.190   5.739
 8003SOL     OW24907   3.726   5.765   3.530
 8003SOL    HW124908   3.794   5.714   3.477
 8003SOL    HW224909   3.634   5.743   3.496
 8004SOL     OW24910   1.207   3.999   2.460
 8004SOL    HW124911   1.155   4.063   2.517
 8004SOL    HW224912   1.161   3.911   2.457
 8005SOL     OW24913   2.888   0.966   1.934
 8005SOL    HW124914   2.972   1.011   1.964
 8005SOL    HW224915   2.855   1.011   1.851
 8006SOL     OW24916   3.434   6.447   1.006
 8006SOL    HW124917   3.423   6.477   1.100
 8006SOL    HW224918   3.453   6.526   0.947
 8007SOL     OW24919   0.603   0.936   4.254
 8007SOL    HW124920   0.590   0.870   4.328
 8007SOL    HW224921   0.532   0.924   4.185
 8008SOL     OW24922   5.798   5.477   0.753
 8008SOL    HW124923   5.802   5.393   0.808
 8008SOL    HW224924   5.763   5.552   0.809
 8009SOL     OW24925   7.013   6.957   3.869
 8009SOL    HW124926   6.990   6.955   3.966
 8009SOL    HW224927   6.943   7.008   3.819
 8010SOL     OW24928   1.893   2.843   6.738
 8010SOL    HW124929   1.822   2.859   6.669
 8010SOL    HW224930   1.982   2.872   6.702
 8011SOL     OW24931   2.210   2.452   0.897
 8011SOL    HW124932   2.202   2.547   0.928
 8011SOL    HW224933   2.289   2.409   0.940
 8012SOL     OW24934   3.205   6.684   3.413
 8012SOL    HW124935   3.245   6.624   3.482
 8012SOL    HW224936   3.106   6.670   3.409
 8013SOL     OW24937   6.232   5.024   5.196
 8013SOL    HW124938   6.324   4.990   5.216
 8013SOL    HW224939   6.206   5.093   5.264
 8014SOL     OW24940   1.969   0.145   6.788
 8014SOL    HW124941   2.014   0.191   6.712
 8014SOL    HW224942   1.872   0.131   6.766
 8015SOL     OW24943   1.560   2.097   6.615
 8015SOL    HW124944   1.611   2.063   6.694
 8015SOL    HW224945   1.543   2.195   6.626
 8016SOL     OW24946   3.468   6.640   1.256
 8016SOL    HW124947   3.558   6.606   1.284
 8016SOL    HW224948   3.426   6.690   1.331
 8017SOL     OW24949   5.997   4.338   4.701
 8017SOL    HW124950   6.033   4.431   4.697
 8017SOL    HW224951   5.905   4.336   4.660
 8018SOL     OW24952   5.447   2.780   4.566
 8018SOL    HW124953   5.491   2.792   4.655
 8018SOL    HW224954   5.428   2.683   4.551
 8019SOL     OW24955   2.535   4.846   1.439
 8019SOL    HW124956   2.625   4.851   1.397
 8019SOL    HW224957   2.543   4.867   1.537
 8020SOL     OW24958   6.088   6.373   6.334
 8020SOL    HW124959   6.019   6.382   6.262
 8020SOL    HW224960   6.050   6.320   6.410
 8021SOL     OW24961   0.630   1.105   1.266
 8021SOL    HW124962   0.699   1.033   1.274
 8021SOL    HW224963   0.653   1.180   1.327
 8022SOL     OW24964   4.366   5.595   3.510
 8022SOL    HW124965   4.388   5.662   3.439
 8022SOL    HW224966   4.434   5.599   3.583
 8023SOL     OW24967   6.045   6.378   3.723
 8023SOL    HW124968   5.956   6.423   3.714
 8023SOL    HW224969   6.112   6.443   3.760
 8024SOL     OW24970   4.838   5.095   4.545
 8024SOL    HW124971   4.809   5.165   4.480
 8024SOL    HW224972   4.775   5.018   4.542
 8025SOL     OW24973   3.252   5.840   0.478
 8025SOL    HW124974   3.317   5.916   0.483
 8025SOL    HW224975   3.298   5.755   0.506
 8026SOL     OW24976   2.180   3.092   0.780
 8026SOL    HW124977   2.094   3.099   0.729
 8026SOL    HW224978   2.230   3.178   0.772
 8027SOL     OW24979   5.177   3.486   6.022
 8027SOL    HW124980   5.226   3.487   5.935
 8027SOL    HW224981   5.081   3.463   6.006
 8028SOL     OW24982   5.254   5.113   0.222
 8028SOL    HW124983   5.290   5.205   0.238
 8028SOL    HW224984   5.267   5.057   0.303
 8029SOL     OW24985   3.031   4.605   0.433
 8029SOL    HW124986   3.023   4.651   0.345
 8029SOL    HW224987   2.946   4.615   0.484
 8030SOL     OW24988   6.074   3.954   0.084
 8030SOL    HW124989   6.146   4.023   0.092
 8030SOL    HW224990   5.995   3.982   0.138
 8031SOL     OW24991   3.717   5.959   1.531
 8031SOL    HW124992   3.683   6.017   1.605
 8031SOL    HW224993   3.700   6.004   1.443
 8032SOL     OW24994   5.049   5.091   5.784
 8032SOL    HW124995   4.972   5.152   5.767
 8032SOL    HW224996   5.130   5.145   5.807
 8033SOL     OW24997   6.111   2.549   0.538
 8033SOL    HW124998   6.020   2.587   0.557
 8033SOL    HW224999   6.124   2.466   0.592
 8034SOL     OW25000   6.034   1.110   5.384
 8034SOL    HW125001   5.941   1.144   5.400
 8034SOL    HW225002   6.089   1.183   5.342
 8035SOL     OW25003   5.495   6.134   0.026
 8035SOL    HW125004   5.520   6.050   6.997
 8035SOL    HW225005   5.577   6.173   0.068
 8036SOL     OW25006   2.125   4.000   1.422
 8036SOL    HW125007   2.147   4.061   1.498
 8036SOL    HW225008   2.077   3.920   1.456
 8037SOL     OW25009   1.852   3.444   1.001
 8037SOL    HW125010   1.852   3.365   0.940
 8037SOL    HW225011   1.946   3.467   1.026
 8038SOL     OW25012   7.010   1.267   3.910
 8038SOL    HW125013   7.015   1.363   3.882
 8038SOL    HW225014   6.999   1.262   4.010
 8039SOL     OW25015   2.966   6.662   4.694
 8039SOL    HW125016   2.888   6.720   4.717
 8039SOL    HW225017   3.002   6.689   4.605
 8040SOL     OW25018   6.542   5.583   0.905
 8040SOL    HW125019   6.561   5.544   0.815
 8040SOL    HW225020   6.587   5.527   0.975
 8041SOL     OW25021   3.993   2.116   0.609
 8041SOL    HW125022   3.938   2.033   0.607
 8041SOL    HW225023   4.077   2.100   0.662
 8042SOL     OW25024   2.458   3.607   0.857
 8042SOL    HW125025   2.484   3.674   0.926
 8042SOL    HW225026   2.534   3.545   0.840
 8043SOL     OW25027   2.497   0.129   1.650
 8043SOL    HW125028   2.583   0.135   1.701
 8043SOL    HW225029   2.485   0.210   1.594
 8044SOL     OW25030   3.097   4.095   1.761
 8044SOL    HW125031   3.183   4.143   1.746
 8044SOL    HW225032   3.105   4.037   1.842
 8045SOL     OW25033   6.195   2.832   3.533
 8045SOL    HW125034   6.202   2.871   3.624
 8045SOL    HW225035   6.268   2.867   3.475
 8046SOL     OW25036   7.010   5.276   5.926
 8046SOL    HW125037   0.046   5.323   5.857
 8046SOL    HW225038   0.040   5.195   5.958
 8047SOL     OW25039   2.871   5.985   4.166
 8047SOL    HW125040   2.902   5.981   4.071
 8047SOL    HW225041   2.825   6.072   4.183
 8048SOL     OW25042   6.547   0.780   5.786
 8048SOL    HW125043   6.622   0.793   5.720
 8048SOL    HW225044   6.502   0.693   5.768
 8049SOL     OW25045   1.508   5.898   0.616
 8049SOL    HW125046   1.562   5.825   0.658
 8049SOL    HW225047   1.433   5.858   0.564
 8050SOL     OW25048   1.121   2.867   1.390
 8050SOL    HW125049   1.040   2.920   1.366
 8050SOL    HW225050   1.200   2.928   1.399
 8051SOL     OW25051   3.685   1.528   3.623
 8051SOL    HW125052   3.665   1.453   3.686
 8051SOL    HW225053   3.728   1.492   3.541
 8052SOL     OW25054   3.194   2.148   2.951
 8052SOL    HW125055   3.134   2.153   3.031
 8052SOL    HW225056   3.142   2.171   2.869
 8053SOL     OW25057   3.900   3.206   2.036
 8053SOL    HW125058   3.894   3.229   2.133
 8053SOL    HW225059   3.995   3.213   2.006
 8054SOL     OW25060   4.077   5.829   4.340
 8054SOL    HW125061   4.070   5.776   4.424
 8054SOL    HW225062   4.139   5.906   4.354
 8055SOL     OW25063   1.314   0.082   5.174
 8055SOL    HW125064   1.328   0.147   5.099
 8055SOL    HW225065   1.382   0.009   5.168
 8056SOL     OW25066   3.931   1.549   3.051
 8056SOL    HW125067   3.878   1.497   2.985
 8056SOL    HW225068   3.875   1.621   3.090
 8057SOL     OW25069   4.219   6.730   3.694
 8057SOL    HW125070   4.187   6.815   3.651
 8057SOL    HW225071   4.204   6.735   3.793
 8058SOL     OW25072   2.006   0.106   3.089
 8058SOL    HW125073   1.932   0.161   3.050
 8058SOL    HW225074   2.066   0.165   3.144
 8059SOL     OW25075   2.324   1.584   3.909
 8059SOL    HW125076   2.300   1.614   3.817
 8059SOL    HW225077   2.391   1.510   3.904
 8060SOL     OW25078   0.285   1.685   5.123
 8060SOL    HW125079   0.366   1.735   5.153
 8060SOL    HW225080   0.302   1.643   5.034
 8061SOL     OW25081   0.281   5.458   1.562
 8061SOL    HW125082   0.251   5.547   1.596
 8061SOL    HW225083   0.271   5.456   1.462
 8062SOL     OW25084   2.192   3.793   2.108
 8062SOL    HW125085   2.135   3.779   2.189
 8062SOL    HW225086   2.230   3.705   2.077
 8063SOL     OW25087   2.929   3.261   0.060
 8063SOL    HW125088   2.968   3.174   0.029
 8063SOL    HW225089   3.004   3.323   0.084
 8064SOL     OW25090   6.393   3.332   6.800
 8064SOL    HW125091   6.330   3.320   6.724
 8064SOL    HW225092   6.346   3.378   6.876
 8065SOL     OW25093   4.170   7.015   6.268
 8065SOL    HW125094   4.214   0.002   6.358
 8065SOL    HW225095   4.203   6.934   6.220
 8066SOL     OW25096   2.455   0.366   1.544
 8066SOL    HW125097   2.460   0.383   1.445
 8066SOL    HW225098   2.425   0.449   1.591
 8067SOL     OW25099   5.181   1.785   2.084
 8067SOL    HW125100   5.208   1.728   2.007
 8067SOL    HW225101   5.170   1.880   2.053
 8068SOL     OW25102   0.162   4.555   3.853
 8068SOL    HW125103   0.247   4.592   3.816
 8068SOL    HW225104   0.168   4.456   3.858
 8069SOL     OW25105   1.716   6.116   2.243
 8069SOL    HW125106   1.737   6.211   2.265
 8069SOL    HW225107   1.630   6.090   2.287
 8070SOL     OW25108   3.992   0.232   2.033
 8070SOL    HW125109   4.015   0.296   2.106
 8070SOL    HW225110   3.932   0.277   1.967
 8071SOL     OW25111   3.722   6.344   0.326
 8071SOL    HW125112   3.660   6.349   0.248
 8071SOL    HW225113   3.813   6.320   0.295
 8072SOL     OW25114   5.143   0.783   2.127
 8072SOL    HW125115   5.149   0.879   2.156
 8072SOL    HW225116   5.096   0.730   2.198
 8073SOL     OW25117   3.983   6.537   5.471
 8073SOL    HW125118   3.888   6.504   5.471
 8073SOL    HW225119   3.983   6.637   5.463
 8074SOL     OW25120   3.041   3.988   6.909
 8074SOL    HW125121   3.041   4.061   6.977
 8074SOL    HW225122   3.032   3.899   6.955
 8075SOL     OW25123   6.076   1.257   2.356
 8075SOL    HW125124   6.099   1.197   2.433
 8075SOL    HW225125   6.025   1.205   2.287
 8076SOL     OW25126   5.301   2.891   6.554
 8076SOL    HW125127   5.250   2.900   6.640
 8076SOL    HW225128   5.397   2.914   6.570
 8077SOL     OW25129   1.481   0.801   0.518
 8077SOL    HW125130   1.567   0.844   0.488
 8077SOL    HW225131   1.428   0.866   0.571
 8078SOL     OW25132   5.993   3.570   0.215
 8078SOL    HW125133   6.087   3.602   0.226
 8078SOL    HW225134   5.939   3.597   0.295
 8079SOL     OW25135   0.283   1.661   1.742
 8079SOL    HW125136   0.185   1.641   1.746
 8079SOL    HW225137   0.328   1.624   1.824
 8080SOL     OW25138   3.530   5.161   0.224
 8080SOL    HW125139   3.483   5.076   0.247
 8080SOL    HW225140   3.629   5.149   0.236
 8081SOL     OW25141   5.997   0.895   5.764
 8081SOL    HW125142   6.013   0.796   5.760
 8081SOL    HW225143   6.052   0.940   5.694
 8082SOL     OW25144   6.148   3.337   4.231
 8082SOL    HW125145   6.127   3.323   4.134
 8082SOL    HW225146   6.208   3.263   4.263
 8083SOL     OW25147   5.384   2.508   4.565
 8083SOL    HW125148   5.393   2.423   4.513
 8083SOL    HW225149   5.405   2.491   4.662
 8084SOL     OW25150   6.984   0.085   1.473
 8084SOL    HW125151   6.999   7.007   1.489
 8084SOL    HW225152   0.053   0.130   1.456
 8085SOL     OW25153   6.725   2.025   0.897
 8085SOL    HW125154   6.635   1.997   0.864
 8085SOL    HW225155   6.734   2.003   0.994
 8086SOL     OW25156   3.483   6.385   5.707
 8086SOL    HW125157   3.566   6.440   5.715
 8086SOL    HW225158   3.414   6.436   5.655
 8087SOL     OW25159   2.649   3.070   1.249
 8087SOL    HW125160   2.704   3.129   1.190
 8087SOL    HW225161   2.559   3.111   1.263
 8088SOL     OW25162   4.529   0.493   2.485
 8088SOL    HW125163   4.508   0.481   2.582
 8088SOL    HW225164   4.623   0.466   2.467
 8089SOL     OW25165   6.083   2.910   0.711
 8089SOL    HW125166   6.026   2.899   0.630
 8089SOL    HW225167   6.151   2.836   0.714
 8090SOL     OW25168   4.628   2.192   5.065
 8090SOL    HW125169   4.613   2.123   5.135
 8090SOL    HW225170   4.542   2.210   5.017
 8091SOL     OW25171   3.136   5.238   5.953
 8091SOL    HW125172   3.161   5.327   5.916
 8091SOL    HW225173   3.062   5.198   5.899
 8092SOL     OW25174   0.299   1.869   3.909
 8092SOL    HW125175   0.253   1.815   3.838
 8092SOL    HW225176   0.345   1.807   3.973
 8093SOL     OW25177   5.616   5.865   1.154
 8093SOL    HW125178   5.667   5.810   1.220
 8093SOL    HW225179   5.551   5.924   1.203
 8094SOL     OW25180   1.410   4.013   4.500
 8094SOL    HW125181   1.420   3.914   4.488
 8094SOL    HW225182   1.500   4.054   4.515
 8095SOL     OW25183   5.844   3.574   4.644
 8095SOL    HW125184   5.883   3.577   4.736
 8095SOL    HW225185   5.911   3.536   4.580
 8096SOL     OW25186   3.929   0.043   0.771
 8096SOL    HW125187   3.865   0.043   0.694
 8096SOL    HW225188   3.970   0.133   0.781
 8097SOL     OW25189   4.456   0.837   4.972
 8097SOL    HW125190   4.484   0.741   4.963
 8097SOL    HW225191   4.377   0.843   5.033
 8098SOL     OW25192   2.889   0.603   4.203
 8098SOL    HW125193   2.848   0.533   4.262
 8098SOL    HW225194   2.938   0.558   4.128
 8099SOL     OW25195   5.216   6.366   5.011
 8099SOL    HW125196   5.235   6.460   5.040
 8099SOL    HW225197   5.118   6.347   5.021
 8100SOL     OW25198   0.718   5.810   0.904
 8100SOL    HW125199   0.816   5.803   0.924
 8100SOL    HW225200   0.705   5.858   0.818
 8101SOL     OW25201   0.787   5.255   2.666
 8101SOL    HW125202   0.743   5.230   2.752
 8101SOL    HW225203   0.858   5.323   2.684
 8102SOL     OW25204   0.248   0.112   6.548
 8102SOL    HW125205   0.318   0.041   6.542
 8102SOL    HW225206   0.188   0.093   6.627
 8103SOL     OW25207   2.679   1.656   2.404
 8103SOL    HW125208   2.712   1.750   2.407
 8103SOL    HW225209   2.670   1.626   2.309
 8104SOL     OW25210   2.684   6.031   6.086
 8104SOL    HW125211   2.587   6.058   6.086
 8104SOL    HW225212   2.704   5.979   6.169
 8105SOL     OW25213   1.796   2.688   2.682
 8105SOL    HW125214   1.839   2.763   2.633
 8105SOL    HW225215   1.848   2.666   2.764
 8106SOL     OW25216   0.497   4.203   4.845
 8106SOL    HW125217   0.539   4.217   4.935
 8106SOL    HW225218   0.545   4.259   4.777
 8107SOL     OW25219   1.516   5.661   6.408
 8107SOL    HW125220   1.581   5.695   6.340
 8107SOL    HW225221   1.546   5.571   6.440
 8108SOL     OW25222   2.031   3.453   4.893
 8108SOL    HW125223   2.043   3.435   4.795
 8108SOL    HW225224   2.088   3.391   4.946
 8109SOL     OW25225   1.082   5.615   5.376
 8109SOL    HW125226   1.045   5.588   5.287
 8109SOL    HW225227   1.008   5.648   5.434
 8110SOL     OW25228   1.613   4.408   0.899
 8110SOL    HW125229   1.589   4.398   0.802
 8110SOL    HW225230   1.710   4.383   0.912
 8111SOL     OW25231   2.450   6.139   4.361
 8111SOL    HW125232   2.399   6.116   4.278
 8111SOL    HW225233   2.493   6.057   4.399
 8112SOL     OW25234   4.051   0.987   5.026
 8112SOL    HW125235   4.094   0.902   4.994
 8112SOL    HW225236   4.083   1.007   5.118
 8113SOL     OW25237   4.128   3.093   6.033
 8113SOL    HW125238   4.126   3.051   5.943
 8113SOL    HW225239   4.079   3.034   6.098
 8114SOL     OW25240   3.052   3.984   1.497
 8114SOL    HW125241   3.050   4.067   1.440
 8114SOL    HW225242   3.085   4.008   1.588
 8115SOL     OW25243   3.970   2.179   0.984
 8115SOL    HW125244   3.875   2.206   1.002
 8115SOL    HW225245   4.011   2.243   0.919
 8116SOL     OW25246   4.847   0.889   5.809
 8116SOL    HW125247   4.871   0.974   5.855
 8116SOL    HW225248   4.751   0.868   5.825
 8117SOL     OW25249   2.509   1.892   5.908
 8117SOL    HW125250   2.552   1.951   5.976
 8117SOL    HW225251   2.515   1.797   5.938
 8118SOL     OW25252   1.041   2.665   4.169
 8118SOL    HW125253   0.986   2.632   4.092
 8118SOL    HW225254   0.982   2.680   4.248
 8119SOL     OW25255   1.374   5.660   1.959
 8119SOL    HW125256   1.442   5.731   1.981
 8119SOL    HW225257   1.389   5.628   1.865
 8120SOL     OW25258   4.727   4.135   1.809
 8120SOL    HW125259   4.629   4.152   1.812
 8120SOL    HW225260   4.748   4.071   1.736
 8121SOL     OW25261   6.498   6.543   3.351
 8121SOL    HW125262   6.432   6.618   3.351
 8121SOL    HW225263   6.590   6.580   3.357
 8122SOL     OW25264   0.585   5.746   1.541
 8122SOL    HW125265   0.531   5.748   1.456
 8122SOL    HW225266   0.563   5.827   1.596
 8123SOL     OW25267   0.540   5.869   0.171
 8123SOL    HW125268   0.582   5.959   0.172
 8123SOL    HW225269   0.489   5.854   0.256
 8124SOL     OW25270   0.768   5.897   3.101
 8124SOL    HW125271   0.855   5.904   3.052
 8124SOL    HW225272   0.713   5.978   3.083
 8125SOL     OW25273   5.842   5.416   2.581
 8125SOL    HW125274   5.882   5.389   2.669
 8125SOL    HW225275   5.760   5.471   2.596
 8126SOL     OW25276   6.355   4.771   2.457
 8126SOL    HW125277   6.424   4.700   2.463
 8126SOL    HW225278   6.296   4.754   2.378
 8127SOL     OW25279   3.693   4.517   1.065
 8127SOL    HW125280   3.599   4.534   1.036
 8127SOL    HW225281   3.692   4.473   1.155
 8128SOL     OW25282   3.913   2.392   5.327
 8128SOL    HW125283   3.842   2.459   5.347
 8128SOL    HW225284   3.986   2.434   5.274
 8129SOL     OW25285   4.960   6.576   6.954
 8129SOL    HW125286   5.049   6.537   6.980
 8129SOL    HW225287   4.888   6.532   7.008
 8130SOL     OW25288   1.067   0.129   0.715
 8130SOL    HW125289   1.054   0.143   0.616
 8130SOL    HW225290   1.040   0.036   0.739
 8131SOL     OW25291   1.504   1.541   0.494
 8131SOL    HW125292   1.476   1.485   0.572
 8131SOL    HW225293   1.600   1.521   0.471
 8132SOL     OW25294   5.972   4.361   3.013
 8132SOL    HW125295   5.991   4.403   3.102
 8132SOL    HW225296   6.058   4.332   2.971
 8133SOL     OW25297   0.838   5.779   1.978
 8133SOL    HW125298   0.830   5.743   1.885
 8133SOL    HW225299   0.930   5.817   1.991
 8134SOL     OW25300   1.939   2.605   2.135
 8134SOL    HW125301   1.906   2.513   2.115
 8134SOL    HW225302   1.947   2.617   2.234
 8135SOL     OW25303   3.921   5.874   2.347
 8135SOL    HW125304   3.857   5.902   2.275
 8135SOL    HW225305   4.012   5.909   2.326
 8136SOL     OW25306   3.156   6.238   1.553
 8136SOL    HW125307   3.194   6.190   1.633
 8136SOL    HW225308   3.061   6.208   1.539
 8137SOL     OW25309   3.159   3.659   5.048
 8137SOL    HW125310   3.236   3.595   5.038
 8137SOL    HW225311   3.084   3.629   4.989
 8138SOL     OW25312   5.001   0.686   3.801
 8138SOL    HW125313   5.073   0.651   3.861
 8138SOL    HW225314   4.915   0.689   3.851
 8139SOL     OW25315   1.739   3.168   4.696
 8139SOL    HW125316   1.774   3.154   4.789
 8139SOL    HW225317   1.757   3.087   4.641
 8140SOL     OW25318   4.680   0.954   0.858
 8140SOL    HW125319   4.582   0.968   0.845
 8140SOL    HW225320   4.727   0.969   0.772
 8141SOL     OW25321   5.734   0.217   5.420
 8141SOL    HW125322   5.694   0.303   5.390
 8141SOL    HW225323   5.795   0.182   5.349
 8142SOL     OW25324   2.454   5.095   1.007
 8142SOL    HW125325   2.550   5.123   1.007
 8142SOL    HW225326   2.403   5.148   1.075
 8143SOL     OW25327   5.687   4.824   0.678
 8143SOL    HW125328   5.631   4.855   0.754
 8143SOL    HW225329   5.637   4.833   0.593
 8144SOL     OW25330   0.569   5.380   0.557
 8144SOL    HW125331   0.666   5.398   0.569
 8144SOL    HW225332   0.545   5.294   0.601
 8145SOL     OW25333   5.581   5.902   6.895
 8145SOL    HW125334   5.658   5.851   6.933
 8145SOL    HW225335   5.615   5.980   6.844
 8146SOL     OW25336   6.315   0.064   4.813
 8146SOL    HW125337   6.387   0.127   4.843
 8146SOL    HW225338   6.349   0.009   4.737
 8147SOL     OW25339   1.599   0.701   6.089
 8147SOL    HW125340   1.556   0.789   6.106
 8147SOL    HW225341   1.695   0.704   6.119
 8148SOL     OW25342   4.722   3.806   0.445
 8148SOL    HW125343   4.816   3.830   0.470
 8148SOL    HW225344   4.659   3.838   0.517
 8149SOL     OW25345   0.900   0.208   5.689
 8149SOL    HW125346   0.903   0.308   5.688
 8149SOL    HW225347   0.959   0.174   5.762
 8150SOL     OW25348   0.695   4.050   0.642
 8150SOL    HW125349   0.724   4.143   0.668
 8150SOL    HW225350   0.741   3.983   0.700
 8151SOL     OW25351   6.598   5.890   2.922
 8151SOL    HW125352   6.561   5.971   2.875
 8151SOL    HW225353   6.692   5.873   2.891
 8152SOL     OW25354   4.930   1.463   2.834
 8152SOL    HW125355   4.952   1.530   2.763
 8152SOL    HW225356   4.885   1.509   2.910
 8153SOL     OW25357   0.129   1.752   2.198
 8153SOL    HW125358   0.113   1.659   2.165
 8153SOL    HW225359   0.215   1.786   2.161
 8154SOL     OW25360   1.919   1.372   2.433
 8154SOL    HW125361   1.982   1.371   2.510
 8154SOL    HW225362   1.839   1.428   2.455
 8155SOL     OW25363   1.704   5.130   3.401
 8155SOL    HW125364   1.716   5.156   3.305
 8155SOL    HW225365   1.607   5.113   3.419
 8156SOL     OW25366   0.606   4.572   0.798
 8156SOL    HW125367   0.510   4.585   0.771
 8156SOL    HW225368   0.638   4.484   0.764
 8157SOL     OW25369   6.859   4.349   4.827
 8157SOL    HW125370   6.925   4.321   4.896
 8157SOL    HW225371   6.782   4.396   4.871
 8158SOL     OW25372   5.905   5.686   6.726
 8158SOL    HW125373   5.934   5.778   6.752
 8158SOL    HW225374   5.967   5.619   6.769
 8159SOL     OW25375   2.656   6.858   4.982
 8159SOL    HW125376   2.625   6.925   4.915
 8159SOL    HW225377   2.687   6.904   5.065
 8160SOL     OW25378   5.737   1.637   2.056
 8160SOL    HW125379   5.769   1.550   2.018
 8160SOL    HW225380   5.723   1.626   2.155
 8161SOL     OW25381   5.749   2.772   1.669
 8161SOL    HW125382   5.813   2.793   1.743
 8161SOL    HW225383   5.774   2.684   1.628
 8162SOL     OW25384   0.638   5.707   5.008
 8162SOL    HW125385   0.588   5.766   5.072
 8162SOL    HW225386   0.650   5.616   5.050
 8163SOL     OW25387   4.354   4.551   5.645
 8163SOL    HW125388   4.386   4.476   5.704
 8163SOL    HW225389   4.283   4.603   5.693
 8164SOL     OW25390   5.565   1.580   0.496
 8164SOL    HW125391   5.468   1.593   0.512
 8164SOL    HW225392   5.591   1.486   0.519
 8165SOL     OW25393   0.545   1.350   6.640
 8165SOL    HW125394   0.618   1.404   6.682
 8165SOL    HW225395   0.481   1.412   6.595
 8166SOL     OW25396   1.223   1.805   5.572
 8166SOL    HW125397   1.198   1.831   5.665
 8166SOL    HW225398   1.322   1.809   5.561
 8167SOL     OW25399   1.951   3.452   3.758
 8167SOL    HW125400   1.858   3.489   3.763
 8167SOL    HW225401   1.980   3.421   3.849
 8168SOL     OW25402   1.803   0.254   2.244
 8168SOL    HW125403   1.903   0.254   2.243
 8168SOL    HW225404   1.770   0.347   2.262
 8169SOL     OW25405   5.071   3.019   0.505
 8169SOL    HW125406   5.093   2.926   0.479
 8169SOL    HW225407   5.020   3.019   0.592
 8170SOL     OW25408   0.016   4.938   2.171
 8170SOL    HW125409   0.082   5.011   2.192
 8170SOL    HW225410   0.064   4.850   2.166
 8171SOL     OW25411   2.250   1.399   0.991
 8171SOL    HW125412   2.338   1.371   1.029
 8171SOL    HW225413   2.231   1.494   1.017
 8172SOL     OW25414   1.583   2.517   0.289
 8172SOL    HW125415   1.582   2.614   0.315
 8172SOL    HW225416   1.595   2.461   0.371
 8173SOL     OW25417   5.782   0.979   1.646
 8173SOL    HW125418   5.721   1.030   1.707
 8173SOL    HW225419   5.872   1.024   1.645
 8174SOL     OW25420   2.713   6.251   3.610
 8174SOL    HW125421   2.746   6.329   3.663
 8174SOL    HW225422   2.766   6.170   3.635
 8175SOL     OW25423   0.527   2.031   5.875
 8175SOL    HW125424   0.447   1.971   5.879
 8175SOL    HW225425   0.548   2.064   5.967
 8176SOL     OW25426   2.646   4.495   0.396
 8176SOL    HW125427   2.670   4.563   0.465
 8176SOL    HW225428   2.711   4.420   0.398
 8177SOL     OW25429   3.346   1.093   3.947
 8177SOL    HW125430   3.389   1.168   3.998
 8177SOL    HW225431   3.246   1.099   3.957
 8178SOL     OW25432   2.843   6.545   0.947
 8178SOL    HW125433   2.797   6.596   1.019
 8178SOL    HW225434   2.819   6.448   0.954
 8179SOL     OW25435   5.589   0.735   3.495
 8179SOL    HW125436   5.666   0.672   3.490
 8179SOL    HW225437   5.543   0.725   3.583
 8180SOL     OW25438   4.921   6.247   0.250
 8180SOL    HW125439   4.998   6.308   0.269
 8180SOL    HW225440   4.956   6.160   0.214
 8181SOL     OW25441   0.001   0.354   6.745
 8181SOL    HW125442   6.959   0.401   6.681
 8181SOL    HW225443   6.982   0.360   6.837
 8182SOL     OW25444   3.189   3.619   3.947
 8182SOL    HW125445   3.133   3.539   3.928
 8182SOL    HW225446   3.284   3.590   3.966
 8183SOL     OW25447   6.965   0.742   5.814
 8183SOL    HW125448   6.948   0.644   5.802
 8183SOL    HW225449   6.916   0.794   5.745
 8184SOL     OW25450   6.974   5.958   6.101
 8184SOL    HW125451   6.963   6.040   6.157
 8184SOL    HW225452   6.911   5.887   6.134
 8185SOL     OW25453   0.140   6.262   5.916
 8185SOL    HW125454   0.227   6.272   5.964
 8185SOL    HW225455   0.156   6.229   5.824
 8186SOL     OW25456   1.756   5.332   6.979
 8186SOL    HW125457   1.766   5.266   6.905
 8186SOL    HW225458   1.796   5.295   0.044
 8187SOL     OW25459   1.284   0.455   5.546
 8187SOL    HW125460   1.303   0.379   5.608
 8187SOL    HW225461   1.193   0.492   5.564
 8188SOL     OW25462   1.601   2.851   2.907
 8188SOL    HW125463   1.566   2.858   2.813
 8188SOL    HW225464   1.524   2.841   2.970
 8189SOL     OW25465   5.450   5.053   3.892
 8189SOL    HW125466   5.490   5.118   3.957
 8189SOL    HW225467   5.470   4.960   3.922
 8190SOL     OW25468   6.403   3.892   2.797
 8190SOL    HW125469   6.491   3.930   2.827
 8190SOL    HW225470   6.379   3.813   2.853
 8191SOL     OW25471   4.168   5.143   1.193
 8191SOL    HW125472   4.246   5.111   1.247
 8191SOL    HW225473   4.102   5.069   1.183
 8192SOL     OW25474   0.709   6.320   3.550
 8192SOL    HW125475   0.645   6.276   3.486
 8192SOL    HW225476   0.675   6.411   3.574
 8193SOL     OW25477   0.964   4.829   4.223
 8193SOL    HW125478   1.010   4.864   4.305
 8193SOL    HW225479   1.032   4.803   4.155
 8194SOL     OW25480   4.616   0.066   1.881
 8194SOL    HW125481   4.618   0.165   1.900
 8194SOL    HW225482   4.672   0.047   1.801
 8195SOL     OW25483   6.150   0.080   4.098
 8195SOL    HW125484   6.078   0.011   4.107
 8195SOL    HW225485   6.184   0.104   4.189
 8196SOL     OW25486   4.595   1.182   1.560
 8196SOL    HW125487   4.634   1.179   1.469
 8196SOL    HW225488   4.554   1.273   1.576
 8197SOL     OW25489   3.749   2.146   3.005
 8197SOL    HW125490   3.742   2.245   2.995
 8197SOL    HW225491   3.661   2.103   2.983
 8198SOL     OW25492   1.422   5.834   1.585
 8198SOL    HW125493   1.457   5.768   1.652
 8198SOL    HW225494   1.326   5.814   1.566
 8199SOL     OW25495   5.386   2.824   0.507
 8199SOL    HW125496   5.427   2.743   0.465
 8199SOL    HW225497   5.364   2.805   0.602
 8200SOL     OW25498   4.590   3.000   0.802
 8200SOL    HW125499   4.553   3.083   0.759
 8200SOL    HW225500   4.615   2.934   0.731
 8201SOL     OW25501   6.382   6.882   5.345
 8201SOL    HW125502   6.466   6.857   5.297
 8201SOL    HW225503   6.303   6.848   5.294
 8202SOL     OW25504   0.723   6.322   2.210
 8202SOL    HW125505   0.771   6.410   2.213
 8202SOL    HW225506   0.652   6.325   2.140
 8203SOL     OW25507   1.575   3.463   1.053
 8203SOL    HW125508   1.536   3.490   1.141
 8203SOL    HW225509   1.675   3.466   1.058
 8204SOL     OW25510   3.018   2.816   0.751
 8204SOL    HW125511   2.925   2.780   0.740
 8204SOL    HW225512   3.043   2.868   0.670
 8205SOL     OW25513   0.790   3.894   0.022
 8205SOL    HW125514   0.710   3.934   6.996
 8205SOL    HW225515   0.811   3.806   6.999
 8206SOL     OW25516   2.968   0.449   0.677
 8206SOL    HW125517   2.915   0.367   0.700
 8206SOL    HW225518   2.980   0.505   0.759
 8207SOL     OW25519   3.738   4.004   4.733
 8207SOL    HW125520   3.806   3.942   4.694
 8207SOL    HW225521   3.778   4.058   4.807
 8208SOL     OW25522   1.873   0.690   0.414
 8208SOL    HW125523   1.890   0.788   0.414
 8208SOL    HW225524   1.901   0.651   0.326
 8209SOL     OW25525   6.141   1.562   4.830
 8209SOL    HW125526   6.119   1.466   4.846
 8209SOL    HW225527   6.240   1.573   4.822
 8210SOL     OW25528   1.961   2.545   6.516
 8210SOL    HW125529   2.025   2.540   6.593
 8210SOL    HW225530   1.968   2.635   6.473
 8211SOL     OW25531   3.655   4.877   1.574
 8211SOL    HW125532   3.683   4.864   1.669
 8211SOL    HW225533   3.681   4.969   1.545
 8212SOL     OW25534   1.454   3.173   3.334
 8212SOL    HW125535   1.546   3.136   3.347
 8212SOL    HW225536   1.446   3.260   3.381
 8213SOL     OW25537   6.608   5.038   1.309
 8213SOL    HW125538   6.529   5.074   1.358
 8213SOL    HW225539   6.686   5.034   1.371
 8214SOL     OW25540   5.755   3.824   3.731
 8214SOL    HW125541   5.752   3.818   3.831
 8214SOL    HW225542   5.699   3.750   3.692
 8215SOL     OW25543   3.353   5.306   2.952
 8215SOL    HW125544   3.320   5.400   2.956
 8215SOL    HW225545   3.304   5.256   2.881
 8216SOL     OW25546   5.493   4.137   3.935
 8216SOL    HW125547   5.397   4.111   3.925
 8216SOL    HW225548   5.548   4.055   3.953
 8217SOL     OW25549   2.228   6.007   0.356
 8217SOL    HW125550   2.268   6.010   0.265
 8217SOL    HW225551   2.233   6.098   0.398
 8218SOL     OW25552   6.200   2.326   6.924
 8218SOL    HW125553   6.230   2.400   6.864
 8218SOL    HW225554   6.277   2.264   6.941
 8219SOL     OW25555   5.695   1.845   6.893
 8219SOL    HW125556   5.621   1.840   6.826
 8219SOL    HW225557   5.705   1.940   6.925
 8220SOL     OW25558   4.165   3.558   1.954
 8220SOL    HW125559   4.208   3.600   1.874
 8220SOL    HW225560   4.196   3.463   1.962
 8221SOL     OW25561   5.384   6.140   3.254
 8221SOL    HW125562   5.342   6.149   3.163
 8221SOL    HW225563   5.483   6.131   3.244
 8222SOL     OW25564   6.362   2.148   1.959
 8222SOL    HW125565   6.340   2.243   1.935
 8222SOL    HW225566   6.410   2.105   1.883
 8223SOL     OW25567   0.498   5.438   5.827
 8223SOL    HW125568   0.478   5.466   5.922
 8223SOL    HW225569   0.580   5.485   5.795
 8224SOL     OW25570   1.536   3.439   4.078
 8224SOL    HW125571   1.499   3.376   4.009
 8224SOL    HW225572   1.604   3.391   4.134
 8225SOL     OW25573   4.749   1.658   0.457
 8225SOL    HW125574   4.792   1.614   0.536
 8225SOL    HW225575   4.812   1.657   0.380
 8226SOL     OW25576   4.478   0.598   0.346
 8226SOL    HW125577   4.567   0.574   0.308
 8226SOL    HW225578   4.488   0.676   0.408
 8227SOL     OW25579   6.067   3.264   2.608
 8227SOL    HW125580   6.003   3.214   2.551
 8227SOL    HW225581   6.036   3.260   2.704
 8228SOL     OW25582   6.738   2.604   4.812
 8228SOL    HW125583   6.836   2.625   4.811
 8228SOL    HW225584   6.701   2.618   4.903
 8229SOL     OW25585   3.633   5.282   0.834
 8229SOL    HW125586   3.666   5.212   0.898
 8229SOL    HW225587   3.533   5.288   0.841
 8230SOL     OW25588   5.149   0.106   4.195
 8230SOL    HW125589   5.095   0.076   4.274
 8230SOL    HW225590   5.105   0.076   4.111
 8231SOL     OW25591   4.437   6.342   0.710
 8231SOL    HW125592   4.407   6.402   0.636
 8231SOL    HW225593   4.363   6.330   0.776
 8232SOL     OW25594   2.729   2.241   6.364
 8232SOL    HW125595   2.817   2.199   6.388
 8232SOL    HW225596   2.660   2.169   6.352
 8233SOL     OW25597   0.128   5.569   6.834
 8233SOL    HW125598   0.196   5.496   6.825
 8233SOL    HW225599   0.155   5.647   6.777
 8234SOL     OW25600   3.521   2.203   6.668
 8234SOL    HW125601   3.506   2.225   6.571
 8234SOL    HW225602   3.493   2.280   6.725
 8235SOL     OW25603   4.389   2.218   0.377
 8235SOL    HW125604   4.367   2.315   0.384
 8235SOL    HW225605   4.472   2.207   0.321
 8236SOL     OW25606   5.419   2.955   1.165
 8236SOL    HW125607   5.426   3.022   1.238
 8236SOL    HW225608   5.510   2.938   1.127
 8237SOL     OW25609   4.320   6.176   5.436
 8237SOL    HW125610   4.324   6.092   5.382
 8237SOL    HW225611   4.371   6.164   5.521
 8238SOL     OW25612   1.552   1.253   6.301
 8238SOL    HW125613   1.614   1.268   6.378
 8238SOL    HW225614   1.536   1.339   6.254
 8239SOL     OW25615   6.882   1.682   6.226
 8239SOL    HW125616   6.888   1.769   6.177
 8239SOL    HW225617   6.958   1.674   6.290
 8240SOL     OW25618   3.891   3.997   3.681
 8240SOL    HW125619   3.817   4.028   3.621
 8240SOL    HW225620   3.931   4.076   3.727
 8241SOL     OW25621   4.851   6.898   1.128
 8241SOL    HW125622   4.769   6.956   1.126
 8241SOL    HW225623   4.850   6.837   1.048
 8242SOL     OW25624   0.738   4.273   5.600
 8242SOL    HW125625   0.798   4.259   5.679
 8242SOL    HW225626   0.707   4.368   5.597
 8243SOL     OW25627   1.060   3.326   4.850
 8243SOL    HW125628   1.025   3.245   4.897
 8243SOL    HW225629   1.047   3.406   4.910
 8244SOL     OW25630   0.951   6.438   4.518
 8244SOL    HW125631   1.029   6.497   4.501
 8244SOL    HW225632   0.977   6.342   4.504
 8245SOL     OW25633   3.746   2.777   0.773
 8245SOL    HW125634   3.683   2.727   0.833
 8245SOL    HW225635   3.714   2.769   0.678
 8246SOL     OW25636   5.129   3.822   5.486
 8246SOL    HW125637   5.227   3.842   5.476
 8246SOL    HW225638   5.117   3.723   5.496
 8247SOL     OW25639   1.264   0.095   1.638
 8247SOL    HW125640   1.346   0.151   1.627
 8247SOL    HW225641   1.198   0.118   1.567
 8248SOL     OW25642   6.760   4.221   3.481
 8248SOL    HW125643   6.823   4.298   3.478
 8248SOL    HW225644   6.803   4.141   3.440
 8249SOL     OW25645   1.685   4.992   3.068
 8249SOL    HW125646   1.727   4.938   3.140
 8249SOL    HW225647   1.749   5.003   2.992
 8250SOL     OW25648   4.006   3.757   2.409
 8250SOL    HW125649   4.025   3.683   2.344
 8250SOL    HW225650   4.039   3.729   2.500
 8251SOL     OW25651   5.829   1.822   4.783
 8251SOL    HW125652   5.891   1.757   4.738
 8251SOL    HW225653   5.876   1.910   4.794
 8252SOL     OW25654   1.647   3.757   4.608
 8252SOL    HW125655   1.564   3.740   4.556
 8252SOL    HW225656   1.625   3.763   4.705
 8253SOL     OW25657   3.291   2.952   5.328
 8253SOL    HW125658   3.307   3.035   5.276
 8253SOL    HW225659   3.252   2.975   5.417
 8254SOL     OW25660   4.055   5.887   3.872
 8254SOL    HW125661   4.017   5.905   3.781
 8254SOL    HW225662   4.101   5.969   3.906
 8255SOL     OW25663   4.407   5.197   3.786
 8255SOL    HW125664   4.461   5.266   3.835
 8255SOL    HW225665   4.458   5.166   3.706
 8256SOL     OW25666   6.918   1.571   3.893
 8256SOL    HW125667   6.954   1.618   3.813
 8256SOL    HW225668   6.897   1.638   3.964
 8257SOL     OW25669   6.747   4.549   3.711
 8257SOL    HW125670   6.810   4.498   3.653
 8257SOL    HW225671   6.656   4.549   3.669
 8258SOL     OW25672   4.513   1.918   0.091
 8258SOL    HW125673   4.492   1.856   0.015
 8258SOL    HW225674   4.428   1.942   0.138
 8259SOL     OW25675   3.950   1.664   1.895
 8259SOL    HW125676   4.045   1.681   1.919
 8259SOL    HW225677   3.933   1.693   1.801
 8260SOL     OW25678   2.872   6.243   0.453
 8260SOL    HW125679   2.964   6.259   0.416
 8260SOL    HW225680   2.879   6.189   0.537
 8261SOL     OW25681   5.658   1.620   1.470
 8261SOL    HW125682   5.722   1.597   1.396
 8261SOL    HW225683   5.588   1.549   1.477
 8262SOL     OW25684   1.098   2.553   0.758
 8262SOL    HW125685   1.102   2.470   0.814
 8262SOL    HW225686   1.094   2.527   0.661
 8263SOL     OW25687   6.081   1.085   0.623
 8263SOL    HW125688   6.088   1.164   0.562
 8263SOL    HW225689   6.167   1.035   0.622
 8264SOL     OW25690   1.612   4.718   2.813
 8264SOL    HW125691   1.700   4.693   2.852
 8264SOL    HW225692   1.615   4.705   2.714
 8265SOL     OW25693   2.126   0.694   1.666
 8265SOL    HW125694   2.047   0.640   1.693
 8265SOL    HW225695   2.210   0.641   1.679
 8266SOL     OW25696   3.552   0.349   3.197
 8266SOL    HW125697   3.560   0.254   3.167
 8266SOL    HW225698   3.510   0.403   3.123
 8267SOL     OW25699   0.612   2.951   0.854
 8267SOL    HW125700   0.603   2.915   0.947
 8267SOL    HW225701   0.687   2.904   0.807
 8268SOL     OW25702   3.292   6.195   5.747
 8268SOL    HW125703   3.362   6.266   5.738
 8268SOL    HW225704   3.273   6.154   5.658
 8269SOL     OW25705   5.925   1.841   1.520
 8269SOL    HW125706   5.909   1.874   1.613
 8269SOL    HW225707   5.842   1.798   1.485
 8270SOL     OW25708   3.534   6.315   3.839
 8270SOL    HW125709   3.500   6.254   3.767
 8270SOL    HW225710   3.461   6.332   3.905
 8271SOL     OW25711   0.070   2.086   2.151
 8271SOL    HW125712   0.148   2.081   2.089
 8271SOL    HW225713   7.005   2.096   2.097
 8272SOL     OW25714   3.437   1.453   3.810
 8272SOL    HW125715   3.525   1.407   3.824
 8272SOL    HW225716   3.432   1.533   3.870
 8273SOL     OW25717   2.389   6.401   0.746
 8273SOL    HW125718   2.311   6.421   0.804
 8273SOL    HW225719   2.390   6.463   0.667
 8274SOL     OW25720   5.617   5.319   3.445
 8274SOL    HW125721   5.659   5.399   3.487
 8274SOL    HW225722   5.573   5.264   3.516
 8275SOL     OW25723   5.049   2.754   6.167
 8275SOL    HW125724   5.101   2.741   6.252
 8275SOL    HW225725   4.997   2.671   6.148
 8276SOL     OW25726   0.466   2.284   3.174
 8276SOL    HW125727   0.508   2.291   3.264
 8276SOL    HW225728   0.440   2.189   3.157
 8277SOL     OW25729   6.214   0.217   6.542
 8277SOL    HW125730   6.296   0.161   6.536
 8277SOL    HW225731   6.190   0.231   6.638
 8278SOL     OW25732   2.058   2.511   0.177
 8278SOL    HW125733   2.034   2.467   0.263
 8278SOL    HW225734   1.983   2.570   0.148
 8279SOL     OW25735   6.921   6.111   3.752
 8279SOL    HW125736   6.856   6.183   3.777
 8279SOL    HW225737   6.996   6.110   3.819
 8280SOL     OW25738   2.654   2.832   5.944
 8280SOL    HW125739   2.619   2.926   5.953
 8280SOL    HW225740   2.714   2.827   5.864
 8281SOL     OW25741   6.259   5.498   1.982
 8281SOL    HW125742   6.161   5.481   1.992
 8281SOL    HW225743   6.290   5.556   2.058
 8282SOL     OW25744   5.343   2.575   5.894
 8282SOL    HW125745   5.405   2.533   5.827
 8282SOL    HW225746   5.256   2.525   5.895
 8283SOL     OW25747   1.757   4.183   5.666
 8283SOL    HW125748   1.672   4.142   5.633
 8283SOL    HW225749   1.796   4.242   5.595
 8284SOL     OW25750   6.805   4.552   1.864
 8284SOL    HW125751   6.822   4.454   1.855
 8284SOL    HW225752   6.795   4.576   1.960
 8285SOL     OW25753   3.539   3.623   4.697
 8285SOL    HW125754   3.600   3.663   4.766
 8285SOL    HW225755   3.593   3.579   4.626
 8286SOL     OW25756   6.393   2.013   5.945
 8286SOL    HW125757   6.442   2.098   5.966
 8286SOL    HW225758   6.345   1.981   6.027
 8287SOL     OW25759   1.205   5.572   4.671
 8287SOL    HW125760   1.186   5.476   4.655
 8287SOL    HW225761   1.210   5.621   4.584
 8288SOL     OW25762   2.554   2.325   2.855
 8288SOL    HW125763   2.605   2.239   2.862
 8288SOL    HW225764   2.578   2.371   2.769
 8289SOL     OW25765   0.482   6.312   6.938
 8289SOL    HW125766   0.524   6.402   6.944
 8289SOL    HW225767   0.485   6.268   0.009
 8290SOL     OW25768   6.690   2.694   0.787
 8290SOL    HW125769   6.756   2.626   0.821
 8290SOL    HW225770   6.645   2.737   0.865
 8291SOL     OW25771   4.724   0.084   0.652
 8291SOL    HW125772   4.714   0.057   0.748
 8291SOL    HW225773   4.677   0.017   0.594
 8292SOL     OW25774   3.353   7.007   6.502
 8292SOL    HW125775   3.279   0.029   6.555
 8292SOL    HW225776   3.413   6.956   6.563
 8293SOL     OW25777   5.323   5.792   5.090
 8293SOL    HW125778   5.294   5.719   5.027
 8293SOL    HW225779   5.422   5.788   5.100
 8294SOL     OW25780   5.512   2.368   0.387
 8294SOL    HW125781   5.421   2.329   0.403
 8294SOL    HW225782   5.555   2.322   0.310
 8295SOL     OW25783   5.393   3.463   0.577
 8295SOL    HW125784   5.384   3.529   0.503
 8295SOL    HW225785   5.468   3.491   0.638
 8296SOL     OW25786   1.452   5.499   0.078
 8296SOL    HW125787   1.424   5.542   0.163
 8296SOL    HW225788   1.447   5.400   0.087
 8297SOL     OW25789   0.726   2.732   2.981
 8297SOL    HW125790   0.710   2.809   2.919
 8297SOL    HW225791   0.743   2.649   2.928
 8298SOL     OW25792   4.266   1.528   1.350
 8298SOL    HW125793   4.175   1.537   1.389
 8298SOL    HW225794   4.285   1.431   1.331
 8299SOL     OW25795   6.399   2.335   1.765
 8299SOL    HW125796   6.474   2.394   1.736
 8299SOL    HW225797   6.383   2.264   1.696
 8300SOL     OW25798   0.833   4.858   3.543
 8300SOL    HW125799   0.914   4.800   3.551
 8300SOL    HW225800   0.845   4.940   3.599
 8301SOL     OW25801   3.624   3.093   6.588
 8301SOL    HW125802   3.541   3.067   6.637
 8301SOL    HW225803   3.660   3.178   6.626
 8302SOL     OW25804   5.742   5.783   6.345
 8302SOL    HW125805   5.737   5.699   6.290
 8302SOL    HW225806   5.720   5.760   6.441
 8303SOL     OW25807   0.273   0.912   5.032
 8303SOL    HW125808   0.250   0.982   5.101
 8303SOL    HW225809   0.326   0.954   4.959
 8304SOL     OW25810   0.387   3.207   6.578
 8304SOL    HW125811   0.480   3.171   6.563
 8304SOL    HW225812   0.331   3.136   6.621
 8305SOL     OW25813   3.368   5.900   3.119
 8305SOL    HW125814   3.274   5.866   3.126
 8305SOL    HW225815   3.412   5.859   3.039
 8306SOL     OW25816   0.642   3.219   4.387
 8306SOL    HW125817   0.718   3.282   4.374
 8306SOL    HW225818   0.563   3.250   4.333
 8307SOL     OW25819   3.446   5.963   1.259
 8307SOL    HW125820   3.359   5.940   1.302
 8307SOL    HW225821   3.497   6.026   1.318
 8308SOL     OW25822   4.135   6.237   2.381
 8308SOL    HW125823   4.068   6.261   2.451
 8308SOL    HW225824   4.218   6.291   2.394
 8309SOL     OW25825   4.918   6.003   2.319
 8309SOL    HW125826   4.957   5.974   2.406
 8309SOL    HW225827   4.819   5.990   2.321
 8310SOL     OW25828   0.060   4.576   0.431
 8310SOL    HW125829   0.051   4.676   0.429
 8310SOL    HW225830   6.996   4.535   0.392
 8311SOL     OW25831   6.750   0.462   0.549
 8311SOL    HW125832   6.681   0.461   0.476
 8311SOL    HW225833   6.825   0.400   0.525
 8312SOL     OW25834   5.773   6.745   1.507
 8312SOL    HW125835   5.707   6.671   1.501
 8312SOL    HW225836   5.833   6.730   1.586
 8313SOL     OW25837   3.463   1.262   2.369
 8313SOL    HW125838   3.495   1.245   2.462
 8313SOL    HW225839   3.519   1.334   2.327
 8314SOL     OW25840   6.197   0.010   3.220
 8314SOL    HW125841   6.165   0.048   3.307
 8314SOL    HW225842   6.271   6.964   3.238
 8315SOL     OW25843   4.902   4.033   6.489
 8315SOL    HW125844   4.915   4.074   6.579
 8315SOL    HW225845   4.955   3.949   6.482
 8316SOL     OW25846   2.057   4.566   6.654
 8316SOL    HW125847   2.123   4.610   6.594
 8316SOL    HW225848   2.006   4.635   6.705
 8317SOL     OW25849   2.100   4.303   2.141
 8317SOL    HW125850   2.067   4.396   2.124
 8317SOL    HW225851   2.029   4.251   2.187
 8318SOL     OW25852   3.591   1.607   5.221
 8318SOL    HW125853   3.594   1.609   5.321
 8318SOL    HW225854   3.526   1.537   5.191
 8319SOL     OW25855   3.513   0.977   4.562
 8319SOL    HW125856   3.531   0.935   4.473
 8319SOL    HW225857   3.421   0.953   4.592
 8320SOL     OW25858   3.382   4.522   1.655
 8320SOL    HW125859   3.308   4.481   1.710
 8320SOL    HW225860   3.455   4.553   1.716
 8321SOL     OW25861   0.506   0.905   1.456
 8321SOL    HW125862   0.525   0.813   1.422
 8321SOL    HW225863   0.522   0.971   1.383
 8322SOL     OW25864   6.201   6.748   0.059
 8322SOL    HW125865   6.278   6.777   0.116
 8322SOL    HW225866   6.120   6.800   0.085
 8323SOL     OW25867   1.309   1.915   1.456
 8323SOL    HW125868   1.240   1.965   1.509
 8323SOL    HW225869   1.399   1.931   1.496
 8324SOL     OW25870   6.752   1.024   2.207
 8324SOL    HW125871   6.729   1.111   2.163
 8324SOL    HW225872   6.842   0.995   2.177
 8325SOL     OW25873   3.345   3.222   3.830
 8325SOL    HW125874   3.444   3.224   3.844
 8325SOL    HW225875   3.316   3.303   3.780
 8326SOL     OW25876   3.930   3.491   5.722
 8326SOL    HW125877   3.954   3.513   5.816
 8326SOL    HW225878   3.928   3.391   5.710
 8327SOL     OW25879   5.234   2.158   5.833
 8327SOL    HW125880   5.331   2.181   5.824
 8327SOL    HW225881   5.195   2.139   5.743
 8328SOL     OW25882   2.669   2.274   5.232
 8328SOL    HW125883   2.729   2.283   5.311
 8328SOL    HW225884   2.584   2.229   5.260
 8329SOL     OW25885   7.000   3.109   5.288
 8329SOL    HW125886   0.052   3.097   5.219
 8329SOL    HW225887   6.926   3.165   5.250
 8330SOL     OW25888   2.755   6.571   6.751
 8330SOL    HW125889   2.688   6.557   6.824
 8330SOL    HW225890   2.816   6.645   6.776
 8331SOL     OW25891   2.482   0.124   0.490
 8331SOL    HW125892   2.544   0.167   0.425
 8331SOL    HW225893   2.525   0.041   0.527
 8332SOL     OW25894   5.069   5.603   2.611
 8332SOL    HW125895   5.148   5.554   2.649
 8332SOL    HW225896   4.988   5.584   2.666
 8333SOL     OW25897   0.532   5.732   6.234
 8333SOL    HW125898   0.550   5.830   6.242
 8333SOL    HW225899   0.434   5.717   6.224
 8334SOL     OW25900   6.407   1.510   3.662
 8334SOL    HW125901   6.392   1.438   3.595
 8334SOL    HW225902   6.499   1.501   3.700
 8335SOL     OW25903   5.353   6.836   5.902
 8335SOL    HW125904   5.357   6.864   5.806
 8335SOL    HW225905   5.322   6.741   5.907
 8336SOL     OW25906   0.397   1.806   2.138
 8336SOL    HW125907   0.405   1.865   2.057
 8336SOL    HW225908   0.481   1.811   2.191
 8337SOL     OW25909   0.461   6.403   2.630
 8337SOL    HW125910   0.432   6.447   2.715
 8337SOL    HW225911   0.495   6.311   2.650
 8338SOL     OW25912   1.713   4.804   1.202
 8338SOL    HW125913   1.626   4.772   1.165
 8338SOL    HW225914   1.717   4.904   1.196
 8339SOL     OW25915   5.730   1.406   2.483
 8339SOL    HW125916   5.779   1.460   2.415
 8339SOL    HW225917   5.693   1.465   2.554
 8340SOL     OW25918   5.059   3.439   0.167
 8340SOL    HW125919   5.075   3.374   0.242
 8340SOL    HW225920   4.988   3.504   0.194
 8341SOL     OW25921   2.507   6.158   0.754
 8341SOL    HW125922   2.432   6.114   0.803
 8341SOL    HW225923   2.494   6.257   0.756
 8342SOL     OW25924   4.192   0.876   0.524
 8342SOL    HW125925   4.167   0.825   0.606
 8342SOL    HW225926   4.110   0.899   0.472
 8343SOL     OW25927   1.405   5.464   6.138
 8343SOL    HW125928   1.337   5.536   6.150
 8343SOL    HW225929   1.485   5.501   6.091
 8344SOL     OW25930   3.934   6.060   5.397
 8344SOL    HW125931   3.986   6.142   5.421
 8344SOL    HW225932   3.887   6.075   5.310
 8345SOL     OW25933   6.552   1.241   2.336
 8345SOL    HW125934   6.477   1.303   2.312
 8345SOL    HW225935   6.618   1.289   2.394
 8346SOL     OW25936   3.265   5.656   1.452
 8346SOL    HW125937   3.255   5.755   1.444
 8346SOL    HW225938   3.321   5.634   1.532
 8347SOL     OW25939   3.263   6.108   4.948
 8347SOL    HW125940   3.359   6.112   4.975
 8347SOL    HW225941   3.256   6.090   4.850
 8348SOL     OW25942   1.828   0.304   0.197
 8348SOL    HW125943   1.905   0.242   0.181
 8348SOL    HW225944   1.773   0.311   0.115
 8349SOL     OW25945   5.279   4.868   1.584
 8349SOL    HW125946   5.253   4.958   1.618
 8349SOL    HW225947   5.341   4.824   1.649
 8350SOL     OW25948   6.178   0.648   4.889
 8350SOL    HW125949   6.104   0.634   4.823
 8350SOL    HW225950   6.266   0.653   4.840
 8351SOL     OW25951   3.552   6.096   2.660
 8351SOL    HW125952   3.490   6.023   2.633
 8351SOL    HW225953   3.643   6.077   2.624
 8352SOL     OW25954   0.064   6.259   2.042
 8352SOL    HW125955   0.107   6.180   2.086
 8352SOL    HW225956   0.126   6.338   2.048
 8353SOL     OW25957   0.134   3.586   2.094
 8353SOL    HW125958   0.118   3.501   2.043
 8353SOL    HW225959   0.061   3.598   2.161
 8354SOL     OW25960   2.370   1.188   6.633
 8354SOL    HW125961   2.402   1.276   6.668
 8354SOL    HW225962   2.447   1.135   6.598
 8355SOL     OW25963   2.886   0.834   6.977
 8355SOL    HW125964   2.810   0.782   7.017
 8355SOL    HW225965   2.917   0.790   6.893
 8356SOL     OW25966   2.189   5.266   0.023
 8356SOL    HW125967   2.133   5.196   6.998
 8356SOL    HW225968   2.175   5.353   6.996
 8357SOL     OW25969   4.742   5.494   4.542
 8357SOL    HW125970   4.757   5.553   4.621
 8357SOL    HW225971   4.828   5.449   4.517
 8358SOL     OW25972   2.182   2.857   5.723
 8358SOL    HW125973   2.231   2.773   5.745
 8358SOL    HW225974   2.177   2.868   5.624
 8359SOL     OW25975   4.597   5.184   4.320
 8359SOL    HW125976   4.575   5.213   4.413
 8359SOL    HW225977   4.528   5.221   4.257
 8360SOL     OW25978   4.383   0.411   3.487
 8360SOL    HW125979   4.399   0.489   3.547
 8360SOL    HW225980   4.305   0.429   3.427
 8361SOL     OW25981   2.090   0.503   2.580
 8361SOL    HW125982   2.003   0.510   2.629
 8361SOL    HW225983   2.102   0.410   2.545
 8362SOL     OW25984   2.484   2.229   0.144
 8362SOL    HW125985   2.416   2.257   0.212
 8362SOL    HW225986   2.522   2.310   0.099
 8363SOL     OW25987   0.260   3.046   0.552
 8363SOL    HW125988   0.323   3.100   0.608
 8363SOL    HW225989   0.171   3.090   0.550
 8364SOL     OW25990   6.282   3.928   3.913
 8364SOL    HW125991   6.187   3.932   3.881
 8364SOL    HW225992   6.289   3.971   4.003
 8365SOL     OW25993   2.379   3.367   5.864
 8365SOL    HW125994   2.330   3.308   5.928
 8365SOL    HW225995   2.313   3.418   5.809
 8366SOL     OW25996   2.987   6.417   2.954
 8366SOL    HW125997   2.976   6.517   2.950
 8366SOL    HW225998   2.917   6.379   3.015
 8367SOL     OW25999   5.770   5.672   3.711
 8367SOL    HW126000   5.724   5.738   3.770
 8367SOL    HW226001   5.831   5.614   3.765
 8368SOL     OW26002   3.098   4.993   6.428
 8368SOL    HW126003   3.091   5.031   6.336
 8368SOL    HW226004   3.148   5.057   6.487
 8369SOL     OW26005   2.060   1.100   0.837
 8369SOL    HW126006   2.031   1.096   0.741
 8369SOL    HW226007   2.147   1.053   0.848
 8370SOL     OW26008   1.235   1.830   6.414
 8370SOL    HW126009   1.172   1.899   6.378
 8370SOL    HW226010   1.264   1.857   6.506
 8371SOL     OW26011   1.991   3.145   0.592
 8371SOL    HW126012   1.944   3.093   0.521
 8371SOL    HW226013   2.054   3.210   0.550
 8372SOL     OW26014   0.415   1.139   2.387
 8372SOL    HW126015   0.432   1.112   2.292
 8372SOL    HW226016   0.469   1.220   2.410
 8373SOL     OW26017   1.545   6.671   5.044
 8373SOL    HW126018   1.583   6.602   4.982
 8373SOL    HW226019   1.604   6.680   5.124
 8374SOL     OW26020   6.464   6.705   6.707
 8374SOL    HW126021   6.432   6.635   6.771
 8374SOL    HW226022   6.530   6.666   6.644
 8375SOL     OW26023   3.647   0.383   6.991
 8375SOL    HW126024   3.716   0.352   0.038
 8375SOL    HW226025   3.586   0.449   0.016
 8376SOL     OW26026   3.161   0.659   4.582
 8376SOL    HW126027   3.131   0.598   4.655
 8376SOL    HW226028   3.225   0.727   4.619
 8377SOL     OW26029   5.682   4.172   0.955
 8377SOL    HW126030   5.587   4.141   0.966
 8377SOL    HW226031   5.683   4.271   0.944
 8378SOL     OW26032   4.779   2.550   3.376
 8378SOL    HW126033   4.806   2.592   3.462
 8378SOL    HW226034   4.727   2.617   3.321
 8379SOL     OW26035   5.886   2.541   2.450
 8379SOL    HW126036   5.958   2.476   2.474
 8379SOL    HW226037   5.924   2.618   2.400
 8380SOL     OW26038   4.534   1.577   3.574
 8380SOL    HW126039   4.452   1.632   3.587
 8380SOL    HW226040   4.591   1.617   3.503
 8381SOL     OW26041   2.004   5.972   4.747
 8381SOL    HW126042   2.047   5.882   4.752
 8381SOL    HW226043   1.993   6.008   4.840
 8382SOL     OW26044   1.164   2.826   2.333
 8382SOL    HW126045   1.178   2.798   2.428
 8382SOL    HW226046   1.098   2.764   2.290
 8383SOL     OW26047   2.737   2.457   6.182
 8383SOL    HW126048   2.700   2.414   6.264
 8383SOL    HW226049   2.665   2.511   6.137
 8384SOL     OW26050   0.600   6.931   2.118
 8384SOL    HW126051   0.617   6.950   2.021
 8384SOL    HW226052   0.503   6.913   2.132
 8385SOL     OW26053   5.243   2.137   1.221
 8385SOL    HW126054   5.294   2.222   1.239
 8385SOL    HW226055   5.177   2.154   1.148
 8386SOL     OW26056   0.961   4.324   2.516
 8386SOL    HW126057   0.922   4.233   2.526
 8386SOL    HW226058   0.925   4.368   2.434
 8387SOL     OW26059   0.598   2.303   1.278
 8387SOL    HW126060   0.524   2.245   1.312
 8387SOL    HW226061   0.583   2.321   1.181
 8388SOL     OW26062   1.947   6.888   2.469
 8388SOL    HW126063   1.876   6.818   2.481
 8388SOL    HW226064   2.031   6.846   2.436
 8389SOL     OW26065   5.076   2.682   2.292
 8389SOL    HW126066   5.086   2.598   2.239
 8389SOL    HW226067   5.109   2.759   2.238
 8390SOL     OW26068   5.240   0.976   5.879
 8390SOL    HW126069   5.204   0.885   5.861
 8390SOL    HW226070   5.316   0.969   5.944
 8391SOL     OW26071   6.592   6.790   1.558
 8391SOL    HW126072   6.494   6.807   1.566
 8391SOL    HW226073   6.606   6.699   1.518
 8392SOL     OW26074   5.415   2.947   5.041
 8392SOL    HW126075   5.480   2.996   4.983
 8392SOL    HW226076   5.344   2.907   4.984
 8393SOL     OW26077   5.354   0.489   1.345
 8393SOL    HW126078   5.270   0.486   1.290
 8393SOL    HW226079   5.368   0.582   1.379
 8394SOL     OW26080   5.388   3.536   1.858
 8394SOL    HW126081   5.329   3.474   1.909
 8394SOL    HW226082   5.336   3.577   1.783
 8395SOL     OW26083   2.031   1.439   4.709
 8395SOL    HW126084   1.965   1.473   4.642
 8395SOL    HW226085   1.982   1.402   4.788
 8396SOL     OW26086   3.885   5.398   4.643
 8396SOL    HW126087   3.885   5.408   4.743
 8396SOL    HW226088   3.970   5.355   4.614
 8397SOL     OW26089   6.073   1.028   2.574
 8397SOL    HW126090   6.171   1.043   2.564
 8397SOL    HW226091   6.047   1.036   2.670
 8398SOL     OW26092   4.343   2.077   6.030
 8398SOL    HW126093   4.365   1.979   6.034
 8398SOL    HW226094   4.407   2.128   6.088
 8399SOL     OW26095   6.464   5.146   0.805
 8399SOL    HW126096   6.427   5.166   0.896
 8399SOL    HW226097   6.408   5.076   0.762
 8400SOL     OW26098   1.527   2.553   4.645
 8400SOL    HW126099   1.569   2.644   4.649
 8400SOL    HW226100   1.435   2.558   4.682
 8401SOL     OW26101   2.819   6.836   6.072
 8401SOL    HW126102   2.848   6.931   6.069
 8401SOL    HW226103   2.887   6.782   6.124
 8402SOL     OW26104   3.460   0.395   6.170
 8402SOL    HW126105   3.519   0.315   6.179
 8402SOL    HW226106   3.449   0.439   6.259
 8403SOL     OW26107   5.997   4.652   4.481
 8403SOL    HW126108   5.978   4.740   4.436
 8403SOL    HW226109   5.980   4.578   4.416
 8404SOL     OW26110   1.107   2.029   6.296
 8404SOL    HW126111   1.158   2.115   6.302
 8404SOL    HW226112   1.049   2.029   6.214
 8405SOL     OW26113   3.547   0.475   5.908
 8405SOL    HW126114   3.510   0.446   5.997
 8405SOL    HW226115   3.582   0.395   5.859
 8406SOL     OW26116   4.808   0.053   5.717
 8406SOL    HW126117   4.807   0.116   5.794
 8406SOL    HW226118   4.731   0.072   5.657
 8407SOL     OW26119   3.389   0.008   4.115
 8407SOL    HW126120   3.390   0.098   4.159
 8407SOL    HW226121   3.453   6.966   4.163
 8408SOL     OW26122   3.782   1.479   1.557
 8408SOL    HW126123   3.779   1.398   1.616
 8408SOL    HW226124   3.710   1.542   1.582
 8409SOL     OW26125   4.139   2.168   2.253
 8409SOL    HW126126   4.176   2.098   2.315
 8409SOL    HW226127   4.208   2.240   2.240
 8410SOL     OW26128   6.624   1.766   1.295
 8410SOL    HW126129   6.590   1.768   1.201
 8410SOL    HW226130   6.681   1.685   1.308
 8411SOL     OW26131   2.064   5.234   0.756
 8411SOL    HW126132   1.964   5.245   0.760
 8411SOL    HW226133   2.094   5.175   0.831
 8412SOL     OW26134   2.504   2.441   6.377
 8412SOL    HW126135   2.538   2.355   6.414
 8412SOL    HW226136   2.418   2.424   6.328
 8413SOL     OW26137   4.459   5.754   4.975
 8413SOL    HW126138   4.419   5.679   4.923
 8413SOL    HW226139   4.466   5.728   5.072
 8414SOL     OW26140   1.457   0.581   1.364
 8414SOL    HW126141   1.512   0.621   1.291
 8414SOL    HW226142   1.510   0.510   1.411
 8415SOL     OW26143   2.378   1.135   5.594
 8415SOL    HW126144   2.401   1.180   5.680
 8415SOL    HW226145   2.282   1.106   5.596
 8416SOL     OW26146   6.510   1.686   5.099
 8416SOL    HW126147   6.430   1.661   5.153
 8416SOL    HW226148   6.521   1.786   5.100
 8417SOL     OW26149   1.460   3.626   5.552
 8417SOL    HW126150   1.407   3.550   5.589
 8417SOL    HW226151   1.510   3.596   5.471
 8418SOL     OW26152   0.464   6.004   2.303
 8418SOL    HW126153   0.470   6.031   2.399
 8418SOL    HW226154   0.552   5.968   2.273
 8419SOL     OW26155   3.971   1.870   4.304
 8419SOL    HW126156   3.884   1.842   4.345
 8419SOL    HW226157   3.994   1.962   4.336
 8420SOL     OW26158   3.328   0.272   1.931
 8420SOL    HW126159   3.299   0.368   1.931
 8420SOL    HW226160   3.418   0.264   1.974
 8421SOL     OW26161   4.661   6.905   6.478
 8421SOL    HW126162   4.571   6.883   6.441
 8421SOL    HW226163   4.729   6.841   6.441
 8422SOL     OW26164   5.066   2.072   3.426
 8422SOL    HW126165   5.016   1.988   3.406
 8422SOL    HW226166   5.007   2.135   3.476
 8423SOL     OW26167   6.832   5.393   6.304
 8423SOL    HW126168   6.841   5.425   6.210
 8423SOL    HW226169   6.868   5.462   6.367
 8424SOL     OW26170   2.602   0.156   4.246
 8424SOL    HW126171   2.685   0.201   4.279
 8424SOL    HW226172   2.587   0.180   4.151
 8425SOL     OW26173   3.783   3.997   2.600
 8425SOL    HW126174   3.781   3.905   2.561
 8425SOL    HW226175   3.847   3.999   2.677
 8426SOL     OW26176   3.792   2.961   2.102
 8426SOL    HW126177   3.819   3.050   2.066
 8426SOL    HW226178   3.811   2.957   2.200
 8427SOL     OW26179   3.428   3.515   3.974
 8427SOL    HW126180   3.475   3.444   4.026
 8427SOL    HW226181   3.482   3.540   3.894
 8428SOL     OW26182   6.418   6.926   1.202
 8428SOL    HW126183   6.480   6.848   1.203
 8428SOL    HW226184   6.359   6.922   1.121
 8429SOL     OW26185   2.593   5.904   5.656
 8429SOL    HW126186   2.500   5.931   5.683
 8429SOL    HW226187   2.588   5.836   5.582
 8430SOL     OW26188   4.138   6.572   4.928
 8430SOL    HW126189   4.095   6.627   4.999
 8430SOL    HW226190   4.146   6.627   4.844
 8431SOL     OW26191   2.703   3.494   6.410
 8431SOL    HW126192   2.702   3.500   6.510
 8431SOL    HW226193   2.654   3.572   6.371
 8432SOL     OW26194   6.665   4.947   6.247
 8432SOL    HW126195   6.703   4.988   6.330
 8432SOL    HW226196   6.649   4.850   6.262
 8433SOL     OW26197   5.394   2.674   1.191
 8433SOL    HW126198   5.393   2.772   1.174
 8433SOL    HW226199   5.338   2.627   1.123
 8434SOL     OW26200   2.381   6.078   5.346
 8434SOL    HW126201   2.356   6.080   5.443
 8434SOL    HW226202   2.403   5.984   5.319
 8435SOL     OW26203   4.804   1.481   3.304
 8435SOL    HW126204   4.805   1.525   3.394
 8435SOL    HW226205   4.895   1.445   3.284
 8436SOL     OW26206   2.452   5.643   2.348
 8436SOL    HW126207   2.353   5.641   2.352
 8436SOL    HW226208   2.485   5.737   2.364
 8437SOL     OW26209   1.288   4.473   2.092
 8437SOL    HW126210   1.293   4.433   2.184
 8437SOL    HW226211   1.376   4.512   2.068
 8438SOL     OW26212   1.012   4.178   2.174
 8438SOL    HW126213   0.923   4.198   2.214
 8438SOL    HW226214   1.000   4.122   2.092
 8439SOL     OW26215   6.030   5.051   3.130
 8439SOL    HW126216   5.966   5.087   3.061
 8439SOL    HW226217   5.979   5.013   3.206
 8440SOL     OW26218   2.199   1.239   3.022
 8440SOL    HW126219   2.140   1.306   3.067
 8440SOL    HW226220   2.193   1.151   3.071
 8441SOL     OW26221   6.004   1.027   4.739
 8441SOL    HW126222   6.003   1.013   4.838
 8441SOL    HW226223   6.056   1.110   4.718
 8442SOL     OW26224   3.097   1.296   6.739
 8442SOL    HW126225   3.131   1.371   6.795
 8442SOL    HW226226   3.150   1.213   6.759
 8443SOL     OW26227   0.956   4.190   3.566
 8443SOL    HW126228   1.008   4.111   3.537
 8443SOL    HW226229   0.876   4.160   3.618
 8444SOL     OW26230   5.397   5.047   4.764
 8444SOL    HW126231   5.352   4.984   4.701
 8444SOL    HW226232   5.385   5.014   4.858
 8445SOL     OW26233   4.601   6.272   6.722
 8445SOL    HW126234   4.644   6.200   6.776
 8445SOL    HW226235   4.502   6.265   6.730
 8446SOL     OW26236   0.189   5.546   4.748
 8446SOL    HW126237   0.122   5.473   4.763
 8446SOL    HW226238   0.212   5.550   4.650
 8447SOL     OW26239   3.851   2.168   3.322
 8447SOL    HW126240   3.835   2.145   3.417
 8447SOL    HW226241   3.764   2.171   3.273
 8448SOL     OW26242   3.385   6.242   2.817
 8448SOL    HW126243   3.457   6.186   2.777
 8448SOL    HW226244   3.424   6.302   2.886
 8449SOL     OW26245   2.352   2.161   3.130
 8449SOL    HW126246   2.412   2.108   3.189
 8449SOL    HW226247   2.276   2.104   3.099
 8450SOL     OW26248   0.197   1.165   6.979
 8450SOL    HW126249   0.258   1.192   6.905
 8450SOL    HW226250   0.163   1.247   0.007
 8451SOL     OW26251   4.555   2.528   1.089
 8451SOL    HW126252   4.466   2.488   1.068
 8451SOL    HW226253   4.545   2.599   1.158
 8452SOL     OW26254   5.130   2.084   5.586
 8452SOL    HW126255   5.031   2.087   5.601
 8452SOL    HW226256   5.151   2.016   5.515
 8453SOL     OW26257   0.185   6.082   0.753
 8453SOL    HW126258   0.247   6.036   0.817
 8453SOL    HW226259   0.162   6.019   0.679
 8454SOL     OW26260   6.626   4.232   6.780
 8454SOL    HW126261   6.692   4.302   6.809
 8454SOL    HW226262   6.672   4.166   6.720
 8455SOL     OW26263   0.100   1.261   2.804
 8455SOL    HW126264   0.159   1.181   2.809
 8455SOL    HW226265   0.155   1.344   2.799
 8456SOL     OW26266   6.227   0.686   3.525
 8456SOL    HW126267   6.290   0.742   3.471
 8456SOL    HW226268   6.197   0.738   3.605
 8457SOL     OW26269   6.669   0.139   5.337
 8457SOL    HW126270   6.602   0.142   5.410
 8457SOL    HW226271   6.623   0.118   5.250
 8458SOL     OW26272   0.031   6.479   6.701
 8458SOL    HW126273   0.045   6.524   6.789
 8458SOL    HW226274   6.967   6.514   6.658
 8459SOL     OW26275   1.451   5.536   3.487
 8459SOL    HW126276   1.547   5.547   3.513
 8459SOL    HW226277   1.424   5.611   3.427
 8460SOL     OW26278   3.228   4.128   3.342
 8460SOL    HW126279   3.237   4.217   3.298
 8460SOL    HW226280   3.296   4.120   3.415
 8461SOL     OW26281   6.461   3.763   3.777
 8461SOL    HW126282   6.467   3.664   3.793
 8461SOL    HW226283   6.379   3.799   3.822
 8462SOL     OW26284   2.088   3.104   1.625
 8462SOL    HW126285   2.137   3.191   1.616
 8462SOL    HW226286   2.097   3.070   1.719
 8463SOL     OW26287   5.253   1.146   1.906
 8463SOL    HW126288   5.155   1.156   1.889
 8463SOL    HW226289   5.274   1.052   1.933
 8464SOL     OW26290   6.718   1.780   4.550
 8464SOL    HW126291   6.705   1.721   4.471
 8464SOL    HW226292   6.781   1.854   4.527
 8465SOL     OW26293   1.492   2.266   6.908
 8465SOL    HW126294   1.580   2.280   6.955
 8465SOL    HW226295   1.498   2.306   6.816
 8466SOL     OW26296   0.275   0.013   4.057
 8466SOL    HW126297   0.280   0.104   4.096
 8466SOL    HW226298   0.186   6.991   4.078
 8467SOL     OW26299   3.173   5.476   0.751
 8467SOL    HW126300   3.125   5.558   0.782
 8467SOL    HW226301   3.244   5.501   0.685
 8468SOL     OW26302   4.913   1.748   0.789
 8468SOL    HW126303   4.814   1.759   0.786
 8468SOL    HW226304   4.955   1.835   0.815
 8469SOL     OW26305   3.701   2.529   6.708
 8469SOL    HW126306   3.796   2.512   6.685
 8469SOL    HW226307   3.687   2.513   6.806
 8470SOL     OW26308   1.491   2.918   6.765
 8470SOL    HW126309   1.402   2.884   6.736
 8470SOL    HW226310   1.526   2.861   6.839
 8471SOL     OW26311   4.166   1.391   4.190
 8471SOL    HW126312   4.123   1.450   4.258
 8471SOL    HW226313   4.161   1.434   4.100
 8472SOL     OW26314   1.219   6.221   3.625
 8472SOL    HW126315   1.155   6.157   3.668
 8472SOL    HW226316   1.252   6.182   3.539
 8473SOL     OW26317   6.382   5.929   0.161
 8473SOL    HW126318   6.401   5.831   0.168
 8473SOL    HW226319   6.330   5.948   0.078
 8474SOL     OW26320   4.358   5.015   0.556
 8474SOL    HW126321   4.292   4.989   0.486
 8474SOL    HW226322   4.310   5.038   0.640
 8475SOL     OW26323   4.470   1.158   3.505
 8475SOL    HW126324   4.496   1.208   3.422
 8475SOL    HW226325   4.422   1.220   3.567
 8476SOL     OW26326   4.889   0.507   2.705
 8476SOL    HW126327   4.865   0.429   2.647
 8476SOL    HW226328   4.811   0.568   2.712
 8477SOL     OW26329   2.836   1.275   2.211
 8477SOL    HW126330   2.837   1.178   2.185
 8477SOL    HW226331   2.928   1.305   2.234
 8478SOL     OW26332   1.823   0.259   5.752
 8478SOL    HW126333   1.889   0.329   5.723
 8478SOL    HW226334   1.736   0.275   5.706
 8479SOL     OW26335   4.609   1.065   2.220
 8479SOL    HW126336   4.534   1.049   2.156
 8479SOL    HW226337   4.677   0.992   2.211
 8480SOL     OW26338   1.458   1.333   1.295
 8480SOL    HW126339   1.369   1.296   1.268
 8480SOL    HW226340   1.452   1.432   1.304
 8481SOL     OW26341   3.826   7.002   4.199
 8481SOL    HW126342   3.907   0.016   4.246
 8481SOL    HW226343   3.853   6.953   4.116
 8482SOL     OW26344   0.664   0.269   2.158
 8482SOL    HW126345   0.645   0.223   2.071
 8482SOL    HW226346   0.615   0.356   2.160
 8483SOL     OW26347   4.637   5.679   2.018
 8483SOL    HW126348   4.617   5.687   2.116
 8483SOL    HW226349   4.552   5.682   1.966
 8484SOL     OW26350   0.668   4.725   4.881
 8484SOL    HW126351   0.694   4.636   4.918
 8484SOL    HW226352   0.747   4.769   4.838
 8485SOL     OW26353   2.798   3.146   5.798
 8485SOL    HW126354   2.718   3.176   5.850
 8485SOL    HW226355   2.871   3.214   5.806
 8486SOL     OW26356   4.443   0.767   2.476
 8486SOL    HW126357   4.437   0.667   2.471
 8486SOL    HW226358   4.392   0.806   2.399
 8487SOL     OW26359   4.469   6.861   1.203
 8487SOL    HW126360   4.471   6.762   1.188
 8487SOL    HW226361   4.515   6.882   1.290
 8488SOL     OW26362   5.148   3.016   4.316
 8488SOL    HW126363   5.171   3.106   4.279
 8488SOL    HW226364   5.167   3.014   4.414
 8489SOL     OW26365   4.226   5.007   3.000
 8489SOL    HW126366   4.178   5.092   2.979
 8489SOL    HW226367   4.225   4.992   3.099
 8490SOL     OW26368   4.009   5.453   2.594
 8490SOL    HW126369   3.966   5.498   2.515
 8490SOL    HW226370   3.956   5.473   2.676
 8491SOL     OW26371   1.849   0.941   2.063
 8491SOL    HW126372   1.810   0.851   2.083
 8491SOL    HW226373   1.946   0.932   2.042
 8492SOL     OW26374   5.565   3.681   4.364
 8492SOL    HW126375   5.590   3.607   4.426
 8492SOL    HW226376   5.604   3.767   4.397
 8493SOL     OW26377   3.205   2.214   0.486
 8493SOL    HW126378   3.238   2.299   0.528
 8493SOL    HW226379   3.116   2.190   0.523
 8494SOL     OW26380   3.728   5.751   0.136
 8494SOL    HW126381   3.691   5.837   0.170
 8494SOL    HW226382   3.782   5.769   0.053
 8495SOL     OW26383   0.506   2.845   0.029
 8495SOL    HW126384   0.500   2.943   0.009
 8495SOL    HW226385   0.528   2.832   0.126
 8496SOL     OW26386   6.351   3.067   3.112
 8496SOL    HW126387   6.404   3.079   3.028
 8496SOL    HW226388   6.259   3.038   3.090
 8497SOL     OW26389   6.039   5.435   3.220
 8497SOL    HW126390   5.945   5.438   3.186
 8497SOL    HW226391   6.084   5.523   3.202
 8498SOL     OW26392   6.896   0.955   0.428
 8498SOL    HW126393   6.951   1.020   0.481
 8498SOL    HW226394   6.869   0.879   0.487
 8499SOL     OW26395   3.328   4.097   6.202
 8499SOL    HW126396   3.277   4.065   6.282
 8499SOL    HW226397   3.297   4.189   6.177
 8500SOL     OW26398   3.303   0.974   6.406
 8500SOL    HW126399   3.346   0.934   6.325
 8500SOL    HW226400   3.352   0.944   6.488
 8501SOL     OW26401   2.313   4.443   5.763
 8501SOL    HW126402   2.264   4.356   5.764
 8501SOL    HW226403   2.366   4.450   5.678
 8502SOL     OW26404   0.161   0.400   2.181
 8502SOL    HW126405   0.161   0.400   2.081
 8502SOL    HW226406   0.227   0.332   2.214
 8503SOL     OW26407   3.051   5.612   3.253
 8503SOL    HW126408   3.109   5.571   3.324
 8503SOL    HW226409   2.984   5.672   3.296
 8504SOL     OW26410   0.645   5.623   2.997
 8504SOL    HW126411   0.686   5.711   3.019
 8504SOL    HW226412   0.629   5.572   3.082
 8505SOL     OW26413   4.893   2.878   3.888
 8505SOL    HW126414   4.922   2.930   3.808
 8505SOL    HW226415   4.864   2.941   3.960
 8506SOL     OW26416   0.910   6.483   0.384
 8506SOL    HW126417   1.009   6.487   0.380
 8506SOL    HW226418   0.872   6.574   0.367
 8507SOL     OW26419   2.399   1.097   4.754
 8507SOL    HW126420   2.391   1.000   4.730
 8507SOL    HW226421   2.364   1.153   4.678
 8508SOL     OW26422   1.067   2.952   6.134
 8508SOL    HW126423   1.034   3.045   6.147
 8508SOL    HW226424   1.166   2.952   6.121
 8509SOL     OW26425   6.044   2.150   4.611
 8509SOL    HW126426   5.958   2.132   4.563
 8509SOL    HW226427   6.115   2.091   4.574
 8510SOL     OW26428   5.017   0.379   3.015
 8510SOL    HW126429   5.085   0.386   2.941
 8510SOL    HW226430   4.934   0.336   2.980
 8511SOL     OW26431   0.131   4.798   1.843
 8511SOL    HW126432   0.190   4.717   1.837
 8511SOL    HW226433   0.064   4.785   1.916
 8512SOL     OW26434   4.350   1.952   0.520
 8512SOL    HW126435   4.361   2.026   0.453
 8512SOL    HW226436   4.361   1.989   0.612
 8513SOL     OW26437   0.315   4.237   1.295
 8513SOL    HW126438   0.394   4.196   1.339
 8513SOL    HW226439   0.240   4.245   1.361
 8514SOL     OW26440   2.416   2.640   5.914
 8514SOL    HW126441   2.409   2.630   5.814
 8514SOL    HW226442   2.472   2.721   5.934
 8515SOL     OW26443   1.480   0.378   0.994
 8515SOL    HW126444   1.491   0.461   0.940
 8515SOL    HW226445   1.428   0.311   0.941
 8516SOL     OW26446   5.421   2.204   3.915
 8516SOL    HW126447   5.420   2.244   3.823
 8516SOL    HW226448   5.360   2.125   3.919
 8517SOL     OW26449   1.826   1.975   5.707
 8517SOL    HW126450   1.826   1.884   5.747
 8517SOL    HW226451   1.915   2.018   5.720
 8518SOL     OW26452   5.000   4.750   0.058
 8518SOL    HW126453   4.967   4.707   0.142
 8518SOL    HW226454   5.084   4.704   0.028
 8519SOL     OW26455   1.315   3.469   0.958
 8519SOL    HW126456   1.411   3.490   0.976
 8519SOL    HW226457   1.308   3.385   0.905
 8520SOL     OW26458   3.861   3.930   5.892
 8520SOL    HW126459   3.861   4.028   5.911
 8520SOL    HW226460   3.956   3.899   5.881
 8521SOL     OW26461   1.750   6.470   5.654
 8521SOL    HW126462   1.749   6.439   5.559
 8521SOL    HW226463   1.844   6.490   5.682
 8522SOL     OW26464   0.648   6.776   0.580
 8522SOL    HW126465   0.684   6.835   0.652
 8522SOL    HW226466   0.583   6.712   0.619
 8523SOL     OW26467   3.060   1.411   0.218
 8523SOL    HW126468   3.038   1.337   0.281
 8523SOL    HW226469   3.113   1.481   0.265
 8524SOL     OW26470   2.057   5.970   4.488
 8524SOL    HW126471   2.032   5.956   4.584
 8524SOL    HW226472   2.155   5.958   4.476
 8525SOL     OW26473   6.465   4.576   1.741
 8525SOL    HW126474   6.465   4.668   1.701
 8525SOL    HW226475   6.454   4.582   1.840
 8526SOL     OW26476   0.824   5.424   0.584
 8526SOL    HW126477   0.842   5.469   0.497
 8526SOL    HW226478   0.910   5.399   0.628
 8527SOL     OW26479   3.170   0.816   5.294
 8527SOL    HW126480   3.153   0.761   5.212
 8527SOL    HW226481   3.084   0.855   5.327
 8528SOL     OW26482   4.904   1.638   0.184
 8528SOL    HW126483   4.828   1.577   0.162
 8528SOL    HW226484   4.971   1.638   0.110
 8529SOL     OW26485   1.024   6.046   6.383
 8529SOL    HW126486   0.996   6.044   6.479
 8529SOL    HW226487   0.979   5.972   6.333
 8530SOL     OW26488   2.995   3.782   3.803
 8530SOL    HW126489   2.936   3.710   3.769
 8530SOL    HW226490   3.089   3.747   3.812
 8531SOL     OW26491   6.812   5.244   4.193
 8531SOL    HW126492   6.862   5.253   4.279
 8531SOL    HW226493   6.716   5.223   4.212
 8532SOL     OW26494   2.669   5.254   5.759
 8532SOL    HW126495   2.619   5.198   5.826
 8532SOL    HW226496   2.603   5.293   5.694
 8533SOL     OW26497   2.765   6.226   5.910
 8533SOL    HW126498   2.734   6.155   5.973
 8533SOL    HW226499   2.800   6.185   5.827
 8534SOL     OW26500   2.231   2.373   3.567
 8534SOL    HW126501   2.305   2.437   3.544
 8534SOL    HW226502   2.145   2.407   3.529
 8535SOL     OW26503   6.198   0.591   2.776
 8535SOL    HW126504   6.268   0.642   2.827
 8535SOL    HW226505   6.219   0.595   2.679
 8536SOL     OW26506   0.636   1.364   5.020
 8536SOL    HW126507   0.724   1.383   5.064
 8536SOL    HW226508   0.624   1.424   4.942
 8537SOL     OW26509   6.919   1.187   2.640
 8537SOL    HW126510   7.001   1.217   2.689
 8537SOL    HW226511   6.906   1.243   2.558
 8538SOL     OW26512   0.968   2.719   0.280
 8538SOL    HW126513   0.922   2.787   0.223
 8538SOL    HW226514   0.917   2.633   0.277
 8539SOL     OW26515   5.837   2.307   2.917
 8539SOL    HW126516   5.753   2.290   2.968
 8539SOL    HW226517   5.873   2.220   2.883
 8540SOL     OW26518   3.641   0.279   0.762
 8540SOL    HW126519   3.708   0.215   0.725
 8540SOL    HW226520   3.575   0.229   0.819
 8541SOL     OW26521   1.945   2.895   4.754
 8541SOL    HW126522   2.032   2.939   4.775
 8541SOL    HW226523   1.951   2.797   4.773
 8542SOL     OW26524   3.553   4.873   0.934
 8542SOL    HW126525   3.631   4.926   0.965
 8542SOL    HW226526   3.563   4.851   0.837
 8543SOL     OW26527   2.325   2.152   6.404
 8543SOL    HW126528   2.278   2.111   6.482
 8543SOL    HW226529   2.285   2.241   6.383
 8544SOL     OW26530   6.408   2.941   3.354
 8544SOL    HW126531   6.403   2.957   3.255
 8544SOL    HW226532   6.413   3.028   3.402
 8545SOL     OW26533   4.939   6.338   4.978
 8545SOL    HW126534   4.917   6.422   4.928
 8545SOL    HW226535   4.854   6.292   5.005
 8546SOL     OW26536   4.430   1.576   6.162
 8546SOL    HW126537   4.378   1.566   6.247
 8546SOL    HW226538   4.528   1.575   6.182
 8547SOL     OW26539   0.790   4.545   3.055
 8547SOL    HW126540   0.877   4.582   3.090
 8547SOL    HW226541   0.787   4.446   3.073
 8548SOL     OW26542   6.065   1.467   5.622
 8548SOL    HW126543   6.053   1.519   5.707
 8548SOL    HW226544   5.988   1.404   5.612
 8549SOL     OW26545   5.605   3.383   4.910
 8549SOL    HW126546   5.543   3.415   4.838
 8549SOL    HW226547   5.610   3.283   4.908
 8550SOL     OW26548   0.852   3.877   6.674
 8550SOL    HW126549   0.779   3.809   6.661
 8550SOL    HW226550   0.817   3.952   6.731
 8551SOL     OW26551   3.301   4.069   0.964
 8551SOL    HW126552   3.348   3.988   0.999
 8551SOL    HW226553   3.305   4.071   0.864
 8552SOL     OW26554   3.225   6.582   4.163
 8552SOL    HW126555   3.142   6.605   4.112
 8552SOL    HW226556   3.270   6.666   4.192
 8553SOL     OW26557   5.923   5.490   0.506
 8553SOL    HW126558   6.011   5.536   0.517
 8553SOL    HW226559   5.880   5.479   0.596
 8554SOL     OW26560   6.387   4.338   6.865
 8554SOL    HW126561   6.465   4.280   6.843
 8554SOL    HW226562   6.327   4.290   6.929
 8555SOL     OW26563   0.741   6.797   4.339
 8555SOL    HW126564   0.728   6.722   4.404
 8555SOL    HW226565   0.652   6.833   4.311
 8556SOL     OW26566   6.350   0.367   4.036
 8556SOL    HW126567   6.251   0.362   4.029
 8556SOL    HW226568   6.376   0.443   4.095
 8557SOL     OW26569   0.491   0.830   0.336
 8557SOL    HW126570   0.570   0.880   0.372
 8557SOL    HW226571   0.451   0.773   0.408
 8558SOL     OW26572   1.017   5.385   1.895
 8558SOL    HW126573   0.934   5.374   1.950
 8558SOL    HW226574   1.092   5.334   1.938
 8559SOL     OW26575   0.529   1.365   6.238
 8559SOL    HW126576   0.594   1.317   6.297
 8559SOL    HW226577   0.516   1.458   6.272
 8560SOL     OW26578   6.576   2.557   6.576
 8560SOL    HW126579   6.670   2.547   6.607
 8560SOL    HW226580   6.519   2.586   6.652
 8561SOL     OW26581   4.935   6.748   4.568
 8561SOL    HW126582   4.975   6.697   4.492
 8561SOL    HW226583   5.007   6.774   4.632
 8562SOL     OW26584   3.551   6.813   4.290
 8562SOL    HW126585   3.595   6.782   4.374
 8562SOL    HW226586   3.621   6.843   4.225
 8563SOL     OW26587   2.687   2.831   6.224
 8563SOL    HW126588   2.681   2.916   6.276
 8563SOL    HW226589   2.648   2.844   6.134
 8564SOL     OW26590   0.238   0.056   3.770
 8564SOL    HW126591   0.140   0.040   3.779
 8564SOL    HW226592   0.288   7.012   3.830
 8565SOL     OW26593   4.570   0.411   1.790
 8565SOL    HW126594   4.520   0.494   1.816
 8565SOL    HW226595   4.663   0.415   1.826
 8566SOL     OW26596   2.122   3.653   3.012
 8566SOL    HW126597   2.217   3.679   2.992
 8566SOL    HW226598   2.086   3.598   2.938
 8567SOL     OW26599   5.564   6.522   0.600
 8567SOL    HW126600   5.643   6.462   0.587
 8567SOL    HW226601   5.573   6.602   0.540
 8568SOL     OW26602   5.356   1.463   0.169
 8568SOL    HW126603   5.442   1.510   0.191
 8568SOL    HW226604   5.367   1.412   0.084
 8569SOL     OW26605   4.326   1.618   5.349
 8569SOL    HW126606   4.425   1.606   5.359
 8569SOL    HW226607   4.302   1.714   5.362
 8570SOL     OW26608   0.887   4.486   6.720
 8570SOL    HW126609   0.793   4.513   6.741
 8570SOL    HW226610   0.886   4.403   6.664
 8571SOL     OW26611   6.995   4.613   4.700
 8571SOL    HW126612   6.947   4.531   4.732
 8571SOL    HW226613   6.987   4.619   4.601
 8572SOL     OW26614   3.064   4.795   5.452
 8572SOL    HW126615   2.995   4.790   5.381
 8572SOL    HW226616   3.047   4.724   5.521
 8573SOL     OW26617   4.317   5.589   4.814
 8573SOL    HW126618   4.312   5.630   4.723
 8573SOL    HW226619   4.270   5.501   4.815
 8574SOL     OW26620   0.685   3.677   4.317
 8574SOL    HW126621   0.664   3.591   4.271
 8574SOL    HW226622   0.782   3.698   4.307
 8575SOL     OW26623   3.096   3.201   6.551
 8575SOL    HW126624   3.141   3.124   6.506
 8575SOL    HW226625   3.034   3.246   6.486
 8576SOL     OW26626   1.861   0.034   1.726
 8576SOL    HW126627   1.924   0.096   1.679
 8576SOL    HW226628   1.911   6.971   1.756
 8577SOL     OW26629   6.740   5.288   3.206
 8577SOL    HW126630   6.692   5.373   3.227
 8577SOL    HW226631   6.766   5.286   3.109
 8578SOL     OW26632   4.711   6.782   3.776
 8578SOL    HW126633   4.690   6.781   3.874
 8578SOL    HW226634   4.782   6.715   3.757
 8579SOL     OW26635   0.607   5.809   2.799
 8579SOL    HW126636   0.595   5.737   2.867
 8579SOL    HW226637   0.704   5.820   2.779
 8580SOL     OW26638   2.945   4.478   5.995
 8580SOL    HW126639   2.973   4.551   6.058
 8580SOL    HW226640   2.902   4.404   6.047
 8581SOL     OW26641   3.215   2.689   0.923
 8581SOL    HW126642   3.304   2.704   0.879
 8581SOL    HW226643   3.142   2.722   0.863
 8582SOL     OW26644   4.564   4.153   1.124
 8582SOL    HW126645   4.652   4.194   1.099
 8582SOL    HW226646   4.502   4.224   1.156
 8583SOL     OW26647   5.305   0.369   5.964
 8583SOL    HW126648   5.281   0.277   5.994
 8583SOL    HW226649   5.297   0.433   6.041
 8584SOL     OW26650   0.169   5.245   6.486
 8584SOL    HW126651   0.262   5.235   6.451
 8584SOL    HW226652   0.170   5.301   6.570
 8585SOL     OW26653   1.127   1.147   0.956
 8585SOL    HW126654   1.035   1.135   0.918
 8585SOL    HW226655   1.190   1.172   0.882
 8586SOL     OW26656   4.104   5.423   4.257
 8586SOL    HW126657   4.062   5.368   4.329
 8586SOL    HW226658   4.035   5.444   4.187
 8587SOL     OW26659   0.099   1.693   1.461
 8587SOL    HW126660   0.015   1.735   1.495
 8587SOL    HW226661   0.101   1.597   1.488
 8588SOL     OW26662   4.190   2.127   0.193
 8588SOL    HW126663   4.183   2.181   0.109
 8588SOL    HW226664   4.261   2.166   0.252
 8589SOL     OW26665   2.886   1.498   4.695
 8589SOL    HW126666   2.934   1.586   4.697
 8589SOL    HW226667   2.876   1.463   4.788
 8590SOL     OW26668   6.404   4.723   5.823
 8590SOL    HW126669   6.479   4.788   5.825
 8590SOL    HW226670   6.339   4.745   5.896
 8591SOL     OW26671   0.828   2.776   0.014
 8591SOL    HW126672   0.785   2.856   6.990
 8591SOL    HW226673   0.927   2.779   7.018
 8592SOL     OW26674   6.574   5.569   6.181
 8592SOL    HW126675   6.634   5.495   6.212
 8592SOL    HW226676   6.481   5.552   6.212
 8593SOL     OW26677   0.642   0.188   3.048
 8593SOL    HW126678   0.620   0.232   2.961
 8593SOL    HW226679   0.585   0.228   3.121
 8594SOL     OW26680   3.321   3.665   3.445
 8594SOL    HW126681   3.414   3.639   3.471
 8594SOL    HW226682   3.321   3.702   3.352
 8595SOL     OW26683   1.747   2.636   1.947
 8595SOL    HW126684   1.791   2.574   1.882
 8595SOL    HW226685   1.816   2.680   2.004
 8596SOL     OW26686   6.422   4.456   2.407
 8596SOL    HW126687   6.375   4.398   2.340
 8596SOL    HW226688   6.503   4.496   2.365
 8597SOL     OW26689   2.084   1.625   0.722
 8597SOL    HW126690   2.167   1.640   0.776
 8597SOL    HW226691   2.037   1.712   0.709
 8598SOL     OW26692   5.159   4.219   0.732
 8598SOL    HW126693   5.225   4.216   0.656
 8598SOL    HW226694   5.162   4.132   0.782
 8599SOL     OW26695   1.436   3.094   2.297
 8599SOL    HW126696   1.364   3.133   2.355
 8599SOL    HW226697   1.397   3.021   2.240
 8600SOL     OW26698   5.989   3.679   6.233
 8600SOL    HW126699   6.019   3.607   6.296
 8600SOL    HW226700   5.897   3.708   6.258
 8601SOL     OW26701   0.303   0.590   4.567
 8601SOL    HW126702   0.376   0.581   4.636
 8601SOL    HW226703   0.280   0.500   4.531
 8602SOL     OW26704   2.520   6.146   2.385
 8602SOL    HW126705   2.530   6.151   2.485
 8602SOL    HW226706   2.571   6.221   2.343
 8603SOL     OW26707   4.504   3.585   1.111
 8603SOL    HW126708   4.486   3.498   1.065
 8603SOL    HW226709   4.581   3.575   1.174
 8604SOL     OW26710   5.396   2.458   2.872
 8604SOL    HW126711   5.311   2.435   2.920
 8604SOL    HW226712   5.470   2.403   2.909
 8605SOL     OW26713   3.031   6.779   2.329
 8605SOL    HW126714   2.946   6.738   2.296
 8605SOL    HW226715   3.103   6.763   2.262
 8606SOL     OW26716   4.070   5.020   6.079
 8606SOL    HW126717   4.124   5.027   6.163
 8606SOL    HW226718   4.108   5.080   6.009
 8607SOL     OW26719   3.517   6.125   1.654
 8607SOL    HW126720   3.424   6.098   1.680
 8607SOL    HW226721   3.553   6.189   1.721
 8608SOL     OW26722   5.129   6.231   2.714
 8608SOL    HW126723   5.161   6.187   2.630
 8608SOL    HW226724   5.207   6.252   2.772
 8609SOL     OW26725   4.133   0.442   6.054
 8609SOL    HW126726   4.168   0.356   6.091
 8609SOL    HW226727   4.102   0.428   5.960
 8610SOL     OW26728   0.254   6.674   4.548
 8610SOL    HW126729   0.285   6.603   4.610
 8610SOL    HW226730   0.202   6.743   4.598
 8611SOL     OW26731   1.723   2.008   3.357
 8611SOL    HW126732   1.756   2.093   3.314
 8611SOL    HW226733   1.720   2.020   3.456
 8612SOL     OW26734   4.672   2.914   5.105
 8612SOL    HW126735   4.772   2.909   5.104
 8612SOL    HW226736   4.635   2.880   5.019
 8613SOL     OW26737   1.037   1.288   0.223
 8613SOL    HW126738   1.121   1.306   0.171
 8613SOL    HW226739   0.996   1.375   0.250
 8614SOL     OW26740   1.166   1.414   3.446
 8614SOL    HW126741   1.173   1.371   3.356
 8614SOL    HW226742   1.210   1.504   3.444
 8615SOL     OW26743   4.500   2.307   5.405
 8615SOL    HW126744   4.481   2.351   5.317
 8615SOL    HW226745   4.457   2.216   5.407
 8616SOL     OW26746   1.631   3.533   6.901
 8616SOL    HW126747   1.661   3.621   6.865
 8616SOL    HW226748   1.710   3.474   6.916
 8617SOL     OW26749   6.056   3.627   1.154
 8617SOL    HW126750   6.148   3.600   1.126
 8617SOL    HW226751   6.018   3.557   1.215
 8618SOL     OW26752   4.950   0.662   3.431
 8618SOL    HW126753   4.865   0.623   3.396
 8618SOL    HW226754   4.998   0.710   3.358
 8619SOL     OW26755   4.270   5.574   0.551
 8619SOL    HW126756   4.180   5.615   0.535
 8619SOL    HW226757   4.335   5.608   0.484
 8620SOL     OW26758   5.990   6.456   3.399
 8620SOL    HW126759   5.911   6.457   3.461
 8620SOL    HW226760   6.074   6.471   3.451
 8621SOL     OW26761   5.870   0.782   3.151
 8621SOL    HW126762   5.786   0.826   3.185
 8621SOL    HW226763   5.940   0.851   3.137
 8622SOL     OW26764   5.329   5.842   7.008
 8622SOL    HW126765   5.253   5.865   6.947
 8622SOL    HW226766   5.416   5.859   6.961
 8623SOL     OW26767   6.509   3.091   2.867
 8623SOL    HW126768   6.440   3.143   2.818
 8623SOL    HW226769   6.541   3.015   2.810
 8624SOL     OW26770   0.434   5.124   3.490
 8624SOL    HW126771   0.364   5.153   3.555
 8624SOL    HW226772   0.509   5.190   3.491
 8625SOL     OW26773   3.551   0.765   5.950
 8625SOL    HW126774   3.520   0.673   5.926
 8625SOL    HW226775   3.641   0.761   5.992
 8626SOL     OW26776   3.190   2.991   2.424
 8626SOL    HW126777   3.142   3.031   2.346
 8626SOL    HW226778   3.257   2.924   2.391
 8627SOL     OW26779   2.074   0.234   6.570
 8627SOL    HW126780   2.080   0.186   6.482
 8627SOL    HW226781   2.151   0.298   6.577
 8628SOL     OW26782   5.773   1.449   0.286
 8628SOL    HW126783   5.782   1.390   0.206
 8628SOL    HW226784   5.692   1.422   0.338
 8629SOL     OW26785   1.202   5.233   3.709
 8629SOL    HW126786   1.246   5.245   3.798
 8629SOL    HW226787   1.115   5.283   3.708
 8630SOL     OW26788   5.179   4.631   4.082
 8630SOL    HW126789   5.226   4.640   4.170
 8630SOL    HW226790   5.146   4.720   4.053
 8631SOL     OW26791   3.744   5.933   3.981
 8631SOL    HW126792   3.802   5.914   3.902
 8631SOL    HW226793   3.648   5.919   3.956
 8632SOL     OW26794   4.664   0.656   3.247
 8632SOL    HW126795   4.637   0.560   3.261
 8632SOL    HW226796   4.706   0.665   3.156
 8633SOL     OW26797   6.102   0.579   3.957
 8633SOL    HW126798   6.083   0.508   4.025
 8633SOL    HW226799   6.089   0.542   3.865
 8634SOL     OW26800   6.168   5.223   1.932
 8634SOL    HW126801   6.252   5.213   1.987
 8634SOL    HW226802   6.191   5.268   1.846
 8635SOL     OW26803   6.585   3.907   5.598
 8635SOL    HW126804   6.564   3.956   5.514
 8635SOL    HW226805   6.681   3.920   5.622
 8636SOL     OW26806   5.348   5.825   0.297
 8636SOL    HW126807   5.339   5.834   0.198
 8636SOL    HW226808   5.342   5.915   0.340
 8637SOL     OW26809   1.590   0.361   1.457
 8637SOL    HW126810   1.567   0.306   1.377
 8637SOL    HW226811   1.687   0.387   1.454
 8638SOL     OW26812   4.520   5.281   0.137
 8638SOL    HW126813   4.536   5.336   0.219
 8638SOL    HW226814   4.590   5.211   0.130
 8639SOL     OW26815   6.648   2.688   1.760
 8639SOL    HW126816   6.692   2.605   1.795
 8639SOL    HW226817   6.605   2.737   1.836
 8640SOL     OW26818   5.265   6.339   1.445
 8640SOL    HW126819   5.199   6.388   1.388
 8640SOL    HW226820   5.220   6.310   1.530
 8641SOL     OW26821   5.201   4.820   3.652
 8641SOL    HW126822   5.120   4.838   3.597
 8641SOL    HW226823   5.180   4.836   3.749
 8642SOL     OW26824   4.713   1.692   1.887
 8642SOL    HW126825   4.768   1.727   1.811
 8642SOL    HW226826   4.765   1.701   1.972
 8643SOL     OW26827   4.557   1.156   6.380
 8643SOL    HW126828   4.591   1.069   6.345
 8643SOL    HW226829   4.467   1.142   6.422
 8644SOL     OW26830   6.460   3.589   5.474
 8644SOL    HW126831   6.501   3.651   5.540
 8644SOL    HW226832   6.459   3.496   5.510
 8645SOL     OW26833   5.771   4.663   1.518
 8645SOL    HW126834   5.851   4.704   1.564
 8645SOL    HW226835   5.698   4.649   1.585
 8646SOL     OW26836   5.521   0.572   0.164
 8646SOL    HW126837   5.423   0.580   0.178
 8646SOL    HW226838   5.570   0.613   0.242
 8647SOL     OW26839   4.497   4.851   1.854
 8647SOL    HW126840   4.446   4.862   1.769
 8647SOL    HW226841   4.480   4.759   1.891
 8648SOL     OW26842   5.281   1.722   4.565
 8648SOL    HW126843   5.201   1.779   4.583
 8648SOL    HW226844   5.351   1.740   4.635
 8649SOL     OW26845   0.272   4.735   5.457
 8649SOL    HW126846   0.292   4.642   5.425
 8649SOL    HW226847   0.293   4.800   5.385
 8650SOL     OW26848   1.274   4.751   2.098
 8650SOL    HW126849   1.288   4.782   2.003
 8650SOL    HW226850   1.270   4.651   2.100
 8651SOL     OW26851   3.009   2.204   1.221
 8651SOL    HW126852   3.027   2.281   1.160
 8651SOL    HW226853   3.056   2.123   1.186
 8652SOL     OW26854   1.645   3.960   3.941
 8652SOL    HW126855   1.643   3.945   4.040
 8652SOL    HW226856   1.557   3.995   3.911
 8653SOL     OW26857   6.456   3.172   6.511
 8653SOL    HW126858   6.361   3.150   6.490
 8653SOL    HW226859   6.474   3.153   6.608
 8654SOL     OW26860   0.125   6.802   3.236
 8654SOL    HW126861   0.222   6.777   3.230
 8654SOL    HW226862   0.109   6.885   3.181
 8655SOL     OW26863   5.605   6.056   4.102
 8655SOL    HW126864   5.568   6.054   4.196
 8655SOL    HW226865   5.530   6.071   4.038
 8656SOL     OW26866   6.138   2.337   1.469
 8656SOL    HW126867   6.172   2.261   1.525
 8656SOL    HW226868   6.216   2.386   1.429
 8657SOL     OW26869   3.298   4.070   0.695
 8657SOL    HW126870   3.387   4.080   0.652
 8657SOL    HW226871   3.227   4.109   0.635
 8658SOL     OW26872   0.021   5.312   0.170
 8658SOL    HW126873   6.946   5.331   0.140
 8658SOL    HW226874   0.026   5.219   0.206
 8659SOL     OW26875   4.794   0.441   3.934
 8659SOL    HW126876   4.852   0.411   3.858
 8659SOL    HW226877   4.728   0.369   3.955
 8660SOL     OW26878   5.567   4.580   0.784
 8660SOL    HW126879   5.602   4.656   0.729
 8660SOL    HW226880   5.643   4.534   0.829
 8661SOL     OW26881   5.878   3.818   1.699
 8661SOL    HW126882   5.794   3.823   1.646
 8661SOL    HW226883   5.866   3.754   1.775
 8662SOL     OW26884   0.199   0.372   0.660
 8662SOL    HW126885   0.282   0.365   0.604
 8662SOL    HW226886   0.172   0.468   0.666
 8663SOL     OW26887   2.810   5.800   0.568
 8663SOL    HW126888   2.738   5.734   0.589
 8663SOL    HW226889   2.780   5.891   0.597
 8664SOL     OW26890   4.295   5.097   1.726
 8664SOL    HW126891   4.249   5.119   1.811
 8664SOL    HW226892   4.285   5.172   1.661
 8665SOL     OW26893   4.849   5.461   5.731
 8665SOL    HW126894   4.798   5.522   5.670
 8665SOL    HW226895   4.849   5.368   5.693
 8666SOL     OW26896   5.334   3.702   4.203
 8666SOL    HW126897   5.416   3.675   4.254
 8666SOL    HW226898   5.334   3.801   4.190
 8667SOL     OW26899   5.209   1.476   3.306
 8667SOL    HW126900   5.158   1.394   3.331
 8667SOL    HW226901   5.298   1.450   3.269
 8668SOL     OW26902   3.598   2.022   4.283
 8668SOL    HW126903   3.673   2.083   4.255
 8668SOL    HW226904   3.545   2.067   4.355
 8669SOL     OW26905   3.992   0.601   6.212
 8669SOL    HW126906   3.892   0.599   6.205
 8669SOL    HW226907   4.031   0.540   6.143
 8670SOL     OW26908   4.070   4.893   4.354
 8670SOL    HW126909   4.002   4.917   4.423
 8670SOL    HW226910   4.131   4.970   4.338
 8671SOL     OW26911   5.835   6.542   2.768
 8671SOL    HW126912   5.780   6.543   2.851
 8671SOL    HW226913   5.793   6.602   2.700
 8672SOL     OW26914   3.364   4.844   5.180
 8672SOL    HW126915   3.337   4.785   5.256
 8672SOL    HW226916   3.463   4.837   5.166
 8673SOL     OW26917   5.688   2.190   0.981
 8673SOL    HW126918   5.657   2.139   1.060
 8673SOL    HW226919   5.762   2.140   0.936
 8674SOL     OW26920   0.585   0.285   2.807
 8674SOL    HW126921   0.524   0.360   2.782
 8674SOL    HW226922   0.558   0.203   2.756
 8675SOL     OW26923   2.102   1.671   2.582
 8675SOL    HW126924   2.195   1.646   2.555
 8675SOL    HW226925   2.060   1.726   2.511
 8676SOL     OW26926   4.565   6.509   3.225
 8676SOL    HW126927   4.640   6.534   3.164
 8676SOL    HW226928   4.548   6.582   3.290
 8677SOL     OW26929   2.348   4.345   5.013
 8677SOL    HW126930   2.315   4.274   4.951
 8677SOL    HW226931   2.340   4.312   5.107
 8678SOL     OW26932   0.949   0.596   6.398
 8678SOL    HW126933   0.882   0.573   6.469
 8678SOL    HW226934   0.977   0.691   6.408
 8679SOL     OW26935   6.617   2.313   4.751
 8679SOL    HW126936   6.657   2.404   4.756
 8679SOL    HW226937   6.590   2.293   4.656
 8680SOL     OW26938   1.444   3.318   0.293
 8680SOL    HW126939   1.517   3.385   0.280
 8680SOL    HW226940   1.483   3.229   0.318
 8681SOL     OW26941   4.375   3.582   0.867
 8681SOL    HW126942   4.424   3.616   0.787
 8681SOL    HW226943   4.437   3.579   0.945
 8682SOL     OW26944   2.208   5.966   2.656
 8682SOL    HW126945   2.134   6.000   2.598
 8682SOL    HW226946   2.196   5.868   2.671
 8683SOL     OW26947   6.413   3.390   6.351
 8683SOL    HW126948   6.406   3.354   6.258
 8683SOL    HW226949   6.408   3.315   6.417
 8684SOL     OW26950   6.406   2.408   4.123
 8684SOL    HW126951   6.376   2.437   4.214
 8684SOL    HW226952   6.403   2.487   4.061
 8685SOL     OW26953   0.940   1.992   5.224
 8685SOL    HW126954   0.906   1.900   5.242
 8685SOL    HW226955   1.032   1.987   5.184
 8686SOL     OW26956   6.299   2.475   3.209
 8686SOL    HW126957   6.272   2.532   3.131
 8686SOL    HW226958   6.243   2.498   3.288
 8687SOL     OW26959   4.604   0.189   2.750
 8687SOL    HW126960   4.554   0.103   2.740
 8687SOL    HW226961   4.617   0.230   2.660
 8688SOL     OW26962   2.063   0.229   2.301
 8688SOL    HW126963   2.094   0.254   2.393
 8688SOL    HW226964   2.113   0.147   2.271
 8689SOL     OW26965   4.326   5.620   0.817
 8689SOL    HW126966   4.329   5.606   0.718
 8689SOL    HW226967   4.293   5.538   0.862
 8690SOL     OW26968   0.834   1.385   2.914
 8690SOL    HW126969   0.789   1.363   3.001
 8690SOL    HW226970   0.824   1.307   2.851
 8691SOL     OW26971   5.770   1.984   0.795
 8691SOL    HW126972   5.750   1.889   0.821
 8691SOL    HW226973   5.704   2.014   0.726
 8692SOL     OW26974   1.564   1.504   4.230
 8692SOL    HW126975   1.491   1.556   4.186
 8692SOL    HW226976   1.611   1.563   4.296
 8693SOL     OW26977   5.627   2.088   0.597
 8693SOL    HW126978   5.661   2.182   0.596
 8693SOL    HW226979   5.645   2.046   0.508
 8694SOL     OW26980   4.382   6.529   5.886
 8694SOL    HW126981   4.369   6.449   5.945
 8694SOL    HW226982   4.302   6.541   5.828
 8695SOL     OW26983   4.371   4.371   5.883
 8695SOL    HW126984   4.352   4.293   5.943
 8695SOL    HW226985   4.287   4.398   5.836
 8696SOL     OW26986   1.932   4.817   1.003
 8696SOL    HW126987   1.997   4.744   1.021
 8696SOL    HW226988   1.862   4.818   1.074
 8697SOL     OW26989   5.986   4.207   0.786
 8697SOL    HW126990   6.047   4.225   0.709
 8697SOL    HW226991   5.968   4.293   0.834
 8698SOL     OW26992   5.914   5.672   4.440
 8698SOL    HW126993   5.943   5.720   4.357
 8698SOL    HW226994   5.834   5.615   4.419
 8699SOL     OW26995   1.289   1.399   5.308
 8699SOL    HW126996   1.317   1.449   5.226
 8699SOL    HW226997   1.362   1.402   5.375
 8700SOL     OW26998   2.670   1.496   5.841
 8700SOL    HW126999   2.727   1.468   5.918
 8700SOL    HW227000   2.724   1.492   5.757
 8701SOL     OW27001   1.334   1.820   4.444
 8701SOL    HW127002   1.342   1.880   4.524
 8701SOL    HW227003   1.359   1.872   4.361
 8702SOL     OW27004   4.754   6.074   0.108
 8702SOL    HW127005   4.840   6.042   0.068
 8702SOL    HW227006   4.765   6.167   0.142
 8703SOL     OW27007   2.411   5.669   1.071
 8703SOL    HW127008   2.455   5.658   1.160
 8703SOL    HW227009   2.312   5.667   1.083
 8704SOL     OW27010   0.565   4.135   1.405
 8704SOL    HW127011   0.546   4.050   1.356
 8704SOL    HW227012   0.615   4.115   1.489
 8705SOL     OW27013   4.589   0.036   5.535
 8705SOL    HW127014   4.509   0.019   5.592
 8705SOL    HW227015   4.603   6.978   5.473
 8706SOL     OW27016   5.304   2.084   6.959
 8706SOL    HW127017   5.275   1.991   6.934
 8706SOL    HW227018   5.276   2.103   0.035
 8707SOL     OW27019   4.808   2.766   5.853
 8707SOL    HW127020   4.802   2.691   5.787
 8707SOL    HW227021   4.802   2.854   5.805
 8708SOL     OW27022   4.056   1.709   1.078
 8708SOL    HW127023   3.957   1.696   1.080
 8708SOL    HW227024   4.097   1.668   1.160
 8709SOL     OW27025   6.997   3.787   0.894
 8709SOL    HW127026   6.898   3.779   0.905
 8709SOL    HW227027   0.021   3.698   0.910
 8710SOL     OW27028   1.107   3.447   3.359
 8710SOL    HW127029   1.143   3.355   3.341
 8710SOL    HW227030   1.044   3.443   3.437
 8711SOL     OW27031   0.428   1.547   3.950
 8711SOL    HW127032   0.515   1.518   3.909
 8711SOL    HW227033   0.446   1.616   4.020
 8712SOL     OW27034   3.577   1.524   5.628
 8712SOL    HW127035   3.675   1.539   5.638
 8712SOL    HW227036   3.537   1.598   5.574
 8713SOL     OW27037   7.012   4.663   3.299
 8713SOL    HW127038   0.013   4.673   3.397
 8713SOL    HW227039   0.063   4.710   3.246
 8714SOL     OW27040   1.548   1.552   4.738
 8714SOL    HW127041   1.583   1.462   4.762
 8714SOL    HW227042   1.570   1.617   4.811
 8715SOL     OW27043   6.124   1.740   1.320
 8715SOL    HW127044   6.044   1.722   1.262
 8715SOL    HW227045   6.094   1.778   1.407
 8716SOL     OW27046   1.550   2.038   1.565
 8716SOL    HW127047   1.544   1.987   1.651
 8716SOL    HW227048   1.605   2.120   1.579
 8717SOL     OW27049   3.375   3.374   0.878
 8717SOL    HW127050   3.323   3.289   0.888
 8717SOL    HW227051   3.427   3.391   0.962
 8718SOL     OW27052   6.217   3.034   5.672
 8718SOL    HW127053   6.301   3.046   5.620
 8718SOL    HW227054   6.213   3.102   5.745
 8719SOL     OW27055   6.832   0.729   6.396
 8719SOL    HW127056   6.900   0.803   6.397
 8719SOL    HW227057   6.878   0.641   6.411
 8720SOL     OW27058   5.118   3.916   5.758
 8720SOL    HW127059   5.131   3.895   5.662
 8720SOL    HW227060   5.027   3.886   5.787
 8721SOL     OW27061   6.910   2.412   4.285
 8721SOL    HW127062   6.889   2.503   4.250
 8721SOL    HW227063   6.992   2.377   4.241
 8722SOL     OW27064   3.647   2.753   0.210
 8722SOL    HW127065   3.549   2.773   0.216
 8722SOL    HW227066   3.680   2.777   0.118
 8723SOL     OW27067   6.905   4.617   0.843
 8723SOL    HW127068   6.819   4.651   0.805
 8723SOL    HW227069   6.924   4.665   0.929
 8724SOL     OW27070   5.129   6.953   6.638
 8724SOL    HW127071   5.099   7.016   6.566
 8724SOL    HW227072   5.193   6.887   6.600
 8725SOL     OW27073   2.633   5.747   0.899
 8725SOL    HW127074   2.552   5.724   0.953
 8725SOL    HW227075   2.635   5.690   0.817
 8726SOL     OW27076   5.602   0.455   1.536
 8726SOL    HW127077   5.651   0.527   1.485
 8726SOL    HW227078   5.506   0.455   1.508
 8727SOL     OW27079   6.128   5.539   1.361
 8727SOL    HW127080   6.057   5.548   1.292
 8727SOL    HW227081   6.216   5.521   1.317
 8728SOL     OW27082   2.356   0.199   5.151
 8728SOL    HW127083   2.405   0.130   5.205
 8728SOL    HW227084   2.411   0.283   5.147
 8729SOL     OW27085   5.911   6.120   4.532
 8729SOL    HW127086   6.004   6.152   4.551
 8729SOL    HW227087   5.894   6.124   4.434
 8730SOL     OW27088   0.017   6.498   1.399
 8730SOL    HW127089   0.052   6.574   1.345
 8730SOL    HW227090   0.047   6.508   1.494
 8731SOL     OW27091   1.164   1.817   2.858
 8731SOL    HW127092   1.070   1.850   2.871
 8731SOL    HW227093   1.201   1.787   2.946
 8732SOL     OW27094   5.177   4.816   1.345
 8732SOL    HW127095   5.211   4.820   1.439
 8732SOL    HW227096   5.159   4.909   1.312
 8733SOL     OW27097   0.581   6.345   1.290
 8733SOL    HW127098   0.601   6.250   1.314
 8733SOL    HW227099   0.665   6.389   1.257
 8734SOL     OW27100   6.267   4.926   0.739
 8734SOL    HW127101   6.253   5.003   0.675
 8734SOL    HW227102   6.188   4.920   0.801
 8735SOL     OW27103   6.325   2.282   6.582
 8735SOL    HW127104   6.314   2.353   6.652
 8735SOL    HW227105   6.235   2.256   6.546
 8736SOL     OW27106   0.460   4.898   6.713
 8736SOL    HW127107   0.462   4.805   6.678
 8736SOL    HW227108   0.368   4.937   6.701
 8737SOL     OW27109   3.582   5.811   6.384
 8737SOL    HW127110   3.507   5.815   6.318
 8737SOL    HW227111   3.589   5.898   6.432
 8738SOL     OW27112   1.423   3.721   4.451
 8738SOL    HW127113   1.477   3.698   4.371
 8738SOL    HW227114   1.372   3.641   4.482
 8739SOL     OW27115   1.366   3.122   5.319
 8739SOL    HW127116   1.335   3.215   5.338
 8739SOL    HW227117   1.290   3.070   5.280
 8740SOL     OW27118   2.159   6.263   1.350
 8740SOL    HW127119   2.109   6.279   1.435
 8740SOL    HW227120   2.152   6.166   1.325
 8741SOL     OW27121   1.207   3.926   2.027
 8741SOL    HW127122   1.166   3.835   2.039
 8741SOL    HW227123   1.297   3.917   1.983
 8742SOL     OW27124   4.351   0.120   1.976
 8742SOL    HW127125   4.429   0.058   1.973
 8742SOL    HW227126   4.286   0.091   2.046
 8743SOL     OW27127   2.536   4.518   3.099
 8743SOL    HW127128   2.609   4.587   3.094
 8743SOL    HW227129   2.510   4.491   3.006
 8744SOL     OW27130   3.230   2.786   5.819
 8744SOL    HW127131   3.236   2.880   5.854
 8744SOL    HW227132   3.311   2.767   5.762
 8745SOL     OW27133   6.410   2.221   6.214
 8745SOL    HW127134   6.460   2.305   6.236
 8745SOL    HW227135   6.312   2.235   6.228
 8746SOL     OW27136   5.082   4.566   5.245
 8746SOL    HW127137   5.171   4.531   5.275
 8746SOL    HW227138   5.093   4.613   5.157
 8747SOL     OW27139   1.790   2.726   4.344
 8747SOL    HW127140   1.850   2.730   4.263
 8747SOL    HW227141   1.764   2.631   4.361
 8748SOL     OW27142   1.843   0.635   6.906
 8748SOL    HW127143   1.847   0.604   6.810
 8748SOL    HW227144   1.914   0.703   6.922
 8749SOL     OW27145   4.139   1.082   3.861
 8749SOL    HW127146   4.105   1.090   3.955
 8749SOL    HW227147   4.066   1.106   3.797
 8750SOL     OW27148   2.478   1.145   5.334
 8750SOL    HW127149   2.468   1.158   5.432
 8750SOL    HW227150   2.514   1.229   5.293
 8751SOL     OW27151   1.979   0.032   2.689
 8751SOL    HW127152   2.039   7.013   2.758
 8751SOL    HW227153   1.987   6.998   2.604
 8752SOL     OW27154   1.727   2.443   6.184
 8752SOL    HW127155   1.745   2.537   6.156
 8752SOL    HW227156   1.633   2.435   6.216
 8753SOL     OW27157   5.291   1.283   5.119
 8753SOL    HW127158   5.304   1.209   5.185
 8753SOL    HW227159   5.311   1.371   5.163
 8754SOL     OW27160   1.434   0.996   5.588
 8754SOL    HW127161   1.406   0.911   5.633
 8754SOL    HW227162   1.421   0.987   5.490
 8755SOL     OW27163   2.137   2.200   0.522
 8755SOL    HW127164   2.210   2.131   0.524
 8755SOL    HW227165   2.166   2.280   0.576
 8756SOL     OW27166   2.221   3.123   4.277
 8756SOL    HW127167   2.241   3.087   4.368
 8756SOL    HW227168   2.257   3.060   4.208
 8757SOL     OW27169   5.135   6.011   4.360
 8757SOL    HW127170   5.190   6.090   4.334
 8757SOL    HW227171   5.038   6.036   4.355
 8758SOL     OW27172   5.695   6.522   2.213
 8758SOL    HW127173   5.722   6.495   2.305
 8758SOL    HW227174   5.643   6.447   2.171
 8759SOL     OW27175   4.937   1.337   5.995
 8759SOL    HW127176   4.961   1.264   5.931
 8759SOL    HW227177   4.850   1.314   6.040
 8760SOL     OW27178   1.798   3.176   3.696
 8760SOL    HW127179   1.805   3.194   3.794
 8760SOL    HW227180   1.762   3.257   3.650
 8761SOL     OW27181   5.178   6.535   1.078
 8761SOL    HW127182   5.122   6.527   1.162
 8761SOL    HW227183   5.150   6.465   1.013
 8762SOL     OW27184   0.873   3.735   0.420
 8762SOL    HW127185   0.846   3.829   0.402
 8762SOL    HW227186   0.972   3.732   0.435
 8763SOL     OW27187   6.895   6.287   5.974
 8763SOL    HW127188   6.861   6.347   5.901
 8763SOL    HW227189   6.984   6.250   5.948
 8764SOL     OW27190   3.380   2.062   4.906
 8764SOL    HW127191   3.479   2.072   4.901
 8764SOL    HW227192   3.339   2.151   4.924
 8765SOL     OW27193   0.143   0.419   4.917
 8765SOL    HW127194   0.226   0.383   4.875
 8765SOL    HW227195   0.152   0.518   4.929
 8766SOL     OW27196   2.427   4.494   2.841
 8766SOL    HW127197   2.338   4.472   2.881
 8766SOL    HW227198   2.432   4.458   2.748
 8767SOL     OW27199   5.035   1.861   4.571
 8767SOL    HW127200   5.068   1.946   4.531
 8767SOL    HW227201   4.955   1.879   4.627
 8768SOL     OW27202   1.194   3.431   6.712
 8768SOL    HW127203   1.172   3.340   6.746
 8768SOL    HW227204   1.125   3.459   6.645
 8769SOL     OW27205   1.946   0.692   5.357
 8769SOL    HW127206   2.029   0.713   5.408
 8769SOL    HW227207   1.935   0.758   5.282
 8770SOL     OW27208   5.384   2.153   2.411
 8770SOL    HW127209   5.380   2.251   2.427
 8770SOL    HW227210   5.473   2.118   2.441
 8771SOL     OW27211   1.497   2.464   6.364
 8771SOL    HW127212   1.507   2.405   6.445
 8771SOL    HW227213   1.401   2.489   6.353
 8772SOL     OW27214   5.431   0.013   0.025
 8772SOL    HW127215   5.333   7.015   0.012
 8772SOL    HW227216   5.481   6.997   6.964
 8773SOL     OW27217   2.782   2.310   3.235
 8773SOL    HW127218   2.826   2.400   3.240
 8773SOL    HW227219   2.711   2.311   3.165
 8774SOL     OW27220   1.161   0.973   6.704
 8774SOL    HW127221   1.160   1.070   6.727
 8774SOL    HW227222   1.254   0.944   6.683
 8775SOL     OW27223   6.231   0.159   4.391
 8775SOL    HW127224   6.168   0.082   4.396
 8775SOL    HW227225   6.233   0.206   4.480
 8776SOL     OW27226   3.567   3.240   4.888
 8776SOL    HW127227   3.490   3.287   4.930
 8776SOL    HW227228   3.556   3.141   4.901
 8777SOL     OW27229   6.424   5.562   1.778
 8777SOL    HW127230   6.360   5.546   1.854
 8777SOL    HW227231   6.397   5.643   1.727
 8778SOL     OW27232   0.781   2.318   3.155
 8778SOL    HW127233   0.761   2.238   3.212
 8778SOL    HW227234   0.752   2.401   3.202
 8779SOL     OW27235   1.849   4.334   0.560
 8779SOL    HW127236   1.949   4.333   0.548
 8779SOL    HW227237   1.824   4.409   0.622
 8780SOL     OW27238   1.678   5.694   4.160
 8780SOL    HW127239   1.671   5.742   4.248
 8780SOL    HW227240   1.722   5.753   4.093
 8781SOL     OW27241   0.610   2.093   2.717
 8781SOL    HW127242   0.608   2.169   2.651
 8781SOL    HW227243   0.668   2.118   2.795
 8782SOL     OW27244   4.697   1.736   2.696
 8782SOL    HW127245   4.610   1.688   2.681
 8782SOL    HW227246   4.773   1.671   2.688
 8783SOL     OW27247   5.345   3.177   5.169
 8783SOL    HW127248   5.370   3.098   5.114
 8783SOL    HW227249   5.247   3.175   5.188
 8784SOL     OW27250   5.312   4.454   5.335
 8784SOL    HW127251   5.361   4.393   5.273
 8784SOL    HW227252   5.300   4.409   5.424
 8785SOL     OW27253   5.404   4.764   6.713
 8785SOL    HW127254   5.343   4.719   6.648
 8785SOL    HW227255   5.482   4.802   6.664
 8786SOL     OW27256   1.198   6.177   0.573
 8786SOL    HW127257   1.282   6.227   0.553
 8786SOL    HW227258   1.196   6.092   0.519
 8787SOL     OW27259   1.265   2.952   0.357
 8787SOL    HW127260   1.310   2.976   0.444
 8787SOL    HW227261   1.243   2.855   0.356
 8788SOL     OW27262   0.963   2.074   5.646
 8788SOL    HW127263   0.955   2.159   5.594
 8788SOL    HW227264   0.943   2.091   5.742
 8789SOL     OW27265   0.092   0.094   6.789
 8789SOL    HW127266   0.059   0.189   6.788
 8789SOL    HW227267   0.015   0.032   6.775
 8790SOL     OW27268   4.932   1.916   6.840
 8790SOL    HW127269   4.866   1.841   6.835
 8790SOL    HW227270   5.024   1.878   6.851
 8791SOL     OW27271   4.856   6.455   5.749
 8791SOL    HW127272   4.953   6.430   5.757
 8791SOL    HW227273   4.847   6.536   5.691
 8792SOL     OW27274   4.769   0.285   2.966
 8792SOL    HW127275   4.724   0.231   3.038
 8792SOL    HW227276   4.719   0.275   2.881
 8793SOL     OW27277   1.124   4.923   4.426
 8793SOL    HW127278   1.088   5.002   4.476
 8793SOL    HW227279   1.145   4.850   4.492
 8794SOL     OW27280   3.062   6.644   2.595
 8794SOL    HW127281   2.965   6.667   2.602
 8794SOL    HW227282   3.071   6.557   2.547
 8795SOL     OW27283   1.787   6.440   5.293
 8795SOL    HW127284   1.789   6.539   5.300
 8795SOL    HW227285   1.878   6.406   5.268
 8796SOL     OW27286   5.491   2.585   5.459
 8796SOL    HW127287   5.583   2.555   5.484
 8796SOL    HW227288   5.469   2.669   5.509
 8797SOL     OW27289   0.575   6.542   0.002
 8797SOL    HW127290   0.654   6.552   6.959
 8797SOL    HW227291   0.568   6.622   0.061
 8798SOL     OW27292   4.238   3.433   6.267
 8798SOL    HW127293   4.199   3.523   6.286
 8798SOL    HW227294   4.218   3.407   6.172
 8799SOL     OW27295   3.922   6.342   2.550
 8799SOL    HW127296   3.874   6.425   2.580
 8799SOL    HW227297   3.979   6.308   2.625
 8800SOL     OW27298   4.505   5.153   6.848
 8800SOL    HW127299   4.468   5.128   6.759
 8800SOL    HW227300   4.475   5.246   6.872
 8801SOL     OW27301   3.075   0.044   4.899
 8801SOL    HW127302   3.001   0.052   4.832
 8801SOL    HW227303   3.066   6.976   4.948
 8802SOL     OW27304   2.814   0.196   2.201
 8802SOL    HW127305   2.892   0.252   2.171
 8802SOL    HW227306   2.800   0.209   2.299
 8803SOL     OW27307   3.763   5.947   0.702
 8803SOL    HW127308   3.757   5.883   0.778
 8803SOL    HW227309   3.751   5.899   0.615
 8804SOL     OW27310   4.316   0.408   0.827
 8804SOL    HW127311   4.318   0.507   0.813
 8804SOL    HW227312   4.352   0.363   0.745
 8805SOL     OW27313   0.070   0.038   3.130
 8805SOL    HW127314   6.994   0.047   3.099
 8805SOL    HW227315   0.132   0.071   3.059
 8806SOL     OW27316   2.009   5.113   6.939
 8806SOL    HW127317   1.983   5.155   6.852
 8806SOL    HW227318   1.926   5.090   6.991
 8807SOL     OW27319   1.398   6.348   6.387
 8807SOL    HW127320   1.356   6.332   6.476
 8807SOL    HW227321   1.336   6.402   6.330
 8808SOL     OW27322   6.102   1.270   0.835
 8808SOL    HW127323   6.144   1.359   0.815
 8808SOL    HW227324   6.169   1.198   0.823
 8809SOL     OW27325   6.313   4.110   1.304
 8809SOL    HW127326   6.324   4.041   1.375
 8809SOL    HW227327   6.386   4.101   1.237
 8810SOL     OW27328   5.034   1.279   3.923
 8810SOL    HW127329   5.017   1.185   3.893
 8810SOL    HW227330   4.999   1.342   3.854
 8811SOL     OW27331   0.903   1.629   4.082
 8811SOL    HW127332   0.831   1.618   4.014
 8811SOL    HW227333   0.968   1.553   4.075
 8812SOL     OW27334   1.977   0.599   0.807
 8812SOL    HW127335   1.926   0.541   0.870
 8812SOL    HW227336   2.069   0.561   0.795
 8813SOL     OW27337   1.744   4.729   1.538
 8813SOL    HW127338   1.801   4.713   1.457
 8813SOL    HW227339   1.684   4.650   1.552
 8814SOL     OW27340   5.563   6.997   0.257
 8814SOL    HW127341   5.499   7.003   0.181
 8814SOL    HW227342   5.624   6.919   0.244
 8815SOL     OW27343   0.117   6.330   2.770
 8815SOL    HW127344   0.061   6.257   2.808
 8815SOL    HW227345   0.200   6.340   2.825
 8816SOL     OW27346   0.942   6.084   2.000
 8816SOL    HW127347   1.002   6.013   1.963
 8816SOL    HW227348   0.898   6.049   2.083
 8817SOL     OW27349   2.500   4.692   5.325
 8817SOL    HW127350   2.518   4.646   5.238
 8817SOL    HW227351   2.585   4.734   5.359
 8818SOL     OW27352   6.985   4.981   4.511
 8818SOL    HW127353   6.982   4.935   4.422
 8818SOL    HW227354   0.014   4.923   4.577
 8819SOL     OW27355   5.526   0.277   4.333
 8819SOL    HW127356   5.593   0.290   4.260
 8819SOL    HW227357   5.568   0.302   4.421
 8820SOL     OW27358   1.774   2.988   4.108
 8820SOL    HW127359   1.825   3.018   4.188
 8820SOL    HW227360   1.727   2.903   4.128
 8821SOL     OW27361   1.838   0.734   6.212
 8821SOL    HW127362   1.810   0.787   6.292
 8821SOL    HW227363   1.922   0.772   6.174
 8822SOL     OW27364   0.215   2.081   4.062
 8822SOL    HW127365   0.247   1.996   4.020
 8822SOL    HW227366   0.270   2.158   4.029
 8823SOL     OW27367   2.471   5.525   1.869
 8823SOL    HW127368   2.477   5.430   1.898
 8823SOL    HW227369   2.559   5.553   1.830
 8824SOL     OW27370   4.119   3.511   0.829
 8824SOL    HW127371   4.198   3.571   0.842
 8824SOL    HW227372   4.057   3.552   0.762
 8825SOL     OW27373   1.655   2.271   1.578
 8825SOL    HW127374   1.622   2.365   1.582
 8825SOL    HW227375   1.747   2.266   1.618
 8826SOL     OW27376   5.846   1.253   0.107
 8826SOL    HW127377   5.815   1.220   0.018
 8826SOL    HW227378   5.839   1.180   0.174
 8827SOL     OW27379   1.053   1.044   3.743
 8827SOL    HW127380   1.034   1.082   3.834
 8827SOL    HW227381   1.074   0.947   3.751
 8828SOL     OW27382   1.960   6.002   2.539
 8828SOL    HW127383   1.960   5.938   2.462
 8828SOL    HW227384   1.866   6.032   2.557
 8829SOL     OW27385   0.822   1.453   7.007
 8829SOL    HW127386   0.758   1.528   0.003
 8829SOL    HW227387   0.779   1.367   0.013
 8830SOL     OW27388   0.550   2.208   0.578
 8830SOL    HW127389   0.465   2.261   0.586
 8830SOL    HW227390   0.528   2.112   0.564
 8831SOL     OW27391   6.824   0.934   2.678
 8831SOL    HW127392   6.806   0.907   2.583
 8831SOL    HW227393   6.872   1.022   2.678
 8832SOL     OW27394   0.307   0.665   2.444
 8832SOL    HW127395   0.344   0.573   2.455
 8832SOL    HW227396   0.238   0.681   2.515
 8833SOL     OW27397   2.060   4.541   3.368
 8833SOL    HW127398   2.059   4.472   3.441
 8833SOL    HW227399   2.066   4.633   3.409
 8834SOL     OW27400   5.689   3.746   4.787
 8834SOL    HW127401   5.769   3.705   4.745
 8834SOL    HW227402   5.607   3.717   4.739
 8835SOL     OW27403   0.428   6.910   6.561
 8835SOL    HW127404   0.415   6.845   6.635
 8835SOL    HW227405   0.524   6.908   6.531
 8836SOL     OW27406   4.993   1.948   1.140
 8836SOL    HW127407   4.898   1.932   1.164
 8836SOL    HW227408   5.004   1.943   1.041
 8837SOL     OW27409   1.159   1.688   2.338
 8837SOL    HW127410   1.119   1.738   2.415
 8837SOL    HW227411   1.121   1.596   2.334
 8838SOL     OW27412   2.197   5.954   3.761
 8838SOL    HW127413   2.174   5.995   3.849
 8838SOL    HW227414   2.268   5.884   3.774
 8839SOL     OW27415   6.215   6.608   4.035
 8839SOL    HW127416   6.139   6.555   4.072
 8839SOL    HW227417   6.253   6.561   3.955
 8840SOL     OW27418   5.081   1.405   2.069
 8840SOL    HW127419   5.121   1.428   1.980
 8840SOL    HW227420   5.153   1.385   2.135
 8841SOL     OW27421   2.036   0.522   4.423
 8841SOL    HW127422   1.957   0.577   4.451
 8841SOL    HW227423   2.008   0.454   4.356
 8842SOL     OW27424   1.766   2.797   2.299
 8842SOL    HW127425   1.728   2.886   2.277
 8842SOL    HW227426   1.719   2.726   2.247
 8843SOL     OW27427   0.345   3.505   4.505
 8843SOL    HW127428   0.295   3.456   4.434
 8843SOL    HW227429   0.400   3.441   4.559
 8844SOL     OW27430   5.779   1.373   6.152
 8844SOL    HW127431   5.838   1.392   6.231
 8844SOL    HW227432   5.772   1.274   6.140
 8845SOL     OW27433   5.837   4.164   0.068
 8845SOL    HW127434   5.757   4.157   0.009
 8845SOL    HW227435   5.813   4.134   0.161
 8846SOL     OW27436   2.511   4.894   2.926
 8846SOL    HW127437   2.426   4.894   2.872
 8846SOL    HW227438   2.564   4.812   2.904
 8847SOL     OW27439   2.375   0.918   2.536
 8847SOL    HW127440   2.373   0.818   2.529
 8847SOL    HW227441   2.281   0.953   2.541
 8848SOL     OW27442   1.475   7.011   2.982
 8848SOL    HW127443   1.575   7.010   2.971
 8848SOL    HW227444   1.432   0.005   2.893
 8849SOL     OW27445   3.031   6.752   1.307
 8849SOL    HW127446   3.079   6.688   1.247
 8849SOL    HW227447   3.098   6.808   1.355
 8850SOL     OW27448   2.554   2.477   0.022
 8850SOL    HW127449   2.653   2.477   0.004
 8850SOL    HW227450   2.506   2.521   6.965
 8851SOL     OW27451   1.621   3.312   2.596
 8851SOL    HW127452   1.534   3.355   2.621
 8851SOL    HW227453   1.663   3.272   2.677
 8852SOL     OW27454   1.190   2.516   5.831
 8852SOL    HW127455   1.238   2.571   5.763
 8852SOL    HW227456   1.094   2.504   5.803
 8853SOL     OW27457   5.610   1.048   1.304
 8853SOL    HW127458   5.590   1.075   1.211
 8853SOL    HW227459   5.591   0.950   1.315
 8854SOL     OW27460   0.899   1.990   4.916
 8854SOL    HW127461   0.930   2.049   4.991
 8854SOL    HW227462   0.844   2.044   4.852
 8855SOL     OW27463   5.347   5.191   1.476
 8855SOL    HW127464   5.385   5.283   1.462
 8855SOL    HW227465   5.309   5.184   1.568
 8856SOL     OW27466   6.797   0.893   5.637
 8856SOL    HW127467   6.757   0.898   5.546
 8856SOL    HW227468   6.808   0.986   5.674
 8857SOL     OW27469   6.135   2.323   6.235
 8857SOL    HW127470   6.047   2.350   6.196
 8857SOL    HW227471   6.127   2.315   6.334
 8858SOL     OW27472   6.601   6.284   4.876
 8858SOL    HW127473   6.508   6.247   4.874
 8858SOL    HW227474   6.609   6.352   4.948
 8859SOL     OW27475   0.627   6.634   3.337
 8859SOL    HW127476   0.685   6.666   3.262
 8859SOL    HW227477   0.672   6.654   3.424
 8860SOL     OW27478   6.950   3.955   3.108
 8860SOL    HW127479   6.955   3.859   3.079
 8860SOL    HW227480   0.024   3.989   3.126
 8861SOL     OW27481   3.724   3.039   1.219
 8861SOL    HW127482   3.775   3.110   1.171
 8861SOL    HW227483   3.627   3.046   1.197
 8862SOL     OW27484   4.615   4.648   4.661
 8862SOL    HW127485   4.704   4.655   4.705
 8862SOL    HW227486   4.614   4.570   4.599
 8863SOL     OW27487   1.957   3.851   3.167
 8863SOL    HW127488   1.990   3.864   3.260
 8863SOL    HW227489   2.028   3.806   3.113
 8864SOL     OW27490   6.569   1.952   5.090
 8864SOL    HW127491   6.644   1.939   5.025
 8864SOL    HW227492   6.497   2.007   5.048
 8865SOL     OW27493   2.853   1.541   0.593
 8865SOL    HW127494   2.840   1.442   0.600
 8865SOL    HW227495   2.871   1.578   0.684
 8866SOL     OW27496   5.917   6.571   2.065
 8866SOL    HW127497   5.825   6.548   2.098
 8866SOL    HW227498   5.939   6.664   2.091
 8867SOL     OW27499   6.400   3.364   2.332
 8867SOL    HW127500   6.461   3.332   2.405
 8867SOL    HW227501   6.316   3.400   2.373
 8868SOL     OW27502   0.061   3.246   3.509
 8868SOL    HW127503   6.999   3.187   3.508
 8868SOL    HW227504   0.059   3.304   3.591
 8869SOL     OW27505   3.981   0.201   3.113
 8869SOL    HW127506   3.913   0.271   3.137
 8869SOL    HW227507   4.059   0.244   3.068
 8870SOL     OW27508   1.836   0.540   2.712
 8870SOL    HW127509   1.836   0.445   2.679
 8870SOL    HW227510   1.759   0.553   2.775
 8871SOL     OW27511   6.716   0.113   1.988
 8871SOL    HW127512   6.769   0.155   1.915
 8871SOL    HW227513   6.696   0.181   2.059
 8872SOL     OW27514   6.654   4.174   3.759
 8872SOL    HW127515   6.555   4.170   3.756
 8872SOL    HW227516   6.690   4.189   3.667
 8873SOL     OW27517   2.289   1.856   2.379
 8873SOL    HW127518   2.284   1.764   2.340
 8873SOL    HW227519   2.281   1.923   2.305
 8874SOL     OW27520   2.511   6.608   0.182
 8874SOL    HW127521   2.597   6.565   0.209
 8874SOL    HW227522   2.482   6.672   0.253
 8875SOL     OW27523   6.562   3.287   4.188
 8875SOL    HW127524   6.487   3.222   4.176
 8875SOL    HW227525   6.525   3.379   4.198
 8876SOL     OW27526   4.776   0.149   6.894
 8876SOL    HW127527   4.841   0.105   6.956
 8876SOL    HW227528   4.815   0.234   6.859
 8877SOL     OW27529   0.984   4.874   1.078
 8877SOL    HW127530   0.920   4.895   1.152
 8877SOL    HW227531   0.945   4.804   1.019
 8878SOL     OW27532   4.887   4.164   1.102
 8878SOL    HW127533   4.943   4.232   1.055
 8878SOL    HW227534   4.947   4.099   1.148
 8879SOL     OW27535   6.578   4.254   2.587
 8879SOL    HW127536   6.524   4.326   2.546
 8879SOL    HW227537   6.524   4.170   2.593
 8880SOL     OW27538   4.378   1.569   3.162
 8880SOL    HW127539   4.295   1.515   3.180
 8880SOL    HW227540   4.436   1.520   3.098
 8881SOL     OW27541   3.829   4.906   3.872
 8881SOL    HW127542   3.896   4.872   3.938
 8881SOL    HW227543   3.857   4.882   3.779
 8882SOL     OW27544   4.120   0.286   0.475
 8882SOL    HW127545   4.111   0.192   0.443
 8882SOL    HW227546   4.213   0.318   0.457
 8883SOL     OW27547   0.004   6.509   4.159
 8883SOL    HW127548   0.034   6.491   4.066
 8883SOL    HW227549   0.040   6.438   4.220
 8884SOL     OW27550   5.062   3.555   5.526
 8884SOL    HW127551   5.117   3.475   5.504
 8884SOL    HW227552   4.970   3.544   5.486
 8885SOL     OW27553   5.717   5.999   0.931
 8885SOL    HW127554   5.810   5.974   0.903
 8885SOL    HW227555   5.700   5.965   1.024
 8886SOL     OW27556   3.961   5.981   6.737
 8886SOL    HW127557   4.038   5.936   6.691
 8886SOL    HW227558   3.993   6.023   6.822
 8887SOL     OW27559   4.625   0.257   1.553
 8887SOL    HW127560   4.593   0.310   1.632
 8887SOL    HW227561   4.718   0.285   1.529
 8888SOL     OW27562   3.253   2.062   2.154
 8888SOL    HW127563   3.184   2.098   2.091
 8888SOL    HW227564   3.343   2.066   2.111
 8889SOL     OW27565   1.486   5.122   6.700
 8889SOL    HW127566   1.581   5.116   6.731
 8889SOL    HW227567   1.462   5.040   6.649
 8890SOL     OW27568   0.915   6.632   0.084
 8890SOL    HW127569   0.876   6.549   0.046
 8890SOL    HW227570   0.877   6.648   0.176
 8891SOL     OW27571   6.234   4.085   5.561
 8891SOL    HW127572   6.302   4.109   5.492
 8891SOL    HW227573   6.245   3.990   5.588
 8892SOL     OW27574   2.632   5.614   4.791
 8892SOL    HW127575   2.709   5.578   4.738
 8892SOL    HW227576   2.548   5.567   4.765
 8893SOL     OW27577   1.335   5.206   5.140
 8893SOL    HW127578   1.378   5.149   5.070
 8893SOL    HW227579   1.252   5.249   5.102
 8894SOL     OW27580   4.810   1.611   1.266
 8894SOL    HW127581   4.745   1.577   1.333
 8894SOL    HW227582   4.794   1.709   1.250
 8895SOL     OW27583   6.742   3.727   0.921
 8895SOL    HW127584   6.666   3.791   0.922
 8895SOL    HW227585   6.755   3.689   1.012
 8896SOL     OW27586   0.363   2.267   3.924
 8896SOL    HW127587   0.424   2.343   3.947
 8896SOL    HW227588   0.417   2.191   3.889
 8897SOL     OW27589   1.846   4.985   3.840
 8897SOL    HW127590   1.911   5.036   3.784
 8897SOL    HW227591   1.893   4.945   3.918
 8898SOL     OW27592   4.767   3.975   2.479
 8898SOL    HW127593   4.822   3.910   2.426
 8898SOL    HW227594   4.770   4.065   2.434
 8899SOL     OW27595   1.575   3.861   3.488
 8899SOL    HW127596   1.557   3.951   3.527
 8899SOL    HW227597   1.670   3.856   3.458
 8900SOL     OW27598   4.883   2.168   4.172
 8900SOL    HW127599   4.849   2.259   4.196
 8900SOL    HW227600   4.833   2.135   4.092
 8901SOL     OW27601   1.514   4.958   4.252
 8901SOL    HW127602   1.499   4.874   4.201
 8901SOL    HW227603   1.569   4.939   4.333
 8902SOL     OW27604   0.744   4.725   0.406
 8902SOL    HW127605   0.717   4.740   0.311
 8902SOL    HW227606   0.704   4.639   0.439
 8903SOL     OW27607   0.957   0.145   5.419
 8903SOL    HW127608   1.055   0.163   5.404
 8903SOL    HW227609   0.935   0.159   5.515
 8904SOL     OW27610   0.308   1.092   3.399
 8904SOL    HW127611   0.378   1.145   3.447
 8904SOL    HW227612   0.250   1.045   3.466
 8905SOL     OW27613   1.340   3.652   2.782
 8905SOL    HW127614   1.323   3.747   2.808
 8905SOL    HW227615   1.429   3.623   2.817
 8906SOL     OW27616   5.957   0.196   0.221
 8906SOL    HW127617   5.862   0.214   0.198
 8906SOL    HW227618   5.993   0.270   0.279
 8907SOL     OW27619   2.919   3.575   4.926
 8907SOL    HW127620   2.951   3.495   4.875
 8907SOL    HW227621   2.845   3.548   4.988
 8908SOL     OW27622   1.535   4.264   6.715
 8908SOL    HW127623   1.448   4.218   6.700
 8908SOL    HW227624   1.556   4.322   6.636
 8909SOL     OW27625   1.275   6.187   1.342
 8909SOL    HW127626   1.209   6.217   1.412
 8909SOL    HW227627   1.342   6.126   1.384
 8910SOL     OW27628   1.523   0.370   3.539
 8910SOL    HW127629   1.523   0.467   3.562
 8910SOL    HW227630   1.614   0.332   3.557
 8911SOL     OW27631   4.368   2.259   4.928
 8911SOL    HW127632   4.290   2.301   4.974
 8911SOL    HW227633   4.347   2.249   4.831
 8912SOL     OW27634   3.787   3.177   4.188
 8912SOL    HW127635   3.716   3.171   4.258
 8912SOL    HW227636   3.799   3.087   4.145
 8913SOL     OW27637   5.281   6.153   0.189
 8913SOL    HW127638   5.359   6.133   0.129
 8913SOL    HW227639   5.281   6.250   0.213
 8914SOL     OW27640   4.882   5.153   6.072
 8914SOL    HW127641   4.785   5.159   6.051
 8914SOL    HW227642   4.912   5.058   6.065
 8915SOL     OW27643   1.580   1.082   2.747
 8915SOL    HW127644   1.499   1.126   2.785
 8915SOL    HW227645   1.661   1.139   2.765
 8916SOL     OW27646   5.111   1.015   0.903
 8916SOL    HW127647   5.074   1.092   0.955
 8916SOL    HW227648   5.119   0.936   0.964
 8917SOL     OW27649   5.923   1.835   0.420
 8917SOL    HW127650   5.883   1.787   0.342
 8917SOL    HW227651   5.942   1.930   0.393
 8918SOL     OW27652   0.620   3.593   2.404
 8918SOL    HW127653   0.536   3.571   2.353
 8918SOL    HW227654   0.654   3.509   2.447
 8919SOL     OW27655   6.289   3.104   1.474
 8919SOL    HW127656   6.216   3.076   1.537
 8919SOL    HW227657   6.361   3.151   1.525
 8920SOL     OW27658   6.953   0.838   6.711
 8920SOL    HW127659   0.018   0.860   6.762
 8920SOL    HW227660   6.926   0.918   6.657
 8921SOL     OW27661   1.724   3.118   2.356
 8921SOL    HW127662   1.634   3.119   2.313
 8921SOL    HW227663   1.727   3.185   2.430
 8922SOL     OW27664   4.304   5.626   4.295
 8922SOL    HW127665   4.228   5.567   4.267
 8922SOL    HW227666   4.270   5.719   4.309
 8923SOL     OW27667   2.219   1.595   4.574
 8923SOL    HW127668   2.277   1.646   4.639
 8923SOL    HW227669   2.145   1.551   4.624
 8924SOL     OW27670   6.482   4.881   5.238
 8924SOL    HW127671   6.577   4.904   5.218
 8924SOL    HW227672   6.464   4.786   5.213
 8925SOL     OW27673   0.748   6.101   2.532
 8925SOL    HW127674   0.831   6.155   2.546
 8925SOL    HW227675   0.745   6.027   2.599
 8926SOL     OW27676   5.981   1.003   6.366
 8926SOL    HW127677   6.075   0.976   6.346
 8926SOL    HW227678   5.980   1.095   6.405
 8927SOL     OW27679   1.763   0.783   5.715
 8927SOL    HW127680   1.740   0.838   5.634
 8927SOL    HW227681   1.680   0.747   5.756
 8928SOL     OW27682   0.396   6.857   5.361
 8928SOL    HW127683   0.419   6.835   5.456
 8928SOL    HW227684   0.366   6.952   5.355
 8929SOL     OW27685   0.390   1.301   3.749
 8929SOL    HW127686   0.466   1.249   3.788
 8929SOL    HW227687   0.310   1.241   3.743
 8930SOL     OW27688   2.279   4.806   3.319
 8930SOL    HW127689   2.246   4.885   3.370
 8930SOL    HW227690   2.298   4.731   3.382
 8931SOL     OW27691   4.319   2.825   0.369
 8931SOL    HW127692   4.302   2.923   0.369
 8931SOL    HW227693   4.241   2.777   0.408
 8932SOL     OW27694   0.935   3.682   3.602
 8932SOL    HW127695   0.986   3.623   3.665
 8932SOL    HW227696   0.991   3.700   3.520
 8933SOL     OW27697   3.847   2.166   5.139
 8933SOL    HW127698   3.870   2.206   5.228
 8933SOL    HW227699   3.925   2.174   5.077
 8934SOL     OW27700   2.437   5.882   2.948
 8934SOL    HW127701   2.476   5.825   3.021
 8934SOL    HW227702   2.480   5.858   2.861
 8935SOL     OW27703   6.673   4.730   0.769
 8935SOL    HW127704   6.633   4.800   0.828
 8935SOL    HW227705   6.705   4.772   0.685
 8936SOL     OW27706   3.579   2.675   0.979
 8936SOL    HW127707   3.573   2.576   0.975
 8936SOL    HW227708   3.507   2.710   1.040
 8937SOL     OW27709   0.422   6.381   6.443
 8937SOL    HW127710   0.335   6.386   6.492
 8937SOL    HW227711   0.467   6.293   6.463
 8938SOL     OW27712   5.145   6.281   1.970
 8938SOL    HW127713   5.096   6.199   1.998
 8938SOL    HW227714   5.210   6.308   2.042
 8939SOL     OW27715   4.341   2.188   4.657
 8939SOL    HW127716   4.283   2.111   4.680
 8939SOL    HW227717   4.287   2.258   4.609
 8940SOL     OW27718   5.586   0.572   2.778
 8940SOL    HW127719   5.606   0.475   2.773
 8940SOL    HW227720   5.504   0.587   2.833
 8941SOL     OW27721   4.924   1.730   6.131
 8941SOL    HW127722   4.970   1.652   6.173
 8941SOL    HW227723   4.897   1.707   6.037
 8942SOL     OW27724   1.047   3.233   5.462
 8942SOL    HW127725   1.075   3.151   5.512
 8942SOL    HW227726   1.123   3.297   5.457
 8943SOL     OW27727   5.193   3.356   1.072
 8943SOL    HW127728   5.143   3.426   1.123
 8943SOL    HW227729   5.291   3.371   1.080
 8944SOL     OW27730   4.206   5.390   1.158
 8944SOL    HW127731   4.259   5.437   1.229
 8944SOL    HW227732   4.220   5.292   1.166
 8945SOL     OW27733   2.156   1.115   4.493
 8945SOL    HW127734   2.215   1.053   4.441
 8945SOL    HW227735   2.095   1.062   4.552
 8946SOL     OW27736   4.006   1.587   4.671
 8946SOL    HW127737   4.044   1.603   4.579
 8946SOL    HW227738   4.072   1.534   4.725
 8947SOL     OW27739   3.890   4.114   4.939
 8947SOL    HW127740   3.952   4.190   4.923
 8947SOL    HW227741   3.942   4.034   4.968
 8948SOL     OW27742   6.435   5.298   2.621
 8948SOL    HW127743   6.512   5.283   2.684
 8948SOL    HW227744   6.394   5.209   2.598
 8949SOL     OW27745   2.530   5.322   6.999
 8949SOL    HW127746   2.497   5.416   6.998
 8949SOL    HW227747   2.601   5.311   6.929
 8950SOL     OW27748   4.861   2.522   4.621
 8950SOL    HW127749   4.763   2.513   4.599
 8950SOL    HW227750   4.902   2.431   4.626
 8951SOL     OW27751   2.400   2.261   5.895
 8951SOL    HW127752   2.476   2.225   5.841
 8951SOL    HW227753   2.390   2.359   5.878
 8952SOL     OW27754   6.458   0.211   3.343
 8952SOL    HW127755   6.423   0.259   3.263
 8952SOL    HW227756   6.389   0.210   3.415
 8953SOL     OW27757   1.636   4.407   6.935
 8953SOL    HW127758   1.662   4.369   0.005
 8953SOL    HW227759   1.610   4.334   6.873
 8954SOL     OW27760   1.623   5.832   6.214
 8954SOL    HW127761   1.553   5.854   6.146
 8954SOL    HW227762   1.603   5.880   6.300
 8955SOL     OW27763   6.036   3.559   3.705
 8955SOL    HW127764   6.085   3.473   3.722
 8955SOL    HW227765   5.997   3.592   3.791
 8956SOL     OW27766   0.950   0.972   5.437
 8956SOL    HW127767   0.885   0.972   5.361
 8956SOL    HW227768   1.037   1.010   5.407
 8957SOL     OW27769   3.022   5.282   2.080
 8957SOL    HW127770   3.001   5.355   2.146
 8957SOL    HW227771   3.118   5.288   2.053
 8958SOL     OW27772   2.379   0.773   3.822
 8958SOL    HW127773   2.467   0.819   3.812
 8958SOL    HW227774   2.307   0.840   3.839
 8959SOL     OW27775   2.979   4.605   1.367
 8959SOL    HW127776   3.020   4.571   1.452
 8959SOL    HW227777   3.050   4.614   1.297
 8960SOL     OW27778   4.235   5.841   1.268
 8960SOL    HW127779   4.215   5.771   1.200
 8960SOL    HW227780   4.226   5.932   1.226
 8961SOL     OW27781   1.373   2.565   3.981
 8961SOL    HW127782   1.355   2.588   4.077
 8961SOL    HW227783   1.433   2.634   3.941
 8962SOL     OW27784   5.109   0.419   3.453
 8962SOL    HW127785   5.173   0.414   3.376
 8962SOL    HW227786   5.081   0.514   3.467
 8963SOL     OW27787   0.265   0.673   3.660
 8963SOL    HW127788   0.318   0.598   3.622
 8963SOL    HW227789   0.219   0.643   3.743
 8964SOL     OW27790   6.398   4.681   2.878
 8964SOL    HW127791   6.422   4.771   2.915
 8964SOL    HW227792   6.390   4.616   2.953
 8965SOL     OW27793   1.431   5.297   1.280
 8965SOL    HW127794   1.334   5.319   1.278
 8965SOL    HW227795   1.442   5.198   1.292
 8966SOL     OW27796   3.006   2.907   5.258
 8966SOL    HW127797   3.067   2.966   5.312
 8966SOL    HW227798   3.042   2.814   5.257
 8967SOL     OW27799   4.452   0.282   0.651
 8967SOL    HW127800   4.444   0.320   0.559
 8967SOL    HW227801   4.494   0.191   0.646
 8968SOL     OW27802   5.457   5.520   2.981
 8968SOL    HW127803   5.490   5.605   2.941
 8968SOL    HW227804   5.492   5.511   3.075
 8969SOL     OW27805   6.411   1.355   4.351
 8969SOL    HW127806   6.423   1.260   4.321
 8969SOL    HW227807   6.360   1.406   4.282
 8970SOL     OW27808   3.918   2.118   1.512
 8970SOL    HW127809   3.982   2.164   1.451
 8970SOL    HW227810   3.913   2.167   1.599
 8971SOL     OW27811   4.353   5.776   2.687
 8971SOL    HW127812   4.268   5.774   2.740
 8971SOL    HW227813   4.430   5.786   2.750
 8972SOL     OW27814   5.338   0.852   4.802
 8972SOL    HW127815   5.329   0.907   4.719
 8972SOL    HW227816   5.298   0.761   4.787
 8973SOL     OW27817   1.316   4.656   0.240
 8973SOL    HW127818   1.225   4.615   0.228
 8973SOL    HW227819   1.376   4.589   0.284
 8974SOL     OW27820   0.613   2.763   4.045
 8974SOL    HW127821   0.628   2.861   4.058
 8974SOL    HW227822   0.649   2.713   4.124
 8975SOL     OW27823   2.943   0.119   7.014
 8975SOL    HW127824   2.998   0.046   6.974
 8975SOL    HW227825   2.906   0.089   0.083
 8976SOL     OW27826   0.376   5.275   4.911
 8976SOL    HW127827   0.385   5.187   4.866
 8976SOL    HW227828   0.414   5.347   4.852
 8977SOL     OW27829   5.819   1.084   6.096
 8977SOL    HW127830   5.804   1.017   6.024
 8977SOL    HW227831   5.864   1.040   6.174
 8978SOL     OW27832   5.222   6.151   1.110
 8978SOL    HW127833   5.164   6.094   1.167
 8978SOL    HW227834   5.190   6.246   1.113
 8979SOL     OW27835   1.865   5.164   5.039
 8979SOL    HW127836   1.840   5.112   4.958
 8979SOL    HW227837   1.892   5.257   5.013
 8980SOL     OW27838   4.075   3.185   4.129
 8980SOL    HW127839   4.126   3.237   4.198
 8980SOL    HW227840   3.978   3.183   4.154
 8981SOL     OW27841   3.333   1.097   5.518
 8981SOL    HW127842   3.304   1.149   5.598
 8981SOL    HW227843   3.298   1.142   5.435
 8982SOL     OW27844   4.035   4.471   0.487
 8982SOL    HW127845   4.024   4.563   0.524
 8982SOL    HW227846   4.093   4.476   0.405
 8983SOL     OW27847   4.767   5.232   0.432
 8983SOL    HW127848   4.703   5.180   0.375
 8983SOL    HW227849   4.745   5.219   0.529
 8984SOL     OW27850   1.881   6.201   3.279
 8984SOL    HW127851   1.947   6.268   3.315
 8984SOL    HW227852   1.930   6.127   3.234
 8985SOL     OW27853   3.656   3.264   5.875
 8985SOL    HW127854   3.743   3.256   5.825
 8985SOL    HW227855   3.653   3.351   5.923
 8986SOL     OW27856   3.831   6.078   2.576
 8986SOL    HW127857   3.840   6.031   2.489
 8986SOL    HW227858   3.857   6.174   2.565
 8987SOL     OW27859   5.519   6.369   2.008
 8987SOL    HW127860   5.456   6.441   1.980
 8987SOL    HW227861   5.495   6.338   2.101
 8988SOL     OW27862   0.662   5.449   5.083
 8988SOL    HW127863   0.657   5.407   4.992
 8988SOL    HW227864   0.752   5.431   5.122
 8989SOL     OW27865   3.392   3.056   6.719
 8989SOL    HW127866   3.324   2.986   6.742
 8989SOL    HW227867   3.434   3.091   6.803
 8990SOL     OW27868   0.430   6.517   3.475
 8990SOL    HW127869   0.508   6.550   3.422
 8990SOL    HW227870   0.410   6.581   3.549
 8991SOL     OW27871   1.198   2.067   5.400
 8991SOL    HW127872   1.268   1.995   5.402
 8991SOL    HW227873   1.129   2.049   5.470
 8992SOL     OW27874   6.253   2.948   0.445
 8992SOL    HW127875   6.251   2.862   0.394
 8992SOL    HW227876   6.331   2.948   0.508
 8993SOL     OW27877   4.611   2.721   7.013
 8993SOL    HW127878   4.702   2.681   0.006
 8993SOL    HW227879   4.598   2.795   0.060
 8994SOL     OW27880   1.950   5.532   3.937
 8994SOL    HW127881   1.888   5.455   3.922
 8994SOL    HW227882   1.910   5.615   3.898
 8995SOL     OW27883   0.222   1.433   0.396
 8995SOL    HW127884   0.132   1.476   0.397
 8995SOL    HW227885   0.245   1.401   0.487
 8996SOL     OW27886   4.297   5.439   6.267
 8996SOL    HW127887   4.256   5.504   6.203
 8996SOL    HW227888   4.394   5.461   6.280
 8997SOL     OW27889   6.199   0.775   5.152
 8997SOL    HW127890   6.177   0.744   5.059
 8997SOL    HW227891   6.258   0.856   5.146
 8998SOL     OW27892   6.170   3.022   4.237
 8998SOL    HW127893   6.099   3.051   4.173
 8998SOL    HW227894   6.130   3.010   4.328
 8999SOL     OW27895   3.686   0.023   6.077
 8999SOL    HW127896   3.623   0.011   6.001
 8999SOL    HW227897   3.752   6.966   6.079
 9000SOL     OW27898   1.520   4.132   1.219
 9000SOL    HW127899   1.577   4.205   1.257
 9000SOL    HW227900   1.482   4.077   1.293
 9001SOL     OW27901   1.058   5.263   2.783
 9001SOL    HW127902   0.984   5.296   2.841
 9001SOL    HW227903   1.062   5.317   2.699
 9002SOL     OW27904   1.158   4.432   0.124
 9002SOL    HW127905   1.207   4.347   0.107
 9002SOL    HW227906   1.134   4.437   0.221
 9003SOL     OW27907   5.845   0.259   1.283
 9003SOL    HW127908   5.879   0.303   1.366
 9003SOL    HW227909   5.761   0.304   1.253
 9004SOL     OW27910   4.090   4.494   0.065
 9004SOL    HW127911   4.136   4.512   6.996
 9004SOL    HW227912   4.133   4.549   0.136
 9005SOL     OW27913   5.041   1.209   4.944
 9005SOL    HW127914   5.033   1.109   4.949
 9005SOL    HW227915   5.129   1.237   4.983
 9006SOL     OW27916   3.697   5.802   0.487
 9006SOL    HW127917   3.744   5.781   0.401
 9006SOL    HW227918   3.672   5.717   0.533
 9007SOL     OW27919   2.622   0.863   2.673
 9007SOL    HW127920   2.673   0.880   2.589
 9007SOL    HW227921   2.524   0.867   2.653
 9008SOL     OW27922   0.873   5.841   2.718
 9008SOL    HW127923   0.944   5.821   2.786
 9008SOL    HW227924   0.912   5.831   2.626
 9009SOL     OW27925   3.813   6.024   1.228
 9009SOL    HW127926   3.812   5.924   1.235
 9009SOL    HW227927   3.738   6.053   1.169
 9010SOL     OW27928   1.408   6.041   4.253
 9010SOL    HW127929   1.419   6.138   4.231
 9010SOL    HW227930   1.443   6.025   4.346
 9011SOL     OW27931   2.780   2.024   2.003
 9011SOL    HW127932   2.801   2.117   1.973
 9011SOL    HW227933   2.700   2.025   2.064
 9012SOL     OW27934   1.850   6.091   6.591
 9012SOL    HW127935   1.835   6.011   6.534
 9012SOL    HW227936   1.876   6.168   6.534
 9013SOL     OW27937   1.938   6.475   4.139
 9013SOL    HW127938   1.896   6.431   4.059
 9013SOL    HW227939   1.875   6.468   4.217
 9014SOL     OW27940   5.326   2.790   3.344
 9014SOL    HW127941   5.256   2.764   3.278
 9014SOL    HW227942   5.417   2.777   3.303
 9015SOL     OW27943   5.200   1.589   6.751
 9015SOL    HW127944   5.226   1.645   6.672
 9015SOL    HW227945   5.101   1.576   6.752
 9016SOL     OW27946   5.659   5.694   6.595
 9016SOL    HW127947   5.697   5.605   6.568
 9016SOL    HW227948   5.704   5.727   6.677
 9017SOL     OW27949   4.236   0.412   4.650
 9017SOL    HW127950   4.180   0.385   4.729
 9017SOL    HW227951   4.312   0.348   4.641
 9018SOL     OW27952   4.120   4.059   6.535
 9018SOL    HW127953   4.163   3.987   6.480
 9018SOL    HW227954   4.068   4.121   6.476
 9019SOL     OW27955   0.438   3.855   3.676
 9019SOL    HW127956   0.419   3.841   3.773
 9019SOL    HW227957   0.534   3.836   3.658
 9020SOL     OW27958   5.614   6.095   2.337
 9020SOL    HW127959   5.661   6.165   2.391
 9020SOL    HW227960   5.678   6.023   2.312
 9021SOL     OW27961   0.519   0.758   4.454
 9021SOL    HW127962   0.452   0.716   4.515
 9021SOL    HW227963   0.610   0.722   4.475
 9022SOL     OW27964   4.643   3.428   6.219
 9022SOL    HW127965   4.592   3.347   6.249
 9022SOL    HW227966   4.684   3.473   6.299
 9023SOL     OW27967   5.923   4.062   1.036
 9023SOL    HW127968   5.841   4.113   1.010
 9023SOL    HW227969   5.970   4.030   0.953
 9024SOL     OW27970   1.761   5.482   6.232
 9024SOL    HW127971   1.743   5.553   6.163
 9024SOL    HW227972   1.673   5.447   6.266
 9025SOL     OW27973   1.172   5.377   1.280
 9025SOL    HW127974   1.138   5.468   1.303
 9025SOL    HW227975   1.111   5.308   1.318
 9026SOL     OW27976   4.782   1.904   0.185
 9026SOL    HW127977   4.823   1.814   0.178
 9026SOL    HW227978   4.683   1.897   0.168
 9027SOL     OW27979   0.571   4.119   3.251
 9027SOL    HW127980   0.596   4.106   3.347
 9027SOL    HW227981   0.609   4.045   3.196
 9028SOL     OW27982   3.059   4.789   5.849
 9028SOL    HW127983   3.113   4.705   5.840
 9028SOL    HW227984   3.116   4.860   5.892
 9029SOL     OW27985   4.222   6.516   4.483
 9029SOL    HW127986   4.170   6.491   4.401
 9029SOL    HW227987   4.172   6.586   4.534
 9030SOL     OW27988   2.636   1.564   2.730
 9030SOL    HW127989   2.570   1.620   2.780
 9030SOL    HW227990   2.683   1.622   2.663
 9031SOL     OW27991   4.301   6.867   4.535
 9031SOL    HW127992   4.388   6.881   4.487
 9031SOL    HW227993   4.315   6.809   4.615
 9032SOL     OW27994   4.816   3.821   1.879
 9032SOL    HW127995   4.866   3.888   1.934
 9032SOL    HW227996   4.733   3.792   1.927
 9033SOL     OW27997   0.876   0.093   2.981
 9033SOL    HW127998   0.889   0.050   3.070
 9033SOL    HW227999   0.790   0.144   2.981
 9034SOL     OW28000   4.436   6.383   3.833
 9034SOL    HW128001   4.359   6.342   3.786
 9034SOL    HW228002   4.405   6.429   3.916
 9035SOL     OW28003   2.046   4.592   6.346
 9035SOL    HW128004   2.069   4.669   6.405
 9035SOL    HW228005   1.947   4.589   6.332
 9036SOL     OW28006   1.688   4.146   5.396
 9036SOL    HW128007   1.756   4.082   5.432
 9036SOL    HW228008   1.618   4.163   5.465
 9037SOL     OW28009   1.518   1.930   2.644
 9037SOL    HW128010   1.548   1.920   2.739
 9037SOL    HW228011   1.584   1.987   2.595
 9038SOL     OW28012   4.395   3.284   5.377
 9038SOL    HW128013   4.307   3.305   5.335
 9038SOL    HW228014   4.425   3.194   5.346
 9039SOL     OW28015   4.054   5.830   6.475
 9039SOL    HW128016   4.039   5.922   6.440
 9039SOL    HW228017   4.043   5.764   6.400
 9040SOL     OW28018   2.401   1.643   1.306
 9040SOL    HW128019   2.397   1.563   1.366
 9040SOL    HW228020   2.394   1.726   1.360
 9041SOL     OW28021   6.820   2.130   1.768
 9041SOL    HW128022   6.750   2.133   1.697
 9041SOL    HW228023   6.874   2.046   1.759
 9042SOL     OW28024   3.985   6.232   0.240
 9042SOL    HW128025   3.947   6.145   0.207
 9042SOL    HW228026   4.085   6.226   0.240
 9043SOL     OW28027   3.308   1.970   0.346
 9043SOL    HW128028   3.220   1.925   0.358
 9043SOL    HW228029   3.311   2.053   0.402
 9044SOL     OW28030   1.038   1.027   0.240
 9044SOL    HW128031   1.031   1.126   0.243
 9044SOL    HW228032   1.077   0.993   0.325
 9045SOL     OW28033   4.068   1.733   3.817
 9045SOL    HW128034   4.103   1.639   3.815
 9045SOL    HW228035   4.016   1.751   3.734
 9046SOL     OW28036   3.338   3.750   2.238
 9046SOL    HW128037   3.293   3.710   2.158
 9046SOL    HW228038   3.281   3.825   2.274
 9047SOL     OW28039   1.274   3.609   5.914
 9047SOL    HW128040   1.274   3.708   5.899
 9047SOL    HW228041   1.207   3.566   5.853
 9048SOL     OW28042   6.647   1.850   6.045
 9048SOL    HW128043   6.746   1.854   6.054
 9048SOL    HW228044   6.621   1.873   5.951
 9049SOL     OW28045   3.383   6.877   6.234
 9049SOL    HW128046   3.346   6.792   6.198
 9049SOL    HW228047   3.330   6.907   6.313
 9050SOL     OW28048   0.620   5.202   0.348
 9050SOL    HW128049   0.586   5.272   0.411
 9050SOL    HW228050   0.713   5.226   0.319
 9051SOL     OW28051   2.448   0.838   1.535
 9051SOL    HW128052   2.477   0.897   1.610
 9051SOL    HW228053   2.388   0.889   1.473
 9052SOL     OW28054   1.229   2.357   5.315
 9052SOL    HW128055   1.170   2.293   5.365
 9052SOL    HW228056   1.298   2.394   5.377
 9053SOL     OW28057   1.526   1.005   6.865
 9053SOL    HW128058   1.550   0.929   6.926
 9053SOL    HW228059   1.514   0.971   6.772
 9054SOL     OW28060   2.402   5.916   2.412
 9054SOL    HW128061   2.387   5.894   2.509
 9054SOL    HW228062   2.436   6.009   2.405
 9055SOL     OW28063   0.189   3.970   4.513
 9055SOL    HW128064   0.182   4.001   4.419
 9055SOL    HW228065   0.225   4.044   4.570
 9056SOL     OW28066   6.013   3.088   2.816
 9056SOL    HW128067   5.997   3.055   2.723
 9056SOL    HW228068   5.934   3.065   2.873
 9057SOL     OW28069   4.312   2.062   4.377
 9057SOL    HW128070   4.402   2.086   4.342
 9057SOL    HW228071   4.280   2.134   4.438
 9058SOL     OW28072   2.155   0.698   5.544
 9058SOL    HW128073   2.208   0.776   5.579
 9058SOL    HW228074   2.217   0.624   5.520
 9059SOL     OW28075   1.036   2.063   3.007
 9059SOL    HW128076   0.954   2.112   2.977
 9059SOL    HW228077   1.111   2.079   2.943
 9060SOL     OW28078   5.312   2.893   5.580
 9060SOL    HW128079   5.297   2.837   5.661
 9060SOL    HW228080   5.272   2.984   5.594
 9061SOL     OW28081   3.099   5.743   2.999
 9061SOL    HW128082   3.057   5.699   3.078
 9061SOL    HW228083   3.061   5.835   2.987
 9062SOL     OW28084   1.785   5.547   1.011
 9062SOL    HW128085   1.698   5.545   1.060
 9062SOL    HW228086   1.845   5.617   1.051
 9063SOL     OW28087   3.106   1.316   1.840
 9063SOL    HW128088   3.130   1.337   1.745
 9063SOL    HW228089   3.043   1.385   1.874
 9064SOL     OW28090   5.855   3.680   0.431
 9064SOL    HW128091   5.755   3.673   0.426
 9064SOL    HW228092   5.881   3.742   0.505
 9065SOL     OW28093   2.158   1.018   6.914
 9065SOL    HW128094   2.058   1.025   6.912
 9065SOL    HW228095   2.197   1.097   6.866
 9066SOL     OW28096   5.356   6.410   0.227
 9066SOL    HW128097   5.452   6.405   0.201
 9066SOL    HW228098   5.341   6.491   0.284
 9067SOL     OW28099   1.271   6.490   2.494
 9067SOL    HW128100   1.189   6.455   2.449
 9067SOL    HW228101   1.247   6.567   2.553
 9068SOL     OW28102   1.502   5.855   0.032
 9068SOL    HW128103   1.522   5.815   0.122
 9068SOL    HW228104   1.586   5.889   7.010
 9069SOL     OW28105   1.250   2.633   6.294
 9069SOL    HW128106   1.280   2.629   6.199
 9069SOL    HW228107   1.270   2.723   6.332
 9070SOL     OW28108   1.146   4.280   3.815
 9070SOL    HW128109   1.090   4.264   3.734
 9070SOL    HW228110   1.232   4.323   3.788
 9071SOL     OW28111   4.939   5.687   0.636
 9071SOL    HW128112   4.849   5.730   0.639
 9071SOL    HW228113   4.981   5.690   0.727
 9072SOL     OW28114   5.283   5.335   6.983
 9072SOL    HW128115   5.261   5.431   6.968
 9072SOL    HW228116   5.281   5.287   6.895
 9073SOL     OW28117   2.067   0.257   1.714
 9073SOL    HW128118   2.156   0.232   1.751
 9073SOL    HW228119   2.000   0.259   1.788
 9074SOL     OW28120   0.864   0.199   3.622
 9074SOL    HW128121   0.835   0.238   3.534
 9074SOL    HW228122   0.880   0.273   3.687
 9075SOL     OW28123   1.246   1.032   2.498
 9075SOL    HW128124   1.187   0.968   2.547
 9075SOL    HW228125   1.325   0.983   2.462
 9076SOL     OW28126   6.626   1.899   5.377
 9076SOL    HW128127   6.581   1.940   5.298
 9076SOL    HW228128   6.723   1.883   5.357
 9077SOL     OW28129   5.757   6.253   1.590
 9077SOL    HW128130   5.776   6.155   1.589
 9077SOL    HW228131   5.769   6.288   1.683
 9078SOL     OW28132   3.869   2.904   5.103
 9078SOL    HW128133   3.868   2.901   5.003
 9078SOL    HW228134   3.908   2.990   5.133
 9079SOL     OW28135   3.363   0.542   5.696
 9079SOL    HW128136   3.374   0.517   5.792
 9079SOL    HW228137   3.360   0.459   5.640
 9080SOL     OW28138   5.118   1.573   0.337
 9080SOL    HW128139   5.038   1.564   0.277
 9080SOL    HW228140   5.159   1.663   0.325
 9081SOL     OW28141   5.296   0.359   2.304
 9081SOL    HW128142   5.200   0.380   2.320
 9081SOL    HW228143   5.307   0.316   2.214
 9082SOL     OW28144   3.267   0.579   3.132
 9082SOL    HW128145   3.248   0.676   3.114
 9082SOL    HW228146   3.339   0.547   3.071
 9083SOL     OW28147   4.461   4.985   4.220
 9083SOL    HW128148   4.522   5.060   4.249
 9083SOL    HW228149   4.433   4.932   4.300
 9084SOL     OW28150   3.746   3.619   3.124
 9084SOL    HW128151   3.714   3.686   3.191
 9084SOL    HW228152   3.674   3.603   3.056
 9085SOL     OW28153   1.162   2.302   0.862
 9085SOL    HW128154   1.160   2.273   0.766
 9085SOL    HW228155   1.252   2.283   0.901
 9086SOL     OW28156   0.405   3.714   0.053
 9086SOL    HW128157   0.451   3.627   0.039
 9086SOL    HW228158   0.455   3.768   0.121
 9087SOL     OW28159   4.925   3.534   2.081
 9087SOL    HW128160   4.973   3.510   1.996
 9087SOL    HW228161   4.857   3.464   2.101
 9088SOL     OW28162   5.501   6.816   1.358
 9088SOL    HW128163   5.535   6.746   1.421
 9088SOL    HW228164   5.401   6.821   1.365
 9089SOL     OW28165   3.849   0.091   5.825
 9089SOL    HW128166   3.829   0.082   5.922
 9089SOL    HW228167   3.773   0.138   5.779
 9090SOL     OW28168   5.463   1.496   3.211
 9090SOL    HW128169   5.521   1.522   3.135
 9090SOL    HW228170   5.510   1.427   3.267
 9091SOL     OW28171   2.986   2.276   6.442
 9091SOL    HW128172   2.938   2.355   6.403
 9091SOL    HW228173   2.999   2.290   6.540
 9092SOL     OW28174   6.873   3.038   6.293
 9092SOL    HW128175   6.914   3.107   6.353
 9092SOL    HW228176   6.858   2.954   6.345
 9093SOL     OW28177   2.085   6.252   5.057
 9093SOL    HW128178   2.176   6.264   5.017
 9093SOL    HW228179   2.038   6.176   5.012
 9094SOL     OW28180   1.013   3.670   1.350
 9094SOL    HW128181   0.962   3.753   1.328
 9094SOL    HW228182   1.084   3.655   1.281
 9095SOL     OW28183   6.843   6.537   5.438
 9095SOL    HW128184   6.888   6.448   5.432
 9095SOL    HW228185   6.810   6.565   5.348
 9096SOL     OW28186   6.792   5.162   3.937
 9096SOL    HW128187   6.709   5.203   3.899
 9096SOL    HW228188   6.813   5.204   4.025
 9097SOL     OW28189   0.913   2.463   5.820
 9097SOL    HW128190   0.821   2.483   5.785
 9097SOL    HW228191   0.906   2.418   5.909
 9098SOL     OW28192   2.280   4.735   3.599
 9098SOL    HW128193   2.199   4.774   3.641
 9098SOL    HW228194   2.294   4.642   3.633
 9099SOL     OW28195   2.166   1.778   6.905
 9099SOL    HW128196   2.243   1.723   6.937
 9099SOL    HW228197   2.188   1.875   6.918
 9100SOL     OW28198   1.386   4.390   3.725
 9100SOL    HW128199   1.474   4.386   3.772
 9100SOL    HW228200   1.358   4.485   3.715
 9101SOL     OW28201   0.718   2.569   0.569
 9101SOL    HW128202   0.756   2.629   0.638
 9101SOL    HW228203   0.632   2.529   0.602
 9102SOL     OW28204   4.120   6.827   2.744
 9102SOL    HW128205   4.136   6.738   2.701
 9102SOL    HW228206   4.025   6.833   2.773
 9103SOL     OW28207   6.419   0.970   1.108
 9103SOL    HW128208   6.325   0.948   1.082
 9103SOL    HW228209   6.430   0.956   1.207
 9104SOL     OW28210   6.249   1.894   6.228
 9104SOL    HW128211   6.291   1.937   6.309
 9104SOL    HW228212   6.227   1.799   6.249
 9105SOL     OW28213   2.476   1.309   5.840
 9105SOL    HW128214   2.497   1.212   5.852
 9105SOL    HW228215   2.561   1.362   5.835
 9106SOL     OW28216   1.176   3.648   6.916
 9106SOL    HW128217   1.183   3.603   6.827
 9106SOL    HW228218   1.190   3.581   6.989
 9107SOL     OW28219   3.503   1.811   0.434
 9107SOL    HW128220   3.492   1.716   0.404
 9107SOL    HW228221   3.433   1.868   0.391
 9108SOL     OW28222   6.608   5.679   5.936
 9108SOL    HW128223   6.594   5.629   6.022
 9108SOL    HW228224   6.520   5.705   5.898
 9109SOL     OW28225   5.729   3.981   2.694
 9109SOL    HW128226   5.738   3.993   2.595
 9109SOL    HW228227   5.813   4.012   2.739
 9110SOL     OW28228   1.391   5.922   3.450
 9110SOL    HW128229   1.399   6.022   3.451
 9110SOL    HW228230   1.482   5.882   3.454
 9111SOL     OW28231   4.119   2.248   6.445
 9111SOL    HW128232   4.057   2.325   6.430
 9111SOL    HW228233   4.198   2.278   6.499
 9112SOL     OW28234   1.311   5.232   1.704
 9112SOL    HW128235   1.222   5.239   1.659
 9112SOL    HW228236   1.298   5.230   1.803
 9113SOL     OW28237   5.626   0.324   4.576
 9113SOL    HW128238   5.580   0.237   4.590
 9113SOL    HW228239   5.568   0.399   4.610
 9114SOL     OW28240   1.054   6.498   5.994
 9114SOL    HW128241   1.097   6.423   5.945
 9114SOL    HW228242   1.101   6.584   5.973
 9115SOL     OW28243   4.820   4.133   4.795
 9115SOL    HW128244   4.822   4.122   4.895
 9115SOL    HW228245   4.866   4.055   4.753
 9116SOL     OW28246   1.805   0.319   3.274
 9116SOL    HW128247   1.901   0.323   3.300
 9116SOL    HW228248   1.798   0.310   3.174
 9117SOL     OW28249   2.299   6.432   0.223
 9117SOL    HW128250   2.381   6.480   0.193
 9117SOL    HW228251   2.290   6.346   0.171
 9118SOL     OW28252   6.403   3.780   1.884
 9118SOL    HW128253   6.492   3.740   1.862
 9118SOL    HW228254   6.416   3.870   1.925
 9119SOL     OW28255   2.918   0.515   0.184
 9119SOL    HW128256   3.002   0.570   0.183
 9119SOL    HW228257   2.849   0.557   0.126
 9120SOL     OW28258   6.265   4.068   4.906
 9120SOL    HW128259   6.251   4.009   4.827
 9120SOL    HW228260   6.180   4.116   4.928
 9121SOL     OW28261   4.039   0.476   4.459
 9121SOL    HW128262   4.044   0.500   4.362
 9121SOL    HW228263   4.126   0.497   4.504
 9122SOL     OW28264   0.618   3.220   1.264
 9122SOL    HW128265   0.673   3.231   1.180
 9122SOL    HW228266   0.522   3.208   1.240
 9123SOL     OW28267   0.004   6.057   4.439
 9123SOL    HW128268   6.995   6.140   4.487
 9123SOL    HW228269   0.050   5.994   4.502
 9124SOL     OW28270   2.894   5.112   0.602
 9124SOL    HW128271   2.954   5.188   0.577
 9124SOL    HW228272   2.889   5.047   0.527
 9125SOL     OW28273   5.690   6.488   1.810
 9125SOL    HW128274   5.643   6.437   1.881
 9125SOL    HW228275   5.629   6.499   1.731
 9126SOL     OW28276   4.286   4.725   0.715
 9126SOL    HW128277   4.262   4.800   0.777
 9126SOL    HW228278   4.371   4.747   0.668
 9127SOL     OW28279   6.731   4.986   5.122
 9127SOL    HW128280   6.793   4.984   5.200
 9127SOL    HW228281   6.718   5.080   5.091
 9128SOL     OW28282   5.472   4.179   5.767
 9128SOL    HW128283   5.492   4.277   5.769
 9128SOL    HW228284   5.468   4.148   5.672
 9129SOL     OW28285   0.979   2.857   0.492
 9129SOL    HW128286   1.038   2.829   0.567
 9129SOL    HW228287   0.991   2.793   0.415
 9130SOL     OW28288   3.027   3.366   4.798
 9130SOL    HW128289   3.035   3.305   4.877
 9130SOL    HW228290   3.059   3.318   4.716
 9131SOL     OW28291   5.383   2.487   0.629
 9131SOL    HW128292   5.289   2.512   0.607
 9131SOL    HW228293   5.412   2.410   0.572
 9132SOL     OW28294   0.827   3.782   3.995
 9132SOL    HW128295   0.755   3.721   3.962
 9132SOL    HW228296   0.793   3.876   3.997
 9133SOL     OW28297   6.244   6.907   0.995
 9133SOL    HW128298   6.276   6.931   0.904
 9133SOL    HW228299   6.187   6.981   1.031
 9134SOL     OW28300   4.983   4.855   0.444
 9134SOL    HW128301   4.976   4.915   0.365
 9134SOL    HW228302   4.892   4.833   0.478
 9135SOL     OW28303   6.472   6.110   2.767
 9135SOL    HW128304   6.409   6.069   2.701
 9135SOL    HW228305   6.446   6.204   2.785
 9136SOL     OW28306   6.753   5.012   0.232
 9136SOL    HW128307   6.717   5.052   0.316
 9136SOL    HW228308   6.680   5.008   0.163
 9137SOL     OW28309   5.400   6.574   5.472
 9137SOL    HW128310   5.384   6.645   5.404
 9137SOL    HW228311   5.468   6.605   5.538
 9138SOL     OW28312   2.180   3.697   6.775
 9138SOL    HW128313   2.182   3.687   6.874
 9138SOL    HW228314   2.182   3.794   6.751
 9139SOL     OW28315   6.793   0.241   1.569
 9139SOL    HW128316   6.856   0.181   1.519
 9139SOL    HW228317   6.722   0.274   1.507
 9140SOL     OW28318   2.003   3.777   2.306
 9140SOL    HW128319   1.908   3.753   2.287
 9140SOL    HW228320   2.015   3.792   2.404
 9141SOL     OW28321   0.246   5.887   4.854
 9141SOL    HW128322   0.160   5.937   4.866
 9141SOL    HW228323   0.244   5.804   4.908
 9142SOL     OW28324   0.704   4.846   3.977
 9142SOL    HW128325   0.781   4.803   3.929
 9142SOL    HW228326   0.736   4.883   4.064
 9143SOL     OW28327   6.324   4.234   3.153
 9143SOL    HW128328   6.397   4.168   3.167
 9143SOL    HW228329   6.240   4.203   3.198
 9144SOL     OW28330   3.037   4.110   5.199
 9144SOL    HW128331   3.117   4.148   5.153
 9144SOL    HW228332   3.034   4.011   5.186
 9145SOL     OW28333   1.495   5.905   5.967
 9145SOL    HW128334   1.494   5.919   5.868
 9145SOL    HW228335   1.438   5.974   6.011
 9146SOL     OW28336   6.119   2.850   3.095
 9146SOL    HW128337   6.052   2.797   3.147
 9146SOL    HW228338   6.077   2.886   3.013
 9147SOL     OW28339   3.751   0.196   5.488
 9147SOL    HW128340   3.732   0.101   5.515
 9147SOL    HW228341   3.811   0.196   5.408
 9148SOL     OW28342   5.057   5.773   1.586
 9148SOL    HW128343   4.994   5.724   1.647
 9148SOL    HW228344   5.124   5.708   1.549
 9149SOL     OW28345   0.522   3.604   0.764
 9149SOL    HW128346   0.466   3.649   0.694
 9149SOL    HW228347   0.567   3.524   0.725
 9150SOL     OW28348   2.967   3.415   6.737
 9150SOL    HW128349   2.913   3.357   6.797
 9150SOL    HW228350   3.016   3.359   6.671
 9151SOL     OW28351   2.098   3.267   3.631
 9151SOL    HW128352   2.051   3.343   3.676
 9151SOL    HW228353   2.111   3.193   3.697
 9152SOL     OW28354   2.165   3.961   2.674
 9152SOL    HW128355   2.226   3.977   2.597
 9152SOL    HW228356   2.112   3.878   2.657
 9153SOL     OW28357   0.405   2.845   6.183
 9153SOL    HW128358   0.406   2.909   6.106
 9153SOL    HW228359   0.311   2.828   6.212
 9154SOL     OW28360   5.106   5.052   3.287
 9154SOL    HW128361   5.178   4.993   3.248
 9154SOL    HW228362   5.068   5.009   3.368
 9155SOL     OW28363   1.144   6.028   2.583
 9155SOL    HW128364   1.140   5.978   2.497
 9155SOL    HW228365   1.144   5.963   2.659
 9156SOL     OW28366   6.771   4.193   5.677
 9156SOL    HW128367   6.679   4.196   5.715
 9156SOL    HW228368   6.803   4.286   5.659
 9157SOL     OW28369   1.507   4.120   5.571
 9157SOL    HW128370   1.474   4.156   5.659
 9157SOL    HW228371   1.447   4.045   5.542
 9158SOL     OW28372   6.754   3.541   4.900
 9158SOL    HW128373   6.844   3.571   4.868
 9158SOL    HW228374   6.739   3.575   4.993
 9159SOL     OW28375   2.253   1.566   3.637
 9159SOL    HW128376   2.192   1.497   3.675
 9159SOL    HW228377   2.346   1.528   3.631
 9160SOL     OW28378   1.061   3.223   6.904
 9160SOL    HW128379   0.983   3.192   6.959
 9160SOL    HW228380   1.130   3.262   6.964
 9161SOL     OW28381   6.157   3.452   2.439
 9161SOL    HW128382   6.132   3.383   2.508
 9161SOL    HW228383   6.112   3.539   2.461
 9162SOL     OW28384   3.928   2.244   1.750
 9162SOL    HW128385   3.975   2.204   1.828
 9162SOL    HW228386   3.847   2.293   1.781
 9163SOL     OW28387   2.371   2.366   4.173
 9163SOL    HW128388   2.317   2.282   4.178
 9163SOL    HW228389   2.378   2.407   4.264
 9164SOL     OW28390   2.009   6.860   6.327
 9164SOL    HW128391   1.942   6.871   6.254
 9164SOL    HW228392   1.963   6.834   6.412
 9165SOL     OW28393   5.450   1.626   6.127
 9165SOL    HW128394   5.478   1.552   6.187
 9165SOL    HW228395   5.367   1.600   6.077
 9166SOL     OW28396   4.499   6.303   1.978
 9166SOL    HW128397   4.437   6.316   1.901
 9166SOL    HW228398   4.478   6.369   2.050
 9167SOL     OW28399   1.815   1.502   4.565
 9167SOL    HW128400   1.778   1.576   4.509
 9167SOL    HW228401   1.741   1.454   4.611
 9168SOL     OW28402   6.734   6.019   5.050
 9168SOL    HW128403   6.687   6.006   4.962
 9168SOL    HW228404   6.677   6.076   5.109
 9169SOL     OW28405   6.405   5.878   0.456
 9169SOL    HW128406   6.402   5.811   0.382
 9169SOL    HW228407   6.481   5.941   0.440
 9170SOL     OW28408   1.910   1.098   5.413
 9170SOL    HW128409   1.985   1.058   5.466
 9170SOL    HW228410   1.825   1.052   5.438
 9171SOL     OW28411   3.503   5.711   6.873
 9171SOL    HW128412   3.507   5.687   6.776
 9171SOL    HW228413   3.513   5.628   6.929
 9172SOL     OW28414   4.381   1.989   5.486
 9172SOL    HW128415   4.398   1.935   5.569
 9172SOL    HW228416   4.312   2.059   5.506
 9173SOL     OW28417   5.944   3.763   5.493
 9173SOL    HW128418   6.012   3.827   5.458
 9173SOL    HW228419   5.866   3.813   5.530
 9174SOL     OW28420   6.228   4.562   1.389
 9174SOL    HW128421   6.299   4.492   1.391
 9174SOL    HW228422   6.138   4.519   1.394
 9175SOL     OW28423   2.167   6.882   1.392
 9175SOL    HW128424   2.245   6.901   1.452
 9175SOL    HW228425   2.199   6.869   1.298
 9176SOL     OW28426   1.835   0.598   1.694
 9176SOL    HW128427   1.833   0.698   1.689
 9176SOL    HW228428   1.780   0.568   1.771
 9177SOL     OW28429   0.696   6.668   4.007
 9177SOL    HW128430   0.606   6.636   3.976
 9177SOL    HW228431   0.768   6.612   3.965
 9178SOL     OW28432   1.244   4.445   0.853
 9178SOL    HW128433   1.148   4.470   0.868
 9178SOL    HW228434   1.280   4.400   0.935
 9179SOL     OW28435   3.551   5.282   4.071
 9179SOL    HW128436   3.640   5.258   4.108
 9179SOL    HW228437   3.530   5.223   3.993
 9180SOL     OW28438   0.256   1.111   5.230
 9180SOL    HW128439   0.265   1.207   5.259
 9180SOL    HW228440   0.188   1.066   5.288
 9181SOL     OW28441   2.779   2.337   3.937
 9181SOL    HW128442   2.859   2.281   3.914
 9181SOL    HW228443   2.756   2.325   4.033
 9182SOL     OW28444   0.345   2.045   2.670
 9182SOL    HW128445   0.444   2.034   2.686
 9182SOL    HW228446   0.304   1.956   2.652
 9183SOL     OW28447   1.712   1.824   6.155
 9183SOL    HW128448   1.622   1.820   6.198
 9183SOL    HW228449   1.704   1.803   6.058
 9184SOL     OW28450   3.124   4.273   0.910
 9184SOL    HW128451   3.033   4.261   0.951
 9184SOL    HW228452   3.190   4.217   0.959
 9185SOL     OW28453   1.465   0.377   5.941
 9185SOL    HW128454   1.535   0.425   5.889
 9185SOL    HW228455   1.488   0.379   6.039
 9186SOL     OW28456   5.210   6.909   6.920
 9186SOL    HW128457   5.241   6.941   6.830
 9186SOL    HW228458   5.110   6.900   6.919
 9187SOL     OW28459   5.315   2.814   0.770
 9187SOL    HW128460   5.239   2.793   0.833
 9187SOL    HW228461   5.384   2.742   0.777
 9188SOL     OW28462   1.851   6.948   1.183
 9188SOL    HW128463   1.763   6.901   1.183
 9188SOL    HW228464   1.873   6.977   1.276
 9189SOL     OW28465   3.330   0.318   5.566
 9189SOL    HW128466   3.332   0.219   5.582
 9189SOL    HW228467   3.283   0.338   5.480
 9190SOL     OW28468   4.258   0.776   5.172
 9190SOL    HW128469   4.159   0.763   5.184
 9190SOL    HW228470   4.305   0.745   5.255
 9191SOL     OW28471   5.850   0.060   1.656
 9191SOL    HW128472   5.902   0.030   1.736
 9191SOL    HW228473   5.837   0.159   1.660
 9192SOL     OW28474   4.842   3.664   4.523
 9192SOL    HW128475   4.885   3.624   4.603
 9192SOL    HW228476   4.764   3.608   4.495
 9193SOL     OW28477   4.058   3.553   3.346
 9193SOL    HW128478   3.972   3.563   3.396
 9193SOL    HW228479   4.040   3.558   3.248
 9194SOL     OW28480   3.803   4.881   2.983
 9194SOL    HW128481   3.784   4.967   3.031
 9194SOL    HW228482   3.744   4.873   2.904
 9195SOL     OW28483   0.653   2.657   2.589
 9195SOL    HW128484   0.624   2.595   2.662
 9195SOL    HW228485   0.579   2.721   2.568
 9196SOL     OW28486   5.084   6.410   4.402
 9196SOL    HW128487   5.045   6.383   4.490
 9196SOL    HW228488   5.171   6.363   4.389
 9197SOL     OW28489   4.499   1.524   6.785
 9197SOL    HW128490   4.473   1.431   6.813
 9197SOL    HW228491   4.562   1.518   6.707
 9198SOL     OW28492   5.999   2.327   5.632
 9198SOL    HW128493   6.064   2.383   5.580
 9198SOL    HW228494   5.983   2.369   5.721
 9199SOL     OW28495   1.509   3.343   6.422
 9199SOL    HW128496   1.558   3.330   6.507
 9199SOL    HW228497   1.511   3.259   6.368
 9200SOL     OW28498   4.931   5.574   1.067
 9200SOL    HW128499   4.960   5.670   1.058
 9200SOL    HW228500   5.008   5.518   1.095
 9201SOL     OW28501   0.416   3.393   2.156
 9201SOL    HW128502   0.387   3.315   2.211
 9201SOL    HW228503   0.452   3.360   2.068
 9202SOL     OW28504   2.057   6.175   4.114
 9202SOL    HW128505   2.108   6.179   4.028
 9202SOL    HW228506   1.995   6.254   4.119
 9203SOL     OW28507   5.065   0.798   0.360
 9203SOL    HW128508   5.109   0.786   0.271
 9203SOL    HW228509   5.133   0.788   0.433
 9204SOL     OW28510   5.132   4.573   3.217
 9204SOL    HW128511   5.206   4.533   3.163
 9204SOL    HW228512   5.044   4.553   3.174
 9205SOL     OW28513   4.451   2.410   1.550
 9205SOL    HW128514   4.416   2.378   1.638
 9205SOL    HW228515   4.546   2.437   1.559
 9206SOL     OW28516   6.350   6.069   4.499
 9206SOL    HW128517   6.276   6.002   4.489
 9206SOL    HW228518   6.313   6.156   4.531
 9207SOL     OW28519   3.779   6.095   0.118
 9207SOL    HW128520   3.786   6.026   0.045
 9207SOL    HW228521   3.690   6.086   0.163
 9208SOL     OW28522   4.320   3.998   1.674
 9208SOL    HW128523   4.374   4.061   1.730
 9208SOL    HW228524   4.253   4.050   1.621
 9209SOL     OW28525   4.241   0.271   2.733
 9209SOL    HW128526   4.194   0.255   2.646
 9209SOL    HW228527   4.212   0.204   2.800
 9210SOL     OW28528   0.560   6.782   0.147
 9210SOL    HW128529   0.634   6.757   0.210
 9210SOL    HW228530   0.578   6.873   0.110
 9211SOL     OW28531   4.728   1.310   6.216
 9211SOL    HW128532   4.655   1.254   6.255
 9211SOL    HW228533   4.741   1.391   6.273
 9212SOL     OW28534   5.719   3.936   5.520
 9212SOL    HW128535   5.737   4.024   5.476
 9212SOL    HW228536   5.664   3.951   5.602
 9213SOL     OW28537   6.623   5.852   1.658
 9213SOL    HW128538   6.527   5.825   1.655
 9213SOL    HW228539   6.662   5.846   1.566
 9214SOL     OW28540   2.246   1.421   5.770
 9214SOL    HW128541   2.334   1.384   5.800
 9214SOL    HW228542   2.185   1.430   5.849
 9215SOL     OW28543   0.375   3.728   3.333
 9215SOL    HW128544   0.301   3.792   3.312
 9215SOL    HW228545   0.338   3.652   3.387
 9216SOL     OW28546   2.454   6.286   3.060
 9216SOL    HW128547   2.435   6.250   2.969
 9216SOL    HW228548   2.378   6.262   3.121
 9217SOL     OW28549   4.342   1.966   6.831
 9217SOL    HW128550   4.347   1.866   6.840
 9217SOL    HW228551   4.250   1.997   6.855
 9218SOL     OW28552   5.390   5.552   6.490
 9218SOL    HW128553   5.394   5.463   6.535
 9218SOL    HW228554   5.469   5.606   6.515
 9219SOL     OW28555   3.139   2.209   5.651
 9219SOL    HW128556   3.195   2.137   5.610
 9219SOL    HW228557   3.139   2.199   5.751
 9220SOL     OW28558   0.392   6.775   3.249
 9220SOL    HW128559   0.433   6.752   3.336
 9220SOL    HW228560   0.452   6.837   3.199
 9221SOL     OW28561   2.728   1.463   1.398
 9221SOL    HW128562   2.685   1.503   1.317
 9221SOL    HW228563   2.783   1.533   1.444
 9222SOL     OW28564   1.330   5.248   3.956
 9222SOL    HW128565   1.422   5.241   3.995
 9222SOL    HW228566   1.287   5.333   3.985
 9223SOL     OW28567   6.304   3.072   4.627
 9223SOL    HW128568   6.327   2.988   4.578
 9223SOL    HW228569   6.346   3.071   4.717
 9224SOL     OW28570   1.867   4.637   2.874
 9224SOL    HW128571   1.953   4.637   2.823
 9224SOL    HW228572   1.885   4.658   2.970
 9225SOL     OW28573   6.602   5.310   6.032
 9225SOL    HW128574   6.673   5.379   6.019
 9225SOL    HW228575   6.642   5.219   6.022
 9226SOL     OW28576   1.002   0.747   6.003
 9226SOL    HW128577   0.969   0.794   6.084
 9226SOL    HW228578   0.987   0.804   5.922
 9227SOL     OW28579   3.380   4.293   1.138
 9227SOL    HW128580   3.333   4.217   1.091
 9227SOL    HW228581   3.379   4.374   1.079
 9228SOL     OW28582   4.043   3.203   4.811
 9228SOL    HW128583   4.042   3.301   4.828
 9228SOL    HW228584   4.131   3.165   4.840
 9229SOL     OW28585   6.574   5.389   0.235
 9229SOL    HW128586   6.553   5.484   0.260
 9229SOL    HW228587   6.635   5.388   0.155
 9230SOL     OW28588   4.600   0.571   5.288
 9230SOL    HW128589   4.550   0.634   5.348
 9230SOL    HW228590   4.670   0.622   5.238
 9231SOL     OW28591   6.354   5.840   1.659
 9231SOL    HW128592   6.279   5.787   1.619
 9231SOL    HW228593   6.318   5.926   1.696
 9232SOL     OW28594   1.257   5.473   2.118
 9232SOL    HW128595   1.300   5.534   2.052
 9232SOL    HW228596   1.236   5.386   2.073
 9233SOL     OW28597   1.066   6.760   5.865
 9233SOL    HW128598   1.144   6.801   5.912
 9233SOL    HW228599   1.038   6.820   5.789
 9234SOL     OW28600   3.132   4.313   5.727
 9234SOL    HW128601   3.084   4.280   5.646
 9234SOL    HW228602   3.090   4.275   5.809
 9235SOL     OW28603   2.414   1.712   2.839
 9235SOL    HW128604   2.377   1.778   2.773
 9235SOL    HW228605   2.418   1.754   2.929
 9236SOL     OW28606   1.508   3.229   5.783
 9236SOL    HW128607   1.536   3.306   5.840
 9236SOL    HW228608   1.588   3.192   5.735
 9237SOL     OW28609   6.219   5.486   2.684
 9237SOL    HW128610   6.291   5.419   2.665
 9237SOL    HW228611   6.130   5.440   2.686
 9238SOL     OW28612   1.683   2.777   4.777
 9238SOL    HW128613   1.705   2.718   4.855
 9238SOL    HW228614   1.767   2.814   4.739
 9239SOL     OW28615   1.122   5.169   6.094
 9239SOL    HW128616   1.096   5.082   6.052
 9239SOL    HW228617   1.191   5.214   6.038
 9240SOL     OW28618   3.850   1.854   3.936
 9240SOL    HW128619   3.785   1.778   3.947
 9240SOL    HW228620   3.935   1.819   3.896
 9241SOL     OW28621   5.834   6.687   6.978
 9241SOL    HW128622   5.854   6.731   0.047
 9241SOL    HW228623   5.875   6.595   6.976
 9242SOL     OW28624   1.932   2.589   0.867
 9242SOL    HW128625   1.872   2.513   0.843
 9242SOL    HW228626   2.025   2.554   0.881
 9243SOL     OW28627   2.025   6.961   0.283
 9243SOL    HW128628   2.007   6.891   0.353
 9243SOL    HW228629   2.104   7.016   0.311
 9244SOL     OW28630   2.499   6.181   6.478
 9244SOL    HW128631   2.566   6.129   6.532
 9244SOL    HW228632   2.434   6.224   6.540
 9245SOL     OW28633   0.797   4.965   2.927
 9245SOL    HW128634   0.775   5.059   2.902
 9245SOL    HW228635   0.751   4.942   3.013
 9246SOL     OW28636   5.288   6.734   6.577
 9246SOL    HW128637   5.360   6.775   6.520
 9246SOL    HW228638   5.244   6.660   6.527
 9247SOL     OW28639   3.688   6.369   2.890
 9247SOL    HW128640   3.625   6.420   2.831
 9247SOL    HW228641   3.661   6.380   2.985
 9248SOL     OW28642   2.662   0.727   6.406
 9248SOL    HW128643   2.749   0.740   6.357
 9248SOL    HW228644   2.673   0.658   6.477
 9249SOL     OW28645   2.886   6.807   6.839
 9249SOL    HW128646   2.877   6.834   6.935
 9249SOL    HW228647   2.813   6.850   6.786
 9250SOL     OW28648   0.602   3.480   3.249
 9250SOL    HW128649   0.575   3.491   3.153
 9250SOL    HW228650   0.612   3.570   3.291
 9251SOL     OW28651   3.233   1.518   1.570
 9251SOL    HW128652   3.186   1.585   1.513
 9251SOL    HW228653   3.271   1.563   1.651
 9252SOL     OW28654   5.784   1.087   4.603
 9252SOL    HW128655   5.744   1.152   4.668
 9252SOL    HW228656   5.869   1.051   4.641
 9253SOL     OW28657   2.087   5.707   4.788
 9253SOL    HW128658   2.059   5.720   4.883
 9253SOL    HW228659   2.152   5.631   4.783
 9254SOL     OW28660   0.433   5.230   2.135
 9254SOL    HW128661   0.515   5.173   2.143
 9254SOL    HW228662   0.458   5.320   2.099
 9255SOL     OW28663   6.324   4.298   0.868
 9255SOL    HW128664   6.314   4.235   0.791
 9255SOL    HW228665   6.420   4.305   0.893
 9256SOL     OW28666   2.558   6.924   0.615
 9256SOL    HW128667   2.613   6.880   0.686
 9256SOL    HW228668   2.461   6.920   0.640
 9257SOL     OW28669   6.170   5.844   4.487
 9257SOL    HW128670   6.074   5.832   4.462
 9257SOL    HW228671   6.228   5.800   4.418
 9258SOL     OW28672   4.424   5.474   1.872
 9258SOL    HW128673   4.362   5.499   1.797
 9258SOL    HW228674   4.437   5.375   1.872
 9259SOL     OW28675   0.661   2.642   6.853
 9259SOL    HW128676   0.629   2.724   6.900
 9259SOL    HW228677   0.758   2.651   6.831
 9260SOL     OW28678   4.913   3.904   4.642
 9260SOL    HW128679   4.906   3.863   4.733
 9260SOL    HW228680   4.862   3.848   4.577
 9261SOL     OW28681   1.331   2.658   1.968
 9261SOL    HW128682   1.251   2.715   1.952
 9261SOL    HW228683   1.382   2.647   1.883
 9262SOL     OW28684   6.583   6.338   6.092
 9262SOL    HW128685   6.641   6.258   6.098
 9262SOL    HW228686   6.510   6.332   6.161
 9263SOL     OW28687   2.221   4.405   3.179
 9263SOL    HW128688   2.144   4.439   3.234
 9263SOL    HW228689   2.273   4.482   3.144
 9264SOL     OW28690   5.138   3.828   6.450
 9264SOL    HW128691   5.175   3.735   6.443
 9264SOL    HW228692   5.214   3.892   6.464
 9265SOL     OW28693   4.897   0.884   1.407
 9265SOL    HW128694   4.835   0.890   1.330
 9265SOL    HW228695   4.941   0.972   1.422
 9266SOL     OW28696   2.139   4.381   0.871
 9266SOL    HW128697   2.157   4.369   0.969
 9266SOL    HW228698   2.121   4.292   0.830
 9267SOL     OW28699   0.690   1.607   3.875
 9267SOL    HW128700   0.659   1.701   3.885
 9267SOL    HW228701   0.702   1.586   3.778
 9268SOL     OW28702   0.921   0.724   1.740
 9268SOL    HW128703   0.869   0.809   1.743
 9268SOL    HW228704   0.873   0.654   1.793
 9269SOL     OW28705   4.357   1.167   0.023
 9269SOL    HW128706   4.308   1.253   0.010
 9269SOL    HW228707   4.352   1.140   0.119
 9270SOL     OW28708   2.723   1.106   5.671
 9270SOL    HW128709   2.715   1.141   5.764
 9270SOL    HW228710   2.815   1.125   5.636
 9271SOL     OW28711   1.552   4.814   5.829
 9271SOL    HW128712   1.546   4.751   5.906
 9271SOL    HW228713   1.624   4.881   5.845
 9272SOL     OW28714   6.303   6.146   5.711
 9272SOL    HW128715   6.377   6.091   5.671
 9272SOL    HW228716   6.343   6.219   5.766
 9273SOL     OW28717   5.584   3.154   3.672
 9273SOL    HW128718   5.485   3.146   3.670
 9273SOL    HW228719   5.621   3.089   3.738
 9274SOL     OW28720   0.598   3.294   0.652
 9274SOL    HW128721   0.676   3.272   0.711
 9274SOL    HW228722   0.628   3.355   0.579
 9275SOL     OW28723   5.587   0.794   0.637
 9275SOL    HW128724   5.555   0.873   0.689
 9275SOL    HW228725   5.622   0.724   0.699
 9276SOL     OW28726   2.443   4.766   6.618
 9276SOL    HW128727   2.451   4.683   6.562
 9276SOL    HW228728   2.498   4.839   6.578
 9277SOL     OW28729   4.621   5.109   2.419
 9277SOL    HW128730   4.716   5.090   2.394
 9277SOL    HW228731   4.564   5.111   2.337
 9278SOL     OW28732   0.335   6.823   5.877
 9278SOL    HW128733   0.241   6.856   5.885
 9278SOL    HW228734   0.383   6.839   5.963
 9279SOL     OW28735   2.874   6.113   1.994
 9279SOL    HW128736   2.836   6.161   1.915
 9279SOL    HW228737   2.833   6.148   2.078
 9280SOL     OW28738   1.065   5.751   2.905
 9280SOL    HW128739   1.040   5.809   2.983
 9280SOL    HW228740   1.096   5.663   2.938
 9281SOL     OW28741   1.626   4.776   0.766
 9281SOL    HW128742   1.535   4.817   0.771
 9281SOL    HW228743   1.695   4.847   0.774
 9282SOL     OW28744   2.816   6.606   5.014
 9282SOL    HW128745   2.780   6.515   4.996
 9282SOL    HW228746   2.750   6.676   4.986
 9283SOL     OW28747   4.826   6.103   0.937
 9283SOL    HW128748   4.727   6.095   0.927
 9283SOL    HW228749   4.869   6.103   0.847
 9284SOL     OW28750   4.068   5.367   6.981
 9284SOL    HW128751   4.060   5.453   0.012
 9284SOL    HW228752   4.051   5.291   0.025
 9285SOL     OW28753   0.147   6.421   3.487
 9285SOL    HW128754   0.190   6.331   3.497
 9285SOL    HW228755   0.211   6.491   3.519
 9286SOL     OW28756   5.018   6.649   1.617
 9286SOL    HW128757   4.941   6.660   1.680
 9286SOL    HW228758   5.011   6.718   1.544
 9287SOL     OW28759   4.198   3.828   6.424
 9287SOL    HW128760   4.241   3.806   6.511
 9287SOL    HW228761   4.116   3.771   6.412
 9288SOL     OW28762   3.906   1.880   2.384
 9288SOL    HW128763   3.937   1.854   2.292
 9288SOL    HW228764   3.903   1.980   2.391
 9289SOL     OW28765   4.909   6.213   1.171
 9289SOL    HW128766   4.970   6.143   1.208
 9289SOL    HW228767   4.888   6.191   1.075
 9290SOL     OW28768   6.389   1.225   4.012
 9290SOL    HW128769   6.321   1.295   3.992
 9290SOL    HW228770   6.481   1.264   4.001
 9291SOL     OW28771   0.369   4.184   5.889
 9291SOL    HW128772   0.358   4.091   5.855
 9291SOL    HW228773   0.397   4.181   5.985
 9292SOL     OW28774   0.307   1.692   6.757
 9292SOL    HW128775   0.339   1.650   6.842
 9292SOL    HW228776   0.289   1.620   6.690
 9293SOL     OW28777   4.326   1.834   4.953
 9293SOL    HW128778   4.294   1.843   4.859
 9293SOL    HW228779   4.272   1.894   5.013
 9294SOL     OW28780   4.749   6.953   6.743
 9294SOL    HW128781   4.731   6.977   6.647
 9294SOL    HW228782   4.749   0.017   6.798
 9295SOL     OW28783   5.859   1.081   4.118
 9295SOL    HW128784   5.816   0.991   4.128
 9295SOL    HW228785   5.927   1.093   4.190
 9296SOL     OW28786   2.228   4.721   5.813
 9296SOL    HW128787   2.303   4.687   5.755
 9296SOL    HW228788   2.179   4.643   5.853
 9297SOL     OW28789   6.816   4.964   1.998
 9297SOL    HW128790   6.793   4.906   1.920
 9297SOL    HW228791   6.892   4.923   2.048
 9298SOL     OW28792   1.349   4.042   6.417
 9298SOL    HW128793   1.364   4.068   6.513
 9298SOL    HW228794   1.338   4.124   6.362
 9299SOL     OW28795   2.820   2.355   4.700
 9299SOL    HW128796   2.749   2.361   4.769
 9299SOL    HW228797   2.909   2.344   4.744
 9300SOL     OW28798   1.986   6.607   4.675
 9300SOL    HW128799   1.953   6.513   4.688
 9300SOL    HW228800   2.083   6.605   4.651
 9301SOL     OW28801   0.843   4.327   4.053
 9301SOL    HW128802   0.877   4.241   4.013
 9301SOL    HW228803   0.920   4.376   4.095
 9302SOL     OW28804   2.442   5.197   4.517
 9302SOL    HW128805   2.418   5.290   4.491
 9302SOL    HW228806   2.484   5.197   4.608
 9303SOL     OW28807   2.695   4.271   0.156
 9303SOL    HW128808   2.736   4.285   0.246
 9303SOL    HW228809   2.663   4.359   0.120
 9304SOL     OW28810   5.224   5.290   6.497
 9304SOL    HW128811   5.191   5.281   6.403
 9304SOL    HW228812   5.172   5.361   6.544
 9305SOL     OW28813   1.676   1.680   1.290
 9305SOL    HW128814   1.633   1.770   1.283
 9305SOL    HW228815   1.680   1.638   1.199
 9306SOL     OW28816   6.789   6.150   4.702
 9306SOL    HW128817   6.752   6.058   4.700
 9306SOL    HW228818   6.740   6.204   4.771
 9307SOL     OW28819   1.407   4.044   1.487
 9307SOL    HW128820   1.420   3.945   1.477
 9307SOL    HW228821   1.475   4.080   1.551
 9308SOL     OW28822   2.209   3.360   1.646
 9308SOL    HW128823   2.230   3.410   1.730
 9308SOL    HW228824   2.286   3.366   1.583
 9309SOL     OW28825   5.008   5.476   6.617
 9309SOL    HW128826   4.958   5.561   6.631
 9309SOL    HW228827   4.970   5.404   6.676
 9310SOL     OW28828   5.698   5.968   5.627
 9310SOL    HW128829   5.601   5.969   5.649
 9310SOL    HW228830   5.751   6.002   5.705
 9311SOL     OW28831   4.959   3.770   0.747
 9311SOL    HW128832   5.058   3.770   0.755
 9311SOL    HW228833   4.925   3.676   0.759
 9312SOL     OW28834   0.144   2.885   3.607
 9312SOL    HW128835   0.056   2.930   3.595
 9312SOL    HW228836   0.131   2.787   3.614
 9313SOL     OW28837   0.883   0.766   2.484
 9313SOL    HW128838   0.839   0.676   2.476
 9313SOL    HW228839   0.974   0.761   2.443
 9314SOL     OW28840   5.532   5.005   1.121
 9314SOL    HW128841   5.438   5.007   1.088
 9314SOL    HW228842   5.535   5.029   1.218
 9315SOL     OW28843   5.400   6.052   5.598
 9315SOL    HW128844   5.441   6.123   5.655
 9315SOL    HW228845   5.379   6.090   5.508
 9316SOL     OW28846   5.189   6.995   0.953
 9316SOL    HW128847   5.237   6.908   0.955
 9316SOL    HW228848   5.144   7.011   1.041
 9317SOL     OW28849   2.393   6.173   3.646
 9317SOL    HW128850   2.392   6.082   3.605
 9317SOL    HW228851   2.476   6.184   3.700
 9318SOL     OW28852   3.835   0.005   2.052
 9318SOL    HW128853   3.895   0.084   2.045
 9318SOL    HW228854   3.859   6.970   2.132
 9319SOL     OW28855   3.960   1.959   0.210
 9319SOL    HW128856   4.043   2.013   0.196
 9319SOL    HW228857   3.939   1.909   0.126
 9320SOL     OW28858   6.814   6.587   6.916
 9320SOL    HW128859   6.736   6.534   6.949
 9320SOL    HW228860   6.810   6.594   6.816
 9321SOL     OW28861   0.822   3.408   4.414
 9321SOL    HW128862   0.759   3.485   4.420
 9321SOL    HW228863   0.875   3.401   4.499
 9322SOL     OW28864   5.014   3.069   6.594
 9322SOL    HW128865   5.091   3.033   6.647
 9322SOL    HW228866   5.038   3.159   6.557
 9323SOL     OW28867   0.923   2.353   6.092
 9323SOL    HW128868   0.988   2.370   6.166
 9323SOL    HW228869   0.923   2.256   6.068
 9324SOL     OW28870   0.191   4.519   1.445
 9324SOL    HW128871   0.144   4.566   1.370
 9324SOL    HW228872   0.247   4.585   1.496
 9325SOL     OW28873   0.919   4.822   3.296
 9325SOL    HW128874   0.875   4.823   3.386
 9325SOL    HW228875   1.018   4.816   3.307
 9326SOL     OW28876   4.675   4.570   0.598
 9326SOL    HW128877   4.642   4.536   0.510
 9326SOL    HW228878   4.681   4.669   0.596
 9327SOL     OW28879   3.309   1.167   3.423
 9327SOL    HW128880   3.321   1.132   3.516
 9327SOL    HW228881   3.223   1.132   3.386
 9328SOL     OW28882   1.523   0.669   3.559
 9328SOL    HW128883   1.613   0.679   3.516
 9328SOL    HW228884   1.452   0.675   3.489
 9329SOL     OW28885   1.262   4.937   6.561
 9329SOL    HW128886   1.174   4.892   6.549
 9329SOL    HW228887   1.280   4.998   6.484
 9330SOL     OW28888   1.227   6.543   0.418
 9330SOL    HW128889   1.305   6.481   0.426
 9330SOL    HW228890   1.244   6.608   0.344
 9331SOL     OW28891   2.381   4.338   4.029
 9331SOL    HW128892   2.352   4.283   3.951
 9331SOL    HW228893   2.444   4.410   3.999
 9332SOL     OW28894   6.184   5.153   0.364
 9332SOL    HW128895   6.184   5.210   0.446
 9332SOL    HW228896   6.135   5.068   0.384
 9333SOL     OW28897   2.806   3.922   1.518
 9333SOL    HW128898   2.831   3.831   1.552
 9333SOL    HW228899   2.887   3.981   1.519
 9334SOL     OW28900   6.775   5.781   6.208
 9334SOL    HW128901   6.731   5.692   6.195
 9334SOL    HW228902   6.811   5.788   6.301
 9335SOL     OW28903   0.649   3.803   1.489
 9335SOL    HW128904   0.575   3.736   1.497
 9335SOL    HW228905   0.683   3.826   1.580
 9336SOL     OW28906   5.089   6.949   5.883
 9336SOL    HW128907   5.172   6.903   5.915
 9336SOL    HW228908   5.012   6.886   5.887
 9337SOL     OW28909   2.591   1.621   5.539
 9337SOL    HW128910   2.636   1.560   5.604
 9337SOL    HW228911   2.499   1.587   5.520
 9338SOL     OW28912   5.452   6.285   0.703
 9338SOL    HW128913   5.497   6.374   0.713
 9338SOL    HW228914   5.522   6.214   0.687
 9339SOL     OW28915   0.047   4.001   4.947
 9339SOL    HW128916   0.087   3.999   4.855
 9339SOL    HW228917   6.989   3.937   4.951
 9340SOL     OW28918   2.598   4.790   1.728
 9340SOL    HW128919   2.694   4.763   1.727
 9340SOL    HW228920   2.579   4.841   1.812
 9341SOL     OW28921   5.635   5.330   6.711
 9341SOL    HW128922   5.571   5.388   6.761
 9341SOL    HW228923   5.674   5.381   6.634
 9342SOL     OW28924   3.280   0.176   4.992
 9342SOL    HW128925   3.286   0.112   5.069
 9342SOL    HW228926   3.212   0.143   4.927
 9343SOL     OW28927   4.562   3.438   0.659
 9343SOL    HW128928   4.528   3.532   0.664
 9343SOL    HW228929   4.590   3.408   0.750
 9344SOL     OW28930   5.634   0.449   5.350
 9344SOL    HW128931   5.680   0.537   5.345
 9344SOL    HW228932   5.556   0.448   5.288
 9345SOL     OW28933   0.694   4.766   0.140
 9345SOL    HW128934   0.630   4.843   0.133
 9345SOL    HW228935   0.779   4.790   0.094
 9346SOL     OW28936   5.132   0.439   1.991
 9346SOL    HW128937   5.085   0.527   1.978
 9346SOL    HW228938   5.216   0.439   1.936
 9347SOL     OW28939   4.446   6.275   1.127
 9347SOL    HW128940   4.369   6.325   1.167
 9347SOL    HW228941   4.489   6.331   1.056
 9348SOL     OW28942   2.396   5.396   1.425
 9348SOL    HW128943   2.488   5.362   1.445
 9348SOL    HW228944   2.376   5.475   1.484
 9349SOL     OW28945   6.894   6.098   0.846
 9349SOL    HW128946   6.945   6.014   0.828
 9349SOL    HW228947   6.946   6.156   0.909
 9350SOL     OW28948   6.748   0.756   0.581
 9350SOL    HW128949   6.687   0.748   0.502
 9350SOL    HW228950   6.752   0.668   0.629
 9351SOL     OW28951   4.172   3.372   6.021
 9351SOL    HW128952   4.147   3.275   6.020
 9351SOL    HW228953   4.228   3.393   5.942
 9352SOL     OW28954   2.820   2.454   6.919
 9352SOL    HW128955   2.859   2.377   6.971
 9352SOL    HW228956   2.892   2.522   6.902
 9353SOL     OW28957   0.282   3.073   1.527
 9353SOL    HW128958   0.333   3.095   1.443
 9353SOL    HW228959   0.252   2.978   1.524
 9354SOL     OW28960   5.178   1.731   1.668
 9354SOL    HW128961   5.161   1.703   1.573
 9354SOL    HW228962   5.152   1.827   1.679
 9355SOL     OW28963   0.126   1.370   2.324
 9355SOL    HW128964   0.206   1.422   2.355
 9355SOL    HW228965   0.053   1.376   2.391
 9356SOL     OW28966   5.303   3.403   2.787
 9356SOL    HW128967   5.262   3.448   2.707
 9356SOL    HW228968   5.232   3.353   2.837
 9357SOL     OW28969   3.056   3.910   0.900
 9357SOL    HW128970   3.100   4.000   0.903
 9357SOL    HW228971   3.043   3.876   0.993
 9358SOL     OW28972   5.080   4.270   2.124
 9358SOL    HW128973   5.065   4.234   2.216
 9358SOL    HW228974   4.995   4.264   2.071
 9359SOL     OW28975   5.282   4.582   5.958
 9359SOL    HW128976   5.268   4.593   5.859
 9359SOL    HW228977   5.344   4.505   5.974
 9360SOL     OW28978   1.065   0.784   5.133
 9360SOL    HW128979   1.111   0.699   5.161
 9360SOL    HW228980   1.134   0.856   5.123
 9361SOL     OW28981   2.567   1.461   1.923
 9361SOL    HW128982   2.597   1.511   2.004
 9361SOL    HW228983   2.531   1.372   1.951
 9362SOL     OW28984   1.691   1.863   3.139
 9362SOL    HW128985   1.678   1.915   3.223
 9362SOL    HW228986   1.769   1.802   3.149
 9363SOL     OW28987   1.782   6.392   2.261
 9363SOL    HW128988   1.757   6.381   2.165
 9363SOL    HW228989   1.706   6.435   2.310
 9364SOL     OW28990   5.826   4.477   0.880
 9364SOL    HW128991   5.824   4.436   0.971
 9364SOL    HW228992   5.873   4.565   0.884
 9365SOL     OW28993   2.462   1.340   4.911
 9365SOL    HW128994   2.456   1.266   4.844
 9365SOL    HW228995   2.373   1.384   4.920
 9366SOL     OW28996   3.769   1.255   1.753
 9366SOL    HW128997   3.687   1.261   1.810
 9366SOL    HW228998   3.758   1.180   1.687
 9367SOL     OW28999   6.480   6.067   4.102
 9367SOL    HW129000   6.426   6.148   4.079
 9367SOL    HW229001   6.454   6.034   4.193
 9368SOL     OW29002   4.757   2.625   1.372
 9368SOL    HW129003   4.768   2.560   1.448
 9368SOL    HW229004   4.660   2.635   1.351
 9369SOL     OW29005   6.504   2.309   5.828
 9369SOL    HW129006   6.585   2.251   5.819
 9369SOL    HW229007   6.517   2.392   5.774
 9370SOL     OW29008   6.213   6.590   3.541
 9370SOL    HW129009   6.157   6.631   3.613
 9370SOL    HW229010   6.290   6.542   3.583
 9371SOL     OW29011   1.234   6.770   0.581
 9371SOL    HW129012   1.232   6.850   0.521
 9371SOL    HW229013   1.236   6.687   0.526
 9372SOL     OW29014   5.788   6.160   0.044
 9372SOL    HW129015   5.751   6.069   0.059
 9372SOL    HW229016   5.882   6.164   0.076
 9373SOL     OW29017   4.542   2.536   4.077
 9373SOL    HW129018   4.492   2.597   4.016
 9373SOL    HW229019   4.599   2.589   4.139
 9374SOL     OW29020   5.127   4.382   0.360
 9374SOL    HW129021   5.152   4.311   0.426
 9374SOL    HW229022   5.164   4.358   0.270
 9375SOL     OW29023   0.746   1.637   4.294
 9375SOL    HW129024   0.692   1.555   4.277
 9375SOL    HW229025   0.822   1.640   4.229
 9376SOL     OW29026   1.543   2.624   2.128
 9376SOL    HW129027   1.458   2.652   2.082
 9376SOL    HW229028   1.616   2.616   2.060
 9377SOL     OW29029   6.084   5.136   2.673
 9377SOL    HW129030   6.138   5.136   2.757
 9377SOL    HW229031   6.007   5.073   2.683
 9378SOL     OW29032   3.542   6.209   1.403
 9378SOL    HW129033   3.456   6.252   1.378
 9378SOL    HW229034   3.544   6.194   1.502
 9379SOL     OW29035   5.721   4.803   5.580
 9379SOL    HW129036   5.747   4.710   5.555
 9379SOL    HW229037   5.637   4.801   5.634
 9380SOL     OW29038   5.997   5.757   6.464
 9380SOL    HW129039   5.920   5.769   6.401
 9380SOL    HW229040   5.964   5.764   6.558
 9381SOL     OW29041   1.941   0.952   0.443
 9381SOL    HW129042   1.929   1.013   0.521
 9381SOL    HW229043   1.988   1.001   0.369
 9382SOL     OW29044   5.639   1.866   2.735
 9382SOL    HW129045   5.581   1.922   2.676
 9382SOL    HW229046   5.583   1.798   2.782
 9383SOL     OW29047   5.428   5.791   5.665
 9383SOL    HW129048   5.420   5.891   5.654
 9383SOL    HW229049   5.356   5.759   5.725
 9384SOL     OW29050   4.162   6.490   1.913
 9384SOL    HW129051   4.086   6.477   1.978
 9384SOL    HW229052   4.126   6.490   1.820
 9385SOL     OW29053   3.608   0.865   4.302
 9385SOL    HW129054   3.530   0.803   4.294
 9385SOL    HW229055   3.680   0.821   4.356
 9386SOL     OW29056   3.947   0.142   4.725
 9386SOL    HW129057   4.016   0.140   4.652
 9386SOL    HW229058   3.984   0.191   4.804
 9387SOL     OW29059   4.028   6.381   0.645
 9387SOL    HW129060   3.972   6.300   0.626
 9387SOL    HW229061   4.097   6.358   0.714
 9388SOL     OW29062   6.428   6.541   2.480
 9388SOL    HW129063   6.429   6.641   2.481
 9388SOL    HW229064   6.360   6.509   2.414
 9389SOL     OW29065   3.557   1.326   6.947
 9389SOL    HW129066   3.540   1.410   6.897
 9389SOL    HW229067   3.501   1.325   0.011
 9390SOL     OW29068   2.782   6.844   1.836
 9390SOL    HW129069   2.862   6.855   1.895
 9390SOL    HW229070   2.812   6.826   1.742
 9391SOL     OW29071   0.617   1.118   5.450
 9391SOL    HW129072   0.644   1.064   5.370
 9391SOL    HW229073   0.578   1.205   5.419
 9392SOL     OW29074   1.430   6.325   4.232
 9392SOL    HW129075   1.422   6.401   4.297
 9392SOL    HW229076   1.430   6.361   4.139
 9393SOL     OW29077   3.927   2.149   5.483
 9393SOL    HW129078   3.910   2.242   5.449
 9393SOL    HW229079   4.024   2.139   5.503
 9394SOL     OW29080   5.770   2.796   2.117
 9394SOL    HW129081   5.798   2.828   2.027
 9394SOL    HW229082   5.671   2.791   2.122
 9395SOL     OW29083   1.937   2.340   6.315
 9395SOL    HW129084   1.948   2.408   6.387
 9395SOL    HW229085   1.868   2.371   6.250
 9396SOL     OW29086   6.164   0.386   6.929
 9396SOL    HW129087   6.081   0.336   6.954
 9396SOL    HW229088   6.241   0.351   6.982
 9397SOL     OW29089   2.930   1.362   0.954
 9397SOL    HW129090   2.836   1.335   0.935
 9397SOL    HW229091   2.967   1.306   1.028
 9398SOL     OW29092   2.112   1.443   0.417
 9398SOL    HW129093   2.105   1.351   0.378
 9398SOL    HW229094   2.158   1.437   0.506
 9399SOL     OW29095   6.836   0.729   5.344
 9399SOL    HW129096   6.913   0.790   5.362
 9399SOL    HW229097   6.805   0.689   5.430
 9400SOL     OW29098   4.414   1.943   3.788
 9400SOL    HW129099   4.380   1.976   3.876
 9400SOL    HW229100   4.340   1.946   3.721
 9401SOL     OW29101   4.489   0.448   2.746
 9401SOL    HW129102   4.399   0.407   2.737
 9401SOL    HW229103   4.542   0.398   2.814
 9402SOL     OW29104   1.731   5.020   0.020
 9402SOL    HW129105   1.725   5.077   0.102
 9402SOL    HW229106   1.765   4.929   0.045
 9403SOL     OW29107   5.586   0.931   4.481
 9403SOL    HW129108   5.645   0.997   4.528
 9403SOL    HW229109   5.490   0.950   4.503
 9404SOL     OW29110   0.713   4.012   5.488
 9404SOL    HW129111   0.704   4.085   5.555
 9404SOL    HW229112   0.625   3.996   5.443
 9405SOL     OW29113   6.816   0.370   0.817
 9405SOL    HW129114   6.718   0.356   0.822
 9405SOL    HW229115   6.839   0.416   0.731
 9406SOL     OW29116   0.130   1.041   5.734
 9406SOL    HW129117   0.224   1.065   5.758
 9406SOL    HW229118   0.101   1.093   5.654
 9407SOL     OW29119   3.764   5.840   2.763
 9407SOL    HW129120   3.823   5.825   2.843
 9407SOL    HW229121   3.779   5.932   2.727
 9408SOL     OW29122   3.880   1.806   6.581
 9408SOL    HW129123   3.803   1.852   6.626
 9408SOL    HW229124   3.945   1.774   6.650
 9409SOL     OW29125   5.792   3.870   3.294
 9409SOL    HW129126   5.884   3.903   3.273
 9409SOL    HW229127   5.740   3.944   3.337
 9410SOL     OW29128   4.908   6.436   2.176
 9410SOL    HW129129   4.904   6.427   2.076
 9410SOL    HW229130   4.998   6.406   2.208
 9411SOL     OW29131   4.628   5.254   1.111
 9411SOL    HW129132   4.627   5.353   1.100
 9411SOL    HW229133   4.723   5.221   1.115
 9412SOL     OW29134   6.612   3.397   1.514
 9412SOL    HW129135   6.524   3.434   1.543
 9412SOL    HW229136   6.621   3.304   1.548
 9413SOL     OW29137   3.611   5.707   4.808
 9413SOL    HW129138   3.596   5.711   4.907
 9413SOL    HW229139   3.617   5.611   4.779
 9414SOL     OW29140   2.752   1.559   2.166
 9414SOL    HW129141   2.780   1.463   2.158
 9414SOL    HW229142   2.827   1.618   2.138
 9415SOL     OW29143   3.005   0.846   2.246
 9415SOL    HW129144   2.937   0.895   2.192
 9415SOL    HW229145   3.063   0.911   2.294
 9416SOL     OW29146   1.097   1.961   1.257
 9416SOL    HW129147   1.078   2.058   1.242
 9416SOL    HW229148   1.180   1.951   1.311
 9417SOL     OW29149   2.591   6.995   4.642
 9417SOL    HW129150   2.621   6.900   4.643
 9417SOL    HW229151   2.648   0.028   4.578
 9418SOL     OW29152   4.053   4.403   0.914
 9418SOL    HW129153   4.033   4.325   0.973
 9418SOL    HW229154   4.015   4.486   0.954
 9419SOL     OW29155   3.813   5.517   5.317
 9419SOL    HW129156   3.834   5.437   5.373
 9419SOL    HW229157   3.808   5.598   5.376
 9420SOL     OW29158   0.967   1.565   4.745
 9420SOL    HW129159   0.917   1.595   4.663
 9420SOL    HW229160   0.905   1.565   4.824
 9421SOL     OW29161   1.972   5.394   4.858
 9421SOL    HW129162   1.902   5.433   4.799
 9421SOL    HW229163   2.030   5.332   4.804
 9422SOL     OW29164   3.884   1.329   2.264
 9422SOL    HW129165   3.867   1.231   2.277
 9422SOL    HW229166   3.886   1.350   2.166
 9423SOL     OW29167   4.760   0.789   4.723
 9423SOL    HW129168   4.769   0.726   4.645
 9423SOL    HW229169   4.670   0.779   4.764
 9424SOL     OW29170   3.299   6.316   4.436
 9424SOL    HW129171   3.375   6.280   4.381
 9424SOL    HW229172   3.318   6.411   4.460
 9425SOL     OW29173   1.162   4.748   3.998
 9425SOL    HW129174   1.232   4.680   4.022
 9425SOL    HW229175   1.206   4.835   3.975
 9426SOL     OW29176   4.091   6.507   0.406
 9426SOL    HW129177   4.077   6.442   0.481
 9426SOL    HW229178   4.020   6.494   0.337
 9427SOL     OW29179   2.953   4.849   4.256
 9427SOL    HW129180   3.037   4.890   4.292
 9427SOL    HW229181   2.911   4.793   4.328
 9428SOL     OW29182   4.456   5.872   2.433
 9428SOL    HW129183   4.436   5.859   2.530
 9428SOL    HW229184   4.394   5.940   2.394
 9429SOL     OW29185   6.790   3.177   2.590
 9429SOL    HW129186   6.830   3.246   2.529
 9429SOL    HW229187   6.797   3.208   2.685
 9430SOL     OW29188   6.527   6.784   2.109
 9430SOL    HW129189   6.583   6.779   2.027
 9430SOL    HW229190   6.430   6.777   2.084
 9431SOL     OW29191   6.600   4.455   1.532
 9431SOL    HW129192   6.542   4.402   1.470
 9431SOL    HW229193   6.549   4.473   1.617
 9432SOL     OW29194   6.724   6.606   4.537
 9432SOL    HW129195   6.683   6.523   4.575
 9432SOL    HW229196   6.785   6.581   4.462
 9433SOL     OW29197   2.699   4.694   4.729
 9433SOL    HW129198   2.776   4.721   4.786
 9433SOL    HW229199   2.651   4.617   4.771
 9434SOL     OW29200   5.339   5.291   3.058
 9434SOL    HW129201   5.272   5.306   3.131
 9434SOL    HW229202   5.377   5.379   3.029
 9435SOL     OW29203   1.479   1.437   5.033
 9435SOL    HW129204   1.517   1.367   5.093
 9435SOL    HW229205   1.549   1.507   5.014
 9436SOL     OW29206   1.799   2.702   6.139
 9436SOL    HW129207   1.878   2.725   6.196
 9436SOL    HW229208   1.811   2.742   6.048
 9437SOL     OW29209   0.563   5.238   3.917
 9437SOL    HW129210   0.638   5.288   3.961
 9437SOL    HW229211   0.479   5.291   3.926
 9438SOL     OW29212   0.984   6.702   2.191
 9438SOL    HW129213   1.049   6.731   2.120
 9438SOL    HW229214   0.891   6.704   2.154
 9439SOL     OW29215   0.750   2.790   1.531
 9439SOL    HW129216   0.819   2.847   1.577
 9439SOL    HW229217   0.688   2.752   1.600
 9440SOL     OW29218   4.601   6.028   5.274
 9440SOL    HW129219   4.687   5.977   5.277
 9440SOL    HW229220   4.598   6.083   5.191
 9441SOL     OW29221   1.756   5.452   4.705
 9441SOL    HW129222   1.719   5.363   4.734
 9441SOL    HW229223   1.751   5.459   4.605
 9442SOL     OW29224   0.715   3.555   1.217
 9442SOL    HW129225   0.771   3.624   1.262
 9442SOL    HW229226   0.773   3.498   1.158
 9443SOL     OW29227   1.699   3.266   1.326
 9443SOL    HW129228   1.731   3.205   1.254
 9443SOL    HW229229   1.756   3.253   1.408
 9444SOL     OW29230   0.478   3.884   5.923
 9444SOL    HW129231   0.543   3.950   5.885
 9444SOL    HW229232   0.527   3.814   5.974
 9445SOL     OW29233   5.690   3.578   1.256
 9445SOL    HW129234   5.605   3.532   1.282
 9445SOL    HW229235   5.714   3.645   1.326
 9446SOL     OW29236   5.853   5.076   1.265
 9446SOL    HW129237   5.858   4.984   1.224
 9446SOL    HW229238   5.849   5.068   1.364
 9447SOL     OW29239   6.128   2.680   1.210
 9447SOL    HW129240   6.159   2.629   1.129
 9447SOL    HW229241   6.148   2.627   1.292
 9448SOL     OW29242   5.890   6.093   0.559
 9448SOL    HW129243   5.935   6.041   0.486
 9448SOL    HW229244   5.957   6.115   0.630
 9449SOL     OW29245   6.929   5.342   5.256
 9449SOL    HW129246   6.987   5.261   5.246
 9449SOL    HW229247   6.864   5.327   5.331
 9450SOL     OW29248   2.707   5.038   4.426
 9450SOL    HW129249   2.689   5.033   4.524
 9450SOL    HW229250   2.712   5.134   4.398
 9451SOL     OW29251   4.332   4.167   6.090
 9451SOL    HW129252   4.364   4.096   6.152
 9451SOL    HW229253   4.284   4.126   6.013
 9452SOL     OW29254   2.933   4.084   1.171
 9452SOL    HW129255   2.985   4.141   1.234
 9452SOL    HW229256   2.902   4.139   1.094
 9453SOL     OW29257   3.166   4.877   2.328
 9453SOL    HW129258   3.167   4.855   2.230
 9453SOL    HW229259   3.091   4.827   2.372
 9454SOL     OW29260   2.581   2.562   5.208
 9454SOL    HW129261   2.635   2.624   5.265
 9454SOL    HW229262   2.591   2.469   5.243
 9455SOL     OW29263   3.161   1.831   2.002
 9455SOL    HW129264   3.201   1.912   2.043
 9455SOL    HW229265   3.157   1.842   1.903
 9456SOL     OW29266   1.802   3.078   1.154
 9456SOL    HW129267   1.843   2.987   1.157
 9456SOL    HW229268   1.715   3.074   1.104
 9457SOL     OW29269   0.034   3.195   0.501
 9457SOL    HW129270   6.988   3.174   0.574
 9457SOL    HW229271   0.005   3.278   0.453
 9458SOL     OW29272   0.381   5.978   4.485
 9458SOL    HW129273   0.479   5.963   4.485
 9458SOL    HW229274   0.358   6.050   4.551
 9459SOL     OW29275   4.553   5.960   1.644
 9459SOL    HW129276   4.628   6.022   1.622
 9459SOL    HW229277   4.478   6.011   1.685
 9460SOL     OW29278   1.004   2.362   4.970
 9460SOL    HW129279   0.936   2.334   5.037
 9460SOL    HW229280   1.088   2.309   4.983
 9461SOL     OW29281   1.445   0.536   3.124
 9461SOL    HW129282   1.501   0.482   3.061
 9461SOL    HW229283   1.469   0.632   3.116
 9462SOL     OW29284   0.495   3.601   2.654
 9462SOL    HW129285   0.400   3.629   2.644
 9462SOL    HW229286   0.542   3.610   2.566
 9463SOL     OW29287   5.143   1.580   0.038
 9463SOL    HW129288   5.213   1.553   0.104
 9463SOL    HW229289   5.175   1.562   6.964
 9464SOL     OW29290   4.543   6.763   6.028
 9464SOL    HW129291   4.508   6.682   5.981
 9464SOL    HW229292   4.487   6.842   6.003
 9465SOL     OW29293   5.886   0.390   4.515
 9465SOL    HW129294   5.804   0.363   4.567
 9465SOL    HW229295   5.903   0.323   4.443
 9466SOL     OW29296   2.171   2.044   6.886
 9466SOL    HW129297   2.112   2.108   6.837
 9466SOL    HW229298   2.261   2.086   6.899
 9467SOL     OW29299   1.941   3.466   2.022
 9467SOL    HW129300   2.028   3.486   1.976
 9467SOL    HW229301   1.959   3.449   2.119
 9468SOL     OW29302   6.930   2.089   6.288
 9468SOL    HW129303   6.881   2.121   6.207
 9468SOL    HW229304   0.006   2.122   6.285
 9469SOL     OW29305   6.329   4.160   2.194
 9469SOL    HW129306   6.286   4.244   2.160
 9469SOL    HW229307   6.271   4.082   2.172
 9470SOL     OW29308   5.130   3.608   1.141
 9470SOL    HW129309   5.160   3.639   1.231
 9470SOL    HW229310   5.064   3.673   1.104
 9471SOL     OW29311   6.823   2.191   6.027
 9471SOL    HW129312   6.768   2.128   5.973
 9471SOL    HW229313   6.888   2.239   5.968
 9472SOL     OW29314   6.612   3.323   4.635
 9472SOL    HW129315   6.639   3.417   4.659
 9472SOL    HW229316   6.638   3.304   4.540
 9473SOL     OW29317   3.710   5.142   4.871
 9473SOL    HW129318   3.710   5.164   4.969
 9473SOL    HW229319   3.617   5.121   4.841
 9474SOL     OW29320   3.941   5.101   2.851
 9474SOL    HW129321   4.022   5.152   2.823
 9474SOL    HW229322   3.956   5.003   2.833
 9475SOL     OW29323   1.168   3.659   1.141
 9475SOL    HW129324   1.254   3.705   1.164
 9475SOL    HW229325   1.183   3.598   1.063
 9476SOL     OW29326   4.015   3.686   5.571
 9476SOL    HW129327   3.979   3.602   5.611
 9476SOL    HW229328   3.949   3.723   5.505
 9477SOL     OW29329   1.350   3.121   0.866
 9477SOL    HW129330   1.268   3.105   0.921
 9477SOL    HW229331   1.326   3.127   0.769
 9478SOL     OW29332   5.429   4.797   5.123
 9478SOL    HW129333   5.478   4.752   5.198
 9478SOL    HW229334   5.331   4.798   5.143
 9479SOL     OW29335   6.507   5.984   5.449
 9479SOL    HW129336   6.595   6.023   5.421
 9479SOL    HW229337   6.502   5.982   5.549
 9480SOL     OW29338   6.124   4.610   0.014
 9480SOL    HW129339   6.052   4.577   0.075
 9480SOL    HW229340   6.088   4.618   6.940
 9481SOL     OW29341   6.156   3.586   1.848
 9481SOL    HW129342   6.102   3.629   1.921
 9481SOL    HW229343   6.254   3.597   1.869
 9482SOL     OW29344   3.958   0.457   2.737
 9482SOL    HW129345   3.969   0.358   2.735
 9482SOL    HW229346   3.924   0.485   2.827
 9483SOL     OW29347   1.611   1.783   0.421
 9483SOL    HW129348   1.641   1.727   0.344
 9483SOL    HW229349   1.551   1.730   0.480
 9484SOL     OW29350   6.364   1.072   2.592
 9484SOL    HW129351   6.351   1.022   2.678
 9484SOL    HW229352   6.404   1.162   2.612
 9485SOL     OW29353   1.226   0.569   2.831
 9485SOL    HW129354   1.275   0.483   2.847
 9485SOL    HW229355   1.192   0.605   2.917
 9486SOL     OW29356   3.090   5.924   2.098
 9486SOL    HW129357   3.081   5.847   2.161
 9486SOL    HW229358   2.999   5.958   2.074
 9487SOL     OW29359   3.294   3.044   3.637
 9487SOL    HW129360   3.295   3.096   3.552
 9487SOL    HW229361   3.319   3.103   3.714
 9488SOL     OW29362   1.485   0.227   1.246
 9488SOL    HW129363   1.459   0.260   1.155
 9488SOL    HW229364   1.502   0.129   1.242
 9489SOL     OW29365   3.582   4.095   0.570
 9489SOL    HW129366   3.624   4.055   0.652
 9489SOL    HW229367   3.630   4.062   0.489
 9490SOL     OW29368   5.506   1.165   0.276
 9490SOL    HW129369   5.416   1.145   0.312
 9490SOL    HW229370   5.568   1.090   0.298
 9491SOL     OW29371   6.443   5.105   6.287
 9491SOL    HW129372   6.393   5.134   6.205
 9491SOL    HW229373   6.521   5.050   6.260
 9492SOL     OW29374   3.165   3.931   2.004
 9492SOL    HW129375   3.148   3.985   2.086
 9492SOL    HW229376   3.079   3.892   1.971
 9493SOL     OW29377   5.263   6.556   3.124
 9493SOL    HW129378   5.243   6.459   3.111
 9493SOL    HW229379   5.229   6.609   3.046
 9494SOL     OW29380   4.333   3.414   5.798
 9494SOL    HW129381   4.285   3.462   5.724
 9494SOL    HW229382   4.373   3.330   5.762
 9495SOL     OW29383   6.008   2.803   5.385
 9495SOL    HW129384   5.948   2.880   5.410
 9495SOL    HW229385   6.101   2.837   5.370
 9496SOL     OW29386   5.521   4.076   0.202
 9496SOL    HW129387   5.498   4.132   0.282
 9496SOL    HW229388   5.606   4.026   0.220
 9497SOL     OW29389   6.786   6.496   5.799
 9497SOL    HW129390   6.774   6.483   5.701
 9497SOL    HW229391   6.795   6.594   5.819
 9498SOL     OW29392   4.176   0.498   5.743
 9498SOL    HW129393   4.244   0.432   5.712
 9498SOL    HW229394   4.094   0.491   5.686
 9499SOL     OW29395   4.638   4.378   6.096
 9499SOL    HW129396   4.651   4.281   6.116
 9499SOL    HW229397   4.622   4.390   5.998
 9500SOL     OW29398   4.943   5.667   1.816
 9500SOL    HW129399   4.859   5.630   1.856
 9500SOL    HW229400   5.012   5.678   1.886
 9501SOL     OW29401   3.185   1.503   4.905
 9501SOL    HW129402   3.276   1.542   4.919
 9501SOL    HW229403   3.191   1.429   4.838
 9502SOL     OW29404   5.497   3.317   5.466
 9502SOL    HW129405   5.401   3.290   5.458
 9502SOL    HW229406   5.551   3.268   5.397
 9503SOL     OW29407   1.794   6.228   1.123
 9503SOL    HW129408   1.709   6.207   1.074
 9503SOL    HW229409   1.872   6.210   1.063
 9504SOL     OW29410   0.607   2.908   6.354
 9504SOL    HW129411   0.526   2.885   6.300
 9504SOL    HW229412   0.689   2.898   6.298
 9505SOL     OW29413   5.561   3.701   2.696
 9505SOL    HW129414   5.534   3.796   2.680
 9505SOL    HW229415   5.574   3.686   2.794
 9506SOL     OW29416   6.330   3.195   0.326
 9506SOL    HW129417   6.299   3.123   0.388
 9506SOL    HW229418   6.369   3.270   0.381
 9507SOL     OW29419   0.971   2.234   3.998
 9507SOL    HW129420   0.961   2.217   3.900
 9507SOL    HW229421   1.067   2.251   4.019
 9508SOL     OW29422   4.993   2.000   0.310
 9508SOL    HW129423   4.921   1.973   0.246
 9508SOL    HW229424   4.953   2.015   0.401
 9509SOL     OW29425   2.454   6.702   5.347
 9509SOL    HW129426   2.539   6.658   5.319
 9509SOL    HW229427   2.473   6.793   5.384
 9510SOL     OW29428   6.365   4.519   3.069
 9510SOL    HW129429   6.334   4.425   3.081
 9510SOL    HW229430   6.419   4.547   3.149
 9511SOL     OW29431   1.439   1.827   0.919
 9511SOL    HW129432   1.509   1.809   0.851
 9511SOL    HW229433   1.354   1.856   0.874
 9512SOL     OW29434   1.303   2.618   4.232
 9512SOL    HW129435   1.306   2.537   4.291
 9512SOL    HW229436   1.208   2.645   4.218
 9513SOL     OW29437   2.332   4.452   3.663
 9513SOL    HW129438   2.428   4.461   3.691
 9513SOL    HW229439   2.285   4.392   3.728
 9514SOL     OW29440   2.269   2.844   6.245
 9514SOL    HW129441   2.241   2.939   6.261
 9514SOL    HW229442   2.321   2.811   6.324
 9515SOL     OW29443   2.527   5.742   5.893
 9515SOL    HW129444   2.590   5.819   5.876
 9515SOL    HW229445   2.580   5.660   5.915
 9516SOL     OW29446   5.455   3.722   4.637
 9516SOL    HW129447   5.431   3.817   4.653
 9516SOL    HW229448   5.480   3.710   4.541
 9517SOL     OW29449   0.677   5.926   2.149
 9517SOL    HW129450   0.734   5.877   2.083
 9517SOL    HW229451   0.733   5.992   2.198
 9518SOL     OW29452   0.720   2.752   5.421
 9518SOL    HW129453   0.724   2.654   5.401
 9518SOL    HW229454   0.651   2.769   5.491
 9519SOL     OW29455   3.499   3.168   3.105
 9519SOL    HW129456   3.523   3.152   3.009
 9519SOL    HW229457   3.563   3.234   3.145
 9520SOL     OW29458   4.921   0.283   6.021
 9520SOL    HW129459   4.945   0.365   6.073
 9520SOL    HW229460   4.997   0.259   5.961
 9521SOL     OW29461   3.357   0.663   0.845
 9521SOL    HW129462   3.324   0.746   0.799
 9521SOL    HW229463   3.322   0.583   0.796
 9522SOL     OW29464   3.371   6.509   2.388
 9522SOL    HW129465   3.428   6.490   2.307
 9522SOL    HW229466   3.351   6.423   2.435
 9523SOL     OW29467   3.071   4.910   4.011
 9523SOL    HW129468   3.171   4.909   4.008
 9523SOL    HW229469   3.040   4.873   4.099
 9524SOL     OW29470   2.506   3.818   1.010
 9524SOL    HW129471   2.465   3.902   1.045
 9524SOL    HW229472   2.598   3.807   1.047
 9525SOL     OW29473   2.305   3.123   5.348
 9525SOL    HW129474   2.365   3.088   5.277
 9525SOL    HW229475   2.356   3.135   5.433
 9526SOL     OW29476   5.404   5.274   0.369
 9526SOL    HW129477   5.397   5.370   0.394
 9526SOL    HW229478   5.463   5.226   0.434
 9527SOL     OW29479   3.920   0.295   3.509
 9527SOL    HW129480   3.867   0.357   3.452
 9527SOL    HW229481   3.887   0.201   3.496
 9528SOL     OW29482   5.449   2.147   0.822
 9528SOL    HW129483   5.513   2.195   0.882
 9528SOL    HW229484   5.496   2.121   0.737
 9529SOL     OW29485   6.222   1.127   1.364
 9529SOL    HW129486   6.313   1.098   1.392
 9529SOL    HW229487   6.185   1.064   1.296
 9530SOL     OW29488   1.427   5.495   3.758
 9530SOL    HW129489   1.416   5.492   3.659
 9530SOL    HW229490   1.356   5.554   3.798
 9531SOL     OW29491   3.428   5.425   2.563
 9531SOL    HW129492   3.449   5.461   2.654
 9531SOL    HW229493   3.497   5.358   2.537
 9532SOL     OW29494   6.679   4.966   2.813
 9532SOL    HW129495   6.757   4.937   2.869
 9532SOL    HW229496   6.594   4.941   2.859
 9533SOL     OW29497   1.864   3.906   3.528
 9533SOL    HW129498   1.832   3.881   3.620
 9533SOL    HW229499   1.933   3.840   3.498
 9534SOL     OW29500   5.667   4.980   4.437
 9534SOL    HW129501   5.697   4.997   4.531
 9534SOL    HW229502   5.567   4.976   4.434
 9535SOL     OW29503   0.672   1.479   5.426
 9535SOL    HW129504   0.607   1.419   5.379
 9535SOL    HW229505   0.624   1.531   5.497
 9536SOL     OW29506   3.648   4.208   5.085
 9536SOL    HW129507   3.719   4.182   5.020
 9536SOL    HW229508   3.560   4.171   5.055
 9537SOL     OW29509   0.435   1.552   3.616
 9537SOL    HW129510   0.404   1.474   3.669
 9537SOL    HW229511   0.534   1.559   3.621
 9538SOL     OW29512   4.356   0.466   5.439
 9538SOL    HW129513   4.442   0.498   5.400
 9538SOL    HW229514   4.370   0.379   5.485
 9539SOL     OW29515   3.501   3.616   1.986
 9539SOL    HW129516   3.528   3.623   2.082
 9539SOL    HW229517   3.567   3.558   1.938
 9540SOL     OW29518   4.229   4.679   3.561
 9540SOL    HW129519   4.229   4.602   3.625
 9540SOL    HW229520   4.136   4.717   3.556
 9541SOL     OW29521   2.142   5.905   5.750
 9541SOL    HW129522   2.186   5.849   5.680
 9541SOL    HW229523   2.046   5.877   5.760
 9542SOL     OW29524   6.236   3.877   4.248
 9542SOL    HW129525   6.316   3.847   4.299
 9542SOL    HW229526   6.153   3.852   4.298
 9543SOL     OW29527   2.618   0.033   5.950
 9543SOL    HW129528   2.677   6.978   5.919
 9543SOL    HW229529   2.614   0.034   6.050
 9544SOL     OW29530   5.959   3.434   4.461
 9544SOL    HW129531   6.023   3.429   4.385
 9544SOL    HW229532   5.977   3.358   4.524
 9545SOL     OW29533   0.650   4.735   1.796
 9545SOL    HW129534   0.647   4.700   1.702
 9545SOL    HW229535   0.729   4.695   1.843
 9546SOL     OW29536   2.344   2.668   0.031
 9546SOL    HW129537   2.300   2.614   6.978
 9546SOL    HW229538   2.442   2.649   0.031
 9547SOL     OW29539   4.200   6.729   3.970
 9547SOL    HW129540   4.213   6.631   3.976
 9547SOL    HW229541   4.264   6.776   4.030
 9548SOL     OW29542   1.234   4.393   6.812
 9548SOL    HW129543   1.218   4.449   6.731
 9548SOL    HW229544   1.283   4.447   6.881
 9549SOL     OW29545   5.022   2.268   0.831
 9549SOL    HW129546   5.049   2.288   0.926
 9549SOL    HW229547   4.940   2.321   0.808
 9550SOL     OW29548   5.343   3.001   1.609
 9550SOL    HW129549   5.266   2.989   1.546
 9550SOL    HW229550   5.309   3.008   1.702
 9551SOL     OW29551   6.108   3.501   6.437
 9551SOL    HW129552   6.173   3.427   6.419
 9551SOL    HW229553   6.134   3.549   6.520
 9552SOL     OW29554   2.879   1.738   0.157
 9552SOL    HW129555   2.799   1.776   0.110
 9552SOL    HW229556   2.858   1.646   0.190
 9553SOL     OW29557   5.285   1.514   6.370
 9553SOL    HW129558   5.382   1.500   6.352
 9553SOL    HW229559   5.236   1.527   6.283
 9554SOL     OW29560   2.788   0.410   3.862
 9554SOL    HW129561   2.830   0.462   3.936
 9554SOL    HW229562   2.851   0.339   3.831
 9555SOL     OW29563   6.388   0.462   3.770
 9555SOL    HW129564   6.308   0.432   3.719
 9555SOL    HW229565   6.383   0.429   3.864
 9556SOL     OW29566   1.701   4.645   6.845
 9556SOL    HW129567   1.637   4.678   6.776
 9556SOL    HW229568   1.670   4.557   6.880
 9557SOL     OW29569   4.749   0.839   1.867
 9557SOL    HW129570   4.712   0.924   1.829
 9557SOL    HW229571   4.714   0.826   1.960
 9558SOL     OW29572   4.661   0.162   6.517
 9558SOL    HW129573   4.579   0.218   6.509
 9558SOL    HW229574   4.638   0.066   6.500
 9559SOL     OW29575   1.770   4.150   0.325
 9559SOL    HW129576   1.783   4.229   0.385
 9559SOL    HW229577   1.716   4.080   0.372
 9560SOL     OW29578   3.413   6.949   2.137
 9560SOL    HW129579   3.436   7.012   2.211
 9560SOL    HW229580   3.484   6.951   2.067
 9561SOL     OW29581   0.916   0.420   0.692
 9561SOL    HW129582   0.974   0.342   0.714
 9561SOL    HW229583   0.947   0.501   0.742
 9562SOL     OW29584   2.944   5.975   2.933
 9562SOL    HW129585   2.876   5.976   3.006
 9562SOL    HW229586   3.023   6.030   2.959
 9563SOL     OW29587   0.616   6.317   0.986
 9563SOL    HW129588   0.685   6.246   0.976
 9563SOL    HW229589   0.658   6.398   1.027
 9564SOL     OW29590   1.144   0.913   6.972
 9564SOL    HW129591   1.147   0.927   6.872
 9564SOL    HW229592   1.200   0.983   7.016
 9565SOL     OW29593   3.192   1.662   3.745
 9565SOL    HW129594   3.290   1.680   3.736
 9565SOL    HW229595   3.166   1.588   3.683
 9566SOL     OW29596   3.442   0.573   0.111
 9566SOL    HW129597   3.431   0.661   0.066
 9566SOL    HW229598   3.482   0.586   0.201
 9567SOL     OW29599   6.764   3.746   1.377
 9567SOL    HW129600   6.810   3.834   1.387
 9567SOL    HW229601   6.803   3.681   1.442
 9568SOL     OW29602   5.109   1.261   6.842
 9568SOL    HW129603   5.090   1.227   6.750
 9568SOL    HW229604   5.082   1.193   6.910
 9569SOL     OW29605   5.726   0.732   1.816
 9569SOL    HW129606   5.748   0.732   1.913
 9569SOL    HW229607   5.785   0.798   1.769
 9570SOL     OW29608   0.364   3.124   1.244
 9570SOL    HW129609   0.329   3.217   1.249
 9570SOL    HW229610   0.340   3.084   1.156
 9571SOL     OW29611   2.224   2.543   6.845
 9571SOL    HW129612   2.227   2.459   6.900
 9571SOL    HW229613   2.132   2.580   6.845
 9572SOL     OW29614   2.172   4.262   3.787
 9572SOL    HW129615   2.156   4.164   3.771
 9572SOL    HW229616   2.122   4.291   3.869
 9573SOL     OW29617   6.446   1.045   4.518
 9573SOL    HW129618   6.469   1.115   4.450
 9573SOL    HW229619   6.351   1.018   4.505
 9574SOL     OW29620   3.485   3.111   1.118
 9574SOL    HW129621   3.501   3.059   1.034
 9574SOL    HW229622   3.387   3.124   1.132
 9575SOL     OW29623   6.359   6.317   1.052
 9575SOL    HW129624   6.270   6.269   1.051
 9575SOL    HW229625   6.430   6.255   1.019
 9576SOL     OW29626   1.358   6.704   0.200
 9576SOL    HW129627   1.455   6.688   0.218
 9576SOL    HW229628   1.342   6.702   0.101
 9577SOL     OW29629   6.091   5.235   2.436
 9577SOL    HW129630   6.087   5.328   2.400
 9577SOL    HW229631   6.087   5.237   2.536
 9578SOL     OW29632   2.160   3.094   2.938
 9578SOL    HW129633   2.171   3.192   2.956
 9578SOL    HW229634   2.095   3.082   2.862
 9579SOL     OW29635   5.757   5.914   1.884
 9579SOL    HW129636   5.716   5.989   1.936
 9579SOL    HW229637   5.833   5.876   1.936
 9580SOL     OW29638   5.443   4.801   2.900
 9580SOL    HW129639   5.346   4.776   2.897
 9580SOL    HW229640   5.488   4.748   2.973
 9581SOL     OW29641   6.112   1.137   0.244
 9581SOL    HW129642   6.122   1.182   0.332
 9581SOL    HW229643   6.015   1.114   0.228
 9582SOL     OW29644   4.826   6.036   4.389
 9582SOL    HW129645   4.770   5.997   4.463
 9582SOL    HW229646   4.787   6.123   4.359
 9583SOL     OW29647   3.726   4.560   1.646
 9583SOL    HW129648   3.672   4.613   1.712
 9583SOL    HW229649   3.745   4.616   1.566
 9584SOL     OW29650   2.146   5.943   5.001
 9584SOL    HW129651   2.115   5.957   5.095
 9584SOL    HW229652   2.245   5.938   4.998
 9585SOL     OW29653   4.396   5.854   0.938
 9585SOL    HW129654   4.375   5.778   0.877
 9585SOL    HW229655   4.315   5.875   0.993
 9586SOL     OW29656   4.424   4.825   2.309
 9586SOL    HW129657   4.383   4.902   2.261
 9586SOL    HW229658   4.468   4.764   2.243
 9587SOL     OW29659   3.005   5.928   1.800
 9587SOL    HW129660   2.976   5.975   1.884
 9587SOL    HW229661   2.995   5.829   1.812
 9588SOL     OW29662   6.252   5.469   0.539
 9588SOL    HW129663   6.239   5.471   0.638
 9588SOL    HW229664   6.239   5.560   0.502
 9589SOL     OW29665   1.626   4.037   6.278
 9589SOL    HW129666   1.703   4.046   6.215
 9589SOL    HW229667   1.545   4.004   6.229
 9590SOL     OW29668   5.843   1.474   1.170
 9590SOL    HW129669   5.807   1.419   1.095
 9590SOL    HW229670   5.818   1.433   1.257
 9591SOL     OW29671   3.874   0.683   6.902
 9591SOL    HW129672   3.949   0.647   6.957
 9591SOL    HW229673   3.829   0.608   6.853
 9592SOL     OW29674   2.317   6.088   5.618
 9592SOL    HW129675   2.305   6.180   5.655
 9592SOL    HW229676   2.278   6.021   5.681
 9593SOL     OW29677   2.056   1.839   4.535
 9593SOL    HW129678   2.005   1.816   4.618
 9593SOL    HW229679   2.115   1.763   4.511
 9594SOL     OW29680   0.324   6.696   3.675
 9594SOL    HW129681   0.233   6.682   3.713
 9594SOL    HW229682   0.381   6.744   3.742
 9595SOL     OW29683   0.633   3.757   3.348
 9595SOL    HW129684   0.533   3.748   3.353
 9595SOL    HW229685   0.670   3.776   3.439
 9596SOL     OW29686   0.423   6.934   1.232
 9596SOL    HW129687   0.471   6.935   1.145
 9596SOL    HW229688   0.340   6.989   1.225
 9597SOL     OW29689   0.907   3.277   2.292
 9597SOL    HW129690   0.954   3.365   2.290
 9597SOL    HW229691   0.840   3.276   2.366
 9598SOL     OW29692   1.441   4.102   3.767
 9598SOL    HW129693   1.426   4.174   3.699
 9598SOL    HW229694   1.389   4.021   3.743
 9599SOL     OW29695   4.297   0.066   3.833
 9599SOL    HW129696   4.276   6.990   3.811
 9599SOL    HW229697   4.386   0.090   3.794
 9600SOL     OW29698   3.067   0.996   1.258
 9600SOL    HW129699   3.006   0.935   1.309
 9600SOL    HW229700   3.149   0.945   1.231
 9601SOL     OW29701   0.169   3.940   1.474
 9601SOL    HW129702   0.167   3.970   1.570
 9601SOL    HW229703   0.256   3.897   1.454
 9602SOL     OW29704   4.383   4.852   5.741
 9602SOL    HW129705   4.440   4.913   5.687
 9602SOL    HW229706   4.438   4.808   5.812
 9603SOL     OW29707   5.107   5.616   5.280
 9603SOL    HW129708   5.189   5.614   5.337
 9603SOL    HW229709   5.079   5.711   5.265
 9604SOL     OW29710   5.333   6.672   0.395
 9604SOL    HW129711   5.433   6.677   0.404
 9604SOL    HW229712   5.304   6.731   0.319
 9605SOL     OW29713   6.156   6.321   2.960
 9605SOL    HW129714   6.171   6.363   2.870
 9605SOL    HW229715   6.226   6.350   3.023
 9606SOL     OW29716   1.564   1.730   6.737
 9606SOL    HW129717   1.638   1.797   6.742
 9606SOL    HW229718   1.494   1.753   6.804
 9607SOL     OW29719   3.191   3.059   6.007
 9607SOL    HW129720   3.091   3.061   6.000
 9607SOL    HW229721   3.217   3.033   6.100
 9608SOL     OW29722   6.418   3.834   3.514
 9608SOL    HW129723   6.468   3.822   3.600
 9608SOL    HW229724   6.387   3.929   3.507
 9609SOL     OW29725   4.380   2.766   6.291
 9609SOL    HW129726   4.327   2.682   6.289
 9609SOL    HW229727   4.464   2.755   6.237
 9610SOL     OW29728   1.089   4.113   3.100
 9610SOL    HW129729   1.060   4.208   3.083
 9610SOL    HW229730   1.181   4.099   3.064
 9611SOL     OW29731   1.331   0.347   0.522
 9611SOL    HW129732   1.428   0.350   0.496
 9611SOL    HW229733   1.275   0.338   0.440
 9612SOL     OW29734   0.513   3.184   3.332
 9612SOL    HW129735   0.430   3.144   3.370
 9612SOL    HW229736   0.498   3.281   3.313
 9613SOL     OW29737   5.815   5.784   3.465
 9613SOL    HW129738   5.790   5.751   3.556
 9613SOL    HW229739   5.907   5.823   3.468
 9614SOL     OW29740   5.115   2.286   3.220
 9614SOL    HW129741   5.033   2.343   3.224
 9614SOL    HW229742   5.109   2.214   3.289
 9615SOL     OW29743   2.553   2.903   0.985
 9615SOL    HW129744   2.627   2.867   1.042
 9615SOL    HW229745   2.553   3.003   0.991
 9616SOL     OW29746   3.929   2.668   6.992
 9616SOL    HW129747   3.971   2.731   6.926
 9616SOL    HW229748   3.974   2.679   0.062
 9617SOL     OW29749   2.245   2.285   3.840
 9617SOL    HW129750   2.229   2.304   3.743
 9617SOL    HW229751   2.307   2.353   3.878
 9618SOL     OW29752   2.756   1.264   0.656
 9618SOL    HW129753   2.739   1.230   0.748
 9618SOL    HW229754   2.670   1.267   0.605
 9619SOL     OW29755   2.660   1.276   4.663
 9619SOL    HW129756   2.566   1.302   4.642
 9619SOL    HW229757   2.721   1.306   4.590
 9620SOL     OW29758   5.858   0.250   5.678
 9620SOL    HW129759   5.873   0.346   5.702
 9620SOL    HW229760   5.818   0.244   5.587
 9621SOL     OW29761   1.672   2.975   3.265
 9621SOL    HW129762   1.735   2.975   3.342
 9621SOL    HW229763   1.654   2.880   3.237
 9622SOL     OW29764   5.947   0.379   1.513
 9622SOL    HW129765   5.885   0.365   1.591
 9622SOL    HW229766   6.024   0.316   1.520
 9623SOL     OW29767   3.091   3.667   6.234
 9623SOL    HW129768   3.132   3.740   6.178
 9623SOL    HW229769   3.090   3.696   6.330
 9624SOL     OW29770   6.194   3.467   3.252
 9624SOL    HW129771   6.113   3.435   3.301
 9624SOL    HW229772   6.274   3.460   3.312
 9625SOL     OW29773   6.010   5.977   0.304
 9625SOL    HW129774   5.933   5.913   0.300
 9625SOL    HW229775   6.039   6.001   0.212
 9626SOL     OW29776   3.123   6.607   6.751
 9626SOL    HW129777   3.188   6.668   6.795
 9626SOL    HW229778   3.034   6.652   6.742
 9627SOL     OW29779   1.490   6.483   6.828
 9627SOL    HW129780   1.463   6.403   6.882
 9627SOL    HW229781   1.496   6.563   6.888
 9628SOL     OW29782   4.089   6.132   1.929
 9628SOL    HW129783   4.155   6.073   1.975
 9628SOL    HW229784   4.042   6.188   1.997
 9629SOL     OW29785   2.799   6.764   1.112
 9629SOL    HW129786   2.824   6.781   1.207
 9629SOL    HW229787   2.729   6.829   1.084
 9630SOL     OW29788   6.411   0.967   5.950
 9630SOL    HW129789   6.358   0.988   5.868
 9630SOL    HW229790   6.489   0.910   5.925
 9631SOL     OW29791   5.758   5.917   0.156
 9631SOL    HW129792   5.761   5.831   0.106
 9631SOL    HW229793   5.724   5.901   0.248
 9632SOL     OW29794   1.412   6.195   2.037
 9632SOL    HW129795   1.391   6.138   2.116
 9632SOL    HW229796   1.475   6.145   1.977
 9633SOL     OW29797   6.633   5.575   6.713
 9633SOL    HW129798   6.594   5.626   6.636
 9633SOL    HW229799   6.591   5.484   6.717
 9634SOL     OW29800   0.997   6.034   4.647
 9634SOL    HW129801   0.909   6.051   4.691
 9634SOL    HW229802   1.060   5.995   4.714
 9635SOL     OW29803   1.692   5.525   5.376
 9635SOL    HW129804   1.777   5.472   5.378
 9635SOL    HW229805   1.614   5.463   5.374
 9636SOL     OW29806   4.549   1.443   6.465
 9636SOL    HW129807   4.572   1.348   6.445
 9636SOL    HW229808   4.454   1.461   6.438
 9637SOL     OW29809   2.250   1.392   0.085
 9637SOL    HW129810   2.150   1.394   0.085
 9637SOL    HW229811   2.283   1.317   0.029
 9638SOL     OW29812   6.629   2.448   5.323
 9638SOL    HW129813   6.593   2.385   5.391
 9638SOL    HW229814   6.605   2.416   5.231
 9639SOL     OW29815   4.032   1.371   2.685
 9639SOL    HW129816   3.971   1.300   2.720
 9639SOL    HW229817   4.120   1.330   2.661
 9640SOL     OW29818   2.076   2.329   1.988
 9640SOL    HW129819   2.115   2.349   2.079
 9640SOL    HW229820   2.142   2.356   1.918
 9641SOL     OW29821   6.132   5.719   0.411
 9641SOL    HW129822   6.065   5.699   0.340
 9641SOL    HW229823   6.143   5.818   0.420
 9642SOL     OW29824   3.407   0.260   4.212
 9642SOL    HW129825   3.339   0.306   4.269
 9642SOL    HW229826   3.442   0.325   4.144
 9643SOL     OW29827   4.383   4.853   3.445
 9643SOL    HW129828   4.473   4.869   3.486
 9643SOL    HW229829   4.332   4.788   3.501
 9644SOL     OW29830   1.915   1.730   6.322
 9644SOL    HW129831   1.838   1.772   6.273
 9644SOL    HW229832   1.991   1.794   6.327
 9645SOL     OW29833   3.027   5.210   5.310
 9645SOL    HW129834   3.036   5.280   5.381
 9645SOL    HW229835   2.964   5.139   5.341
 9646SOL     OW29836   4.189   4.950   3.275
 9646SOL    HW129837   4.238   4.902   3.347
 9646SOL    HW229838   4.097   4.912   3.266
 9647SOL     OW29839   6.558   2.825   0.331
 9647SOL    HW129840   6.537   2.837   0.234
 9647SOL    HW229841   6.624   2.751   0.342
 9648SOL     OW29842   4.503   2.942   1.162
 9648SOL    HW129843   4.575   3.010   1.149
 9648SOL    HW229844   4.428   2.961   1.099
 9649SOL     OW29845   2.380   5.812   0.449
 9649SOL    HW129846   2.441   5.797   0.371
 9649SOL    HW229847   2.327   5.896   0.433
 9650SOL     OW29848   6.912   0.086   1.781
 9650SOL    HW129849   6.905   0.014   1.711
 9650SOL    HW229850   6.885   0.174   1.740
 9651SOL     OW29851   0.327   1.938   5.417
 9651SOL    HW129852   0.358   1.874   5.346
 9651SOL    HW229853   0.349   2.032   5.390
 9652SOL     OW29854   0.885   5.532   2.804
 9652SOL    HW129855   0.803   5.521   2.861
 9652SOL    HW229856   0.940   5.607   2.841
 9653SOL     OW29857   6.103   5.066   4.292
 9653SOL    HW129858   6.117   5.114   4.379
 9653SOL    HW229859   6.041   4.989   4.307
 9654SOL     OW29860   2.234   2.687   2.252
 9654SOL    HW129861   2.309   2.654   2.195
 9654SOL    HW229862   2.150   2.638   2.227
 9655SOL     OW29863   5.896   2.935   6.824
 9655SOL    HW129864   5.966   2.945   6.894
 9655SOL    HW229865   5.845   2.851   6.840
 9656SOL     OW29866   3.566   0.733   2.488
 9656SOL    HW129867   3.598   0.684   2.569
 9656SOL    HW229868   3.516   0.815   2.515
 9657SOL     OW29869   0.309   0.260   5.100
 9657SOL    HW129870   0.229   0.320   5.087
 9657SOL    HW229871   0.392   0.315   5.098
 9658SOL     OW29872   6.278   2.512   2.648
 9658SOL    HW129873   6.259   2.607   2.672
 9658SOL    HW229874   6.218   2.452   2.701
 9659SOL     OW29875   0.721   5.303   6.779
 9659SOL    HW129876   0.644   5.245   6.804
 9659SOL    HW229877   0.782   5.253   6.717
 9660SOL     OW29878   0.500   5.514   0.133
 9660SOL    HW129879   0.506   5.614   0.129
 9660SOL    HW229880   0.404   5.486   0.136
 9661SOL     OW29881   4.423   6.591   1.103
 9661SOL    HW129882   4.477   6.541   1.036
 9661SOL    HW229883   4.355   6.529   1.143
 9662SOL     OW29884   4.935   0.871   4.098
 9662SOL    HW129885   5.008   0.824   4.148
 9662SOL    HW229886   4.916   0.958   4.142
 9663SOL     OW29887   2.409   5.481   2.986
 9663SOL    HW129888   2.425   5.541   3.064
 9663SOL    HW229889   2.407   5.386   3.016
 9664SOL     OW29890   2.848   5.872   1.513
 9664SOL    HW129891   2.816   5.802   1.449
 9664SOL    HW229892   2.921   5.835   1.570
 9665SOL     OW29893   5.210   3.888   4.540
 9665SOL    HW129894   5.120   3.875   4.581
 9665SOL    HW229895   5.236   3.806   4.489
 9666SOL     OW29896   5.918   4.850   4.308
 9666SOL    HW129897   5.837   4.902   4.335
 9666SOL    HW229898   5.907   4.816   4.215
 9667SOL     OW29899   4.171   3.504   3.896
 9667SOL    HW129900   4.161   3.526   3.799
 9667SOL    HW229901   4.264   3.525   3.926
 9668SOL     OW29902   0.238   1.385   5.241
 9668SOL    HW129903   0.263   1.472   5.198
 9668SOL    HW229904   0.138   1.379   5.249
 9669SOL     OW29905   1.930   5.597   0.441
 9669SOL    HW129906   1.999   5.529   0.465
 9669SOL    HW229907   1.846   5.579   0.492
 9670SOL     OW29908   5.614   4.644   0.349
 9670SOL    HW129909   5.611   4.577   0.423
 9670SOL    HW229910   5.591   4.600   0.263
 9671SOL     OW29911   6.972   0.120   6.451
 9671SOL    HW129912   0.053   0.134   6.456
 9671SOL    HW229913   6.926   0.208   6.464
 9672SOL     OW29914   0.946   6.675   5.071
 9672SOL    HW129915   0.984   6.761   5.040
 9672SOL    HW229916   0.964   6.604   5.003
 9673SOL     OW29917   2.438   3.041   6.118
 9673SOL    HW129918   2.386   2.966   6.160
 9673SOL    HW229919   2.436   3.031   6.018
 9674SOL     OW29920   2.925   7.011   2.025
 9674SOL    HW129921   3.016   0.008   2.063
 9674SOL    HW229922   2.860   0.056   2.068
 9675SOL     OW29923   0.029   2.706   1.971
 9675SOL    HW129924   0.060   2.613   1.951
 9675SOL    HW229925   0.108   2.764   1.990
 9676SOL     OW29926   0.486   3.903   4.518
 9676SOL    HW129927   0.388   3.885   4.530
 9676SOL    HW229928   0.533   3.818   4.497
 9677SOL     OW29929   2.010   3.657   5.061
 9677SOL    HW129930   2.020   3.587   4.990
 9677SOL    HW229931   2.004   3.747   5.018
 9678SOL     OW29932   3.155   3.064   3.203
 9678SOL    HW129933   3.167   2.964   3.205
 9678SOL    HW229934   3.230   3.107   3.254
 9679SOL     OW29935   0.674   3.144   1.576
 9679SOL    HW129936   0.632   3.212   1.516
 9679SOL    HW229937   0.753   3.103   1.530
 9680SOL     OW29938   5.933   4.928   3.388
 9680SOL    HW129939   5.840   4.893   3.377
 9680SOL    HW229940   5.932   5.005   3.452
 9681SOL     OW29941   1.319   1.363   3.914
 9681SOL    HW129942   1.327   1.334   3.819
 9681SOL    HW229943   1.391   1.320   3.968
 9682SOL     OW29944   6.504   4.541   2.688
 9682SOL    HW129945   6.458   4.602   2.754
 9682SOL    HW229946   6.555   4.472   2.738
 9683SOL     OW29947   4.545   6.227   6.428
 9683SOL    HW129948   4.458   6.213   6.476
 9683SOL    HW229949   4.611   6.269   6.491
 9684SOL     OW29950   1.322   4.521   3.996
 9684SOL    HW129951   1.359   4.464   4.069
 9684SOL    HW229952   1.284   4.462   3.924
 9685SOL     OW29953   1.844   2.140   0.228
 9685SOL    HW129954   1.929   2.183   0.200
 9685SOL    HW229955   1.852   2.106   0.321
 9686SOL     OW29956   5.476   0.673   1.779
 9686SOL    HW129957   5.470   0.598   1.714
 9686SOL    HW229958   5.572   0.698   1.792
 9687SOL     OW29959   3.515   0.033   3.371
 9687SOL    HW129960   3.514   0.093   3.291
 9687SOL    HW229961   3.495   6.958   3.343
 9688SOL     OW29962   0.138   1.551   3.246
 9688SOL    HW129963   0.091   1.634   3.214
 9688SOL    HW229964   0.230   1.576   3.278
 9689SOL     OW29965   2.140   6.083   6.472
 9689SOL    HW129966   2.060   6.120   6.424
 9689SOL    HW229967   2.113   5.999   6.521
 9690SOL     OW29968   6.398   4.349   1.365
 9690SOL    HW129969   6.369   4.385   1.276
 9690SOL    HW229970   6.362   4.256   1.376
 9691SOL     OW29971   1.113   4.199   1.446
 9691SOL    HW129972   1.131   4.273   1.381
 9691SOL    HW229973   1.200   4.165   1.483
 9692SOL     OW29974   2.534   5.703   1.307
 9692SOL    HW129975   2.527   5.746   1.397
 9692SOL    HW229976   2.627   5.668   1.294
 9693SOL     OW29977   5.401   5.799   1.797
 9693SOL    HW129978   5.434   5.739   1.869
 9693SOL    HW229979   5.460   5.789   1.716
 9694SOL     OW29980   2.122   2.096   0.225
 9694SOL    HW129981   2.063   2.015   0.226
 9694SOL    HW229982   2.217   2.068   0.231
 9695SOL     OW29983   6.075   4.192   1.227
 9695SOL    HW129984   6.174   4.182   1.236
 9695SOL    HW229985   6.044   4.143   1.145
 9696SOL     OW29986   4.327   3.271   1.276
 9696SOL    HW129987   4.241   3.220   1.272
 9696SOL    HW229988   4.307   3.368   1.288
 9697SOL     OW29989   0.798   6.076   6.913
 9697SOL    HW129990   0.828   5.982   6.925
 9697SOL    HW229991   0.710   6.077   6.864
 9698SOL     OW29992   5.664   1.917   5.197
 9698SOL    HW129993   5.581   1.972   5.203
 9698SOL    HW229994   5.722   1.935   5.277
 9699SOL     OW29995   1.801   3.320   0.333
 9699SOL    HW129996   1.748   3.344   0.253
 9699SOL    HW229997   1.754   3.247   0.384
 9700SOL     OW29998   3.268   4.147   4.079
 9700SOL    HW129999   3.337   4.171   4.147
 9700SOL    HW230000   3.198   4.089   4.121
 9701SOL     OW30001   5.446   4.011   4.770
 9701SOL    HW130002   5.346   4.005   4.764
 9701SOL    HW230003   5.477   3.959   4.850
 9702SOL     OW30004   4.321   0.713   0.781
 9702SOL    HW130005   4.376   0.719   0.697
 9702SOL    HW230006   4.356   0.779   0.848
 9703SOL     OW30007   2.801   6.488   4.112
 9703SOL    HW130008   2.882   6.506   4.057
 9703SOL    HW230009   2.719   6.515   4.060
 9704SOL     OW30010   2.790   0.483   3.346
 9704SOL    HW130011   2.702   0.498   3.303
 9704SOL    HW230012   2.790   0.525   3.437
 9705SOL     OW30013   3.557   3.830   0.796
 9705SOL    HW130014   3.485   3.823   0.865
 9705SOL    HW230015   3.634   3.772   0.823
 9706SOL     OW30016   5.748   2.679   3.028
 9706SOL    HW130017   5.754   2.626   2.944
 9706SOL    HW230018   5.833   2.668   3.080
 9707SOL     OW30019   2.800   4.994   2.917
 9707SOL    HW130020   2.827   4.898   2.920
 9707SOL    HW230021   2.735   5.008   2.841
 9708SOL     OW30022   2.821   1.237   2.672
 9708SOL    HW130023   2.728   1.242   2.635
 9708SOL    HW230024   2.881   1.298   2.619
 9709SOL     OW30025   1.846   4.990   2.837
 9709SOL    HW130026   1.936   5.031   2.824
 9709SOL    HW230027   1.852   4.891   2.823
 9710SOL     OW30028   0.110   0.369   3.638
 9710SOL    HW130029   0.036   0.314   3.599
 9710SOL    HW230030   0.076   0.421   3.716
 9711SOL     OW30031   0.899   4.293   5.379
 9711SOL    HW130032   0.895   4.209   5.325
 9711SOL    HW230033   0.846   4.281   5.463
 9712SOL     OW30034   4.521   2.471   4.581
 9712SOL    HW130035   4.460   2.493   4.505
 9712SOL    HW230036   4.546   2.375   4.577
 9713SOL     OW30037   6.875   4.885   2.384
 9713SOL    HW130038   6.917   4.930   2.306
 9713SOL    HW230039   6.942   4.823   2.426
 9714SOL     OW30040   1.899   2.207   1.708
 9714SOL    HW130041   1.903   2.139   1.635
 9714SOL    HW230042   1.942   2.170   1.791
 9715SOL     OW30043   5.436   5.421   4.847
 9715SOL    HW130044   5.477   5.402   4.936
 9715SOL    HW230045   5.467   5.353   4.780
 9716SOL     OW30046   4.345   1.661   6.546
 9716SOL    HW130047   4.316   1.750   6.511
 9716SOL    HW230048   4.365   1.669   6.644
 9717SOL     OW30049   5.724   4.652   3.645
 9717SOL    HW130050   5.750   4.696   3.731
 9717SOL    HW230051   5.673   4.717   3.589
 9718SOL     OW30052   4.668   3.314   1.606
 9718SOL    HW130053   4.589   3.260   1.577
 9718SOL    HW230054   4.721   3.263   1.674
 9719SOL     OW30055   0.316   1.914   0.195
 9719SOL    HW130056   0.377   1.849   0.240
 9719SOL    HW230057   0.276   1.871   0.114
 9720SOL     OW30058   0.209   0.361   1.678
 9720SOL    HW130059   0.142   0.410   1.623
 9720SOL    HW230060   0.297   0.407   1.671
 9721SOL     OW30061   6.767   3.626   2.758
 9721SOL    HW130062   6.769   3.575   2.672
 9721SOL    HW230063   6.724   3.569   2.828
 9722SOL     OW30064   0.075   0.257   4.370
 9722SOL    HW130065   0.016   0.293   4.443
 9722SOL    HW230066   0.104   0.165   4.394
 9723SOL     OW30067   0.141   1.149   3.676
 9723SOL    HW130068   0.164   1.052   3.669
 9723SOL    HW230069   0.077   1.162   3.752
 9724SOL     OW30070   3.909   2.829   1.277
 9724SOL    HW130071   3.841   2.896   1.248
 9724SOL    HW230072   3.980   2.874   1.332
 9725SOL     OW30073   4.356   3.151   5.704
 9725SOL    HW130074   4.438   3.100   5.677
 9725SOL    HW230075   4.292   3.089   5.749
 9726SOL     OW30076   5.714   6.627   5.031
 9726SOL    HW130077   5.659   6.692   5.084
 9726SOL    HW230078   5.672   6.536   5.035
 9727SOL     OW30079   1.496   2.088   6.329
 9727SOL    HW130080   1.498   1.995   6.294
 9727SOL    HW230081   1.524   2.089   6.425
 9728SOL     OW30082   3.216   5.304   0.043
 9728SOL    HW130083   3.275   5.331   0.119
 9728SOL    HW230084   3.122   5.333   0.061
 9729SOL     OW30085   3.154   5.434   2.544
 9729SOL    HW130086   3.234   5.486   2.573
 9729SOL    HW230087   3.181   5.342   2.516
 9730SOL     OW30088   6.291   3.720   3.105
 9730SOL    HW130089   6.262   3.642   3.160
 9730SOL    HW230090   6.244   3.719   3.017
 9731SOL     OW30091   4.855   5.056   0.667
 9731SOL    HW130092   4.911   5.105   0.600
 9731SOL    HW230093   4.773   5.110   0.687
 9732SOL     OW30094   6.566   5.624   2.992
 9732SOL    HW130095   6.475   5.613   2.952
 9732SOL    HW230096   6.595   5.719   2.983
 9733SOL     OW30097   5.375   4.455   6.596
 9733SOL    HW130098   5.467   4.431   6.563
 9733SOL    HW230099   5.315   4.470   6.518
 9734SOL     OW30100   5.230   2.516   4.982
 9734SOL    HW130101   5.223   2.537   5.080
 9734SOL    HW230102   5.252   2.419   4.970
 9735SOL     OW30103   1.604   3.980   0.459
 9735SOL    HW130104   1.509   4.008   0.441
 9735SOL    HW230105   1.604   3.894   0.509
 9736SOL     OW30106   3.348   1.384   0.992
 9736SOL    HW130107   3.343   1.400   1.090
 9736SOL    HW230108   3.348   1.286   0.974
 9737SOL     OW30109   4.050   2.176   4.984
 9737SOL    HW130110   4.097   2.109   5.043
 9737SOL    HW230111   4.111   2.254   4.969
 9738SOL     OW30112   2.183   0.690   2.314
 9738SOL    HW130113   2.133   0.776   2.313
 9738SOL    HW230114   2.197   0.660   2.408
 9739SOL     OW30115   5.176   4.984   1.974
 9739SOL    HW130116   5.111   5.036   2.029
 9739SOL    HW230117   5.268   5.017   1.992
 9740SOL     OW30118   6.708   3.963   2.976
 9740SOL    HW130119   6.643   3.933   3.046
 9740SOL    HW230120   6.801   3.947   3.008
 9741SOL     OW30121   4.214   1.969   1.369
 9741SOL    HW130122   4.161   2.053   1.360
 9741SOL    HW230123   4.294   1.985   1.427
 9742SOL     OW30124   4.641   1.597   4.402
 9742SOL    HW130125   4.628   1.664   4.474
 9742SOL    HW230126   4.566   1.604   4.335
 9743SOL     OW30127   1.677   2.340   5.436
 9743SOL    HW130128   1.758   2.357   5.381
 9743SOL    HW230129   1.679   2.246   5.471
 9744SOL     OW30130   1.649   0.508   1.899
 9744SOL    HW130131   1.564   0.542   1.939
 9744SOL    HW230132   1.651   0.408   1.903
 9745SOL     OW30133   0.226   2.177   4.663
 9745SOL    HW130134   0.323   2.189   4.644
 9745SOL    HW230135   0.189   2.106   4.602
 9746SOL     OW30136   5.775   1.284   4.401
 9746SOL    HW130137   5.689   1.281   4.351
 9746SOL    HW230138   5.774   1.215   4.473
 9747SOL     OW30139   0.505   6.998   6.872
 9747SOL    HW130140   0.433   0.032   6.827
 9747SOL    HW230141   0.464   6.936   6.939
 9748SOL     OW30142   0.123   5.888   3.902
 9748SOL    HW130143   0.167   5.807   3.939
 9748SOL    HW230144   0.174   5.970   3.929
 9749SOL     OW30145   0.877   4.334   4.504
 9749SOL    HW130146   0.817   4.374   4.435
 9749SOL    HW230147   0.972   4.353   4.480
 9750SOL     OW30148   3.808   4.904   3.419
 9750SOL    HW130149   3.709   4.918   3.418
 9750SOL    HW230150   3.850   4.951   3.341
 9751SOL     OW30151   2.005   2.429   0.432
 9751SOL    HW130152   2.000   2.329   0.428
 9751SOL    HW230153   2.077   2.457   0.495
 9752SOL     OW30154   3.455   1.752   6.354
 9752SOL    HW130155   3.420   1.692   6.283
 9752SOL    HW230156   3.549   1.726   6.377
 9753SOL     OW30157   6.918   6.207   5.085
 9753SOL    HW130158   6.879   6.127   5.038
 9753SOL    HW230159   6.918   6.285   5.023
 9754SOL     OW30160   6.703   2.070   6.546
 9754SOL    HW130161   6.655   2.085   6.459
 9754SOL    HW230162   6.795   2.033   6.527
 9755SOL     OW30163   4.193   4.783   5.111
 9755SOL    HW130164   4.247   4.702   5.087
 9755SOL    HW230165   4.099   4.755   5.131
 9756SOL     OW30166   6.000   2.229   5.957
 9756SOL    HW130167   6.091   2.237   5.918
 9756SOL    HW230168   5.980   2.310   6.012
 9757SOL     OW30169   6.076   2.370   3.812
 9757SOL    HW130170   5.999   2.428   3.839
 9757SOL    HW230171   6.068   2.281   3.856
 9758SOL     OW30172   2.532   0.716   6.903
 9758SOL    HW130173   2.469   0.638   6.903
 9758SOL    HW230174   2.527   0.763   6.815
 9759SOL     OW30175   3.316   6.368   1.308
 9759SOL    HW130176   3.237   6.330   1.356
 9759SOL    HW230177   3.294   6.459   1.273
 9760SOL     OW30178   5.299   4.541   6.336
 9760SOL    HW130179   5.201   4.539   6.355
 9760SOL    HW230180   5.327   4.455   6.294
 9761SOL     OW30181   5.395   5.840   2.630
 9761SOL    HW130182   5.403   5.786   2.546
 9761SOL    HW230183   5.378   5.936   2.606
 9762SOL     OW30184   2.490   1.461   3.329
 9762SOL    HW130185   2.495   1.433   3.233
 9762SOL    HW230186   2.510   1.558   3.336
 9763SOL     OW30187   2.002   1.605   1.674
 9763SOL    HW130188   1.924   1.547   1.698
 9763SOL    HW230189   1.996   1.692   1.723
 9764SOL     OW30190   1.092   2.815   1.889
 9764SOL    HW130191   1.078   2.911   1.913
 9764SOL    HW230192   1.034   2.758   1.948
 9765SOL     OW30193   0.240   1.611   5.569
 9765SOL    HW130194   0.226   1.710   5.562
 9765SOL    HW230195   0.205   1.567   5.486
 9766SOL     OW30196   3.195   0.528   1.963
 9766SOL    HW130197   3.279   0.560   2.007
 9766SOL    HW230198   3.130   0.603   1.957
 9767SOL     OW30199   4.711   0.371   5.136
 9767SOL    HW130200   4.792   0.349   5.191
 9767SOL    HW230201   4.655   0.438   5.185
 9768SOL     OW30202   4.931   2.507   3.140
 9768SOL    HW130203   4.901   2.530   3.232
 9768SOL    HW230204   4.856   2.520   3.076
 9769SOL     OW30205   0.646   2.211   1.947
 9769SOL    HW130206   0.600   2.261   1.875
 9769SOL    HW230207   0.626   2.253   2.035
 9770SOL     OW30208   6.365   4.177   6.584
 9770SOL    HW130209   6.395   4.170   6.679
 9770SOL    HW230210   6.416   4.112   6.528
 9771SOL     OW30211   3.470   5.786   5.045
 9771SOL    HW130212   3.533   5.733   5.101
 9771SOL    HW230213   3.392   5.729   5.019
 9772SOL     OW30214   6.734   0.362   1.824
 9772SOL    HW130215   6.751   0.314   1.738
 9772SOL    HW230216   6.637   0.353   1.849
 9773SOL     OW30217   5.485   5.686   3.403
 9773SOL    HW130218   5.484   5.646   3.494
 9773SOL    HW230219   5.572   5.733   3.389
 9774SOL     OW30220   0.117   4.867   3.124
 9774SOL    HW130221   0.141   4.932   3.197
 9774SOL    HW230222   0.194   4.856   3.062
 9775SOL     OW30223   2.762   2.226   4.981
 9775SOL    HW130224   2.753   2.210   5.080
 9775SOL    HW230225   2.839   2.172   4.946
 9776SOL     OW30226   0.416   5.037   4.778
 9776SOL    HW130227   0.410   4.938   4.791
 9776SOL    HW230228   0.424   5.057   4.681
 9777SOL     OW30229   5.620   5.056   0.225
 9777SOL    HW130230   5.718   5.078   0.222
 9777SOL    HW230231   5.569   5.122   0.169
 9778SOL     OW30232   4.267   0.897   3.670
 9778SOL    HW130233   4.242   0.980   3.719
 9778SOL    HW230234   4.184   0.848   3.643
 9779SOL     OW30235   2.908   1.989   6.173
 9779SOL    HW130236   2.901   1.895   6.140
 9779SOL    HW230237   2.967   1.991   6.254
 9780SOL     OW30238   3.538   4.394   0.544
 9780SOL    HW130239   3.572   4.306   0.575
 9780SOL    HW230240   3.489   4.383   0.458
 9781SOL     OW30241   1.792   6.256   3.957
 9781SOL    HW130242   1.694   6.261   3.975
 9781SOL    HW230243   1.814   6.165   3.921
 9782SOL     OW30244   6.452   0.715   1.310
 9782SOL    HW130245   6.486   0.706   1.217
 9782SOL    HW230246   6.518   0.675   1.374
 9783SOL     OW30247   5.722   1.550   2.757
 9783SOL    HW130248   5.786   1.542   2.833
 9783SOL    HW230249   5.752   1.623   2.696
 9784SOL     OW30250   5.217   0.812   4.184
 9784SOL    HW130251   5.247   0.907   4.183
 9784SOL    HW230252   5.259   0.763   4.107
 9785SOL     OW30253   1.118   3.090   0.990
 9785SOL    HW130254   1.093   3.181   1.022
 9785SOL    HW230255   1.037   3.032   0.987
 9786SOL     OW30256   2.314   0.219   4.863
 9786SOL    HW130257   2.314   0.123   4.836
 9786SOL    HW230258   2.296   0.227   4.961
 9787SOL     OW30259   5.828   4.615   2.168
 9787SOL    HW130260   5.887   4.656   2.099
 9787SOL    HW230261   5.798   4.525   2.137
 9788SOL     OW30262   0.355   1.184   5.640
 9788SOL    HW130263   0.399   1.269   5.669
 9788SOL    HW230264   0.423   1.124   5.597
 9789SOL     OW30265   1.304   5.928   4.614
 9789SOL    HW130266   1.294   6.022   4.580
 9789SOL    HW230267   1.283   5.926   4.712
 9790SOL     OW30268   6.903   1.303   4.218
 9790SOL    HW130269   6.849   1.351   4.287
 9790SOL    HW230270   6.992   1.279   4.257
 9791SOL     OW30271   1.118   2.582   1.678
 9791SOL    HW130272   1.103   2.637   1.760
 9791SOL    HW230273   1.181   2.629   1.617
 9792SOL     OW30274   3.946   5.867   1.943
 9792SOL    HW130275   3.906   5.917   2.019
 9792SOL    HW230276   3.996   5.931   1.884
 9793SOL     OW30277   5.010   6.487   2.669
 9793SOL    HW130278   5.034   6.390   2.661
 9793SOL    HW230279   4.998   6.526   2.578
 9794SOL     OW30280   3.220   2.874   6.558
 9794SOL    HW130281   3.296   2.937   6.541
 9794SOL    HW230282   3.214   2.808   6.483
 9795SOL     OW30283   2.515   4.535   3.913
 9795SOL    HW130284   2.473   4.619   3.948
 9795SOL    HW230285   2.607   4.556   3.877
 9796SOL     OW30286   3.752   4.577   0.342
 9796SOL    HW130287   3.741   4.549   0.437
 9796SOL    HW230288   3.663   4.586   0.299
 9797SOL     OW30289   5.051   2.733   4.626
 9797SOL    HW130290   4.991   2.656   4.649
 9797SOL    HW230291   5.107   2.710   4.547
 9798SOL     OW30292   2.369   1.826   1.553
 9798SOL    HW130293   2.338   1.734   1.578
 9798SOL    HW230294   2.314   1.894   1.601
 9799SOL     OW30295   3.443   3.918   1.944
 9799SOL    HW130296   3.347   3.947   1.942
 9799SOL    HW230297   3.448   3.818   1.951
 9800SOL     OW30298   3.584   4.808   0.383
 9800SOL    HW130299   3.507   4.871   0.395
 9800SOL    HW230300   3.607   4.767   0.471
 9801SOL     OW30301   4.746   5.497   6.764
 9801SOL    HW130302   4.695   5.533   6.842
 9801SOL    HW230303   4.801   5.419   6.794
 9802SOL     OW30304   0.648   5.016   1.535
 9802SOL    HW130305   0.720   4.954   1.565
 9802SOL    HW230306   0.562   4.992   1.581
 9803SOL     OW30307   5.541   0.771   6.632
 9803SOL    HW130308   5.494   0.858   6.615
 9803SOL    HW230309   5.545   0.753   6.730
 9804SOL     OW30310   5.945   5.131   4.038
 9804SOL    HW130311   5.983   5.089   4.121
 9804SOL    HW230312   5.935   5.229   4.052
 9805SOL     OW30313   3.318   4.425   1.403
 9805SOL    HW130314   3.331   4.445   1.500
 9805SOL    HW230315   3.371   4.345   1.378
 9806SOL     OW30316   6.702   2.494   2.886
 9806SOL    HW130317   6.660   2.468   2.973
 9806SOL    HW230318   6.802   2.483   2.893
 9807SOL     OW30319   3.586   2.422   0.858
 9807SOL    HW130320   3.602   2.422   0.759
 9807SOL    HW230321   3.500   2.375   0.878
 9808SOL     OW30322   1.515   2.069   5.147
 9808SOL    HW130323   1.591   2.026   5.196
 9808SOL    HW230324   1.429   2.032   5.179
 9809SOL     OW30325   0.757   0.590   4.571
 9809SOL    HW130326   0.786   0.685   4.567
 9809SOL    HW230327   0.820   0.538   4.629
 9810SOL     OW30328   4.093   1.308   3.440
 9810SOL    HW130329   4.099   1.359   3.354
 9810SOL    HW230330   4.156   1.349   3.507
 9811SOL     OW30331   1.359   7.015   2.726
 9811SOL    HW130332   1.298   0.075   2.737
 9811SOL    HW230333   1.382   7.005   2.629
 9812SOL     OW30334   5.176   2.758   4.865
 9812SOL    HW130335   5.148   2.745   4.770
 9812SOL    HW230336   5.183   2.668   4.910
 9813SOL     OW30337   6.232   4.688   1.031
 9813SOL    HW130338   6.215   4.596   1.066
 9813SOL    HW230339   6.316   4.687   0.976
 9814SOL     OW30340   6.689   0.956   5.395
 9814SOL    HW130341   6.599   0.991   5.424
 9814SOL    HW230342   6.680   0.860   5.370
 9815SOL     OW30343   6.707   3.885   2.725
 9815SOL    HW130344   6.724   3.915   2.818
 9815SOL    HW230345   6.704   3.785   2.722
 9816SOL     OW30346   6.675   0.999   6.088
 9816SOL    HW130347   6.767   1.009   6.050
 9816SOL    HW230348   6.613   1.064   6.045
 9817SOL     OW30349   2.168   0.561   0.085
 9817SOL    HW130350   2.189   0.651   0.048
 9817SOL    HW230351   2.070   0.555   0.106
 9818SOL     OW30352   0.905   6.980   3.216
 9818SOL    HW130353   0.857   6.892   3.209
 9818SOL    HW230354   0.985   6.969   3.275
 9819SOL     OW30355   6.932   2.749   4.142
 9819SOL    HW130356   6.930   2.754   4.242
 9819SOL    HW230357   0.006   2.726   4.111
 9820SOL     OW30358   3.637   2.645   6.150
 9820SOL    HW130359   3.555   2.698   6.172
 9820SOL    HW230360   3.618   2.585   6.073
 9821SOL     OW30361   3.846   2.635   1.473
 9821SOL    HW130362   3.772   2.640   1.541
 9821SOL    HW230363   3.853   2.721   1.424
 9822SOL     OW30364   3.254   6.127   4.674
 9822SOL    HW130365   3.157   6.142   4.657
 9822SOL    HW230366   3.308   6.165   4.599
 9823SOL     OW30367   3.897   6.646   3.097
 9823SOL    HW130368   3.823   6.660   3.163
 9823SOL    HW230369   3.984   6.673   3.139
 9824SOL     OW30370   0.713   5.955   5.894
 9824SOL    HW130371   0.717   6.013   5.975
 9824SOL    HW230372   0.666   6.003   5.820
 9825SOL     OW30373   0.055   6.475   5.173
 9825SOL    HW130374   6.989   6.495   5.123
 9825SOL    HW230375   0.037   6.405   5.242
 9826SOL     OW30376   2.231   5.703   5.311
 9826SOL    HW130377   2.163   5.763   5.270
 9826SOL    HW230378   2.235   5.720   5.409
 9827SOL     OW30379   1.824   4.401   1.774
 9827SOL    HW130380   1.752   4.463   1.744
 9827SOL    HW230381   1.899   4.402   1.708
 9828SOL     OW30382   3.987   1.851   5.286
 9828SOL    HW130383   3.948   1.824   5.375
 9828SOL    HW230384   3.927   1.818   5.213
 9829SOL     OW30385   4.981   4.766   5.405
 9829SOL    HW130386   5.046   4.799   5.473
 9829SOL    HW230387   5.022   4.689   5.355
 9830SOL     OW30388   5.410   1.720   3.695
 9830SOL    HW130389   5.391   1.782   3.619
 9830SOL    HW230390   5.329   1.663   3.713
 9831SOL     OW30391   0.563   4.385   2.078
 9831SOL    HW130392   0.489   4.319   2.067
 9831SOL    HW230393   0.593   4.416   1.987
 9832SOL     OW30394   4.510   5.735   4.623
 9832SOL    HW130395   4.601   5.724   4.661
 9832SOL    HW230396   4.476   5.645   4.593
 9833SOL     OW30397   3.923   3.555   3.991
 9833SOL    HW130398   3.910   3.653   3.977
 9833SOL    HW230399   4.005   3.525   3.942
 9834SOL     OW30400   2.848   6.196   5.613
 9834SOL    HW130401   2.769   6.182   5.554
 9834SOL    HW230402   2.896   6.109   5.627
 9835SOL     OW30403   4.006   3.847   4.051
 9835SOL    HW130404   4.041   3.814   4.138
 9835SOL    HW230405   3.906   3.857   4.056
 9836SOL     OW30406   6.755   3.563   5.633
 9836SOL    HW130407   6.851   3.533   5.628
 9836SOL    HW230408   6.734   3.592   5.726
 9837SOL     OW30409   5.717   1.783   3.386
 9837SOL    HW130410   5.791   1.849   3.387
 9837SOL    HW230411   5.753   1.693   3.359
 9838SOL     OW30412   1.148   6.113   1.115
 9838SOL    HW130413   1.198   6.137   1.198
 9838SOL    HW230414   1.138   6.193   1.056
 9839SOL     OW30415   5.189   6.372   3.912
 9839SOL    HW130416   5.201   6.361   3.813
 9839SOL    HW230417   5.234   6.456   3.942
 9840SOL     OW30418   6.465   1.840   6.525
 9840SOL    HW130419   6.515   1.901   6.464
 9840SOL    HW230420   6.516   1.755   6.537
 9841SOL     OW30421   6.735   6.166   2.881
 9841SOL    HW130422   6.656   6.162   2.819
 9841SOL    HW230423   6.710   6.213   2.965
 9842SOL     OW30424   3.321   0.266   0.097
 9842SOL    HW130425   3.391   0.286   0.166
 9842SOL    HW230426   3.351   0.189   0.040
 9843SOL     OW30427   0.444   0.506   1.590
 9843SOL    HW130428   0.464   0.552   1.504
 9843SOL    HW230429   0.520   0.519   1.653
 9844SOL     OW30430   4.512   0.586   4.907
 9844SOL    HW130431   4.521   0.536   4.821
 9844SOL    HW230432   4.592   0.569   4.964
 9845SOL     OW30433   1.351   4.024   2.237
 9845SOL    HW130434   1.303   4.025   2.325
 9845SOL    HW230435   1.287   4.000   2.164
 9846SOL     OW30436   5.867   2.226   1.406
 9846SOL    HW130437   5.862   2.137   1.361
 9846SOL    HW230438   5.960   2.240   1.441
 9847SOL     OW30439   3.914   3.916   6.864
 9847SOL    HW130440   3.859   3.837   6.838
 9847SOL    HW230441   3.878   3.956   6.948
 9848SOL     OW30442   3.043   3.466   5.468
 9848SOL    HW130443   3.143   3.459   5.467
 9848SOL    HW230444   3.017   3.562   5.460
 9849SOL     OW30445   1.574   2.193   4.422
 9849SOL    HW130446   1.505   2.262   4.397
 9849SOL    HW230447   1.611   2.215   4.512
 9850SOL     OW30448   2.171   6.692   4.100
 9850SOL    HW130449   2.140   6.753   4.027
 9850SOL    HW230450   2.106   6.617   4.111
 9851SOL     OW30451   3.581   5.720   3.793
 9851SOL    HW130452   3.528   5.705   3.876
 9851SOL    HW230453   3.660   5.658   3.791
 9852SOL     OW30454   1.591   6.596   0.247
 9852SOL    HW130455   1.672   6.623   0.195
 9852SOL    HW230456   1.620   6.550   0.331
 9853SOL     OW30457   0.198   4.324   3.451
 9853SOL    HW130458   0.243   4.332   3.363
 9853SOL    HW230459   0.245   4.254   3.506
 9854SOL     OW30460   0.400   3.552   6.756
 9854SOL    HW130461   0.469   3.479   6.761
 9854SOL    HW230462   0.310   3.512   6.773
 9855SOL     OW30463   0.744   5.581   0.321
 9855SOL    HW130464   0.680   5.590   0.245
 9855SOL    HW230465   0.837   5.596   0.288
 9856SOL     OW30466   5.563   3.346   2.880
 9856SOL    HW130467   5.466   3.359   2.858
 9856SOL    HW230468   5.613   3.319   2.798
 9857SOL     OW30469   4.846   0.051   5.335
 9857SOL    HW130470   4.819   0.140   5.372
 9857SOL    HW230471   4.891   7.016   5.406
 9858SOL     OW30472   6.132   6.045   1.682
 9858SOL    HW130473   6.168   6.138   1.669
 9858SOL    HW230474   6.033   6.047   1.678
 9859SOL     OW30475   0.183   5.466   2.802
 9859SOL    HW130476   0.202   5.561   2.825
 9859SOL    HW230477   0.165   5.458   2.704
 9860SOL     OW30478   1.737   3.342   4.224
 9860SOL    HW130479   1.743   3.442   4.229
 9860SOL    HW230480   1.826   3.302   4.245
 9861SOL     OW30481   3.394   2.036   3.218
 9861SOL    HW130482   3.351   2.113   3.265
 9861SOL    HW230483   3.446   2.070   3.139
 9862SOL     OW30484   1.407   3.609   6.384
 9862SOL    HW130485   1.417   3.510   6.388
 9862SOL    HW230486   1.482   3.648   6.331
 9863SOL     OW30487   4.169   0.034   2.167
 9863SOL    HW130488   4.104   6.977   2.157
 9863SOL    HW230489   4.118   0.118   2.186
 9864SOL     OW30490   1.893   6.092   5.995
 9864SOL    HW130491   1.893   5.992   6.000
 9864SOL    HW230492   1.818   6.127   6.051
 9865SOL     OW30493   1.791   5.482   5.753
 9865SOL    HW130494   1.739   5.536   5.686
 9865SOL    HW230495   1.772   5.385   5.738
 9866SOL     OW30496   6.726   5.529   5.710
 9866SOL    HW130497   6.713   5.430   5.708
 9866SOL    HW230498   6.653   5.571   5.765
 9867SOL     OW30499   4.306   1.394   1.809
 9867SOL    HW130500   4.374   1.449   1.859
 9867SOL    HW230501   4.231   1.454   1.779
 9868SOL     OW30502   2.526   4.853   3.612
 9868SOL    HW130503   2.539   4.841   3.710
 9868SOL    HW230504   2.433   4.826   3.587
 9869SOL     OW30505   0.436   2.071   1.353
 9869SOL    HW130506   0.406   2.105   1.442
 9869SOL    HW230507   0.376   1.997   1.324
 9870SOL     OW30508   2.116   2.660   2.624
 9870SOL    HW130509   2.206   2.701   2.641
 9870SOL    HW230510   2.078   2.628   2.710
 9871SOL     OW30511   5.869   5.719   3.215
 9871SOL    HW130512   5.850   5.795   3.153
 9871SOL    HW230513   5.837   5.742   3.307
 9872SOL     OW30514   0.790   5.170   5.821
 9872SOL    HW130515   0.885   5.140   5.811
 9872SOL    HW230516   0.733   5.091   5.845
 9873SOL     OW30517   1.015   1.237   5.246
 9873SOL    HW130518   0.967   1.312   5.200
 9873SOL    HW230519   1.104   1.268   5.277
 9874SOL     OW30520   0.742   2.079   4.056
 9874SOL    HW130521   0.811   2.141   4.018
 9874SOL    HW230522   0.652   2.103   4.019
 9875SOL     OW30523   6.264   6.118   0.611
 9875SOL    HW130524   6.288   6.027   0.644
 9875SOL    HW230525   6.188   6.154   0.664
 9876SOL     OW30526   6.692   6.667   3.523
 9876SOL    HW130527   6.671   6.672   3.620
 9876SOL    HW230528   6.776   6.614   3.509
 9877SOL     OW30529   0.575   6.075   5.181
 9877SOL    HW130530   0.563   6.167   5.145
 9877SOL    HW230531   0.671   6.060   5.204
 9878SOL     OW30532   3.239   2.864   6.820
 9878SOL    HW130533   3.264   2.770   6.842
 9878SOL    HW230534   3.194   2.867   6.730
 9879SOL     OW30535   6.538   5.703   5.487
 9879SOL    HW130536   6.514   5.792   5.449
 9879SOL    HW230537   6.601   5.715   5.564
 9880SOL     OW30538   2.736   0.959   1.035
 9880SOL    HW130539   2.708   0.923   1.124
 9880SOL    HW230540   2.686   0.911   0.963
 9881SOL     OW30541   6.043   0.983   3.198
 9881SOL    HW130542   6.127   1.028   3.167
 9881SOL    HW230543   6.000   1.039   3.269
 9882SOL     OW30544   3.563   3.214   4.390
 9882SOL    HW130545   3.555   3.221   4.490
 9882SOL    HW230546   3.495   3.273   4.347
 9883SOL     OW30547   2.073   6.260   2.513
 9883SOL    HW130548   2.107   6.227   2.601
 9883SOL    HW230549   1.984   6.218   2.494
 9884SOL     OW30550   3.372   2.774   5.582
 9884SOL    HW130551   3.384   2.739   5.489
 9884SOL    HW230552   3.319   2.859   5.579
 9885SOL     OW30553   4.981   2.420   5.290
 9885SOL    HW130554   5.078   2.395   5.293
 9885SOL    HW230555   4.944   2.422   5.383
 9886SOL     OW30556   3.491   5.753   1.103
 9886SOL    HW130557   3.420   5.817   1.132
 9886SOL    HW230558   3.449   5.664   1.084
 9887SOL     OW30559   3.062   1.905   0.384
 9887SOL    HW130560   3.010   1.927   0.466
 9887SOL    HW230561   2.998   1.881   0.310
 9888SOL     OW30562   6.323   6.478   3.828
 9888SOL    HW130563   6.360   6.388   3.849
 9888SOL    HW230564   6.387   6.527   3.768
 9889SOL     OW30565   0.111   5.429   2.534
 9889SOL    HW130566   0.017   5.397   2.521
 9889SOL    HW230567   0.145   5.467   2.448
 9890SOL     OW30568   0.681   3.341   2.515
 9890SOL    HW130569   0.634   3.254   2.500
 9890SOL    HW230570   0.695   3.355   2.613
 9891SOL     OW30571   4.784   6.771   1.783
 9891SOL    HW130572   4.721   6.694   1.774
 9891SOL    HW230573   4.757   6.844   1.720
 9892SOL     OW30574   1.746   5.704   3.848
 9892SOL    HW130575   1.723   5.786   3.795
 9892SOL    HW230576   1.668   5.679   3.906
 9893SOL     OW30577   5.693   4.712   4.603
 9893SOL    HW130578   5.734   4.637   4.655
 9893SOL    HW230579   5.761   4.751   4.542
 9894SOL     OW30580   4.520   3.691   5.335
 9894SOL    HW130581   4.537   3.649   5.424
 9894SOL    HW230582   4.583   3.654   5.267
 9895SOL     OW30583   5.409   1.956   6.460
 9895SOL    HW130584   5.456   1.920   6.379
 9895SOL    HW230585   5.435   2.052   6.474
 9896SOL     OW30586   3.770   3.454   6.946
 9896SOL    HW130587   3.850   3.480   7.000
 9896SOL    HW230588   3.711   3.394   7.000
 9897SOL     OW30589   0.105   0.615   3.197
 9897SOL    HW130590   0.070   0.551   3.266
 9897SOL    HW230591   0.100   0.709   3.232
 9898SOL     OW30592   1.537   4.736   6.668
 9898SOL    HW130593   1.532   4.691   6.579
 9898SOL    HW230594   1.452   4.785   6.685
 9899SOL     OW30595   4.791   4.768   2.707
 9899SOL    HW130596   4.800   4.791   2.804
 9899SOL    HW230597   4.788   4.669   2.697
 9900SOL     OW30598   1.861   4.346   4.204
 9900SOL    HW130599   1.896   4.253   4.213
 9900SOL    HW230600   1.882   4.398   4.287
 9901SOL     OW30601   2.160   1.925   6.281
 9901SOL    HW130602   2.216   1.843   6.276
 9901SOL    HW230603   2.218   2.003   6.308
 9902SOL     OW30604   4.638   3.778   6.650
 9902SOL    HW130605   4.630   3.705   6.718
 9902SOL    HW230606   4.732   3.812   6.649
 9903SOL     OW30607   3.570   1.694   1.543
 9903SOL    HW130608   3.502   1.655   1.481
 9903SOL    HW230609   3.590   1.788   1.515
 9904SOL     OW30610   0.473   0.173   1.944
 9904SOL    HW130611   0.406   0.153   2.016
 9904SOL    HW230612   0.468   0.103   1.873
 9905SOL     OW30613   1.687   6.688   5.828
 9905SOL    HW130614   1.717   6.621   5.760
 9905SOL    HW230615   1.594   6.718   5.807
 9906SOL     OW30616   3.640   3.787   5.902
 9906SOL    HW130617   3.656   3.716   5.833
 9906SOL    HW230618   3.723   3.842   5.912
 9907SOL     OW30619   1.510   6.741   2.741
 9907SOL    HW130620   1.513   6.834   2.778
 9907SOL    HW230621   1.528   6.676   2.814
 9908SOL     OW30622   6.705   3.649   5.166
 9908SOL    HW130623   6.735   3.679   5.256
 9908SOL    HW230624   6.605   3.650   5.162
 9909SOL     OW30625   3.699   6.694   2.303
 9909SOL    HW130626   3.616   6.673   2.252
 9909SOL    HW230627   3.676   6.742   2.388
 9910SOL     OW30628   0.946   4.511   0.860
 9910SOL    HW130629   0.896   4.448   0.800
 9910SOL    HW230630   0.884   4.585   0.889
 9911SOL     OW30631   3.900   5.114   3.112
 9911SOL    HW130632   3.961   5.187   3.143
 9911SOL    HW230633   3.903   5.109   3.012
 9912SOL     OW30634   4.130   6.781   1.064
 9912SOL    HW130635   4.146   6.873   1.101
 9912SOL    HW230636   4.051   6.783   1.003
 9913SOL     OW30637   4.321   2.382   2.880
 9913SOL    HW130638   4.376   2.351   2.958
 9913SOL    HW230639   4.347   2.476   2.857
 9914SOL     OW30640   2.096   5.413   5.096
 9914SOL    HW130641   2.048   5.398   5.010
 9914SOL    HW230642   2.189   5.378   5.089
 9915SOL     OW30643   6.018   3.654   3.979
 9915SOL    HW130644   6.020   3.754   3.975
 9915SOL    HW230645   5.941   3.624   4.035
 9916SOL     OW30646   2.652   3.217   0.713
 9916SOL    HW130647   2.740   3.196   0.670
 9916SOL    HW230648   2.598   3.133   0.720
 9917SOL     OW30649   2.211   2.955   4.830
 9917SOL    HW130650   2.246   2.975   4.921
 9917SOL    HW230651   2.268   2.885   4.787
 9918SOL     OW30652   2.809   0.776   4.796
 9918SOL    HW130653   2.727   0.782   4.852
 9918SOL    HW230654   2.818   0.858   4.740
 9919SOL     OW30655   0.854   5.492   2.250
 9919SOL    HW130656   0.852   5.467   2.154
 9919SOL    HW230657   0.805   5.423   2.304
 9920SOL     OW30658   4.191   6.578   2.626
 9920SOL    HW130659   4.230   6.555   2.715
 9920SOL    HW230660   4.216   6.507   2.560
 9921SOL     OW30661   5.115   0.095   2.976
 9921SOL    HW130662   5.033   0.138   3.011
 9921SOL    HW230663   5.158   0.155   2.909
 9922SOL     OW30664   5.243   3.084   1.849
 9922SOL    HW130665   5.211   2.994   1.880
 9922SOL    HW230666   5.247   3.146   1.927
 9923SOL     OW30667   6.311   0.783   6.462
 9923SOL    HW130668   6.260   0.701   6.488
 9923SOL    HW230669   6.408   0.761   6.457
 9924SOL     OW30670   5.003   1.010   3.887
 9924SOL    HW130671   4.993   0.942   3.960
 9924SOL    HW230672   4.967   0.973   3.802
 9925SOL     OW30673   3.705   2.136   4.594
 9925SOL    HW130674   3.727   2.169   4.686
 9925SOL    HW230675   3.609   2.157   4.574
 9926SOL     OW30676   1.561   0.607   5.846
 9926SOL    HW130677   1.462   0.616   5.834
 9926SOL    HW230678   1.587   0.639   5.937
 9927SOL     OW30679   1.177   3.122   2.448
 9927SOL    HW130680   1.161   3.056   2.521
 9927SOL    HW230681   1.144   3.085   2.362
 9928SOL     OW30682   0.132   3.020   2.407
 9928SOL    HW130683   0.159   3.067   2.490
 9928SOL    HW230684   0.086   2.934   2.431
 9929SOL     OW30685   0.572   4.493   5.564
 9929SOL    HW130686   0.485   4.456   5.531
 9929SOL    HW230687   0.606   4.562   5.501
 9930SOL     OW30688   6.850   5.489   6.869
 9930SOL    HW130689   6.779   5.529   6.811
 9930SOL    HW230690   6.940   5.518   6.836
 9931SOL     OW30691   2.642   5.074   6.686
 9931SOL    HW130692   2.718   5.052   6.747
 9931SOL    HW230693   2.615   4.991   6.635
 9932SOL     OW30694   2.415   2.426   1.114
 9932SOL    HW130695   2.502   2.392   1.078
 9932SOL    HW230696   2.433   2.488   1.190
 9933SOL     OW30697   0.590   1.874   2.309
 9933SOL    HW130698   0.589   1.973   2.298
 9933SOL    HW230699   0.588   1.850   2.406
 9934SOL     OW30700   5.122   0.593   6.400
 9934SOL    HW130701   5.173   0.619   6.482
 9934SOL    HW230702   5.186   0.568   6.327
 9935SOL     OW30703   2.765   2.674   0.749
 9935SOL    HW130704   2.734   2.600   0.689
 9935SOL    HW230705   2.687   2.714   0.796
 9936SOL     OW30706   5.304   6.915   6.286
 9936SOL    HW130707   5.343   6.976   6.216
 9936SOL    HW230708   5.236   6.855   6.244
 9937SOL     OW30709   1.634   6.545   3.799
 9937SOL    HW130710   1.577   6.623   3.824
 9937SOL    HW230711   1.638   6.538   3.699
 9938SOL     OW30712   0.150   0.897   3.239
 9938SOL    HW130713   0.239   0.912   3.282
 9938SOL    HW230714   0.080   0.950   3.286
 9939SOL     OW30715   2.664   4.091   1.706
 9939SOL    HW130716   2.695   4.003   1.670
 9939SOL    HW230717   2.733   4.161   1.686
 9940SOL     OW30718   6.796   0.876   3.236
 9940SOL    HW130719   6.790   0.911   3.143
 9940SOL    HW230720   6.766   0.780   3.238
 9941SOL     OW30721   5.622   3.807   0.861
 9941SOL    HW130722   5.524   3.790   0.866
 9941SOL    HW230723   5.666   3.781   0.947
 9942SOL     OW30724   6.227   6.053   2.969
 9942SOL    HW130725   6.202   6.021   2.877
 9942SOL    HW230726   6.183   6.141   2.986
 9943SOL     OW30727   1.834   3.934   5.493
 9943SOL    HW130728   1.817   3.851   5.546
 9943SOL    HW230729   1.931   3.960   5.500
 9944SOL     OW30730   2.102   5.830   6.657
 9944SOL    HW130731   2.054   5.760   6.603
 9944SOL    HW230732   2.038   5.872   6.721
 9945SOL     OW30733   6.954   3.631   0.006
 9945SOL    HW130734   6.902   3.562   0.056
 9945SOL    HW230735   6.892   3.702   6.992
 9946SOL     OW30736   4.913   2.248   1.851
 9946SOL    HW130737   4.816   2.270   1.851
 9946SOL    HW230738   4.948   2.249   1.757
 9947SOL     OW30739   1.018   1.389   2.575
 9947SOL    HW130740   1.112   1.419   2.585
 9947SOL    HW230741   0.956   1.461   2.606
 9948SOL     OW30742   6.143   0.546   5.266
 9948SOL    HW130743   6.168   0.551   5.363
 9948SOL    HW230744   6.167   0.632   5.221
 9949SOL     OW30745   6.773   3.658   3.310
 9949SOL    HW130746   6.810   3.617   3.227
 9949SOL    HW230747   6.841   3.651   3.384
 9950SOL     OW30748   3.995   4.238   5.585
 9950SOL    HW130749   4.079   4.200   5.547
 9950SOL    HW230750   3.929   4.253   5.512
 9951SOL     OW30751   6.991   1.967   2.894
 9951SOL    HW130752   6.948   1.882   2.865
 9951SOL    HW230753   6.920   2.030   2.928
 9952SOL     OW30754   1.449   4.548   1.306
 9952SOL    HW130755   1.537   4.500   1.307
 9952SOL    HW230756   1.419   4.561   1.212
 9953SOL     OW30757   6.389   4.134   3.792
 9953SOL    HW130758   6.336   4.211   3.828
 9953SOL    HW230759   6.357   4.049   3.833
 9954SOL     OW30760   3.626   1.300   1.278
 9954SOL    HW130761   3.638   1.397   1.258
 9954SOL    HW230762   3.713   1.261   1.309
 9955SOL     OW30763   5.687   5.415   1.523
 9955SOL    HW130764   5.672   5.325   1.562
 9955SOL    HW230765   5.599   5.454   1.494
 9956SOL     OW30766   1.799   3.405   2.976
 9956SOL    HW130767   1.779   3.470   3.049
 9956SOL    HW230768   1.843   3.324   3.014
 9957SOL     OW30769   5.809   0.458   0.370
 9957SOL    HW130770   5.878   0.459   0.442
 9957SOL    HW230771   5.811   0.370   0.323
 9958SOL     OW30772   6.064   5.496   6.814
 9958SOL    HW130773   6.026   5.403   6.812
 9958SOL    HW230774   6.084   5.521   6.908
 9959SOL     OW30775   6.123   4.862   0.430
 9959SOL    HW130776   6.043   4.806   0.449
 9959SOL    HW230777   6.206   4.809   0.448
 9960SOL     OW30778   6.348   0.202   0.066
 9960SOL    HW130779   6.278   0.137   0.035
 9960SOL    HW230780   6.429   0.152   0.094
 9961SOL     OW30781   3.387   5.647   0.637
 9961SOL    HW130782   3.391   5.702   0.720
 9961SOL    HW230783   3.470   5.592   0.629
 9962SOL     OW30784   3.248   0.839   1.077
 9962SOL    HW130785   3.330   0.886   1.111
 9962SOL    HW230786   3.269   0.794   0.990
 9963SOL     OW30787   1.055   0.331   6.356
 9963SOL    HW130788   0.981   0.308   6.420
 9963SOL    HW230789   1.049   0.427   6.331
 9964SOL     OW30790   4.530   5.060   5.617
 9964SOL    HW130791   4.612   5.018   5.577
 9964SOL    HW230792   4.461   5.072   5.545
 9965SOL     OW30793   2.759   4.994   4.119
 9965SOL    HW130794   2.750   5.071   4.182
 9965SOL    HW230795   2.841   4.942   4.141
 9966SOL     OW30796   3.733   5.637   3.115
 9966SOL    HW130797   3.783   5.706   3.064
 9966SOL    HW230798   3.664   5.682   3.173
 9967SOL     OW30799   0.096   0.400   3.360
 9967SOL    HW130800   0.151   0.317   3.350
 9967SOL    HW230801   0.123   0.448   3.444
 9968SOL     OW30802   4.666   6.675   0.455
 9968SOL    HW130803   4.753   6.640   0.490
 9968SOL    HW230804   4.670   6.682   0.355
 9969SOL     OW30805   0.307   6.166   3.486
 9969SOL    HW130806   0.289   6.068   3.475
 9969SOL    HW230807   0.388   6.191   3.433
 9970SOL     OW30808   6.423   3.276   2.049
 9970SOL    HW130809   6.418   3.310   2.143
 9970SOL    HW230810   6.330   3.266   2.012
 9971SOL     OW30811   0.404   5.295   4.513
 9971SOL    HW130812   0.316   5.328   4.477
 9971SOL    HW230813   0.408   5.196   4.506
 9972SOL     OW30814   2.604   4.457   6.042
 9972SOL    HW130815   2.504   4.461   6.047
 9972SOL    HW230816   2.631   4.405   5.961
 9973SOL     OW30817   2.811   1.778   3.556
 9973SOL    HW130818   2.755   1.856   3.584
 9973SOL    HW230819   2.887   1.811   3.500
 9974SOL     OW30820   1.606   2.607   3.045
 9974SOL    HW130821   1.628   2.679   2.979
 9974SOL    HW230822   1.592   2.521   2.997
 9975SOL     OW30823   2.483   4.461   6.512
 9975SOL    HW130824   2.487   4.521   6.432
 9975SOL    HW230825   2.574   4.424   6.530
 9976SOL     OW30826   4.336   5.937   5.298
 9976SOL    HW130827   4.434   5.958   5.303
 9976SOL    HW230828   4.316   5.859   5.358
 9977SOL     OW30829   4.116   0.583   5.436
 9977SOL    HW130830   4.074   0.547   5.519
 9977SOL    HW230831   4.195   0.526   5.412
 9978SOL     OW30832   0.984   2.361   6.945
 9978SOL    HW130833   0.905   2.384   7.002
 9978SOL    HW230834   1.003   2.264   6.952
 9979SOL     OW30835   3.311   4.161   4.632
 9979SOL    HW130836   3.245   4.233   4.614
 9979SOL    HW230837   3.263   4.079   4.662
 9980SOL     OW30838   1.248   1.228   0.713
 9980SOL    HW130839   1.155   1.233   0.676
 9980SOL    HW230840   1.290   1.319   0.711
 9981SOL     OW30841   5.610   1.316   0.503
 9981SOL    HW130842   5.686   1.251   0.505
 9981SOL    HW230843   5.532   1.275   0.456
 9982SOL     OW30844   2.235   2.280   4.659
 9982SOL    HW130845   2.221   2.309   4.754
 9982SOL    HW230846   2.287   2.195   4.658
 9983SOL     OW30847   1.054   3.790   2.427
 9983SOL    HW130848   1.086   3.718   2.488
 9983SOL    HW230849   0.955   3.780   2.412
 9984SOL     OW30850   0.259   5.115   0.779
 9984SOL    HW130851   0.224   5.119   0.873
 9984SOL    HW230852   0.254   5.021   0.746
 9985SOL     OW30853   4.908   4.247   6.874
 9985SOL    HW130854   4.885   4.226   6.969
 9985SOL    HW230855   4.930   4.345   6.866
 9986SOL     OW30856   5.552   4.898   0.443
 9986SOL    HW130857   5.529   4.967   0.374
 9986SOL    HW230858   5.551   4.807   0.402
 9987SOL     OW30859   5.558   2.018   1.176
 9987SOL    HW130860   5.526   1.952   1.243
 9987SOL    HW230861   5.516   2.107   1.193
 9988SOL     OW30862   6.043   0.074   3.638
 9988SOL    HW130863   6.084   7.014   3.592
 9988SOL    HW230864   5.950   0.051   3.666
 9989SOL     OW30865   6.793   5.903   2.178
 9989SOL    HW130866   6.863   5.846   2.135
 9989SOL    HW230867   6.772   5.867   2.269
 9990SOL     OW30868   6.736   0.139   3.312
 9990SOL    HW130869   6.641   0.162   3.333
 9990SOL    HW230870   6.758   0.050   3.350
 9991SOL     OW30871   2.255   4.433   2.381
 9991SOL    HW130872   2.258   4.406   2.285
 9991SOL    HW230873   2.233   4.530   2.388
 9992SOL     OW30874   2.790   5.133   0.181
 9992SOL    HW130875   2.730   5.102   0.108
 9992SOL    HW230876   2.739   5.139   0.266
 9993SOL     OW30877   3.825   0.165   5.222
 9993SOL    HW130878   3.887   0.101   5.177
 9993SOL    HW230879   3.841   0.257   5.188
 9994SOL     OW30880   6.020   4.870   5.219
 9994SOL    HW130881   6.096   4.932   5.235
 9994SOL    HW230882   5.935   4.923   5.212
 9995SOL     OW30883   3.962   1.908   6.318
 9995SOL    HW130884   4.044   1.963   6.300
 9995SOL    HW230885   3.901   1.958   6.378
 9996SOL     OW30886   3.220   4.453   0.703
 9996SOL    HW130887   3.156   4.435   0.628
 9996SOL    HW230888   3.192   4.402   0.784
 9997SOL     OW30889   6.583   1.874   3.273
 9997SOL    HW130890   6.595   1.838   3.181
 9997SOL    HW230891   6.486   1.894   3.289
 9998SOL     OW30892   5.072   4.167   2.376
 9998SOL    HW130893   4.985   4.168   2.426
 9998SOL    HW230894   5.094   4.073   2.350
 9999SOL     OW30895   0.692   6.918   4.780
 9999SOL    HW130896   0.719   6.950   4.871
 9999SOL    HW230897   0.679   6.819   4.782
10000SOL     OW30898   4.617   2.247   1.362
10000SOL    HW130899   4.602   2.283   1.454
10000SOL    HW230900   4.710   2.210   1.355
10001SOL     OW30901   4.000   6.168   1.364
10001SOL    HW130902   3.921   6.136   1.312
10001SOL    HW230903   3.993   6.267   1.378
10002SOL     OW30904   2.570   0.197   2.006
10002SOL    HW130905   2.633   0.203   2.083
10002SOL    HW230906   2.621   0.189   1.921
10003SOL     OW30907   1.126   1.216   2.820
10003SOL    HW130908   1.041   1.165   2.815
10003SOL    HW230909   1.189   1.171   2.884
10004SOL     OW30910   0.389   4.756   4.265
10004SOL    HW130911   0.421   4.684   4.203
10004SOL    HW230912   0.467   4.793   4.315
10005SOL     OW30913   2.604   5.509   3.608
10005SOL    HW130914   2.546   5.475   3.534
10005SOL    HW230915   2.593   5.450   3.688
10006SOL     OW30916   5.253   1.092   5.325
10006SOL    HW130917   5.171   1.146   5.342
10006SOL    HW230918   5.310   1.091   5.407
10007SOL     OW30919   0.751   5.086   3.796
10007SOL    HW130920   0.685   5.150   3.835
10007SOL    HW230921   0.727   4.993   3.824
10008SOL     OW30922   3.679   1.289   6.119
10008SOL    HW130923   3.713   1.271   6.211
10008SOL    HW230924   3.688   1.387   6.099
10009SOL     OW30925   0.801   4.450   2.315
10009SOL    HW130926   0.768   4.524   2.375
10009SOL    HW230927   0.757   4.459   2.225
10010SOL     OW30928   2.463   4.283   1.246
10010SOL    HW130929   2.468   4.185   1.263
10010SOL    HW230930   2.555   4.322   1.250
10011SOL     OW30931   2.260   2.868   6.890
10011SOL    HW130932   2.258   2.782   6.941
10011SOL    HW230933   2.351   2.909   6.896
10012SOL     OW30934   5.717   1.905   3.073
10012SOL    HW130935   5.680   1.815   3.049
10012SOL    HW230936   5.645   1.974   3.068
10013SOL     OW30937   0.717   6.530   4.455
10013SOL    HW130938   0.806   6.498   4.487
10013SOL    HW230939   0.713   6.523   4.355
10014SOL     OW30940   0.777   0.996   2.584
10014SOL    HW130941   0.818   0.930   2.520
10014SOL    HW230942   0.686   0.966   2.610
10015SOL     OW30943   3.878   6.112   6.145
10015SOL    HW130944   3.845   6.044   6.080
10015SOL    HW230945   3.813   6.187   6.151
10016SOL     OW30946   2.493   0.951   4.080
10016SOL    HW130947   2.587   0.918   4.070
10016SOL    HW230948   2.489   1.048   4.056
10017SOL     OW30949   2.870   2.079   2.591
10017SOL    HW130950   2.805   2.148   2.560
10017SOL    HW230951   2.933   2.056   2.516
10018SOL     OW30952   6.780   3.848   4.708
10018SOL    HW130953   6.696   3.890   4.743
10018SOL    HW230954   6.811   3.900   4.628
10019SOL     OW30955   0.453   2.319   1.785
10019SOL    HW130956   0.443   2.417   1.769
10019SOL    HW230957   0.403   2.268   1.716
10020SOL     OW30958   6.299   1.339   1.999
10020SOL    HW130959   6.289   1.308   2.094
10020SOL    HW230960   6.209   1.344   1.956
10021SOL     OW30961   0.675   3.195   2.117
10021SOL    HW130962   0.619   3.255   2.058
10021SOL    HW230963   0.745   3.249   2.162
10022SOL     OW30964   1.619   5.446   5.966
10022SOL    HW130965   1.558   5.437   5.887
10022SOL    HW230966   1.713   5.452   5.934
10023SOL     OW30967   0.937   0.871   5.763
10023SOL    HW130968   1.010   0.881   5.696
10023SOL    HW230969   0.848   0.874   5.717
10024SOL     OW30970   1.234   4.676   2.663
10024SOL    HW130971   1.270   4.745   2.599
10024SOL    HW230972   1.142   4.649   2.635
10025SOL     OW30973   1.353   3.732   0.842
10025SOL    HW130974   1.320   3.649   0.887
10025SOL    HW230975   1.383   3.798   0.911
10026SOL     OW30976   5.695   1.698   5.010
10026SOL    HW130977   5.679   1.770   5.077
10026SOL    HW230978   5.758   1.731   4.939
10027SOL     OW30979   3.199   1.653   5.448
10027SOL    HW130980   3.121   1.648   5.510
10027SOL    HW230981   3.191   1.735   5.391
10028SOL     OW30982   4.573   6.937   1.437
10028SOL    HW130983   4.523   6.997   1.500
10028SOL    HW230984   4.597   6.852   1.484
10029SOL     OW30985   0.214   4.444   4.688
10029SOL    HW130986   0.249   4.523   4.638
10029SOL    HW230987   0.117   4.458   4.709
10030SOL     OW30988   2.427   0.401   4.486
10030SOL    HW130989   2.441   0.387   4.584
10030SOL    HW230990   2.502   0.456   4.449
10031SOL     OW30991   2.653   5.538   2.537
10031SOL    HW130992   2.722   5.475   2.503
10031SOL    HW230993   2.582   5.552   2.468
10032SOL     OW30994   3.174   6.493   4.763
10032SOL    HW130995   3.242   6.499   4.689
10032SOL    HW230996   3.086   6.528   4.730
10033SOL     OW30997   3.461   1.474   4.455
10033SOL    HW130998   3.512   1.388   4.457
10033SOL    HW230999   3.369   1.458   4.492
10034SOL     OW31000   2.607   0.882   3.246
10034SOL    HW131001   2.542   0.928   3.185
10034SOL    HW231002   2.682   0.944   3.268
10035SOL     OW31003   6.521   2.764   2.841
10035SOL    HW131004   6.569   2.835   2.789
10035SOL    HW231005   6.585   2.691   2.864
10036SOL     OW31006   0.849   0.949   0.057
10036SOL    HW131007   0.909   0.985   0.129
10036SOL    HW231008   0.900   0.943   6.990
10037SOL     OW31009   5.775   6.722   6.583
10037SOL    HW131010   5.693   6.747   6.530
10037SOL    HW231011   5.811   6.803   6.629
10038SOL     OW31012   4.662   6.577   6.362
10038SOL    HW131013   4.675   6.590   6.460
10038SOL    HW231014   4.579   6.524   6.345
10039SOL     OW31015   0.472   5.755   2.558
10039SOL    HW131016   0.522   5.767   2.644
10039SOL    HW231017   0.536   5.757   2.481
10040SOL     OW31018   2.949   0.042   1.073
10040SOL    HW131019   2.954   6.962   1.087
10040SOL    HW231020   2.861   0.065   1.030
10041SOL     OW31021   6.428   5.710   5.016
10041SOL    HW131022   6.502   5.687   5.079
10041SOL    HW231023   6.464   5.712   4.922
10042SOL     OW31024   0.182   0.595   5.289
10042SOL    HW131025   0.271   0.631   5.316
10042SOL    HW231026   0.120   0.671   5.267
10043SOL     OW31027   0.629   0.671   3.622
10043SOL    HW131028   0.617   0.610   3.700
10043SOL    HW231029   0.633   0.616   3.538
10044SOL     OW31030   2.525   1.735   6.660
10044SOL    HW131031   2.533   1.825   6.704
10044SOL    HW231032   2.579   1.734   6.576
10045SOL     OW31033   3.980   6.686   5.116
10045SOL    HW131034   3.991   6.672   5.214
10045SOL    HW231035   3.915   6.760   5.100
10046SOL     OW31036   6.809   2.328   1.105
10046SOL    HW131037   6.731   2.324   1.168
10046SOL    HW231038   6.885   2.276   1.143
10047SOL     OW31039   0.375   1.610   3.358
10047SOL    HW131040   0.460   1.595   3.307
10047SOL    HW231041   0.384   1.575   3.451
10048SOL     OW31042   3.718   2.588   1.745
10048SOL    HW131043   3.788   2.637   1.797
10048SOL    HW231044   3.694   2.504   1.793
10049SOL     OW31045   1.703   6.895   4.133
10049SOL    HW131046   1.665   6.973   4.083
10049SOL    HW231047   1.798   6.915   4.158
10050SOL     OW31048   5.284   1.962   4.142
10050SOL    HW131049   5.383   1.967   4.136
10050SOL    HW231050   5.257   1.883   4.197
10051SOL     OW31051   6.012   2.677   6.194
10051SOL    HW131052   6.053   2.767   6.189
10051SOL    HW231053   6.007   2.637   6.102
10052SOL     OW31054   0.978   4.044   1.657
10052SOL    HW131055   1.008   4.062   1.751
10052SOL    HW231056   1.002   4.122   1.600
10053SOL     OW31057   2.967   6.274   3.981
10053SOL    HW131058   2.930   6.189   3.944
10053SOL    HW231059   3.056   6.257   4.021
10054SOL     OW31060   3.721   5.523   4.151
10054SOL    HW131061   3.709   5.475   4.238
10054SOL    HW231062   3.765   5.612   4.167
10055SOL     OW31063   6.679   3.238   6.176
10055SOL    HW131064   6.747   3.311   6.167
10055SOL    HW231065   6.724   3.155   6.211
10056SOL     OW31066   6.663   5.099   1.754
10056SOL    HW131067   6.634   5.020   1.809
10056SOL    HW231068   6.715   5.162   1.812
10057SOL     OW31069   2.620   2.479   3.767
10057SOL    HW131070   2.608   2.467   3.669
10057SOL    HW231071   2.689   2.414   3.801
10058SOL     OW31072   0.630   5.329   3.525
10058SOL    HW131073   0.712   5.299   3.574
10058SOL    HW231074   0.653   5.350   3.430
10059SOL     OW31075   5.455   0.131   1.006
10059SOL    HW131076   5.371   0.078   1.003
10059SOL    HW231077   5.528   0.080   0.961
10060SOL     OW31078   2.200   2.957   1.822
10060SOL    HW131079   2.293   2.924   1.838
10060SOL    HW231080   2.140   2.922   1.893
10061SOL     OW31081   6.306   1.953   4.943
10061SOL    HW131082   6.316   1.877   4.879
10061SOL    HW231083   6.212   1.985   4.944
10062SOL     OW31084   6.140   6.020   2.689
10062SOL    HW131085   6.117   6.089   2.620
10062SOL    HW231086   6.137   5.929   2.647
10063SOL     OW31087   0.533   3.114   2.473
10063SOL    HW131088   0.599   3.039   2.478
10063SOL    HW231089   0.474   3.112   2.554
10064SOL     OW31090   5.561   6.374   4.653
10064SOL    HW131091   5.601   6.282   4.655
10064SOL    HW231092   5.469   6.371   4.691
10065SOL     OW31093   1.144   6.254   3.222
10065SOL    HW131094   1.115   6.259   3.127
10065SOL    HW231095   1.064   6.237   3.280
10066SOL     OW31096   0.915   0.385   3.817
10066SOL    HW131097   0.851   0.460   3.835
10066SOL    HW231098   1.002   0.422   3.786
10067SOL     OW31099   3.830   5.367   3.303
10067SOL    HW131100   3.838   5.267   3.312
10067SOL    HW231101   3.761   5.388   3.234
10068SOL     OW31102   5.138   3.860   5.186
10068SOL    HW131103   5.137   3.886   5.283
10068SOL    HW231104   5.113   3.763   5.178
10069SOL     OW31105   3.595   0.966   3.675
10069SOL    HW131106   3.612   0.870   3.652
10069SOL    HW231107   3.595   1.021   3.591
10070SOL     OW31108   0.961   6.487   4.811
10070SOL    HW131109   1.054   6.451   4.820
10070SOL    HW231110   0.962   6.570   4.756
10071SOL     OW31111   5.683   5.971   4.844
10071SOL    HW131112   5.650   5.977   4.938
10071SOL    HW231113   5.660   5.881   4.807
10072SOL     OW31114   1.022   6.900   3.444
10072SOL    HW131115   1.062   6.935   3.530
10072SOL    HW231116   1.083   6.830   3.405
10073SOL     OW31117   0.184   5.597   6.364
10073SOL    HW131118   0.173   5.508   6.319
10073SOL    HW231119   0.217   5.664   6.299
10074SOL     OW31120   2.260   6.717   5.782
10074SOL    HW131121   2.179   6.772   5.805
10074SOL    HW231122   2.311   6.763   5.709
10075SOL     OW31123   1.554   2.325   3.925
10075SOL    HW131124   1.554   2.425   3.926
10075SOL    HW231125   1.610   2.291   4.000
10076SOL     OW31126   5.498   0.510   4.944
10076SOL    HW131127   5.418   0.452   4.954
10076SOL    HW231128   5.520   0.522   4.847
10077SOL     OW31129   3.771   1.382   6.523
10077SOL    HW131130   3.861   1.425   6.533
10077SOL    HW231131   3.709   1.444   6.475
10078SOL     OW31132   5.783   6.394   5.876
10078SOL    HW131133   5.729   6.416   5.957
10078SOL    HW231134   5.867   6.447   5.877
10079SOL     OW31135   0.149   4.492   0.168
10079SOL    HW131136   0.101   4.522   0.250
10079SOL    HW231137   0.212   4.418   0.192
10080SOL     OW31138   1.492   3.084   6.240
10080SOL    HW131139   1.450   3.160   6.191
10080SOL    HW231140   1.592   3.088   6.229
10081SOL     OW31141   7.006   0.573   6.566
10081SOL    HW131142   6.985   0.662   6.606
10081SOL    HW231143   0.078   0.575   6.525
10082SOL     OW31144   6.469   1.028   1.433
10082SOL    HW131145   6.493   1.063   1.524
10082SOL    HW231146   6.526   0.949   1.412
10083SOL     OW31147   4.846   1.000   4.473
10083SOL    HW131148   4.894   1.080   4.437
10083SOL    HW231149   4.912   0.936   4.513
10084SOL     OW31150   2.524   1.057   5.859
10084SOL    HW131151   2.569   1.011   5.783
10084SOL    HW231152   2.527   0.998   5.940
10085SOL     OW31153   0.682   5.208   2.911
10085SOL    HW131154   0.757   5.259   2.954
10085SOL    HW231155   0.596   5.256   2.929
10086SOL     OW31156   6.213   3.528   2.170
10086SOL    HW131157   6.187   3.493   2.260
10086SOL    HW231158   6.142   3.503   2.103
10087SOL     OW31159   1.318   0.056   4.074
10087SOL    HW131160   1.292   6.991   4.123
10087SOL    HW231161   1.417   0.055   4.059
10088SOL     OW31162   0.162   0.001   4.432
10088SOL    HW131163   0.165   6.999   4.530
10088SOL    HW231164   0.245   6.983   4.388
10089SOL     OW31165   1.126   3.359   1.941
10089SOL    HW131166   1.178   3.282   1.903
10089SOL    HW231167   1.185   3.440   1.946
10090SOL     OW31168   0.599   4.912   0.619
10090SOL    HW131169   0.663   4.909   0.696
10090SOL    HW231170   0.650   4.915   0.533
10091SOL     OW31171   0.523   2.433   4.091
10091SOL    HW131172   0.614   2.465   4.117
10091SOL    HW231173   0.454   2.492   4.131
10092SOL     OW31174   1.906   3.927   5.158
10092SOL    HW131175   1.995   3.972   5.165
10092SOL    HW231176   1.857   3.936   5.245
10093SOL     OW31177   6.766   4.993   6.505
10093SOL    HW131178   6.810   5.081   6.524
10093SOL    HW231179   6.808   4.923   6.563
10094SOL     OW31180   1.517   1.150   2.038
10094SOL    HW131181   1.563   1.146   1.950
10094SOL    HW231182   1.457   1.071   2.048
10095SOL     OW31183   6.962   1.011   5.957
10095SOL    HW131184   6.954   0.929   5.900
10095SOL    HW231185   0.039   1.027   5.979
10096SOL     OW31186   0.531   4.894   2.398
10096SOL    HW131187   0.434   4.912   2.413
10096SOL    HW231188   0.584   4.933   2.473
10097SOL     OW31189   1.313   1.728   6.837
10097SOL    HW131190   1.314   1.792   6.760
10097SOL    HW231191   1.276   1.774   6.918
10098SOL     OW31192   2.885   4.826   6.527
10098SOL    HW131193   2.792   4.844   6.494
10098SOL    HW231194   2.947   4.895   6.490
10099SOL     OW31195   6.719   4.763   4.691
10099SOL    HW131196   6.626   4.755   4.654
10099SOL    HW231197   6.785   4.731   4.623
10100SOL     OW31198   5.638   1.184   5.434
10100SOL    HW131199   5.538   1.185   5.440
10100SOL    HW231200   5.670   1.090   5.445
10101SOL     OW31201   0.278   4.549   1.869
10101SOL    HW131202   0.333   4.591   1.941
10101SOL    HW231203   0.311   4.581   1.780
10102SOL     OW31204   3.294   1.142   3.031
10102SOL    HW131205   3.250   1.211   3.089
10102SOL    HW231206   3.224   1.090   2.983
10103SOL     OW31207   2.598   1.975   6.835
10103SOL    HW131208   2.664   2.024   6.778
10103SOL    HW231209   2.530   2.039   6.869
10104SOL     OW31210   1.486   6.302   5.007
10104SOL    HW131211   1.540   6.275   5.087
10104SOL    HW231212   1.416   6.368   5.034
10105SOL     OW31213   2.440   0.619   6.290
10105SOL    HW131214   2.458   0.542   6.230
10105SOL    HW231215   2.526   0.654   6.327
10106SOL     OW31216   5.351   5.569   0.434
10106SOL    HW131217   5.304   5.572   0.522
10106SOL    HW231218   5.382   5.660   0.409
10107SOL     OW31219   5.553   1.293   5.728
10107SOL    HW131220   5.627   1.349   5.766
10107SOL    HW231221   5.558   1.293   5.628
10108SOL     OW31222   6.130   6.696   0.417
10108SOL    HW131223   6.184   6.779   0.402
10108SOL    HW231224   6.035   6.712   0.391
10109SOL     OW31225   4.899   5.202   3.194
10109SOL    HW131226   4.977   5.144   3.217
10109SOL    HW231227   4.926   5.298   3.200
10110SOL     OW31228   3.155   0.619   5.509
10110SOL    HW131229   3.232   0.566   5.545
10110SOL    HW231230   3.190   0.695   5.454
10111SOL     OW31231   0.449   2.383   2.916
10111SOL    HW131232   0.477   2.371   3.012
10111SOL    HW231233   0.371   2.324   2.897
10112SOL     OW31234   4.215   4.066   5.866
10112SOL    HW131235   4.183   3.981   5.826
10112SOL    HW231236   4.218   4.137   5.795
10113SOL     OW31237   3.724   6.316   6.788
10113SOL    HW131238   3.733   6.259   6.706
10113SOL    HW231239   3.630   6.313   6.820
10114SOL     OW31240   4.141   1.224   1.182
10114SOL    HW131241   4.130   1.174   1.096
10114SOL    HW231242   4.237   1.225   1.208
10115SOL     OW31243   1.368   2.172   3.756
10115SOL    HW131244   1.343   2.212   3.668
10115SOL    HW231245   1.431   2.233   3.804
10116SOL     OW31246   1.433   0.886   1.368
10116SOL    HW131247   1.342   0.859   1.398
10116SOL    HW231248   1.482   0.930   1.443
10117SOL     OW31249   4.759   0.562   5.688
10117SOL    HW131250   4.736   0.504   5.610
10117SOL    HW231251   4.682   0.562   5.753
10118SOL     OW31252   6.696   5.192   2.196
10118SOL    HW131253   6.791   5.176   2.170
10118SOL    HW231254   6.667   5.124   2.263
10119SOL     OW31255   2.536   0.565   5.716
10119SOL    HW131256   2.632   0.586   5.733
10119SOL    HW231257   2.508   0.488   5.772
10120SOL     OW31258   6.901   2.991   3.518
10120SOL    HW131259   6.888   2.973   3.616
10120SOL    HW231260   6.823   2.957   3.467
10121SOL     OW31261   6.674   4.965   4.861
10121SOL    HW131262   6.679   4.880   4.810
10121SOL    HW231263   6.712   4.952   4.952
10122SOL     OW31264   5.207   2.859   0.123
10122SOL    HW131265   5.164   2.831   0.209
10122SOL    HW231266   5.200   2.785   0.057
10123SOL     OW31267   0.126   6.756   0.145
10123SOL    HW131268   0.174   6.832   0.101
10123SOL    HW231269   0.192   6.699   0.194
10124SOL     OW31270   3.427   4.436   0.908
10124SOL    HW131271   3.365   4.441   0.830
10124SOL    HW231272   3.509   4.384   0.883
10125SOL     OW31273   1.716   6.678   1.356
10125SOL    HW131274   1.816   6.677   1.352
10125SOL    HW231275   1.686   6.760   1.405
10126SOL     OW31276   6.337   4.738   0.555
10126SOL    HW131277   6.277   4.658   0.554
10126SOL    HW231278   6.319   4.793   0.636
10127SOL     OW31279   3.654   4.767   5.324
10127SOL    HW131280   3.601   4.767   5.409
10127SOL    HW231281   3.680   4.860   5.300
10128SOL     OW31282   0.266   1.864   1.053
10128SOL    HW131283   0.242   1.934   0.986
10128SOL    HW231284   0.365   1.862   1.066
10129SOL     OW31285   5.559   2.309   3.022
10129SOL    HW131286   5.517   2.220   3.039
10129SOL    HW231287   5.540   2.370   3.099
10130SOL     OW31288   6.440   5.123   1.557
10130SOL    HW131289   6.367   5.174   1.604
10130SOL    HW231290   6.518   5.112   1.618
10131SOL     OW31291   0.145   0.866   0.674
10131SOL    HW131292   0.161   0.892   0.769
10131SOL    HW231293   0.216   0.907   0.616
10132SOL     OW31294   3.120   0.021   2.753
10132SOL    HW131295   3.130   6.948   2.791
10132SOL    HW231296   3.094   0.015   2.657
10133SOL     OW31297   5.191   5.698   3.379
10133SOL    HW131298   5.212   5.732   3.287
10133SOL    HW231299   5.277   5.680   3.428
10134SOL     OW31300   6.968   1.462   2.553
10134SOL    HW131301   6.937   1.555   2.572
10134SOL    HW231302   0.043   1.451   2.587
10135SOL     OW31303   4.261   5.168   3.415
10135SOL    HW131304   4.209   5.234   3.360
10135SOL    HW231305   4.243   5.075   3.382
10136SOL     OW31306   5.706   6.663   2.534
10136SOL    HW131307   5.661   6.728   2.594
10136SOL    HW231308   5.649   6.646   2.453
10137SOL     OW31309   5.824   5.052   3.811
10137SOL    HW131310   5.869   5.081   3.726
10137SOL    HW231311   5.881   5.077   3.889
10138SOL     OW31312   5.640   2.280   6.301
10138SOL    HW131313   5.634   2.234   6.390
10138SOL    HW231314   5.554   2.266   6.251
10139SOL     OW31315   4.019   3.256   3.318
10139SOL    HW131316   4.037   3.354   3.307
10139SOL    HW231317   4.040   3.229   3.412
10140SOL     OW31318   0.202   4.820   6.302
10140SOL    HW131319   0.118   4.861   6.335
10140SOL    HW231320   0.181   4.736   6.251
10141SOL     OW31321   1.725   0.933   3.600
10141SOL    HW131322   1.695   0.855   3.656
10141SOL    HW231323   1.661   0.945   3.524
10142SOL     OW31324   4.776   5.705   4.715
10142SOL    HW131325   4.851   5.759   4.677
10142SOL    HW231326   4.789   5.693   4.813
10143SOL     OW31327   4.956   6.881   1.481
10143SOL    HW131328   5.015   6.962   1.478
10143SOL    HW231329   4.912   6.869   1.392
10144SOL     OW31330   2.903   5.439   3.682
10144SOL    HW131331   2.911   5.537   3.662
10144SOL    HW231332   2.938   5.387   3.604
10145SOL     OW31333   3.208   6.227   6.013
10145SOL    HW131334   3.159   6.151   6.056
10145SOL    HW231335   3.223   6.207   5.916
10146SOL     OW31336   4.981   5.091   4.189
10146SOL    HW131337   4.995   5.122   4.095
10146SOL    HW231338   4.986   4.991   4.192
10147SOL     OW31339   5.185   5.001   5.014
10147SOL    HW131340   5.115   4.951   5.065
10147SOL    HW231341   5.219   5.077   5.068
10148SOL     OW31342   5.533   5.547   1.161
10148SOL    HW131343   5.518   5.646   1.158
10148SOL    HW231344   5.591   5.520   1.085
10149SOL     OW31345   4.294   2.610   0.870
10149SOL    HW131346   4.293   2.672   0.948
10149SOL    HW231347   4.322   2.659   0.788
10150SOL     OW31348   4.808   4.419   1.241
10150SOL    HW131349   4.782   4.358   1.316
10150SOL    HW231350   4.853   4.500   1.279
10151SOL     OW31351   1.636   0.309   5.547
10151SOL    HW131352   1.685   0.394   5.527
10151SOL    HW231353   1.569   0.292   5.474
10152SOL     OW31354   0.220   5.697   3.436
10152SOL    HW131355   0.219   5.718   3.534
10152SOL    HW231356   0.203   5.599   3.422
10153SOL     OW31357   5.442   6.508   4.406
10153SOL    HW131358   5.509   6.538   4.474
10153SOL    HW231359   5.361   6.566   4.412
10154SOL     OW31360   6.741   5.074   6.038
10154SOL    HW131361   6.705   5.029   6.120
10154SOL    HW231362   6.840   5.085   6.048
10155SOL     OW31363   3.453   1.228   6.478
10155SOL    HW131364   3.380   1.189   6.421
10155SOL    HW231365   3.514   1.154   6.508
10156SOL     OW31366   5.820   0.591   2.119
10156SOL    HW131367   5.774   0.503   2.108
10156SOL    HW231368   5.759   0.654   2.168
10157SOL     OW31369   5.500   0.672   5.929
10157SOL    HW131370   5.576   0.629   5.881
10157SOL    HW231371   5.522   0.680   6.026
10158SOL     OW31372   4.227   3.501   6.980
10158SOL    HW131373   4.282   3.544   0.034
10158SOL    HW231374   4.279   3.426   6.940
10159SOL     OW31375   1.540   1.617   5.865
10159SOL    HW131376   1.515   1.711   5.887
10159SOL    HW231377   1.459   1.565   5.839
10160SOL     OW31378   0.387   6.349   3.738
10160SOL    HW131379   0.360   6.257   3.712
10160SOL    HW231380   0.413   6.401   3.656
10161SOL     OW31381   3.069   5.533   6.056
10161SOL    HW131382   3.128   5.498   5.983
10161SOL    HW231383   2.994   5.468   6.072
10162SOL     OW31384   3.216   1.816   0.013
10162SOL    HW131385   3.235   1.914   0.018
10162SOL    HW231386   3.126   1.797   0.051
10163SOL     OW31387   5.887   3.255   5.655
10163SOL    HW131388   5.799   3.292   5.686
10163SOL    HW231389   5.877   3.157   5.637
10164SOL     OW31390   7.016   2.658   4.899
10164SOL    HW131391   7.013   2.758   4.893
10164SOL    HW231392   0.093   2.628   4.898
10165SOL     OW31393   0.173   1.737   3.710
10165SOL    HW131394   0.249   1.685   3.670
10165SOL    HW231395   0.088   1.712   3.664
10166SOL     OW31396   1.818   0.682   2.122
10166SOL    HW131397   1.779   0.607   2.070
10166SOL    HW231398   1.828   0.655   2.218
10167SOL     OW31399   5.001   0.366   0.183
10167SOL    HW131400   4.913   0.373   0.231
10167SOL    HW231401   5.024   0.455   0.142
10168SOL     OW31402   6.789   4.492   4.201
10168SOL    HW131403   6.714   4.426   4.208
10168SOL    HW231404   6.783   4.540   4.113
10169SOL     OW31405   6.290   4.149   4.133
10169SOL    HW131406   6.235   4.089   4.191
10169SOL    HW231407   6.234   4.225   4.100
10170SOL     OW31408   2.011   4.156   4.871
10170SOL    HW131409   2.066   4.081   4.833
10170SOL    HW231410   2.049   4.184   4.959
10171SOL     OW31411   5.950   4.291   6.118
10171SOL    HW131412   5.972   4.229   6.043
10171SOL    HW231413   5.876   4.252   6.174
10172SOL     OW31414   5.177   0.866   2.948
10172SOL    HW131415   5.124   0.799   2.896
10172SOL    HW231416   5.241   0.912   2.887
10173SOL     OW31417   2.248   1.660   2.129
10173SOL    HW131418   2.233   1.561   2.130
10173SOL    HW231419   2.345   1.679   2.117
10174SOL     OW31420   7.014   4.416   2.137
10174SOL    HW131421   6.930   4.387   2.182
10174SOL    HW231422   0.074   4.392   2.194
10175SOL     OW31423   6.230   2.732   5.757
10175SOL    HW131424   6.232   2.828   5.730
10175SOL    HW231425   6.204   2.675   5.678
10176SOL     OW31426   1.922   4.263   6.926
10176SOL    HW131427   2.018   4.269   6.953
10176SOL    HW231428   1.878   4.187   6.974
10177SOL     OW31429   2.082   6.562   6.976
10177SOL    HW131430   2.108   6.595   0.047
10177SOL    HW231431   2.011   6.492   6.985
10178SOL     OW31432   5.492   2.460   4.846
10178SOL    HW131433   5.445   2.520   4.911
10178SOL    HW231434   5.589   2.485   4.843
10179SOL     OW31435   1.137   3.029   6.484
10179SOL    HW131436   1.204   2.987   6.423
10179SOL    HW231437   1.161   3.125   6.500
10180SOL     OW31438   2.851   5.976   5.783
10180SOL    HW131439   2.771   5.938   5.735
10180SOL    HW231440   2.905   5.901   5.821
10181SOL     OW31441   5.446   3.536   1.421
10181SOL    HW131442   5.403   3.603   1.482
10181SOL    HW231443   5.382   3.460   1.405
10182SOL     OW31444   5.826   1.290   0.954
10182SOL    HW131445   5.911   1.267   0.906
10182SOL    HW231446   5.784   1.370   0.910
10183SOL     OW31447   1.578   1.624   6.482
10183SOL    HW131448   1.622   1.537   6.504
10183SOL    HW231449   1.550   1.669   6.567
10184SOL     OW31450   4.017   1.231   5.719
10184SOL    HW131451   4.028   1.157   5.652
10184SOL    HW231452   3.939   1.211   5.778
10185SOL     OW31453   5.313   6.744   0.962
10185SOL    HW131454   5.408   6.719   0.942
10185SOL    HW231455   5.263   6.662   0.990
10186SOL     OW31456   4.433   1.805   3.052
10186SOL    HW131457   4.388   1.717   3.070
10186SOL    HW231458   4.365   1.874   3.028
10187SOL     OW31459   0.815   2.198   1.620
10187SOL    HW131460   0.731   2.144   1.620
10187SOL    HW231461   0.849   2.208   1.713
10188SOL     OW31462   4.233   6.018   1.060
10188SOL    HW131463   4.152   6.057   1.017
10188SOL    HW231464   4.308   6.083   1.056
10189SOL     OW31465   1.333   6.664   5.502
10189SOL    HW131466   1.379   6.587   5.460
10189SOL    HW231467   1.239   6.669   5.468
10190SOL     OW31468   5.140   2.577   0.014
10190SOL    HW131469   5.192   2.524   6.966
10190SOL    HW231470   5.062   2.523   0.045
10191SOL     OW31471   6.459   4.334   0.406
10191SOL    HW131472   6.478   4.397   0.481
10191SOL    HW231473   6.369   4.353   0.367
10192SOL     OW31474   3.259   0.792   5.770
10192SOL    HW131475   3.162   0.796   5.747
10192SOL    HW231476   3.300   0.711   5.728
10193SOL     OW31477   5.054   3.593   0.447
10193SOL    HW131478   4.991   3.614   0.373
10193SOL    HW231479   5.002   3.564   0.528
10194SOL     OW31480   5.474   3.696   5.201
10194SOL    HW131481   5.546   3.693   5.271
10194SOL    HW231482   5.452   3.603   5.173
10195SOL     OW31483   6.854   4.279   1.833
10195SOL    HW131484   6.854   4.205   1.766
10195SOL    HW231485   6.947   4.313   1.845
10196SOL     OW31486   0.601   1.859   4.629
10196SOL    HW131487   0.594   1.838   4.531
10196SOL    HW231488   0.658   1.941   4.641
10197SOL     OW31489   5.721   0.558   5.824
10197SOL    HW131490   5.746   0.563   5.728
10197SOL    HW231491   5.714   0.462   5.853
10198SOL     OW31492   3.873   6.763   2.855
10198SOL    HW131493   3.803   6.834   2.843
10198SOL    HW231494   3.867   6.725   2.947
10199SOL     OW31495   1.450   2.466   5.422
10199SOL    HW131496   1.523   2.399   5.429
10199SOL    HW231497   1.472   2.532   5.350
10200SOL     OW31498   5.909   3.341   1.371
10200SOL    HW131499   5.886   3.284   1.451
10200SOL    HW231500   6.001   3.319   1.340
10201SOL     OW31501   1.378   3.069   0.598
10201SOL    HW131502   1.385   3.154   0.545
10201SOL    HW231503   1.469   3.027   0.605
10202SOL     OW31504   3.522   0.180   5.223
10202SOL    HW131505   3.618   0.170   5.251
10202SOL    HW231506   3.502   0.276   5.204
10203SOL     OW31507   6.503   2.289   4.472
10203SOL    HW131508   6.554   2.255   4.392
10203SOL    HW231509   6.424   2.341   4.441
10204SOL     OW31510   5.355   6.149   6.715
10204SOL    HW131511   5.415   6.181   6.789
10204SOL    HW231512   5.273   6.109   6.754
10205SOL     OW31513   0.779   0.893   6.435
10205SOL    HW131514   0.837   0.884   6.353
10205SOL    HW231515   0.796   0.982   6.478
10206SOL     OW31516   1.393   0.996   5.323
10206SOL    HW131517   1.339   0.912   5.312
10206SOL    HW231518   1.356   1.067   5.264
10207SOL     OW31519   1.370   1.883   5.260
10207SOL    HW131520   1.331   1.800   5.220
10207SOL    HW231521   1.426   1.859   5.339
10208SOL     OW31522   6.780   4.782   5.779
10208SOL    HW131523   6.855   4.793   5.844
10208SOL    HW231524   6.716   4.858   5.789
10209SOL     OW31525   6.679   6.606   6.115
10209SOL    HW131526   6.647   6.512   6.102
10209SOL    HW231527   6.741   6.631   6.041
10210SOL     OW31528   3.508   6.469   2.145
10210SOL    HW131529   3.540   6.375   2.139
10210SOL    HW231530   3.520   6.515   2.057
10211SOL     OW31531   5.148   5.887   5.264
10211SOL    HW131532   5.109   5.960   5.208
10211SOL    HW231533   5.217   5.837   5.211
10212SOL     OW31534   0.591   0.331   6.435
10212SOL    HW131535   0.500   0.355   6.469
10212SOL    HW231536   0.657   0.401   6.461
10213SOL     OW31537   5.786   1.567   0.766
10213SOL    HW131538   5.772   1.643   0.703
10213SOL    HW231539   5.838   1.495   0.721
10214SOL     OW31540   0.809   2.360   0.804
10214SOL    HW131541   0.861   2.322   0.881
10214SOL    HW231542   0.864   2.356   0.721
10215SOL     OW31543   3.110   3.381   2.026
10215SOL    HW131544   3.178   3.310   2.013
10215SOL    HW231545   3.018   3.342   2.015
10216SOL     OW31546   6.278   6.649   2.989
10216SOL    HW131547   6.342   6.580   3.022
10216SOL    HW231548   6.260   6.634   2.892
10217SOL     OW31549   3.409   0.817   3.965
10217SOL    HW131550   3.505   0.816   3.937
10217SOL    HW231551   3.369   0.907   3.947
10218SOL     OW31552   1.145   2.761   2.613
10218SOL    HW131553   1.095   2.736   2.696
10218SOL    HW231554   1.215   2.829   2.636
10219SOL     OW31555   6.719   6.939   2.891
10219SOL    HW131556   6.793   6.907   2.832
10219SOL    HW231557   6.718   0.020   2.892
10220SOL     OW31558   3.563   2.607   1.281
10220SOL    HW131559   3.644   2.617   1.223
10220SOL    HW231560   3.495   2.676   1.254
10221SOL     OW31561   0.711   5.568   3.808
10221SOL    HW131562   0.632   5.572   3.748
10221SOL    HW231563   0.723   5.656   3.854
10222SOL     OW31564   2.874   3.491   4.118
10222SOL    HW131565   2.843   3.476   4.212
10222SOL    HW231566   2.936   3.569   4.115
10223SOL     OW31567   0.513   5.947   1.907
10223SOL    HW131568   0.552   5.931   1.998
10223SOL    HW231569   0.586   5.975   1.844
10224SOL     OW31570   5.642   4.128   3.371
10224SOL    HW131571   5.726   4.180   3.369
10224SOL    HW231572   5.566   4.184   3.338
10225SOL     OW31573   2.385   3.792   5.831
10225SOL    HW131574   2.328   3.857   5.782
10225SOL    HW231575   2.386   3.814   5.928
10226SOL     OW31576   4.953   2.872   7.001
10226SOL    HW131577   4.942   2.774   6.989
10226SOL    HW231578   4.914   2.900   0.070
10227SOL     OW31579   5.360   3.900   1.182
10227SOL    HW131580   5.431   3.902   1.252
10227SOL    HW231581   5.392   3.948   1.100
10228SOL     OW31582   5.786   0.653   1.082
10228SOL    HW131583   5.818   0.747   1.071
10228SOL    HW231584   5.714   0.635   1.015
10229SOL     OW31585   6.417   3.299   4.843
10229SOL    HW131586   6.357   3.376   4.821
10229SOL    HW231587   6.494   3.298   4.780
10230SOL     OW31588   0.175   6.211   2.461
10230SOL    HW131589   0.231   6.218   2.544
10230SOL    HW231590   0.183   6.294   2.407
10231SOL     OW31591   1.272   5.100   2.887
10231SOL    HW131592   1.213   5.067   2.962
10231SOL    HW231593   1.219   5.161   2.828
10232SOL     OW31594   4.832   4.763   3.716
10232SOL    HW131595   4.867   4.672   3.695
10232SOL    HW231596   4.742   4.755   3.758
10233SOL     OW31597   3.641   4.042   6.242
10233SOL    HW131598   3.547   4.063   6.213
10233SOL    HW231599   3.686   4.126   6.274
10234SOL     OW31600   0.443   1.165   2.082
10234SOL    HW131601   0.467   1.068   2.082
10234SOL    HW231602   0.523   1.219   2.056
10235SOL     OW31603   1.498   0.836   2.787
10235SOL    HW131604   1.514   0.821   2.884
10235SOL    HW231605   1.533   0.926   2.761
10236SOL     OW31606   2.724   6.422   1.938
10236SOL    HW131607   2.787   6.384   1.871
10236SOL    HW231608   2.764   6.504   1.979
10237SOL     OW31609   0.418   3.148   5.741
10237SOL    HW131610   0.432   3.150   5.642
10237SOL    HW231611   0.469   3.223   5.784
10238SOL     OW31612   3.553   6.973   1.874
10238SOL    HW131613   3.646   6.947   1.847
10238SOL    HW231614   3.552   0.050   1.901
10239SOL     OW31615   0.844   2.468   4.010
10239SOL    HW131616   0.896   2.383   4.013
10239SOL    HW231617   0.792   2.472   3.924
10240SOL     OW31618   2.391   6.496   0.462
10240SOL    HW131619   2.487   6.523   0.469
10240SOL    HW231620   2.367   6.481   0.366
10241SOL     OW31621   4.035   2.469   1.568
10241SOL    HW131622   3.965   2.526   1.524
10241SOL    HW231623   3.993   2.416   1.642
10242SOL     OW31624   6.383   2.821   6.711
10242SOL    HW131625   6.346   2.846   6.622
10242SOL    HW231626   6.447   2.892   6.742
10243SOL     OW31627   2.757   5.148   1.269
10243SOL    HW131628   2.720   5.106   1.352
10243SOL    HW231629   2.811   5.080   1.220
10244SOL     OW31630   2.989   4.242   1.389
10244SOL    HW131631   3.043   4.326   1.393
10244SOL    HW231632   2.908   4.252   1.446
10245SOL     OW31633   4.893   3.496   0.656
10245SOL    HW131634   4.940   3.417   0.695
10245SOL    HW231635   4.795   3.489   0.675
10246SOL     OW31636   3.386   2.933   4.102
10246SOL    HW131637   3.464   2.954   4.162
10246SOL    HW231638   3.303   2.924   4.157
10247SOL     OW31639   0.384   2.945   4.365
10247SOL    HW131640   0.351   2.912   4.277
10247SOL    HW231641   0.368   2.875   4.435
10248SOL     OW31642   1.335   0.293   3.739
10248SOL    HW131643   1.416   0.295   3.680
10248SOL    HW231644   1.290   0.204   3.730
10249SOL     OW31645   2.894   5.382   6.331
10249SOL    HW131646   2.861   5.376   6.236
10249SOL    HW231647   2.976   5.439   6.334
10250SOL     OW31648   4.317   2.367   1.054
10250SOL    HW131649   4.310   2.426   0.974
10250SOL    HW231650   4.234   2.377   1.110
10251SOL     OW31651   1.677   0.332   4.248
10251SOL    HW131652   1.582   0.325   4.218
10251SOL    HW231653   1.681   0.331   4.348
10252SOL     OW31654   5.553   4.306   6.450
10252SOL    HW131655   5.652   4.303   6.455
10252SOL    HW231656   5.524   4.308   6.355
10253SOL     OW31657   3.391   6.254   6.527
10253SOL    HW131658   3.323   6.267   6.599
10253SOL    HW231659   3.383   6.327   6.460
10254SOL     OW31660   5.820   1.354   5.512
10254SOL    HW131661   5.757   1.281   5.486
10254SOL    HW231662   5.790   1.440   5.470
10255SOL     OW31663   4.068   4.533   1.561
10255SOL    HW131664   4.165   4.538   1.584
10255SOL    HW231665   4.030   4.448   1.596
10256SOL     OW31666   3.752   1.466   3.359
10256SOL    HW131667   3.805   1.420   3.288
10256SOL    HW231668   3.654   1.459   3.338
10257SOL     OW31669   4.027   5.516   2.995
10257SOL    HW131670   4.003   5.565   3.079
10257SOL    HW231671   4.079   5.577   2.936
10258SOL     OW31672   1.810   1.174   1.891
10258SOL    HW131673   1.826   1.103   1.961
10258SOL    HW231674   1.850   1.260   1.922
10259SOL     OW31675   1.645   4.592   4.004
10259SOL    HW131676   1.710   4.572   4.077
10259SOL    HW231677   1.607   4.507   3.968
10260SOL     OW31678   1.134   0.509   3.707
10260SOL    HW131679   1.208   0.448   3.680
10260SOL    HW231680   1.087   0.544   3.626
10261SOL     OW31681   6.846   3.611   1.132
10261SOL    HW131682   6.846   3.645   1.226
10261SOL    HW231683   6.917   3.541   1.122
10262SOL     OW31684   4.494   1.670   0.990
10262SOL    HW131685   4.412   1.613   0.979
10262SOL    HW231686   4.473   1.748   1.049
10263SOL     OW31687   6.109   0.776   2.117
10263SOL    HW131688   6.102   0.843   2.190
10263SOL    HW231689   6.036   0.709   2.125
10264SOL     OW31690   6.708   6.284   6.561
10264SOL    HW131691   6.669   6.211   6.505
10264SOL    HW231692   6.722   6.251   6.655
10265SOL     OW31693   1.954   1.816   1.046
10265SOL    HW131694   1.892   1.748   1.008
10265SOL    HW231695   2.042   1.774   1.068
10266SOL     OW31696   2.573   3.310   1.726
10266SOL    HW131697   2.496   3.352   1.774
10266SOL    HW231698   2.629   3.381   1.684
10267SOL     OW31699   5.654   0.813   1.476
10267SOL    HW131700   5.702   0.886   1.523
10267SOL    HW231701   5.718   0.739   1.454
10268SOL     OW31702   3.841   6.935   1.376
10268SOL    HW131703   3.786   6.869   1.427
10268SOL    HW231704   3.789   6.969   1.298
10269SOL     OW31705   2.891   2.233   0.504
10269SOL    HW131706   2.815   2.172   0.485
10269SOL    HW231707   2.916   2.226   0.601
10270SOL     OW31708   3.057   0.338   2.654
10270SOL    HW131709   3.060   0.399   2.574
10270SOL    HW231710   3.097   0.250   2.629
10271SOL     OW31711   1.329   1.929   6.650
10271SOL    HW131712   1.409   1.984   6.629
10271SOL    HW231713   1.253   1.988   6.676
10272SOL     OW31714   6.245   0.292   4.630
10272SOL    HW131715   6.314   0.293   4.702
10272SOL    HW231716   6.157   0.323   4.667
10273SOL     OW31717   2.018   5.556   3.210
10273SOL    HW131718   2.054   5.601   3.128
10273SOL    HW231719   1.985   5.464   3.186
10274SOL     OW31720   0.959   5.069   5.421
10274SOL    HW131721   1.008   5.155   5.435
10274SOL    HW231722   0.861   5.084   5.437
10275SOL     OW31723   6.984   0.145   2.273
10275SOL    HW131724   6.914   0.073   2.279
10275SOL    HW231725   7.002   0.166   2.177
10276SOL     OW31726   3.331   5.356   5.392
10276SOL    HW131727   3.303   5.304   5.312
10276SOL    HW231728   3.428   5.341   5.410
10277SOL     OW31729   0.099   6.343   4.341
10277SOL    HW131730   0.194   6.314   4.345
10277SOL    HW231731   0.058   6.337   4.433
10278SOL     OW31732   6.806   0.631   4.961
10278SOL    HW131733   6.768   0.595   5.046
10278SOL    HW231734   6.893   0.676   4.980
10279SOL     OW31735   1.919   5.976   4.236
10279SOL    HW131736   1.957   5.984   4.328
10279SOL    HW231737   1.959   6.047   4.177
10280SOL     OW31738   6.484   4.094   0.682
10280SOL    HW131739   6.412   4.075   0.615
10280SOL    HW231740   6.519   4.186   0.667
10281SOL     OW31741   0.010   1.767   3.150
10281SOL    HW131742   6.954   1.768   3.084
10281SOL    HW231743   0.068   1.847   3.135
10282SOL     OW31744   4.877   3.126   3.377
10282SOL    HW131745   4.890   3.066   3.297
10282SOL    HW231746   4.841   3.214   3.346
10283SOL     OW31747   0.554   2.864   1.098
10283SOL    HW131748   0.513   2.935   1.155
10283SOL    HW231749   0.615   2.808   1.153
10284SOL     OW31750   0.013   3.359   3.777
10284SOL    HW131751   0.086   3.423   3.801
10284SOL    HW231752   6.943   3.405   3.787
10285SOL     OW31753   5.823   5.760   5.512
10285SOL    HW131754   5.826   5.708   5.597
10285SOL    HW231755   5.787   5.851   5.530
10286SOL     OW31756   2.750   1.159   3.344
10286SOL    HW131757   2.762   1.215   3.426
10286SOL    HW231758   2.679   1.198   3.286
10287SOL     OW31759   2.479   5.653   2.734
10287SOL    HW131760   2.476   5.600   2.819
10287SOL    HW231761   2.526   5.600   2.664
10288SOL     OW31762   3.613   6.662   5.534
10288SOL    HW131763   3.598   6.619   5.445
10288SOL    HW231764   3.645   6.756   5.520
10289SOL     OW31765   3.076   5.438   6.820
10289SOL    HW131766   3.108   5.359   6.767
10289SOL    HW231767   3.116   5.436   6.911
10290SOL     OW31768   3.269   2.804   1.955
10290SOL    HW131769   3.367   2.783   1.959
10290SOL    HW231770   3.230   2.767   1.871
10291SOL     OW31771   2.030   1.839   2.106
10291SOL    HW131772   1.940   1.801   2.083
10291SOL    HW231773   2.098   1.765   2.107
10292SOL     OW31774   6.209   6.766   6.549
10292SOL    HW131775   6.203   6.813   6.462
10292SOL    HW231776   6.305   6.747   6.570
10293SOL     OW31777   1.176   4.122   4.411
10293SOL    HW131778   1.172   4.116   4.311
10293SOL    HW231779   1.269   4.099   4.441
10294SOL     OW31780   3.624   1.463   2.293
10294SOL    HW131781   3.641   1.551   2.337
10294SOL    HW231782   3.710   1.414   2.281
10295SOL     OW31783   0.720   2.151   6.981
10295SOL    HW131784   0.686   2.209   0.037
10295SOL    HW231785   0.753   2.209   6.906
10296SOL     OW31786   5.700   1.008   5.712
10296SOL    HW131787   5.776   0.979   5.770
10296SOL    HW231788   5.639   1.068   5.765
10297SOL     OW31789   3.819   1.180   6.707
10297SOL    HW131790   3.761   1.247   6.661
10297SOL    HW231791   3.769   1.093   6.714
10298SOL     OW31792   0.552   2.332   2.455
10298SOL    HW131793   0.529   2.270   2.380
10298SOL    HW231794   0.649   2.358   2.448
10299SOL     OW31795   4.238   6.014   3.107
10299SOL    HW131796   4.160   6.073   3.126
10299SOL    HW231797   4.283   6.044   3.023
10300SOL     OW31798   0.812   3.797   1.734
10300SOL    HW131799   0.884   3.843   1.682
10300SOL    HW231800   0.831   3.699   1.738
10301SOL     OW31801   4.263   0.208   6.105
10301SOL    HW131802   4.234   0.119   6.141
10301SOL    HW231803   4.349   0.235   6.148
10302SOL     OW31804   2.744   5.966   5.268
10302SOL    HW131805   2.738   6.041   5.335
10302SOL    HW231806   2.811   5.899   5.300
10303SOL     OW31807   0.771   6.035   4.829
10303SOL    HW131808   0.672   6.023   4.829
10303SOL    HW231809   0.813   5.968   4.890
10304SOL     OW31810   6.143   6.452   0.559
10304SOL    HW131811   6.107   6.391   0.488
10304SOL    HW231812   6.172   6.538   0.516
10305SOL     OW31813   2.911   4.180   6.001
10305SOL    HW131814   2.834   4.135   6.047
10305SOL    HW231815   2.954   4.115   5.937
10306SOL     OW31816   4.533   0.645   1.121
10306SOL    HW131817   4.554   0.567   1.063
10306SOL    HW231818   4.477   0.710   1.071
10307SOL     OW31819   2.093   0.368   4.749
10307SOL    HW131820   2.118   0.354   4.653
10307SOL    HW231821   2.159   0.322   4.808
10308SOL     OW31822   2.612   5.097   2.186
10308SOL    HW131823   2.614   5.197   2.194
10308SOL    HW231824   2.705   5.062   2.175
10309SOL     OW31825   0.090   1.652   4.900
10309SOL    HW131826   0.084   1.715   4.977
10309SOL    HW231827   0.178   1.665   4.853
10310SOL     OW31828   2.254   3.980   5.685
10310SOL    HW131829   2.217   4.067   5.715
10310SOL    HW231830   2.337   3.995   5.632
10311SOL     OW31831   4.673   5.762   0.440
10311SOL    HW131832   4.758   5.742   0.391
10311SOL    HW231833   4.679   5.725   0.532
10312SOL     OW31834   4.342   0.835   2.249
10312SOL    HW131835   4.380   0.900   2.184
10312SOL    HW231836   4.243   0.831   2.238
10313SOL     OW31837   4.389   0.106   3.176
10313SOL    HW131838   4.467   0.069   3.125
10313SOL    HW231839   4.305   0.063   3.144
10314SOL     OW31840   0.664   0.430   1.344
10314SOL    HW131841   0.616   0.518   1.335
10314SOL    HW231842   0.610   0.369   1.402
10315SOL     OW31843   5.535   5.558   3.634
10315SOL    HW131844   5.627   5.580   3.667
10315SOL    HW231845   5.489   5.499   3.701
10316SOL     OW31846   0.425   1.927   6.708
10316SOL    HW131847   0.381   1.838   6.720
10316SOL    HW231848   0.470   1.953   6.793
10317SOL     OW31849   3.874   5.350   5.548
10317SOL    HW131850   3.893   5.275   5.612
10317SOL    HW231851   3.831   5.425   5.597
10318SOL     OW31852   6.331   6.911   0.266
10318SOL    HW131853   6.388   6.875   0.339
10318SOL    HW231854   6.388   6.942   0.190
10319SOL     OW31855   0.479   4.707   3.973
10319SOL    HW131856   0.484   4.615   4.011
10319SOL    HW231857   0.570   4.748   3.974
10320SOL     OW31858   0.438   6.898   3.855
10320SOL    HW131859   0.496   6.953   3.794
10320SOL    HW231860   0.422   6.948   3.940
10321SOL     OW31861   5.087   2.451   2.121
10321SOL    HW131862   5.177   2.464   2.080
10321SOL    HW231863   5.057   2.357   2.106
10322SOL     OW31864   4.624   4.311   4.746
10322SOL    HW131865   4.676   4.225   4.740
10322SOL    HW231866   4.602   4.343   4.654
10323SOL     OW31867   0.235   4.093   5.153
10323SOL    HW131868   0.243   4.191   5.135
10323SOL    HW231869   0.223   4.044   5.066
10324SOL     OW31870   3.287   3.194   1.934
10324SOL    HW131871   3.384   3.184   1.955
10324SOL    HW231872   3.272   3.186   1.836
10325SOL     OW31873   6.767   5.806   3.159
10325SOL    HW131874   6.794   5.803   3.063
10325SOL    HW231875   6.738   5.899   3.182
10326SOL     OW31876   5.628   3.440   7.002
10326SOL    HW131877   5.663   3.420   6.911
10326SOL    HW231878   5.667   3.375   0.049
10327SOL     OW31879   2.714   4.441   1.323
10327SOL    HW131880   2.801   4.468   1.283
10327SOL    HW231881   2.720   4.444   1.423
10328SOL     OW31882   6.007   2.542   1.869
10328SOL    HW131883   5.943   2.529   1.945
10328SOL    HW231884   5.960   2.524   1.783
10329SOL     OW31885   3.697   1.684   2.799
10329SOL    HW131886   3.709   1.588   2.774
10329SOL    HW231887   3.758   1.740   2.743
10330SOL     OW31888   3.980   1.042   1.618
10330SOL    HW131889   4.063   1.077   1.574
10330SOL    HW231890   3.986   1.060   1.717
10331SOL     OW31891   6.136   5.375   6.440
10331SOL    HW131892   6.044   5.406   6.462
10331SOL    HW231893   6.163   5.303   6.504
10332SOL     OW31894   1.141   1.237   6.760
10332SOL    HW131895   1.053   1.197   6.786
10332SOL    HW231896   1.180   1.286   6.838
10333SOL     OW31897   0.677   5.058   4.853
10333SOL    HW131898   0.580   5.062   4.830
10333SOL    HW231899   0.719   4.978   4.809
10334SOL     OW31900   3.642   6.496   3.488
10334SOL    HW131901   3.625   6.568   3.420
10334SOL    HW231902   3.556   6.448   3.507
10335SOL     OW31903   0.310   2.188   5.342
10335SOL    HW131904   0.274   2.237   5.263
10335SOL    HW231905   0.295   2.241   5.425
10336SOL     OW31906   5.146   6.896   3.588
10336SOL    HW131907   5.152   6.979   3.531
10336SOL    HW231908   5.117   6.819   3.531
10337SOL     OW31909   6.487   5.330   6.673
10337SOL    HW131910   6.391   5.305   6.657
10337SOL    HW231911   6.537   5.323   6.587
10338SOL     OW31912   1.294   6.318   1.817
10338SOL    HW131913   1.284   6.377   1.897
10338SOL    HW231914   1.346   6.236   1.841
10339SOL     OW31915   6.071   2.070   5.590
10339SOL    HW131916   6.037   2.164   5.584
10339SOL    HW231917   6.164   2.070   5.626
10340SOL     OW31918   2.401   3.144   6.466
10340SOL    HW131919   2.398   3.237   6.504
10340SOL    HW231920   2.331   3.135   6.396
10341SOL     OW31921   2.280   2.808   2.896
10341SOL    HW131922   2.273   2.753   2.980
10341SOL    HW231923   2.261   2.904   2.917
10342SOL     OW31924   1.203   1.258   3.229
10342SOL    HW131925   1.227   1.309   3.147
10342SOL    HW231926   1.272   1.187   3.246
10343SOL     OW31927   2.732   5.184   1.726
10343SOL    HW131928   2.748   5.197   1.824
10343SOL    HW231929   2.717   5.273   1.683
10344SOL     OW31930   4.201   5.584   5.818
10344SOL    HW131931   4.118   5.620   5.862
10344SOL    HW231932   4.280   5.637   5.848
10345SOL     OW31933   1.786   3.613   4.287
10345SOL    HW131934   1.707   3.662   4.251
10345SOL    HW231935   1.790   3.626   4.386
10346SOL     OW31936   6.814   5.744   0.639
10346SOL    HW131937   6.753   5.667   0.622
10346SOL    HW231938   6.869   5.725   0.720
10347SOL     OW31939   5.156   1.584   3.778
10347SOL    HW131940   5.105   1.668   3.797
10347SOL    HW231941   5.091   1.510   3.759
10348SOL     OW31942   6.781   4.002   0.680
10348SOL    HW131943   6.730   4.067   0.624
10348SOL    HW231944   6.725   3.972   0.757
10349SOL     OW31945   0.939   6.357   6.530
10349SOL    HW131946   0.897   6.438   6.570
10349SOL    HW231947   0.952   6.371   6.432
10350SOL     OW31948   3.288   6.985   6.002
10350SOL    HW131949   3.361   0.016   5.956
10350SOL    HW231950   3.327   6.932   6.078
10351SOL     OW31951   4.432   4.980   5.993
10351SOL    HW131952   4.435   4.896   6.049
10351SOL    HW231953   4.391   4.959   5.904
10352SOL     OW31954   3.549   3.467   6.059
10352SOL    HW131955   3.618   3.507   6.120
10352SOL    HW231956   3.481   3.537   6.037
10353SOL     OW31957   0.254   2.373   4.897
10353SOL    HW131958   0.345   2.342   4.924
10353SOL    HW231959   0.220   2.316   4.822
10354SOL     OW31960   5.572   1.873   1.924
10354SOL    HW131961   5.518   1.903   2.003
10354SOL    HW231962   5.633   1.799   1.952
10355SOL     OW31963   2.147   4.949   2.282
10355SOL    HW131964   2.196   4.920   2.200
10355SOL    HW231965   2.210   4.995   2.344
10356SOL     OW31966   6.950   3.411   4.423
10356SOL    HW131967   6.891   3.466   4.364
10356SOL    HW231968   6.936   3.314   4.404
10357SOL     OW31969   2.447   1.591   0.637
10357SOL    HW131970   2.439   1.528   0.714
10357SOL    HW231971   2.483   1.543   0.558
10358SOL     OW31972   0.466   1.583   1.968
10358SOL    HW131973   0.450   1.632   2.053
10358SOL    HW231974   0.550   1.530   1.975
10359SOL     OW31975   0.832   1.433   1.337
10359SOL    HW131976   0.911   1.480   1.376
10359SOL    HW231977   0.759   1.498   1.320
10360SOL     OW31978   6.072   5.852   3.808
10360SOL    HW131979   6.166   5.882   3.800
10360SOL    HW231980   6.031   5.889   3.891
10361SOL     OW31981   1.836   4.589   1.286
10361SOL    HW131982   1.790   4.501   1.282
10361SOL    HW231983   1.778   4.659   1.244
10362SOL     OW31984   1.581   5.163   4.080
10362SOL    HW131985   1.556   5.087   4.140
10362SOL    HW231986   1.655   5.216   4.123
10363SOL     OW31987   5.443   0.653   4.052
10363SOL    HW131988   5.477   0.746   4.065
10363SOL    HW231989   5.483   0.614   3.969
10364SOL     OW31990   1.012   4.560   1.131
10364SOL    HW131991   0.971   4.529   1.046
10364SOL    HW231992   1.025   4.659   1.128
10365SOL     OW31993   4.234   5.879   6.832
10365SOL    HW131994   4.165   5.904   6.900
10365SOL    HW231995   4.315   5.843   6.878
10366SOL     OW31996   3.411   6.709   3.879
10366SOL    HW131997   3.411   6.618   3.838
10366SOL    HW231998   3.489   6.762   3.844
10367SOL     OW31999   6.812   2.288   3.437
10367SOL    HW132000   6.729   2.287   3.382
10367SOL    HW232001   6.792   2.324   3.528
10368SOL     OW32002   2.685   0.178   1.270
10368SOL    HW132003   2.595   0.214   1.247
10368SOL    HW232004   2.744   0.182   1.189
10369SOL     OW32005   4.034   3.004   0.324
10369SOL    HW132006   4.038   2.937   0.398
10369SOL    HW232007   3.939   3.016   0.295
10370SOL     OW32008   3.584   0.541   4.908
10370SOL    HW132009   3.550   0.633   4.924
10370SOL    HW232010   3.598   0.527   4.810
10371SOL     OW32011   4.986   6.556   6.024
10371SOL    HW132012   4.949   6.485   6.084
10371SOL    HW232013   4.922   6.633   6.020
10372SOL     OW32014   0.817   0.492   3.073
10372SOL    HW132015   0.852   0.448   2.990
10372SOL    HW232016   0.886   0.486   3.145
10373SOL     OW32017   1.052   5.751   4.836
10373SOL    HW132018   1.107   5.676   4.800
10373SOL    HW232019   1.113   5.825   4.867
10374SOL     OW32020   2.712   2.323   4.203
10374SOL    HW132021   2.719   2.346   4.300
10374SOL    HW232022   2.701   2.407   4.149
10375SOL     OW32023   6.257   2.500   0.317
10375SOL    HW132024   6.353   2.481   0.339
10375SOL    HW232025   6.207   2.519   0.401
10376SOL     OW32026   6.918   1.372   3.629
10376SOL    HW132027   6.970   1.344   3.549
10376SOL    HW232028   6.915   1.297   3.695
10377SOL     OW32029   1.059   6.742   4.670
10377SOL    HW132030   1.114   6.754   4.587
10377SOL    HW232031   1.087   6.808   4.739
10378SOL     OW32032   6.836   6.636   6.657
10378SOL    HW132033   6.754   6.610   6.606
10378SOL    HW232034   6.864   6.729   6.630
10379SOL     OW32035   5.207   1.506   4.728
10379SOL    HW132036   5.137   1.447   4.688
10379SOL    HW232037   5.247   1.563   4.656
10380SOL     OW32038   4.319   0.606   3.183
10380SOL    HW132039   4.294   0.638   3.092
10380SOL    HW232040   4.393   0.539   3.176
10381SOL     OW32041   4.521   5.047   4.805
10381SOL    HW132042   4.499   5.074   4.898
10381SOL    HW232043   4.533   4.948   4.801
10382SOL     OW32044   2.085   5.397   0.490
10382SOL    HW132045   2.071   5.346   0.575
10382SOL    HW232046   2.103   5.332   0.416
10383SOL     OW32047   6.543   2.771   6.382
10383SOL    HW132048   6.519   2.711   6.305
10383SOL    HW232049   6.573   2.715   6.460
10384SOL     OW32050   6.126   0.386   0.308
10384SOL    HW132051   6.106   0.407   0.404
10384SOL    HW232052   6.217   0.421   0.285
10385SOL     OW32053   5.448   2.570   6.777
10385SOL    HW132054   5.409   2.661   6.793
10385SOL    HW232055   5.463   2.557   6.679
10386SOL     OW32056   6.004   2.541   6.427
10386SOL    HW132057   6.012   2.592   6.341
10386SOL    HW232058   6.031   2.600   6.503
10387SOL     OW32059   2.110   3.334   3.006
10387SOL    HW132060   2.061   3.359   3.089
10387SOL    HW232061   2.122   3.416   2.949
10388SOL     OW32062   1.670   4.366   2.550
10388SOL    HW132063   1.702   4.369   2.645
10388SOL    HW232064   1.605   4.291   2.538
10389SOL     OW32065   0.191   5.754   2.847
10389SOL    HW132066   0.172   5.746   2.944
10389SOL    HW232067   0.198   5.851   2.821
10390SOL     OW32068   1.855   3.159   3.160
10390SOL    HW132069   1.769   3.110   3.173
10390SOL    HW232070   1.894   3.182   3.250
10391SOL     OW32071   3.408   6.372   5.224
10391SOL    HW132072   3.383   6.277   5.208
10391SOL    HW232073   3.354   6.431   5.164
10392SOL     OW32074   6.732   5.098   6.850
10392SOL    HW132075   6.697   5.019   6.900
10392SOL    HW232076   6.656   5.152   6.815
10393SOL     OW32077   1.544   1.040   3.951
10393SOL    HW132078   1.574   1.110   3.886
10393SOL    HW232079   1.476   0.982   3.908
10394SOL     OW32080   3.135   6.937   6.950
10394SOL    HW132081   3.187   6.853   6.933
10394SOL    HW232082   3.185   7.015   6.911
10395SOL     OW32083   1.283   1.641   5.168
10395SOL    HW132084   1.293   1.663   5.071
10395SOL    HW232085   1.186   1.632   5.191
10396SOL     OW32086   0.514   0.439   5.127
10396SOL    HW132087   0.543   0.425   5.221
10396SOL    HW232088   0.590   0.473   5.073
10397SOL     OW32089   3.788   1.935   2.641
10397SOL    HW132090   3.876   1.980   2.656
10397SOL    HW232091   3.794   1.878   2.559
10398SOL     OW32092   6.617   2.956   2.638
10398SOL    HW132093   6.623   2.877   2.578
10398SOL    HW232094   6.665   3.033   2.597
10399SOL     OW32095   6.497   2.201   5.455
10399SOL    HW132096   6.455   2.165   5.538
10399SOL    HW232097   6.430   2.203   5.381
10400SOL     OW32098   2.500   4.576   1.531
10400SOL    HW132099   2.583   4.568   1.586
10400SOL    HW232100   2.491   4.669   1.498
10401SOL     OW32101   1.157   5.768   1.568
10401SOL    HW132102   1.127   5.686   1.616
10401SOL    HW232103   1.136   5.759   1.471
10402SOL     OW32104   0.309   2.557   4.226
10402SOL    HW132105   0.276   2.640   4.180
10402SOL    HW232106   0.239   2.486   4.221
10403SOL     OW32107   4.600   1.418   2.140
10403SOL    HW132108   4.648   1.331   2.135
10403SOL    HW232109   4.535   1.416   2.216
10404SOL     OW32110   0.066   6.718   3.794
10404SOL    HW132111   0.047   6.815   3.814
10404SOL    HW232112   0.038   6.697   3.701
10405SOL     OW32113   1.931   6.819   6.832
10405SOL    HW132114   1.928   6.821   6.733
10405SOL    HW232115   1.964   6.729   6.863
10406SOL     OW32116   2.080   5.347   5.588
10406SOL    HW132117   2.074   5.278   5.660
10406SOL    HW232118   2.107   5.435   5.629
10407SOL     OW32119   1.229   1.011   5.872
10407SOL    HW132120   1.250   1.050   5.783
10407SOL    HW232121   1.183   0.923   5.860
10408SOL     OW32122   3.914   5.613   3.397
10408SOL    HW132123   3.972   5.583   3.473
10408SOL    HW232124   3.869   5.534   3.357
10409SOL     OW32125   6.287   4.835   2.147
10409SOL    HW132126   6.291   4.913   2.209
10409SOL    HW232127   6.373   4.826   2.098
10410SOL     OW32128   6.142   6.591   0.817
10410SOL    HW132129   6.134   6.553   0.725
10410SOL    HW232130   6.222   6.650   0.822
10411SOL     OW32131   1.778   3.967   2.623
10411SOL    HW132132   1.851   4.035   2.614
10411SOL    HW232133   1.728   3.983   2.709
10412SOL     OW32134   0.476   2.392   6.760
10412SOL    HW132135   0.540   2.317   6.742
10412SOL    HW232136   0.523   2.479   6.746
10413SOL     OW32137   0.217   2.088   6.000
10413SOL    HW132138   0.224   2.006   5.943
10413SOL    HW232139   0.256   2.166   5.952
10414SOL     OW32140   5.713   0.346   4.993
10414SOL    HW132141   5.628   0.397   4.982
10414SOL    HW232142   5.790   0.408   4.988
10415SOL     OW32143   0.416   5.309   2.929
10415SOL    HW132144   0.407   5.364   3.012
10415SOL    HW232145   0.344   5.335   2.864
10416SOL     OW32146   5.004   0.128   0.021
10416SOL    HW132147   5.026   0.214   0.067
10416SOL    HW232148   5.015   0.051   0.084
10417SOL     OW32149   4.290   4.743   4.407
10417SOL    HW132150   4.201   4.760   4.365
10417SOL    HW232151   4.280   4.738   4.506
10418SOL     OW32152   6.897   3.945   6.839
10418SOL    HW132153   6.952   3.953   6.922
10418SOL    HW232154   6.852   3.856   6.837
10419SOL     OW32155   2.090   1.816   4.000
10419SOL    HW132156   2.104   1.726   4.042
10419SOL    HW232157   2.064   1.882   4.071
10420SOL     OW32158   5.563   3.142   3.973
10420SOL    HW132159   5.627   3.071   3.945
10420SOL    HW232160   5.487   3.100   4.023
10421SOL     OW32161   1.289   4.680   3.718
10421SOL    HW132162   1.274   4.721   3.807
10421SOL    HW232163   1.354   4.736   3.666
10422SOL     OW32164   6.083   3.298   5.420
10422SOL    HW132165   6.087   3.393   5.390
10422SOL    HW232166   6.016   3.289   5.494
10423SOL     OW32167   2.017   5.235   3.703
10423SOL    HW132168   2.059   5.326   3.710
10423SOL    HW232169   1.924   5.244   3.668
10424SOL     OW32170   3.243   1.638   0.713
10424SOL    HW132171   3.163   1.616   0.769
10424SOL    HW232172   3.222   1.621   0.617
10425SOL     OW32173   2.145   3.630   0.575
10425SOL    HW132174   2.155   3.615   0.674
10425SOL    HW232175   2.048   3.638   0.552
10426SOL     OW32176   5.864   2.403   6.174
10426SOL    HW132177   5.862   2.502   6.188
10426SOL    HW232178   5.781   2.362   6.211
10427SOL     OW32179   5.624   0.954   3.941
10427SOL    HW132180   5.527   0.965   3.920
10427SOL    HW232181   5.635   0.941   4.040
10428SOL     OW32182   1.857   6.734   5.323
10428SOL    HW132183   1.901   6.764   5.238
10428SOL    HW232184   1.927   6.713   5.391
10429SOL     OW32185   1.388   3.295   1.595
10429SOL    HW132186   1.357   3.271   1.503
10429SOL    HW232187   1.476   3.343   1.589
10430SOL     OW32188   3.228   0.403   4.389
10430SOL    HW132189   3.143   0.357   4.365
10430SOL    HW232190   3.209   0.478   4.452
10431SOL     OW32191   4.050   1.147   4.162
10431SOL    HW132192   3.951   1.133   4.152
10431SOL    HW232193   4.068   1.244   4.179
10432SOL     OW32194   1.116   5.338   0.035
10432SOL    HW132195   1.045   5.384   0.089
10432SOL    HW232196   1.084   5.247   0.010
10433SOL     OW32197   4.117   6.386   3.782
10433SOL    HW132198   4.057   6.428   3.851
10433SOL    HW232199   4.066   6.373   3.697
10434SOL     OW32200   4.484   0.640   6.273
10434SOL    HW132201   4.555   0.570   6.262
10434SOL    HW232202   4.470   0.658   6.370
10435SOL     OW32203   2.486   1.331   1.097
10435SOL    HW132204   2.547   1.401   1.134
10435SOL    HW232205   2.450   1.276   1.172
10436SOL     OW32206   0.597   3.311   4.928
10436SOL    HW132207   0.667   3.265   4.983
10436SOL    HW232208   0.571   3.397   4.972
10437SOL     OW32209   6.366   6.460   5.418
10437SOL    HW132210   6.293   6.435   5.481
10437SOL    HW232211   6.342   6.429   5.326
10438SOL     OW32212   6.834   5.978   0.088
10438SOL    HW132213   6.899   6.054   0.099
10438SOL    HW232214   6.873   5.910   0.027
10439SOL     OW32215   6.383   5.317   5.185
10439SOL    HW132216   6.437   5.401   5.189
10439SOL    HW232217   6.374   5.287   5.090
10440SOL     OW32218   6.146   2.316   0.709
10440SOL    HW132219   6.059   2.277   0.682
10440SOL    HW232220   6.163   2.297   0.806
10441SOL     OW32221   4.365   2.107   6.606
10441SOL    HW132222   4.374   2.047   6.685
10441SOL    HW232223   4.345   2.200   6.638
10442SOL     OW32224   2.174   1.168   4.945
10442SOL    HW132225   2.255   1.127   4.904
10442SOL    HW232226   2.185   1.268   4.949
10443SOL     OW32227   1.027   0.611   0.830
10443SOL    HW132228   1.055   0.653   0.915
10443SOL    HW232229   1.099   0.550   0.797
10444SOL     OW32230   4.010   4.850   4.079
10444SOL    HW132231   4.085   4.817   4.022
10444SOL    HW232232   4.036   4.845   4.175
10445SOL     OW32233   1.313   2.996   3.888
10445SOL    HW132234   1.223   3.022   3.855
10445SOL    HW232235   1.303   2.942   3.972
10446SOL     OW32236   2.349   4.927   5.477
10446SOL    HW132237   2.395   4.871   5.545
10446SOL    HW232238   2.390   4.911   5.387
10447SOL     OW32239   0.897   1.605   2.794
10447SOL    HW132240   0.876   1.519   2.841
10447SOL    HW232241   0.812   1.652   2.771
10448SOL     OW32242   2.169   5.898   2.239
10448SOL    HW132243   2.187   5.800   2.227
10448SOL    HW232244   2.192   5.925   2.333
10449SOL     OW32245   4.290   5.245   4.579
10449SOL    HW132246   4.235   5.162   4.587
10449SOL    HW232247   4.387   5.220   4.577
10450SOL     OW32248   0.233   1.001   4.392
10450SOL    HW132249   0.195   1.047   4.312
10450SOL    HW232250   0.316   1.050   4.422
10451SOL     OW32251   3.351   1.903   4.215
10451SOL    HW132252   3.449   1.910   4.234
10451SOL    HW232253   3.334   1.927   4.119
10452SOL     OW32254   6.328   2.823   4.516
10452SOL    HW132255   6.410   2.775   4.547
10452SOL    HW232256   6.247   2.775   4.551
10453SOL     OW32257   4.083   6.201   4.172
10453SOL    HW132258   4.125   6.149   4.246
10453SOL    HW232259   3.989   6.225   4.198
10454SOL     OW32260   6.708   1.209   7.008
10454SOL    HW132261   6.642   1.174   6.942
10454SOL    HW232262   6.662   1.225   0.077
10455SOL     OW32263   0.561   6.142   3.351
10455SOL    HW132264   0.578   6.052   3.391
10455SOL    HW232265   0.582   6.139   3.253
10456SOL     OW32266   0.941   5.702   6.516
10456SOL    HW132267   0.865   5.669   6.460
10456SOL    HW232268   1.024   5.706   6.461
10457SOL     OW32269   4.062   1.610   6.347
10457SOL    HW132270   4.059   1.635   6.443
10457SOL    HW232271   4.115   1.678   6.296
10458SOL     OW32272   1.193   6.093   6.864
10458SOL    HW132273   1.145   6.047   6.789
10458SOL    HW232274   1.157   6.186   6.874
10459SOL     OW32275   5.879   5.514   1.688
10459SOL    HW132276   5.817   5.484   1.616
10459SOL    HW232277   5.827   5.528   1.773
10460SOL     OW32278   6.419   0.557   0.683
10460SOL    HW132279   6.362   0.604   0.750
10460SOL    HW232280   6.370   0.476   0.649
10461SOL     OW32281   6.879   4.738   6.625
10461SOL    HW132282   6.827   4.756   6.708
10461SOL    HW232283   6.961   4.686   6.647
10462SOL     OW32284   3.590   3.671   6.295
10462SOL    HW132285   3.596   3.704   6.389
10462SOL    HW232286   3.651   3.724   6.236
10463SOL     OW32287   5.067   2.589   6.701
10463SOL    HW132288   5.091   2.495   6.677
10463SOL    HW232289   5.150   2.641   6.720
10464SOL     OW32290   6.734   4.657   2.122
10464SOL    HW132291   6.728   4.620   2.215
10464SOL    HW232292   6.662   4.725   2.109
10465SOL     OW32293   5.623   4.785   1.291
10465SOL    HW132294   5.718   4.769   1.262
10465SOL    HW232295   5.614   4.879   1.324
10466SOL     OW32296   6.181   4.493   6.221
10466SOL    HW132297   6.135   4.438   6.151
10466SOL    HW232298   6.140   4.585   6.223
10467SOL     OW32299   0.177   2.757   6.820
10467SOL    HW132300   0.224   2.719   6.900
10467SOL    HW232301   0.126   2.838   6.847
10468SOL     OW32302   1.579   4.617   4.339
10468SOL    HW132303   1.479   4.612   4.342
10468SOL    HW232304   1.613   4.559   4.265
10469SOL     OW32305   1.394   1.643   4.076
10469SOL    HW132306   1.392   1.737   4.110
10469SOL    HW232307   1.300   1.608   4.070
10470SOL     OW32308   1.996   3.555   2.777
10470SOL    HW132309   2.037   3.503   2.702
10470SOL    HW232310   1.900   3.530   2.787
10471SOL     OW32311   2.360   5.821   6.569
10471SOL    HW132312   2.409   5.902   6.600
10471SOL    HW232313   2.292   5.795   6.637
10472SOL     OW32314   3.750   4.801   6.769
10472SOL    HW132315   3.812   4.751   6.709
10472SOL    HW232316   3.690   4.859   6.713
10473SOL     OW32317   6.083   4.652   0.777
10473SOL    HW132318   6.142   4.633   0.856
10473SOL    HW232319   5.995   4.686   0.809
10474SOL     OW32320   6.205   0.099   5.056
10474SOL    HW132321   6.247   0.190   5.062
10474SOL    HW232322   6.241   0.051   4.975
10475SOL     OW32323   1.057   5.340   1.022
10475SOL    HW132324   1.001   5.257   1.016
10475SOL    HW232325   1.079   5.358   1.117
10476SOL     OW32326   5.271   6.659   1.512
10476SOL    HW132327   5.176   6.632   1.531
10476SOL    HW232328   5.275   6.704   1.423
10477SOL     OW32329   0.010   5.867   3.301
10477SOL    HW132330   0.078   5.804   3.339
10477SOL    HW232331   6.952   5.814   3.264
10478SOL     OW32332   6.560   0.977   6.613
10478SOL    HW132333   6.624   0.954   6.540
10478SOL    HW232334   6.571   1.073   6.638
10479SOL     OW32335   0.665   2.777   1.814
10479SOL    HW132336   0.602   2.854   1.822
10479SOL    HW232337   0.704   2.757   1.903
10480SOL     OW32338   2.863   0.889   3.481
10480SOL    HW132339   2.897   0.924   3.394
10480SOL    HW232340   2.787   0.945   3.512
10481SOL     OW32341   6.861   1.033   0.939
10481SOL    HW132342   6.855   0.946   0.987
10481SOL    HW232343   6.770   1.071   0.927
10482SOL     OW32344   5.338   2.752   3.792
10482SOL    HW132345   5.313   2.746   3.889
10482SOL    HW232346   5.434   2.727   3.780
10483SOL     OW32347   6.361   6.347   0.165
10483SOL    HW132348   6.453   6.387   0.169
10483SOL    HW232349   6.355   6.270   0.228
10484SOL     OW32350   6.497   0.985   2.272
10484SOL    HW132351   6.591   0.962   2.248
10484SOL    HW232352   6.492   1.080   2.300
10485SOL     OW32353   5.165   3.317   5.428
10485SOL    HW132354   5.179   3.271   5.516
10485SOL    HW232355   5.114   3.257   5.367
10486SOL     OW32356   5.485   2.830   2.119
10486SOL    HW132357   5.421   2.842   2.195
10486SOL    HW232358   5.492   2.916   2.068
10487SOL     OW32359   5.446   6.808   1.954
10487SOL    HW132360   5.532   6.784   1.999
10487SOL    HW232361   5.441   6.907   1.944
10488SOL     OW32362   3.072   3.753   0.043
10488SOL    HW132363   3.009   3.777   0.117
10488SOL    HW232364   3.110   3.662   0.060
10489SOL     OW32365   1.203   6.092   5.114
10489SOL    HW132366   1.229   6.064   5.206
10489SOL    HW232367   1.169   6.186   5.116
10490SOL     OW32368   6.425   0.452   4.440
10490SOL    HW132369   6.376   0.379   4.487
10490SOL    HW232370   6.509   0.416   4.400
10491SOL     OW32371   0.812   5.335   5.610
10491SOL    HW132372   0.911   5.339   5.596
10491SOL    HW232373   0.792   5.290   5.697
10492SOL     OW32374   4.110   4.360   5.798
10492SOL    HW132375   4.050   4.327   5.725
10492SOL    HW232376   4.055   4.395   5.873
10493SOL     OW32377   3.191   1.016   0.538
10493SOL    HW132378   3.150   0.943   0.591
10493SOL    HW232379   3.156   1.104   0.569
10494SOL     OW32380   5.399   2.205   4.882
10494SOL    HW132381   5.461   2.283   4.886
10494SOL    HW232382   5.428   2.135   4.947
10495SOL     OW32383   1.705   6.550   0.492
10495SOL    HW132384   1.720   6.464   0.541
10495SOL    HW232385   1.713   6.627   0.555
10496SOL     OW32386   6.711   0.536   5.190
10496SOL    HW132387   6.768   0.454   5.194
10496SOL    HW232388   6.749   0.606   5.251
10497SOL     OW32389   0.701   1.696   0.058
10497SOL    HW132390   0.642   1.709   6.997
10497SOL    HW232391   0.742   1.783   0.084
10498SOL     OW32392   2.783   5.119   6.080
10498SOL    HW132393   2.787   5.048   6.149
10498SOL    HW232394   2.693   5.121   6.038
10499SOL     OW32395   2.962   5.230   2.996
10499SOL    HW132396   2.921   5.146   2.960
10499SOL    HW232397   3.057   5.236   2.965
10500SOL     OW32398   1.493   2.368   6.651
10500SOL    HW132399   1.571   2.430   6.647
10500SOL    HW232400   1.408   2.420   6.655
10501SOL     OW32401   1.101   2.181   3.329
10501SOL    HW132402   1.108   2.104   3.266
10501SOL    HW232403   1.079   2.264   3.279
10502SOL     OW32404   3.153   5.889   5.304
10502SOL    HW132405   3.252   5.876   5.318
10502SOL    HW232406   3.117   5.815   5.248
10503SOL     OW32407   2.585   3.628   5.466
10503SOL    HW132408   2.616   3.536   5.490
10503SOL    HW232409   2.565   3.679   5.550
10504SOL     OW32410   2.463   3.162   0.966
10504SOL    HW132411   2.479   3.197   0.874
10504SOL    HW232412   2.400   3.222   1.015
10505SOL     OW32413   0.222   0.096   1.159
10505SOL    HW132414   0.229   0.159   1.236
10505SOL    HW232415   0.251   0.142   1.075
10506SOL     OW32416   6.894   4.265   5.406
10506SOL    HW132417   6.832   4.188   5.424
10506SOL    HW232418   6.925   4.261   5.311
10507SOL     OW32419   1.144   0.418   4.667
10507SOL    HW132420   1.195   0.446   4.748
10507SOL    HW232421   1.049   0.399   4.692
10508SOL     OW32422   5.154   3.928   2.300
10508SOL    HW132423   5.234   3.870   2.318
10508SOL    HW232424   5.093   3.882   2.236
10509SOL     OW32425   1.679   0.493   5.163
10509SOL    HW132426   1.673   0.427   5.088
10509SOL    HW232427   1.743   0.460   5.232
10510SOL     OW32428   6.056   6.282   0.352
10510SOL    HW132429   6.146   6.243   0.330
10510SOL    HW232430   5.986   6.211   0.342
10511SOL     OW32431   6.791   2.104   0.510
10511SOL    HW132432   6.697   2.082   0.537
10511SOL    HW232433   6.801   2.093   0.411
10512SOL     OW32434   3.225   5.803   6.645
10512SOL    HW132435   3.269   5.873   6.700
10512SOL    HW232436   3.130   5.792   6.675
10513SOL     OW32437   6.656   2.287   0.197
10513SOL    HW132438   6.704   2.373   0.212
10513SOL    HW232439   6.719   2.211   0.210
10514SOL     OW32440   6.479   3.673   1.350
10514SOL    HW132441   6.575   3.700   1.353
10514SOL    HW232442   6.421   3.753   1.367
10515SOL     OW32443   6.243   2.381   4.576
10515SOL    HW132444   6.292   2.355   4.659
10515SOL    HW232445   6.194   2.302   4.539
10516SOL     OW32446   3.574   0.133   0.209
10516SOL    HW132447   3.583   0.034   0.225
10516SOL    HW232448   3.565   0.150   0.111
10517SOL     OW32449   6.946   2.600   3.118
10517SOL    HW132450   6.916   2.538   3.046
10517SOL    HW232451   7.015   2.663   3.081
10518SOL     OW32452   0.768   6.761   2.463
10518SOL    HW132453   0.693   6.712   2.419
10518SOL    HW232454   0.831   6.696   2.504
10519SOL     OW32455   3.381   3.753   5.258
10519SOL    HW132456   3.297   3.722   5.211
10519SOL    HW232457   3.390   3.852   5.248
10520SOL     OW32458   3.962   4.223   6.392
10520SOL    HW132459   3.867   4.236   6.361
10520SOL    HW232460   4.020   4.293   6.350
10521SOL     OW32461   6.538   4.927   2.083
10521SOL    HW132462   6.495   4.988   2.149
10521SOL    HW232463   6.625   4.965   2.053
10522SOL     OW32464   6.564   6.939   1.837
10522SOL    HW132465   6.613   6.915   1.754
10522SOL    HW232466   6.602   0.005   1.875
10523SOL     OW32467   6.991   5.819   6.944
10523SOL    HW132468   0.010   5.910   6.925
10523SOL    HW232469   0.033   5.771   7.008
10524SOL     OW32470   4.266   0.706   4.421
10524SOL    HW132471   4.257   0.702   4.521
10524SOL    HW232472   4.281   0.801   4.393
10525SOL     OW32473   2.863   6.426   4.702
10525SOL    HW132474   2.876   6.525   4.702
10525SOL    HW232475   2.887   6.389   4.791
10526SOL     OW32476   5.975   6.843   1.916
10526SOL    HW132477   6.005   6.932   1.882
10526SOL    HW232478   5.927   6.855   2.004
10527SOL     OW32479   1.816   2.976   4.494
10527SOL    HW132480   1.768   2.900   4.450
10527SOL    HW232481   1.869   2.942   4.572
10528SOL     OW32482   6.638   4.656   5.574
10528SOL    HW132483   6.684   4.705   5.647
10528SOL    HW232484   6.703   4.638   5.500
10529SOL     OW32485   6.127   6.173   3.899
10529SOL    HW132486   6.091   6.241   3.835
10529SOL    HW232487   6.217   6.142   3.868
10530SOL     OW32488   1.787   1.629   5.287
10530SOL    HW132489   1.883   1.647   5.264
10530SOL    HW232490   1.781   1.544   5.338
10531SOL     OW32491   2.296   2.324   5.623
10531SOL    HW132492   2.349   2.264   5.683
10531SOL    HW232493   2.217   2.360   5.674
10532SOL     OW32494   3.455   3.231   5.186
10532SOL    HW132495   3.521   3.158   5.205
10532SOL    HW232496   3.371   3.192   5.150
10533SOL     OW32497   2.524   0.816   6.040
10533SOL    HW132498   2.520   0.722   6.005
10533SOL    HW232499   2.590   0.821   6.114
10534SOL     OW32500   5.951   5.898   1.441
10534SOL    HW132501   5.942   5.985   1.393
10534SOL    HW232502   6.047   5.870   1.442
10535SOL     OW32503   0.704   1.699   2.563
10535SOL    HW132504   0.668   1.607   2.576
10535SOL    HW232505   0.704   1.748   2.650
10536SOL     OW32506   4.927   6.324   3.995
10536SOL    HW132507   4.876   6.396   3.947
10536SOL    HW232508   5.024   6.332   3.972
10537SOL     OW32509   0.434   5.187   1.103
10537SOL    HW132510   0.507   5.243   1.140
10537SOL    HW232511   0.467   5.094   1.087
10538SOL     OW32512   4.843   3.907   6.926
10538SOL    HW132513   4.887   3.858   6.851
10538SOL    HW232514   4.784   3.844   6.977
10539SOL     OW32515   0.731   3.473   5.554
10539SOL    HW132516   0.813   3.426   5.585
10539SOL    HW232517   0.753   3.568   5.532
10540SOL     OW32518   3.121   0.956   7.005
10540SOL    HW132519   3.194   0.888   7.002
10540SOL    HW232520   3.032   0.910   7.007
10541SOL     OW32521   4.675   2.304   0.670
10541SOL    HW132522   4.698   2.319   0.766
10541SOL    HW232523   4.577   2.321   0.656
10542SOL     OW32524   1.610   2.705   6.910
10542SOL    HW132525   1.631   2.692   6.812
10542SOL    HW232526   1.522   2.663   6.931
10543SOL     OW32527   2.402   0.642   5.481
10543SOL    HW132528   2.483   0.681   5.437
10543SOL    HW232529   2.428   0.601   5.568
10544SOL     OW32530   0.325   2.253   2.076
10544SOL    HW132531   0.400   2.318   2.090
10544SOL    HW232532   0.245   2.284   2.128
10545SOL     OW32533   5.454   0.861   3.306
10545SOL    HW132534   5.510   0.811   3.372
10545SOL    HW232535   5.389   0.798   3.263
10546SOL     OW32536   3.765   0.919   4.900
10546SOL    HW132537   3.857   0.955   4.915
10546SOL    HW232538   3.756   0.891   4.804
10547SOL     OW32539   4.416   1.059   0.840
10547SOL    HW132540   4.451   1.150   0.819
10547SOL    HW232541   4.316   1.060   0.837
10548SOL     OW32542   4.649   4.257   5.217
10548SOL    HW132543   4.602   4.322   5.157
10548SOL    HW232544   4.723   4.305   5.265
10549SOL     OW32545   1.404   1.103   1.723
10549SOL    HW132546   1.358   1.063   1.802
10549SOL    HW232547   1.482   1.047   1.698
10550SOL     OW32548   5.281   0.051   5.239
10550SOL    HW132549   5.263   0.092   5.328
10550SOL    HW232550   5.378   0.063   5.215
10551SOL     OW32551   1.784   2.762   5.889
10551SOL    HW132552   1.837   2.688   5.848
10551SOL    HW232553   1.711   2.789   5.827
10552SOL     OW32554   3.101   2.010   5.079
10552SOL    HW132555   3.147   1.936   5.029
10552SOL    HW232556   3.125   2.098   5.037
10553SOL     OW32557   2.784   4.859   6.164
10553SOL    HW132558   2.717   4.790   6.138
10553SOL    HW232559   2.876   4.823   6.153
10554SOL     OW32560   6.596   4.438   5.225
10554SOL    HW132561   6.518   4.434   5.163
10554SOL    HW232562   6.656   4.514   5.198
10555SOL     OW32563   3.355   2.496   1.419
10555SOL    HW132564   3.384   2.447   1.501
10555SOL    HW232565   3.435   2.529   1.369
10556SOL     OW32566   2.152   3.380   4.379
10556SOL    HW132567   2.185   3.299   4.330
10556SOL    HW232568   2.058   3.366   4.409
10557SOL     OW32569   6.179   1.689   3.659
10557SOL    HW132570   6.147   1.610   3.606
10557SOL    HW232571   6.277   1.681   3.676
10558SOL     OW32572   5.353   5.961   4.863
10558SOL    HW132573   5.342   5.958   4.764
10558SOL    HW232574   5.380   5.870   4.896
10559SOL     OW32575   4.766   2.381   0.930
10559SOL    HW132576   4.699   2.443   0.970
10559SOL    HW232577   4.850   2.382   0.984
10560SOL     OW32578   0.025   3.193   4.021
10560SOL    HW132579   0.024   3.229   3.928
10560SOL    HW232580   0.118   3.201   4.059
10561SOL     OW32581   2.711   4.681   5.931
10561SOL    HW132582   2.694   4.596   5.980
10561SOL    HW232583   2.762   4.662   5.847
10562SOL     OW32584   3.307   1.376   0.655
10562SOL    HW132585   3.318   1.373   0.556
10562SOL    HW232586   3.230   1.319   0.682
10563SOL     OW32587   1.788   1.539   4.020
10563SOL    HW132588   1.828   1.607   4.081
10563SOL    HW232589   1.712   1.492   4.066
10564SOL     OW32590   0.233   2.314   1.539
10564SOL    HW132591   0.149   2.300   1.591
10564SOL    HW232592   0.225   2.399   1.486
10565SOL     OW32593   5.411   1.540   5.168
10565SOL    HW132594   5.506   1.551   5.139
10565SOL    HW232595   5.350   1.570   5.095
10566SOL     OW32596   4.033   4.873   6.644
10566SOL    HW132597   4.019   4.828   6.555
10566SOL    HW232598   4.090   4.954   6.631
10567SOL     OW32599   2.174   5.034   3.770
10567SOL    HW132600   2.126   4.952   3.739
10567SOL    HW232601   2.118   5.114   3.750
10568SOL     OW32602   4.198   1.810   3.346
10568SOL    HW132603   4.249   1.729   3.318
10568SOL    HW232604   4.103   1.801   3.313
10569SOL     OW32605   5.802   2.999   3.239
10569SOL    HW132606   5.778   2.913   3.282
10569SOL    HW232607   5.781   3.075   3.301
10570SOL     OW32608   0.794   4.358   1.793
10570SOL    HW132609   0.834   4.355   1.885
10570SOL    HW232610   0.867   4.349   1.725
10571SOL     OW32611   6.056   6.714   4.846
10571SOL    HW132612   6.064   6.686   4.750
10571SOL    HW232613   6.016   6.640   4.899
10572SOL     OW32614   6.550   2.919   1.645
10572SOL    HW132615   6.470   2.926   1.705
10572SOL    HW232616   6.605   2.841   1.672
10573SOL     OW32617   6.319   4.580   6.437
10573SOL    HW132618   6.281   4.522   6.365
10573SOL    HW232619   6.354   4.523   6.511
10574SOL     OW32620   0.757   2.141   3.344
10574SOL    HW132621   0.805   2.192   3.416
10574SOL    HW232622   0.669   2.110   3.380
10575SOL     OW32623   0.622   6.660   6.106
10575SOL    HW132624   0.538   6.608   6.119
10575SOL    HW232625   0.654   6.650   6.012
10576SOL     OW32626   1.490   4.701   3.314
10576SOL    HW132627   1.481   4.789   3.267
10576SOL    HW232628   1.400   4.658   3.320
10577SOL     OW32629   0.805   3.120   5.533
10577SOL    HW132630   0.810   3.034   5.584
10577SOL    HW232631   0.897   3.151   5.510
10578SOL     OW32632   5.598   0.846   5.497
10578SOL    HW132633   5.644   0.905   5.564
10578SOL    HW232634   5.541   0.779   5.545
10579SOL     OW32635   4.814   0.600   0.469
10579SOL    HW132636   4.735   0.589   0.530
10579SOL    HW232637   4.894   0.555   0.509
10580SOL     OW32638   5.988   5.706   0.708
10580SOL    HW132639   5.916   5.637   0.710
10580SOL    HW232640   5.980   5.764   0.789
10581SOL     OW32641   4.360   1.651   3.876
10581SOL    HW132642   4.357   1.747   3.904
10581SOL    HW232643   4.436   1.637   3.812
10582SOL     OW32644   3.311   4.827   0.002
10582SOL    HW132645   3.241   4.757   0.012
10582SOL    HW232646   3.289   4.906   0.059
10583SOL     OW32647   4.355   1.212   0.553
10583SOL    HW132648   4.262   1.212   0.590
10583SOL    HW232649   4.416   1.259   0.617
10584SOL     OW32650   6.577   0.288   1.407
10584SOL    HW132651   6.517   0.243   1.474
10584SOL    HW232652   6.569   0.242   1.319
10585SOL     OW32653   2.187   4.355   6.257
10585SOL    HW132654   2.225   4.305   6.335
10585SOL    HW232655   2.127   4.427   6.290
10586SOL     OW32656   4.259   1.309   0.286
10586SOL    HW132657   4.341   1.365   0.302
10586SOL    HW232658   4.280   1.213   0.304
10587SOL     OW32659   6.226   3.561   0.577
10587SOL    HW132660   6.159   3.582   0.649
10587SOL    HW232661   6.258   3.467   0.587
10588SOL     OW32662   0.966   5.121   3.421
10588SOL    HW132663   0.875   5.102   3.384
10588SOL    HW232664   1.033   5.123   3.347
10589SOL     OW32665   6.246   1.532   4.203
10589SOL    HW132666   6.166   1.471   4.195
10589SOL    HW232667   6.235   1.609   4.141
10590SOL     OW32668   1.996   0.918   4.616
10590SOL    HW132669   2.074   0.862   4.588
10590SOL    HW232670   1.925   0.859   4.655
10591SOL     OW32671   1.410   2.386   0.597
10591SOL    HW132672   1.349   2.397   0.519
10591SOL    HW232673   1.498   2.349   0.566
10592SOL     OW32674   6.282   1.575   6.831
10592SOL    HW132675   6.196   1.524   6.829
10592SOL    HW232676   6.269   1.660   6.882
10593SOL     OW32677   2.040   4.503   1.553
10593SOL    HW132678   2.059   4.585   1.500
10593SOL    HW232679   2.113   4.436   1.539
10594SOL     OW32680   1.052   2.098   4.494
10594SOL    HW132681   1.042   2.042   4.412
10594SOL    HW232682   1.122   2.058   4.553
10595SOL     OW32683   2.004   6.520   5.741
10595SOL    HW132684   2.055   6.603   5.761
10595SOL    HW232685   2.068   6.444   5.728
10596SOL     OW32686   3.683   0.544   2.044
10596SOL    HW132687   3.711   0.620   2.103
10596SOL    HW232688   3.588   0.556   2.016
10597SOL     OW32689   1.855   0.515   3.646
10597SOL    HW132690   1.804   0.540   3.729
10597SOL    HW232691   1.823   0.427   3.613
10598SOL     OW32692   1.913   1.755   0.054
10598SOL    HW132693   1.988   1.759   7.008
10598SOL    HW232694   1.949   1.760   0.147
10599SOL     OW32695   5.113   0.926   6.640
10599SOL    HW132696   5.019   0.912   6.608
10599SOL    HW232697   5.174   0.865   6.591
10600SOL     OW32698   1.638   2.458   5.695
10600SOL    HW132699   1.661   2.430   5.602
10600SOL    HW232700   1.719   2.494   5.740
10601SOL     OW32701   3.558   5.926   6.030
10601SOL    HW132702   3.544   5.852   5.965
10601SOL    HW232703   3.654   5.953   6.031
10602SOL     OW32704   4.219   1.120   1.481
10602SOL    HW132705   4.260   1.035   1.448
10602SOL    HW232706   4.263   1.147   1.566
10603SOL     OW32707   0.760   4.991   4.221
10603SOL    HW132708   0.777   5.089   4.218
10603SOL    HW232709   0.846   4.942   4.234
10604SOL     OW32710   6.845   3.841   5.002
10604SOL    HW132711   6.807   3.929   5.031
10604SOL    HW232712   6.831   3.774   5.075
10605SOL     OW32713   2.199   5.250   6.151
10605SOL    HW132714   2.114   5.266   6.200
10605SOL    HW232715   2.195   5.162   6.104
10606SOL     OW32716   0.524   0.899   2.938
10606SOL    HW132717   0.538   0.920   3.035
10606SOL    HW232718   0.523   0.799   2.925
10607SOL     OW32719   5.653   4.822   0.077
10607SOL    HW132720   5.668   4.911   0.119
10607SOL    HW232721   5.703   4.818   7.009
10608SOL     OW32722   5.924   0.602   2.736
10608SOL    HW132723   6.016   0.604   2.775
10608SOL    HW232724   5.860   0.565   2.804
10609SOL     OW32725   4.051   6.850   1.706
10609SOL    HW132726   4.143   6.811   1.697
10609SOL    HW232727   4.058   6.948   1.725
10610SOL     OW32728   1.835   3.871   4.870
10610SOL    HW132729   1.849   3.895   4.966
10610SOL    HW232730   1.742   3.897   4.843
10611SOL     OW32731   5.091   2.257   6.076
10611SOL    HW132732   5.094   2.186   6.147
10611SOL    HW232733   5.145   2.228   5.997
10612SOL     OW32734   1.064   6.878   0.778
10612SOL    HW132735   1.051   6.809   0.849
10612SOL    HW232736   1.111   6.838   0.700
10613SOL     OW32737   0.770   6.522   6.842
10613SOL    HW132738   0.845   6.458   6.859
10613SOL    HW232739   0.773   6.553   6.747
10614SOL     OW32740   6.769   0.638   4.146
10614SOL    HW132741   6.672   0.659   4.163
10614SOL    HW232742   6.822   0.657   4.228
10615SOL     OW32743   6.960   5.821   5.365
10615SOL    HW132744   6.976   5.796   5.461
10615SOL    HW232745   6.927   5.915   5.360
10616SOL     OW32746   3.111   6.391   0.386
10616SOL    HW132747   3.199   6.344   0.377
10616SOL    HW232748   3.125   6.490   0.381
10617SOL     OW32749   0.235   2.170   6.605
10617SOL    HW132750   0.262   2.093   6.547
10617SOL    HW232751   0.247   2.256   6.555
10618SOL     OW32752   5.869   4.066   1.420
10618SOL    HW132753   5.939   4.025   1.478
10618SOL    HW232754   5.909   4.092   1.332
10619SOL     OW32755   0.270   4.129   3.622
10619SOL    HW132756   0.170   4.118   3.622
10619SOL    HW232757   0.311   4.046   3.584
10620SOL     OW32758   1.223   5.766   4.411
10620SOL    HW132759   1.129   5.796   4.425
10620SOL    HW232760   1.283   5.814   4.476
10621SOL     OW32761   2.749   6.653   0.601
10621SOL    HW132762   2.831   6.710   0.596
10621SOL    HW232763   2.695   6.680   0.680
10622SOL     OW32764   4.520   1.747   1.637
10622SOL    HW132765   4.536   1.732   1.734
10622SOL    HW232766   4.426   1.720   1.613
10623SOL     OW32767   6.820   0.735   3.898
10623SOL    HW132768   6.876   0.815   3.922
10623SOL    HW232769   6.810   0.677   3.978
10624SOL     OW32770   2.706   1.620   4.430
10624SOL    HW132771   2.626   1.560   4.437
10624SOL    HW232772   2.722   1.644   4.335
10625SOL     OW32773   0.120   3.360   0.028
10625SOL    HW132774   0.138   3.456   0.049
10625SOL    HW232775   0.122   3.306   0.113
10626SOL     OW32776   6.491   1.811   1.582
10626SOL    HW132777   6.525   1.850   1.497
10626SOL    HW232778   6.404   1.764   1.564
10627SOL     OW32779   6.434   5.233   4.443
10627SOL    HW132780   6.471   5.239   4.350
10627SOL    HW232781   6.473   5.153   4.489
10628SOL     OW32782   6.908   6.255   6.253
10628SOL    HW132783   6.878   6.332   6.310
10628SOL    HW232784   6.894   6.278   6.157
10629SOL     OW32785   2.575   5.506   6.185
10629SOL    HW132786   2.502   5.483   6.120
10629SOL    HW232787   2.642   5.565   6.140
10630SOL     OW32788   6.571   1.014   3.084
10630SOL    HW132789   6.609   0.992   3.174
10630SOL    HW232790   6.635   0.986   3.013
10631SOL     OW32791   1.001   0.452   5.225
10631SOL    HW132792   1.086   0.399   5.235
10631SOL    HW232793   0.948   0.416   5.149
10632SOL     OW32794   0.239   3.112   5.127
10632SOL    HW132795   0.281   3.090   5.215
10632SOL    HW232796   0.311   3.130   5.060
10633SOL     OW32797   1.076   5.038   0.378
10633SOL    HW132798   1.035   5.130   0.382
10633SOL    HW232799   1.087   5.011   0.282
10634SOL     OW32800   4.221   6.601   1.427
10634SOL    HW132801   4.137   6.655   1.421
10634SOL    HW232802   4.223   6.535   1.351
10635SOL     OW32803   1.601   0.813   1.178
10635SOL    HW132804   1.532   0.831   1.248
10635SOL    HW232805   1.691   0.845   1.210
10636SOL     OW32806   6.404   1.269   0.798
10636SOL    HW132807   6.459   1.202   0.848
10636SOL    HW232808   6.411   1.358   0.844
10637SOL     OW32809   4.002   4.677   5.566
10637SOL    HW132810   4.077   4.739   5.588
10637SOL    HW232811   4.031   4.613   5.494
10638SOL     OW32812   6.830   0.544   5.544
10638SOL    HW132813   6.772   0.479   5.593
10638SOL    HW232814   6.916   0.500   5.519
10639SOL     OW32815   3.165   1.463   5.240
10639SOL    HW132816   3.083   1.479   5.185
10639SOL    HW232817   3.170   1.531   5.313
10640SOL     OW32818   4.209   6.397   1.209
10640SOL    HW132819   4.164   6.455   1.141
10640SOL    HW232820   4.145   6.325   1.239
10641SOL     OW32821   4.306   0.873   6.540
10641SOL    HW132822   4.341   0.966   6.553
10641SOL    HW232823   4.242   0.872   6.464
10642SOL     OW32824   6.985   3.960   0.509
10642SOL    HW132825   6.941   4.009   0.434
10642SOL    HW232826   6.920   3.944   0.583
10643SOL     OW32827   4.150   3.077   5.342
10643SOL    HW132828   4.137   3.160   5.396
10643SOL    HW232829   4.247   3.056   5.335
10644SOL     OW32830   3.427   1.601   4.896
10644SOL    HW132831   3.468   1.671   4.955
10644SOL    HW232832   3.493   1.528   4.880
10645SOL     OW32833   2.172   6.801   5.412
10645SOL    HW132834   2.140   6.894   5.423
10645SOL    HW232835   2.248   6.784   5.476
10646SOL     OW32836   0.933   4.247   6.565
10646SOL    HW132837   0.889   4.222   6.478
10646SOL    HW232838   1.031   4.232   6.558
10647SOL     OW32839   0.525   5.167   0.691
10647SOL    HW132840   0.440   5.140   0.736
10647SOL    HW232841   0.567   5.088   0.648
10648SOL     OW32842   4.682   4.934   6.302
10648SOL    HW132843   4.779   4.953   6.319
10648SOL    HW232844   4.631   5.019   6.300
10649SOL     OW32845   0.512   4.445   6.202
10649SOL    HW132846   0.468   4.491   6.279
10649SOL    HW232847   0.584   4.504   6.166
10650SOL     OW32848   3.040   1.286   4.188
10650SOL    HW132849   3.084   1.226   4.255
10650SOL    HW232850   2.942   1.292   4.209
10651SOL     OW32851   2.745   6.945   5.272
10651SOL    HW132852   2.815   6.966   5.204
10651SOL    HW232853   2.776   6.869   5.330
10652SOL     OW32854   3.972   0.533   0.343
10652SOL    HW132855   4.003   0.572   0.256
10652SOL    HW232856   4.042   0.472   0.380
10653SOL     OW32857   5.659   2.570   4.063
10653SOL    HW132858   5.591   2.510   4.105
10653SOL    HW232859   5.694   2.635   4.132
10654SOL     OW32860   4.465   1.020   1.251
10654SOL    HW132861   4.443   0.970   1.335
10654SOL    HW232862   4.437   0.966   1.172
10655SOL     OW32863   3.181   5.922   1.402
10655SOL    HW132864   3.185   6.000   1.465
10655SOL    HW232865   3.126   5.947   1.322
10656SOL     OW32866   6.414   2.679   6.150
10656SOL    HW132867   6.453   2.679   6.058
10656SOL    HW232868   6.329   2.732   6.151
10657SOL     OW32869   6.419   0.178   1.614
10657SOL    HW132870   6.374   0.100   1.659
10657SOL    HW232871   6.468   0.232   1.682
10658SOL     OW32872   0.311   6.740   4.905
10658SOL    HW132873   0.265   6.739   4.994
10658SOL    HW232874   0.333   6.834   4.881
10659SOL     OW32875   5.127   0.740   0.786
10659SOL    HW132876   5.115   0.837   0.805
10659SOL    HW232877   5.045   0.690   0.814
10660SOL     OW32878   5.282   5.177   5.407
10660SOL    HW132879   5.325   5.245   5.466
10660SOL    HW232880   5.320   5.086   5.428
10661SOL     OW32881   0.913   0.268   2.264
10661SOL    HW132882   0.821   0.281   2.227
10661SOL    HW232883   0.966   0.210   2.203
10662SOL     OW32884   5.533   1.611   0.819
10662SOL    HW132885   5.489   1.644   0.903
10662SOL    HW232886   5.627   1.644   0.815
10663SOL     OW32887   0.706   0.987   0.455
10663SOL    HW132888   0.763   0.921   0.405
10663SOL    HW232889   0.733   1.080   0.428
10664SOL     OW32890   2.173   4.849   6.414
10664SOL    HW132891   2.087   4.891   6.386
10664SOL    HW232892   2.228   4.830   6.333
10665SOL     OW32893   6.195   1.178   6.777
10665SOL    HW132894   6.291   1.163   6.800
10665SOL    HW232895   6.150   1.226   6.853
10666SOL     OW32896   0.504   0.167   0.401
10666SOL    HW132897   0.596   0.190   0.434
10666SOL    HW232898   0.495   0.068   0.395
10667SOL     OW32899   3.396   2.211   5.258
10667SOL    HW132900   3.304   2.245   5.242
10667SOL    HW232901   3.419   2.142   5.189
10668SOL     OW32902   2.309   0.662   6.673
10668SOL    HW132903   2.371   0.740   6.661
10668SOL    HW232904   2.360   0.584   6.709
10669SOL     OW32905   1.167   6.625   7.009
10669SOL    HW132906   1.168   6.618   6.910
10669SOL    HW232907   1.075   6.606   0.024
10670SOL     OW32908   6.930   4.972   5.298
10670SOL    HW132909   7.004   4.960   5.231
10670SOL    HW232910   6.960   4.938   5.387
10671SOL     OW32911   1.791   2.076   3.611
10671SOL    HW132912   1.726   2.151   3.598
10671SOL    HW232913   1.800   2.056   3.709
10672SOL     OW32914   0.136   2.251   1.021
10672SOL    HW132915   0.082   2.182   1.069
10672SOL    HW232916   0.165   2.216   0.932
10673SOL     OW32917   3.402   3.204   4.639
10673SOL    HW132918   3.410   3.122   4.696
10673SOL    HW232919   3.388   3.284   4.698
10674SOL     OW32920   4.094   1.682   2.526
10674SOL    HW132921   4.049   1.593   2.517
10674SOL    HW232922   4.027   1.754   2.509
10675SOL     OW32923   0.200   1.071   6.628
10675SOL    HW132924   0.226   0.975   6.622
10675SOL    HW232925   0.266   1.121   6.684
10676SOL     OW32926   6.502   6.994   0.069
10676SOL    HW132927   6.459   6.955   7.006
10676SOL    HW232928   6.600   6.976   0.067
10677SOL     OW32929   6.476   1.240   0.509
10677SOL    HW132930   6.478   1.247   0.609
10677SOL    HW232931   6.545   1.174   0.480
10678SOL     OW32932   1.924   5.307   3.116
10678SOL    HW132933   1.971   5.288   3.030
10678SOL    HW232934   1.826   5.293   3.105
10679SOL     OW32935   5.099   5.393   3.307
10679SOL    HW132936   5.124   5.484   3.341
10679SOL    HW232937   5.140   5.323   3.365
10680SOL     OW32938   1.396   2.569   3.597
10680SOL    HW132939   1.373   2.593   3.691
10680SOL    HW232940   1.493   2.588   3.581
10681SOL     OW32941   0.338   1.948   6.461
10681SOL    HW132942   0.277   1.871   6.442
10681SOL    HW232943   0.357   1.951   6.559
10682SOL     OW32944   6.246   1.804   2.740
10682SOL    HW132945   6.256   1.731   2.808
10682SOL    HW232946   6.317   1.795   2.670
10683SOL     OW32947   1.876   0.706   3.970
10683SOL    HW132948   1.973   0.698   3.992
10683SOL    HW232949   1.842   0.795   4.000
10684SOL     OW32950   5.629   6.086   0.688
10684SOL    HW132951   5.714   6.053   0.647
10684SOL    HW232952   5.629   6.067   0.786
10685SOL     OW32953   6.682   2.456   2.130
10685SOL    HW132954   6.626   2.424   2.206
10685SOL    HW232955   6.778   2.459   2.159
10686SOL     OW32956   4.477   4.227   0.720
10686SOL    HW132957   4.463   4.217   0.621
10686SOL    HW232958   4.419   4.300   0.755
10687SOL     OW32959   6.883   5.479   1.072
10687SOL    HW132960   6.881   5.387   1.031
10687SOL    HW232961   6.929   5.475   1.161
10688SOL     OW32962   6.613   5.394   1.099
10688SOL    HW132963   6.706   5.425   1.078
10688SOL    HW232964   6.588   5.424   1.191
10689SOL     OW32965   1.106   0.535   1.608
10689SOL    HW132966   1.061   0.613   1.652
10689SOL    HW232967   1.037   0.476   1.566
10690SOL     OW32968   4.735   6.215   2.647
10690SOL    HW132969   4.788   6.239   2.565
10690SOL    HW232970   4.748   6.284   2.717
10691SOL     OW32971   6.275   1.646   1.517
10691SOL    HW132972   6.255   1.549   1.521
10691SOL    HW232973   6.250   1.682   1.427
10692SOL     OW32974   5.548   6.096   4.380
10692SOL    HW132975   5.548   6.151   4.463
10692SOL    HW232976   5.548   5.999   4.404
10693SOL     OW32977   4.592   2.620   3.697
10693SOL    HW132978   4.683   2.594   3.665
10693SOL    HW232979   4.600   2.676   3.780
10694SOL     OW32980   3.422   6.622   0.789
10694SOL    HW132981   3.500   6.664   0.742
10694SOL    HW232982   3.374   6.561   0.726
10695SOL     OW32983   5.893   2.610   5.214
10695SOL    HW132984   5.899   2.644   5.120
10695SOL    HW232985   5.924   2.681   5.277
10696SOL     OW32986   0.052   6.616   1.853
10696SOL    HW132987   0.022   6.710   1.868
10696SOL    HW232988   7.009   6.553   1.901
10697SOL     OW32989   2.508   6.676   2.917
10697SOL    HW132990   2.586   6.732   2.890
10697SOL    HW232991   2.540   6.599   2.972
10698SOL     OW32992   3.184   0.372   3.364
10698SOL    HW132993   3.233   0.410   3.286
10698SOL    HW232994   3.122   0.441   3.402
10699SOL     OW32995   2.191   2.602   3.092
10699SOL    HW132996   2.118   2.535   3.110
10699SOL    HW232997   2.201   2.662   3.171
10700SOL     OW32998   0.275   1.310   1.895
10700SOL    HW132999   0.355   1.287   1.951
10700SOL    HW233000   0.304   1.361   1.814
10701SOL     OW33001   3.562   6.797   1.053
10701SOL    HW133002   3.488   6.823   0.991
10701SOL    HW233003   3.526   6.741   1.128
10702SOL     OW33004   5.019   2.611   0.798
10702SOL    HW133005   4.937   2.591   0.743
10702SOL    HW233006   5.006   2.696   0.848
10703SOL     OW33007   3.875   3.063   3.833
10703SOL    HW133008   3.906   3.003   3.759
10703SOL    HW233009   3.950   3.123   3.860
10704SOL     OW33010   5.917   6.179   2.114
10704SOL    HW133011   5.970   6.115   2.059
10704SOL    HW233012   5.979   6.239   2.165
10705SOL     OW33013   1.412   3.300   6.129
10705SOL    HW133014   1.499   3.340   6.101
10705SOL    HW233015   1.336   3.351   6.088
10706SOL     OW33016   3.370   2.063   1.222
10706SOL    HW133017   3.450   2.121   1.240
10706SOL    HW233018   3.320   2.098   1.144
10707SOL     OW33019   6.178   6.900   6.299
10707SOL    HW133020   6.085   6.936   6.292
10707SOL    HW233021   6.242   6.975   6.314
10708SOL     OW33022   4.414   1.276   1.258
10708SOL    HW133023   4.419   1.177   1.247
10708SOL    HW233024   4.503   1.317   1.237
10709SOL     OW33025   0.841   6.992   6.243
10709SOL    HW133026   0.936   7.015   6.263
10709SOL    HW233027   0.786   0.056   6.243
10710SOL     OW33028   6.649   5.729   4.009
10710SOL    HW133029   6.660   5.826   3.989
10710SOL    HW233030   6.738   5.687   4.024
10711SOL     OW33031   2.468   5.562   5.214
10711SOL    HW133032   2.443   5.466   5.201
10711SOL    HW233033   2.391   5.611   5.255
10712SOL     OW33034   4.075   1.753   6.105
10712SOL    HW133035   4.023   1.801   6.176
10712SOL    HW233036   4.013   1.695   6.052
10713SOL     OW33037   2.046   5.923   0.699
10713SOL    HW133038   2.062   5.825   0.712
10713SOL    HW233039   1.959   5.937   0.652
10714SOL     OW33040   6.596   5.578   5.221
10714SOL    HW133041   6.682   5.589   5.170
10714SOL    HW233042   6.615   5.585   5.319
10715SOL     OW33043   5.832   1.091   3.459
10715SOL    HW133044   5.820   1.024   3.532
10715SOL    HW233045   5.872   1.175   3.497
10716SOL     OW33046   0.119   0.970   2.550
10716SOL    HW133047   0.190   1.037   2.530
10716SOL    HW233048   0.037   1.017   2.583
10717SOL     OW33049   7.001   6.650   2.137
10717SOL    HW133050   0.060   6.596   2.169
10717SOL    HW233051   0.003   6.747   2.147
10718SOL     OW33052   0.992   3.934   5.735
10718SOL    HW133053   1.019   4.018   5.781
10718SOL    HW233054   1.012   3.941   5.637
10719SOL     OW33055   3.870   6.475   2.283
10719SOL    HW133056   3.923   6.467   2.367
10719SOL    HW233057   3.801   6.546   2.295
10720SOL     OW33058   0.252   3.121   6.358
10720SOL    HW133059   0.178   3.067   6.397
10720SOL    HW233060   0.309   3.158   6.431
10721SOL     OW33061   5.240   1.932   4.883
10721SOL    HW133062   5.260   1.984   4.966
10721SOL    HW233063   5.214   1.994   4.810
10722SOL     OW33064   7.018   4.970   0.814
10722SOL    HW133065   0.002   4.917   0.729
10722SOL    HW233066   6.952   5.045   0.805
10723SOL     OW33067   6.275   4.568   0.246
10723SOL    HW133068   6.243   4.584   0.153
10723SOL    HW233069   6.314   4.653   0.282
10724SOL     OW33070   3.071   0.138   5.644
10724SOL    HW133071   3.091   0.142   5.742
10724SOL    HW233072   3.156   0.125   5.593
10725SOL     OW33073   0.007   0.420   5.415
10725SOL    HW133074   0.064   0.496   5.382
10725SOL    HW233075   6.978   0.379   5.338
10726SOL     OW33076   6.378   1.020   3.818
10726SOL    HW133077   6.372   1.094   3.885
10726SOL    HW233078   6.441   0.950   3.852
10727SOL     OW33079   3.554   6.656   6.713
10727SOL    HW133080   3.556   6.752   6.686
10727SOL    HW233081   3.647   6.624   6.729
10728SOL     OW33082   5.924   5.454   3.790
10728SOL    HW133083   6.018   5.483   3.778
10728SOL    HW233084   5.912   5.417   3.882
10729SOL     OW33085   5.719   2.917   3.912
10729SOL    HW133086   5.673   2.841   3.866
10729SOL    HW233087   5.817   2.914   3.893
10730SOL     OW33088   1.213   5.659   3.779
10730SOL    HW133089   1.292   5.717   3.759
10730SOL    HW233090   1.176   5.684   3.869
10731SOL     OW33091   4.865   5.733   6.676
10731SOL    HW133092   4.809   5.662   6.719
10731SOL    HW233093   4.811   5.782   6.607
10732SOL     OW33094   6.429   5.998   2.370
10732SOL    HW133095   6.461   5.926   2.432
10732SOL    HW233096   6.505   6.029   2.313
10733SOL     OW33097   0.575   1.802   6.271
10733SOL    HW133098   0.606   1.896   6.279
10733SOL    HW233099   0.645   1.740   6.308
10734SOL     OW33100   1.026   0.777   4.721
10734SOL    HW133101   1.089   0.741   4.652
10734SOL    HW233102   0.995   0.703   4.781
10735SOL     OW33103   0.334   0.179   2.183
10735SOL    HW133104   0.273   0.117   2.233
10735SOL    HW233105   0.421   0.186   2.232
10736SOL     OW33106   5.571   5.922   3.181
10736SOL    HW133107   5.569   5.956   3.275
10736SOL    HW233108   5.482   5.884   3.157
10737SOL     OW33109   6.464   0.859   1.814
10737SOL    HW133110   6.425   0.860   1.906
10737SOL    HW233111   6.557   0.895   1.816
10738SOL     OW33112   2.664   6.685   1.619
10738SOL    HW133113   2.719   6.610   1.584
10738SOL    HW233114   2.664   6.682   1.719
10739SOL     OW33115   5.297   3.228   4.271
10739SOL    HW133116   5.385   3.255   4.311
10739SOL    HW233117   5.240   3.309   4.257
10740SOL     OW33118   2.868   0.102   6.033
10740SOL    HW133119   2.934   0.097   5.958
10740SOL    HW233120   2.780   0.135   5.999
10741SOL     OW33121   1.299   2.285   3.539
10741SOL    HW133122   1.271   2.252   3.449
10741SOL    HW233123   1.318   2.383   3.534
10742SOL     OW33124   6.691   6.652   1.891
10742SOL    HW133125   6.738   6.570   1.922
10742SOL    HW233126   6.748   6.700   1.824
10743SOL     OW33127   3.615   2.161   5.830
10743SOL    HW133128   3.689   2.104   5.867
10743SOL    HW233129   3.618   2.159   5.731
10744SOL     OW33130   2.624   1.577   1.150
10744SOL    HW133131   2.616   1.588   1.051
10744SOL    HW233132   2.533   1.582   1.192
10745SOL     OW33133   2.598   4.795   1.154
10745SOL    HW133134   2.556   4.729   1.216
10745SOL    HW233135   2.527   4.837   1.098
10746SOL     OW33136   2.472   5.337   6.565
10746SOL    HW133137   2.508   5.416   6.514
10746SOL    HW233138   2.548   5.283   6.601
10747SOL     OW33139   0.103   1.530   4.533
10747SOL    HW133140   0.183   1.520   4.591
10747SOL    HW233141   0.022   1.543   4.590
10748SOL     OW33142   3.081   6.384   2.492
10748SOL    HW133143   3.029   6.335   2.562
10748SOL    HW233144   3.178   6.359   2.499
10749SOL     OW33145   6.166   4.554   1.921
10749SOL    HW133146   6.113   4.631   1.956
10749SOL    HW233147   6.153   4.547   1.822
10750SOL     OW33148   4.166   2.282   4.486
10750SOL    HW133149   4.099   2.293   4.559
10750SOL    HW233150   4.123   2.239   4.407
10751SOL     OW33151   6.613   5.970   4.437
10751SOL    HW133152   6.620   5.880   4.395
10751SOL    HW233153   6.519   5.986   4.466
10752SOL     OW33154   6.628   6.434   0.136
10752SOL    HW133155   6.629   6.534   0.139
10752SOL    HW233156   6.701   6.398   0.193
10753SOL     OW33157   5.368   6.795   5.304
10753SOL    HW133158   5.457   6.825   5.269
10753SOL    HW233159   5.300   6.866   5.288
10754SOL     OW33160   1.254   5.238   1.979
10754SOL    HW133161   1.216   5.145   1.974
10754SOL    HW233162   1.354   5.233   1.974
10755SOL     OW33163   0.665   1.878   1.595
10755SOL    HW133164   0.714   1.881   1.508
10755SOL    HW233165   0.668   1.785   1.632
10756SOL     OW33166   1.295   0.386   6.952
10756SOL    HW133167   1.298   0.345   6.861
10756SOL    HW233168   1.266   0.318   7.019
10757SOL     OW33169   0.408   2.774   2.520
10757SOL    HW133170   0.360   2.857   2.493
10757SOL    HW233171   0.347   2.716   2.574
10758SOL     OW33172   1.081   0.728   0.143
10758SOL    HW133173   1.089   0.797   0.071
10758SOL    HW233174   1.138   0.755   0.221
10759SOL     OW33175   3.251   3.078   5.075
10759SOL    HW133176   3.299   2.999   5.037
10759SOL    HW233177   3.155   3.075   5.047
10760SOL     OW33178   0.515   5.143   6.781
10760SOL    HW133179   0.522   5.051   6.742
10760SOL    HW233180   0.422   5.158   6.813
10761SOL     OW33181   1.212   1.889   5.919
10761SOL    HW133182   1.129   1.859   5.966
10761SOL    HW233183   1.204   1.986   5.894
10762SOL     OW33184   2.187   5.684   0.232
10762SOL    HW133185   2.259   5.706   0.298
10762SOL    HW233186   2.098   5.682   0.280
10763SOL     OW33187   4.483   0.881   3.112
10763SOL    HW133188   4.527   0.815   3.173
10763SOL    HW233189   4.395   0.909   3.152
10764SOL     OW33190   5.006   6.321   4.640
10764SOL    HW133191   4.982   6.235   4.685
10764SOL    HW233192   4.993   6.397   4.704
10765SOL     OW33193   1.266   2.449   1.127
10765SOL    HW133194   1.325   2.384   1.080
10765SOL    HW233195   1.321   2.504   1.190
10766SOL     OW33196   2.689   5.150   6.381
10766SOL    HW133197   2.731   5.241   6.374
10766SOL    HW233198   2.619   5.140   6.310
10767SOL     OW33199   1.359   4.592   6.976
10767SOL    HW133200   1.338   4.676   6.926
10767SOL    HW233201   1.405   4.615   0.043
10768SOL     OW33202   5.372   6.668   6.837
10768SOL    HW133203   5.327   6.688   6.750
10768SOL    HW233204   5.319   6.601   6.887
10769SOL     OW33205   3.044   3.116   4.923
10769SOL    HW133206   3.063   3.074   4.834
10769SOL    HW233207   2.947   3.106   4.944
10770SOL     OW33208   5.692   0.169   3.244
10770SOL    HW133209   5.636   0.166   3.326
10770SOL    HW233210   5.688   0.261   3.204
10771SOL     OW33211   4.944   6.185   5.975
10771SOL    HW133212   5.005   6.233   5.911
10771SOL    HW233213   4.928   6.092   5.941
10772SOL     OW33214   5.557   4.863   2.655
10772SOL    HW133215   5.539   4.818   2.743
10772SOL    HW233216   5.530   4.960   2.662
10773SOL     OW33217   0.945   3.466   0.683
10773SOL    HW133218   0.985   3.405   0.615
10773SOL    HW233219   0.902   3.544   0.636
10774SOL     OW33220   0.837   3.052   0.607
10774SOL    HW133221   0.768   3.070   0.537
10774SOL    HW233222   0.904   2.987   0.571
10775SOL     OW33223   2.191   3.500   0.124
10775SOL    HW133224   2.284   3.468   0.142
10775SOL    HW233225   2.126   3.432   0.158
10776SOL     OW33226   0.831   3.338   3.237
10776SOL    HW133227   0.851   3.304   3.329
10776SOL    HW233228   0.765   3.413   3.242
10777SOL     OW33229   1.373   6.865   0.971
10777SOL    HW133230   1.378   6.804   0.892
10777SOL    HW233231   1.455   6.923   0.973
10778SOL     OW33232   4.502   0.389   3.127
10778SOL    HW133233   4.594   0.382   3.164
10778SOL    HW233234   4.452   0.305   3.146
10779SOL     OW33235   5.830   3.309   6.111
10779SOL    HW133236   5.757   3.364   6.070
10779SOL    HW233237   5.789   3.243   6.174
10780SOL     OW33238   2.098   5.155   4.783
10780SOL    HW133239   2.078   5.143   4.686
10780SOL    HW233240   2.051   5.085   4.836
10781SOL     OW33241   5.523   1.992   5.539
10781SOL    HW133242   5.605   1.972   5.594
10781SOL    HW233243   5.472   1.908   5.524
10782SOL     OW33244   0.975   2.781   5.296
10782SOL    HW133245   0.963   2.704   5.232
10782SOL    HW233246   0.891   2.794   5.348
10783SOL     OW33247   1.711   3.386   3.505
10783SOL    HW133248   1.807   3.412   3.498
10783SOL    HW233249   1.655   3.450   3.454
10784SOL     OW33250   4.427   5.617   3.884
10784SOL    HW133251   4.329   5.603   3.869
10784SOL    HW233252   4.441   5.701   3.935
10785SOL     OW33253   2.166   5.246   1.449
10785SOL    HW133254   2.223   5.328   1.456
10785SOL    HW233255   2.213   5.177   1.395
10786SOL     OW33256   4.657   1.756   2.274
10786SOL    HW133257   4.578   1.786   2.221
10786SOL    HW233258   4.710   1.690   2.221
10787SOL     OW33259   3.814   2.108   3.851
10787SOL    HW133260   3.851   2.020   3.882
10787SOL    HW233261   3.890   2.169   3.825
10788SOL     OW33262   2.055   3.301   0.239
10788SOL    HW133263   2.121   3.304   0.314
10788SOL    HW233264   1.963   3.318   0.274
10789SOL     OW33265   6.868   1.271   2.141
10789SOL    HW133266   6.961   1.239   2.159
10789SOL    HW233267   6.840   1.243   2.049
10790SOL     OW33268   6.800   2.191   5.473
10790SOL    HW133269   6.705   2.187   5.443
10790SOL    HW233270   6.861   2.185   5.394
10791SOL     OW33271   1.628   2.276   3.507
10791SOL    HW133272   1.532   2.301   3.494
10791SOL    HW233273   1.686   2.336   3.453
10792SOL     OW33274   3.608   1.768   2.403
10792SOL    HW133275   3.698   1.788   2.364
10792SOL    HW233276   3.582   1.843   2.464
10793SOL     OW33277   3.445   2.126   4.497
10793SOL    HW133278   3.361   2.178   4.485
10793SOL    HW233279   3.428   2.048   4.558
10794SOL     OW33280   5.227   2.343   6.882
10794SOL    HW133281   5.273   2.260   6.912
10794SOL    HW233282   5.247   2.359   6.785
10795SOL     OW33283   6.891   3.481   3.163
10795SOL    HW133284   6.975   3.443   3.200
10795SOL    HW233285   6.813   3.424   3.191
10796SOL     OW33286   0.362   1.581   5.917
10796SOL    HW133287   0.280   1.534   5.950
10796SOL    HW233288   0.399   1.532   5.838
10797SOL     OW33289   4.707   4.347   0.143
10797SOL    HW133290   4.689   4.343   0.241
10797SOL    HW233291   4.656   4.423   0.103
10798SOL     OW33292   2.391   6.109   0.101
10798SOL    HW133293   2.470   6.154   0.142
10798SOL    HW233294   2.376   6.145   0.009
10799SOL     OW33295   3.503   0.790   2.943
10799SOL    HW133296   3.450   0.793   2.858
10799SOL    HW233297   3.596   0.822   2.926
10800SOL     OW33298   1.682   6.962   5.317
10800SOL    HW133299   1.717   0.020   5.263
10800SOL    HW233300   1.754   6.895   5.331
10801SOL     OW33301   2.530   6.564   6.919
10801SOL    HW133302   2.546   6.586   7.015
10801SOL    HW233303   2.471   6.633   6.878
10802SOL     OW33304   0.634   4.832   4.399
10802SOL    HW133305   0.676   4.742   4.400
10802SOL    HW233306   0.690   4.894   4.343
10803SOL     OW33307   6.847   4.632   3.964
10803SOL    HW133308   6.802   4.597   3.882
10803SOL    HW233309   6.937   4.667   3.940
10804SOL     OW33310   4.694   4.547   1.008
10804SOL    HW133311   4.712   4.475   0.941
10804SOL    HW233312   4.729   4.519   1.097
10805SOL     OW33313   4.004   6.090   0.906
10805SOL    HW133314   4.006   5.993   0.886
10805SOL    HW233315   3.913   6.116   0.939
10806SOL     OW33316   5.596   3.907   6.341
10806SOL    HW133317   5.559   3.843   6.273
10806SOL    HW233318   5.643   3.981   6.294
10807SOL     OW33319   4.541   2.178   4.278
10807SOL    HW133320   4.499   2.269   4.282
10807SOL    HW233321   4.612   2.177   4.207
10808SOL     OW33322   0.490   1.615   0.228
10808SOL    HW133323   0.549   1.642   0.152
10808SOL    HW233324   0.530   1.645   0.314
10809SOL     OW33325   2.469   1.093   2.338
10809SOL    HW133326   2.445   1.030   2.413
10809SOL    HW233327   2.536   1.160   2.371
10810SOL     OW33328   1.847   1.049   6.555
10810SOL    HW133329   1.866   1.131   6.501
10810SOL    HW233330   1.794   0.984   6.500
10811SOL     OW33331   4.783   5.253   6.471
10811SOL    HW133332   4.710   5.313   6.505
10811SOL    HW233333   4.801   5.181   6.539
10812SOL     OW33334   6.246   2.718   2.090
10812SOL    HW133335   6.280   2.680   2.176
10812SOL    HW233336   6.240   2.646   2.021
10813SOL     OW33337   3.618   5.664   2.615
10813SOL    HW133338   3.672   5.730   2.668
10813SOL    HW233339   3.611   5.578   2.666
10814SOL     OW33340   1.687   5.905   4.353
10814SOL    HW133341   1.776   5.932   4.316
10814SOL    HW233342   1.647   5.981   4.404
10815SOL     OW33343   4.651   1.761   4.627
10815SOL    HW133344   4.652   1.680   4.686
10815SOL    HW233345   4.644   1.843   4.683
10816SOL     OW33346   2.486   2.205   1.541
10816SOL    HW133347   2.582   2.198   1.516
10816SOL    HW233348   2.476   2.197   1.640
10817SOL     OW33349   4.160   0.660   1.651
10817SOL    HW133350   4.155   0.619   1.742
10817SOL    HW233351   4.230   0.615   1.596
10818SOL     OW33352   3.986   2.938   6.815
10818SOL    HW133353   3.928   2.928   6.735
10818SOL    HW233354   4.063   2.998   6.793
10819SOL     OW33355   0.995   3.595   5.385
10819SOL    HW133356   0.937   3.521   5.351
10819SOL    HW233357   1.028   3.572   5.476
10820SOL     OW33358   0.405   6.529   4.742
10820SOL    HW133359   0.501   6.560   4.742
10820SOL    HW233360   0.355   6.577   4.814
10821SOL     OW33361   0.500   0.425   0.722
10821SOL    HW133362   0.507   0.500   0.656
10821SOL    HW233363   0.574   0.434   0.789
10822SOL     OW33364   0.545   4.246   6.725
10822SOL    HW133365   0.487   4.275   6.801
10822SOL    HW233366   0.498   4.265   6.638
10823SOL     OW33367   1.851   2.338   1.321
10823SOL    HW133368   1.788   2.267   1.351
10823SOL    HW233369   1.942   2.299   1.306
10824SOL     OW33370   4.949   0.928   3.581
10824SOL    HW133371   4.953   0.829   3.596
10824SOL    HW233372   4.924   0.946   3.486
10825SOL     OW33373   3.371   0.920   2.264
10825SOL    HW133374   3.308   0.995   2.282
10825SOL    HW233375   3.425   0.900   2.346
10826SOL     OW33376   6.609   2.883   1.196
10826SOL    HW133377   6.659   2.917   1.275
10826SOL    HW233378   6.662   2.810   1.152
10827SOL     OW33379   1.001   3.099   4.349
10827SOL    HW133380   1.040   3.158   4.278
10827SOL    HW233381   1.047   3.116   4.436
10828SOL     OW33382   2.411   5.502   0.301
10828SOL    HW133383   2.368   5.461   0.221
10828SOL    HW233384   2.355   5.484   0.382
10829SOL     OW33385   1.949   3.503   1.642
10829SOL    HW133386   2.023   3.437   1.638
10829SOL    HW233387   1.984   3.590   1.677
10830SOL     OW33388   5.702   1.123   3.727
10830SOL    HW133389   5.675   1.055   3.795
10830SOL    HW233390   5.639   1.119   3.649
10831SOL     OW33391   5.316   3.096   2.164
10831SOL    HW133392   5.357   3.071   2.251
10831SOL    HW233393   5.333   3.193   2.145
10832SOL     OW33394   0.647   3.842   2.846
10832SOL    HW133395   0.596   3.773   2.795
10832SOL    HW233396   0.603   3.931   2.835
10833SOL     OW33397   2.988   6.624   3.976
10833SOL    HW133398   3.017   6.602   3.883
10833SOL    HW233399   2.941   6.713   3.976
10834SOL     OW33400   6.767   1.223   5.322
10834SOL    HW133401   6.700   1.268   5.381
10834SOL    HW233402   6.761   1.124   5.334
10835SOL     OW33403   0.521   2.388   0.994
10835SOL    HW133404   0.547   2.310   0.937
10835SOL    HW233405   0.580   2.466   0.972
10836SOL     OW33406   1.679   2.901   0.537
10836SOL    HW133407   1.610   2.830   0.522
10836SOL    HW233408   1.724   2.886   0.625
10837SOL     OW33409   1.120   5.676   1.315
10837SOL    HW133410   1.020   5.679   1.319
10837SOL    HW233411   1.150   5.685   1.220
10838SOL     OW33412   6.531   6.637   0.424
10838SOL    HW133413   6.557   6.546   0.457
10838SOL    HW233414   6.570   6.652   0.334
10839SOL     OW33415   1.315   1.384   6.991
10839SOL    HW133416   1.251   1.460   6.982
10839SOL    HW233417   1.386   1.391   6.921
10840SOL     OW33418   2.799   6.941   2.470
10840SOL    HW133419   2.883   6.994   2.477
10840SOL    HW233420   2.787   6.911   2.376
10841SOL     OW33421   4.478   3.181   0.589
10841SOL    HW133422   4.507   3.273   0.617
10841SOL    HW233423   4.381   3.168   0.611
10842SOL     OW33424   5.882   2.800   1.318
10842SOL    HW133425   5.798   2.746   1.319
10842SOL    HW233426   5.960   2.739   1.302
10843SOL     OW33427   0.437   1.618   1.490
10843SOL    HW133428   0.444   1.683   1.565
10843SOL    HW233429   0.349   1.570   1.494
10844SOL     OW33430   4.370   0.726   3.426
10844SOL    HW133431   4.339   0.681   3.342
10844SOL    HW233432   4.391   0.822   3.407
10845SOL     OW33433   2.477   3.366   0.496
10845SOL    HW133434   2.449   3.461   0.484
10845SOL    HW233435   2.567   3.362   0.540
10846SOL     OW33436   3.231   2.200   1.450
10846SOL    HW133437   3.287   2.118   1.444
10846SOL    HW233438   3.230   2.247   1.362
10847SOL     OW33439   4.945   2.747   5.280
10847SOL    HW133440   4.864   2.690   5.269
10847SOL    HW233441   4.977   2.743   5.375
10848SOL     OW33442   1.304   0.521   6.611
10848SOL    HW133443   1.315   0.493   6.515
10848SOL    HW233444   1.392   0.517   6.657
10849SOL     OW33445   2.070   5.126   4.004
10849SOL    HW133446   2.018   5.064   4.063
10849SOL    HW233447   2.136   5.074   3.950
10850SOL     OW33448   5.945   0.475   1.892
10850SOL    HW133449   5.888   0.529   1.954
10850SOL    HW233450   5.976   0.533   1.817
10851SOL     OW33451   4.575   2.179   6.871
10851SOL    HW133452   4.501   2.112   6.862
10851SOL    HW233453   4.647   2.142   6.929
10852SOL     OW33454   6.568   0.733   6.112
10852SOL    HW133455   6.616   0.819   6.126
10852SOL    HW233456   6.623   0.674   6.052
10853SOL     OW33457   2.610   0.756   4.316
10853SOL    HW133458   2.610   0.856   4.312
10853SOL    HW233459   2.562   0.719   4.237
10854SOL     OW33460   0.137   0.542   1.081
10854SOL    HW133461   0.088   0.456   1.068
10854SOL    HW233462   0.233   0.530   1.055
10855SOL     OW33463   0.051   5.878   0.960
10855SOL    HW133464   0.034   5.786   0.923
10855SOL    HW233465   0.148   5.900   0.949
10856SOL     OW33466   5.334   0.230   6.431
10856SOL    HW133467   5.277   0.154   6.400
10856SOL    HW233468   5.321   0.242   6.530
10857SOL     OW33469   6.475   0.314   4.804
10857SOL    HW133470   6.447   0.389   4.863
10857SOL    HW233471   6.571   0.325   4.778
10858SOL     OW33472   1.899   2.053   0.472
10858SOL    HW133473   1.879   2.061   0.570
10858SOL    HW233474   1.998   2.061   0.459
10859SOL     OW33475   1.669   5.246   2.469
10859SOL    HW133476   1.602   5.263   2.397
10859SOL    HW233477   1.625   5.198   2.545
10860SOL     OW33478   5.927   2.429   1.642
10860SOL    HW133479   5.986   2.390   1.571
10860SOL    HW233480   5.853   2.480   1.599
10861SOL     OW33481   1.432   3.937   1.895
10861SOL    HW133482   1.443   4.036   1.901
10861SOL    HW233483   1.479   3.904   1.813
10862SOL     OW33484   3.466   4.348   5.295
10862SOL    HW133485   3.549   4.362   5.241
10862SOL    HW233486   3.478   4.269   5.355
10863SOL     OW33487   1.789   0.287   3.546
10863SOL    HW133488   1.883   0.269   3.575
10863SOL    HW233489   1.788   0.303   3.447
10864SOL     OW33490   2.990   3.742   1.894
10864SOL    HW133491   3.076   3.692   1.902
10864SOL    HW233492   2.927   3.711   1.966
10865SOL     OW33493   3.417   1.659   2.688
10865SOL    HW133494   3.509   1.679   2.721
10865SOL    HW233495   3.350   1.710   2.742
10866SOL     OW33496   1.012   3.472   3.842
10866SOL    HW133497   0.917   3.447   3.861
10866SOL    HW233498   1.073   3.405   3.882
10867SOL     OW33499   4.227   3.143   0.199
10867SOL    HW133500   4.270   3.087   0.128
10867SOL    HW233501   4.179   3.083   0.263
10868SOL     OW33502   1.291   6.699   5.106
10868SOL    HW133503   1.390   6.688   5.098
10868SOL    HW233504   1.270   6.755   5.185
10869NA      NA33505   6.783   1.203   6.423
10870NA      NA33506   4.456   4.560   5.427
10871NA      NA33507   0.872   4.793   2.776
10872NA      NA33508   5.695   3.742   3.131
10873NA      NA33509   3.812   2.748   5.507
10874NA      NA33510   2.372   4.690   6.838
10875NA      NA33511   1.655   5.537   6.974
10876NA      NA33512   4.212   4.911   1.545
10877NA      NA33513   4.922   4.268   0.720
10878NA      NA33514   3.434   1.511   0.792
10879NA      NA33515   5.762   6.982   1.461
10880NA      NA33516   2.275   6.664   5.189
10881NA      NA33517   4.268   4.815   2.865
10882NA      NA33518   4.139   3.912   6.799
   7.01878   7.01878   7.01878
