Generated by trjconv : CNT in water t= 137.00000
33518
    1C        C    1   2.839   2.764   4.746
    1C        C    2   2.896   2.716   4.866
    1C        C    3   2.838   2.765   4.984
    1C        C    4   2.853   2.778   4.262
    1C        C    5   2.901   2.726   4.384
    1C        C    6   2.846   2.774   4.505
    1C        C    7   3.010   2.636   4.622
    1C        C    8   2.896   2.719   4.625
    1C        C    9   3.076   2.603   4.742
    1C        C   10   3.009   2.631   4.863
    1C        C   11   3.177   2.489   4.973
    1C        C   12   3.056   2.560   4.974
    1C        C   13   2.846   2.769   3.772
    1C        C   14   2.899   2.721   3.894
    1C        C   15   2.848   2.769   4.016
    1C        C   16   3.019   2.648   4.138
    1C        C   17   2.900   2.725   4.140
    1C        C   18   3.080   2.613   4.261
    1C        C   19   3.015   2.642   4.383
    1C        C   20   3.208   2.548   4.503
    1C        C   21   3.076   2.600   4.503
    1C        C   22   3.279   2.535   4.625
    1C        C   23   3.207   2.548   4.746
    1C        C   24   3.410   2.479   4.864
    1C        C   25   3.268   2.497   4.863
    1C        C   26   3.489   2.476   4.980
    1C        C   27   2.847   2.767   3.280
    1C        C   28   2.900   2.722   3.403
    1C        C   29   2.854   2.775   3.526
    1C        C   30   3.016   2.642   3.649
    1C        C   31   2.903   2.727   3.650
    1C        C   32   3.077   2.606   3.771
    1C        C   33   3.016   2.642   3.893
    1C        C   34   3.210   2.557   4.015
    1C        C   35   3.078   2.610   4.016
    1C        C   36   3.277   2.536   4.137
    1C        C   37   3.210   2.559   4.260
    1C        C   38   3.415   2.503   4.381
    1C        C   39   3.278   2.534   4.382
    1C        C   40   3.487   2.498   4.503
    1C        C   41   3.418   2.511   4.625
    1C        C   42   3.630   2.484   4.741
    1C        C   43   3.488   2.483   4.745
    1C        C   44   3.705   2.490   4.861
    1C        C   45   3.628   2.477   4.977
    1C        C   46   2.841   2.757   2.791
    1C        C   47   2.895   2.714   2.914
    1C        C   48   2.846   2.763   3.037
    1C        C   49   3.018   2.639   3.160
    1C        C   50   2.903   2.720   3.159
    1C        C   51   3.078   2.604   3.284
    1C        C   52   3.015   2.640   3.406
    1C        C   53   3.207   2.549   3.527
    1C        C   54   3.077   2.604   3.527
    1C        C   55   3.277   2.531   3.649
    1C        C   56   3.208   2.555   3.770
    1C        C   57   3.415   2.505   3.894
    1C        C   58   3.276   2.534   3.893
    1C        C   59   3.488   2.508   4.014
    1C        C   60   3.416   2.515   4.136
    1C        C   61   3.626   2.509   4.258
    1C        C   62   3.485   2.498   4.258
    1C        C   63   3.699   2.513   4.379
    1C        C   64   3.628   2.503   4.500
    1C        C   65   3.837   2.542   4.620
    1C        C   66   3.702   2.501   4.621
    1C        C   67   3.906   2.558   4.742
    1C        C   68   3.841   2.527   4.864
    1C        C   69   4.052   2.584   4.976
    1C        C   70   3.922   2.531   4.978
    1C        C   71   2.825   2.734   2.308
    1C        C   72   2.882   2.687   2.429
    1C        C   73   2.827   2.740   2.548
    1C        C   74   3.006   2.623   2.672
    1C        C   75   2.889   2.703   2.669
    1C        C   76   3.069   2.591   2.794
    1C        C   77   3.011   2.633   2.915
    1C        C   78   3.209   2.554   3.040
    1C        C   79   3.077   2.605   3.036
    1C        C   80   3.278   2.534   3.161
    1C        C   81   3.209   2.553   3.283
    1C        C   82   3.414   2.500   3.402
    1C        C   83   3.276   2.530   3.406
    1C        C   84   3.484   2.495   3.525
    1C        C   85   3.415   2.505   3.648
    1C        C   86   3.625   2.503   3.770
    1C        C   87   3.484   2.494   3.771
    1C        C   88   3.698   2.515   3.890
    1C        C   89   3.629   2.509   4.013
    1C        C   90   3.834   2.548   4.135
    1C        C   91   3.698   2.513   4.136
    1C        C   92   3.903   2.574   4.256
    1C        C   93   3.837   2.545   4.377
    1C        C   94   4.030   2.629   4.500
    1C        C   95   3.907   2.560   4.499
    1C        C   96   4.090   2.669   4.621
    1C        C   97   4.031   2.626   4.742
    1C        C   98   4.194   2.764   4.862
    1C        C   99   4.099   2.656   4.862
    1C        C  100   4.208   2.845   4.976
    1C        C  101   2.818   2.721   2.069
    1C        C  102   2.990   2.591   2.189
    1C        C  103   2.874   2.674   2.188
    1C        C  104   3.061   2.571   2.311
    1C        C  105   3.002   2.613   2.432
    1C        C  106   3.203   2.535   2.553
    1C        C  107   3.071   2.587   2.552
    1C        C  108   3.273   2.523   2.674
    1C        C  109   3.202   2.543   2.795
    1C        C  110   3.410   2.499   2.916
    1C        C  111   3.271   2.525   2.916
    1C        C  112   3.484   2.489   3.036
    1C        C  113   3.417   2.506   3.160
    1C        C  114   3.629   2.499   3.281
    1C        C  115   3.488   2.496   3.281
    1C        C  116   3.698   2.504   3.404
    1C        C  117   3.625   2.501   3.526
    1C        C  118   3.834   2.542   3.645
    1C        C  119   3.696   2.512   3.648
    1C        C  120   3.901   2.568   3.766
    1C        C  121   3.836   2.548   3.890
    1C        C  122   4.026   2.637   4.013
    1C        C  123   3.902   2.568   4.013
    1C        C  124   4.088   2.674   4.135
    1C        C  125   4.031   2.635   4.258
    1C        C  126   4.198   2.764   4.378
    1C        C  127   4.091   2.672   4.380
    1C        C  128   4.245   2.818   4.500
    1C        C  129   4.194   2.766   4.621
    1C        C  130   4.324   2.937   4.743
    1C        C  131   4.241   2.821   4.741
    1C        C  132   4.356   3.004   4.863
    1C        C  133   4.283   2.962   4.975
    1C        C  134   3.170   2.465   2.084
    1C        C  135   3.035   2.503   2.085
    1C        C  136   3.258   2.476   2.192
    1C        C  137   3.193   2.516   2.310
    1C        C  138   3.405   2.479   2.428
    1C        C  139   3.265   2.501   2.430
    1C        C  140   3.478   2.480   2.548
    1C        C  141   3.411   2.492   2.672
    1C        C  142   3.622   2.500   2.791
    1C        C  143   3.481   2.492   2.795
    1C        C  144   3.694   2.506   2.913
    1C        C  145   3.625   2.491   3.035
    1C        C  146   3.833   2.533   3.157
    1C        C  147   3.696   2.497   3.157
    1C        C  148   3.901   2.562   3.277
    1C        C  149   3.834   2.541   3.400
    1C        C  150   4.029   2.622   3.522
    1C        C  151   3.901   2.561   3.522
    1C        C  152   4.084   2.666   3.644
    1C        C  153   4.026   2.634   3.769
    1C        C  154   4.194   2.763   3.888
    1C        C  155   4.086   2.673   3.891
    1C        C  156   4.246   2.812   4.010
    1C        C  157   4.200   2.761   4.133
    1C        C  158   4.337   2.922   4.253
    1C        C  159   4.251   2.810   4.255
    1C        C  160   4.374   2.985   4.374
    1C        C  161   4.329   2.932   4.497
    1C        C  162   4.437   3.113   4.616
    1C        C  163   4.366   2.991   4.619
    1C        C  164   4.468   3.182   4.735
    1C        C  165   4.437   3.119   4.858
    1C        C  166   4.510   3.320   4.973
    1C        C  167   4.476   3.185   4.976
    1C        C  168   3.477   2.438   2.074
    1C        C  169   3.399   2.459   2.188
    1C        C  170   3.618   2.471   2.309
    1C        C  171   3.476   2.468   2.306
    1C        C  172   3.693   2.487   2.427
    1C        C  173   3.619   2.488   2.548
    1C        C  174   3.828   2.541   2.667
    1C        C  175   3.691   2.508   2.668
    1C        C  176   3.897   2.559   2.788
    1C        C  177   3.832   2.536   2.912
    1C        C  178   4.025   2.621   3.032
    1C        C  179   3.899   2.558   3.034
    1C        C  180   4.088   2.658   3.153
    1C        C  181   4.028   2.625   3.276
    1C        C  182   4.195   2.751   3.398
    1C        C  183   4.088   2.659   3.399
    1C        C  184   4.241   2.805   3.520
    1C        C  185   4.193   2.756   3.643
    1C        C  186   4.338   2.915   3.764
    1C        C  187   4.245   2.808   3.764
    1C        C  188   4.378   2.974   3.885
    1C        C  189   4.335   2.922   4.009
    1C        C  190   4.444   3.105   4.127
    1C        C  191   4.376   2.982   4.131
    1C        C  192   4.468   3.172   4.249
    1C        C  193   4.440   3.110   4.373
    1C        C  194   4.507   3.313   4.494
    1C        C  195   4.468   3.177   4.494
    1C        C  196   4.527   3.386   4.613
    1C        C  197   4.514   3.317   4.735
    1C        C  198   4.555   3.533   4.852
    1C        C  199   4.531   3.392   4.855
    1C        C  200   4.586   3.619   4.962
    1C        C  201   3.616   2.425   2.071
    1C        C  202   3.827   2.509   2.183
    1C        C  203   3.691   2.465   2.186
    1C        C  204   3.901   2.534   2.302
    1C        C  205   3.831   2.518   2.423
    1C        C  206   4.025   2.612   2.543
    1C        C  207   3.896   2.553   2.543
    1C        C  208   4.083   2.657   2.664
    1C        C  209   4.022   2.626   2.787
    1C        C  210   4.199   2.741   2.907
    1C        C  211   4.084   2.660   2.909
    1C        C  212   4.250   2.792   3.029
    1C        C  213   4.198   2.747   3.152
    1C        C  214   4.332   2.911   3.270
    1C        C  215   4.243   2.802   3.275
    1C        C  216   4.368   2.970   3.393
    1C        C  217   4.327   2.917   3.518
    1C        C  218   4.434   3.100   3.638
    1C        C  219   4.373   2.972   3.640
    1C        C  220   4.463   3.167   3.758
    1C        C  221   4.443   3.100   3.880
    1C        C  222   4.500   3.305   4.002
    1C        C  223   4.467   3.167   4.002
    1C        C  224   4.515   3.376   4.123
    1C        C  225   4.503   3.309   4.247
    1C        C  226   4.519   3.521   4.366
    1C        C  227   4.515   3.379   4.369
    1C        C  228   4.515   3.594   4.486
    1C        C  229   4.534   3.527   4.609
    1C        C  230   4.502   3.739   4.724
    1C        C  231   4.540   3.602   4.729
    1C        C  232   4.499   3.817   4.842
    1C        C  233   4.544   3.753   4.958
    1C        C  234   4.013   2.615   2.063
    1C        C  235   3.898   2.537   2.066
    1C        C  236   4.084   2.648   2.180
    1C        C  237   4.026   2.603   2.300
    1C        C  238   4.198   2.733   2.419
    1C        C  239   4.087   2.643   2.420
    1C        C  240   4.252   2.785   2.539
    1C        C  241   4.196   2.741   2.661
    1C        C  242   4.337   2.900   2.784
    1C        C  243   4.250   2.788   2.784
    1C        C  244   4.378   2.960   2.904
    1C        C  245   4.335   2.905   3.027
    1C        C  246   4.438   3.093   3.147
    1C        C  247   4.377   2.966   3.147
    1C        C  248   4.458   3.159   3.271
    1C        C  249   4.429   3.097   3.395
    1C        C  250   4.495   3.302   3.514
    1C        C  251   4.455   3.167   3.515
    1C        C  252   4.508   3.374   3.634
    1C        C  253   4.497   3.305   3.757
    1C        C  254   4.524   3.514   3.879
    1C        C  255   4.511   3.374   3.879
    1C        C  256   4.517   3.588   3.999
    1C        C  257   4.520   3.517   4.122
    1C        C  258   4.492   3.729   4.241
    1C        C  259   4.515   3.590   4.243
    1C        C  260   4.471   3.800   4.361
    1C        C  261   4.485   3.732   4.484
    1C        C  262   4.423   3.938   4.602
    1C        C  263   4.477   3.807   4.604
    1C        C  264   4.399   4.009   4.722
    1C        C  265   4.434   3.942   4.841
    1C        C  266   4.314   4.124   4.954
    1C        C  267   4.389   4.007   4.957
    1C        C  268   4.261   2.772   2.061
    1C        C  269   4.195   2.735   2.179
    1C        C  270   4.342   2.892   2.298
    1C        C  271   4.254   2.781   2.299
    1C        C  272   4.378   2.955   2.419
    1C        C  273   4.344   2.892   2.541
    1C        C  274   4.444   3.082   2.660
    1C        C  275   4.379   2.957   2.662
    1C        C  276   4.471   3.151   2.781
    1C        C  277   4.445   3.084   2.903
    1C        C  278   4.505   3.291   3.023
    1C        C  279   4.466   3.155   3.023
    1C        C  280   4.508   3.362   3.146
    1C        C  281   4.492   3.296   3.270
    1C        C  282   4.515   3.509   3.389
    1C        C  283   4.514   3.367   3.390
    1C        C  284   4.512   3.583   3.509
    1C        C  285   4.516   3.516   3.633
    1C        C  286   4.498   3.723   3.751
    1C        C  287   4.522   3.584   3.756
    1C        C  288   4.478   3.794   3.872
    1C        C  289   4.495   3.728   3.996
    1C        C  290   4.425   3.929   4.115
    1C        C  291   4.473   3.796   4.118
    1C        C  292   4.397   3.995   4.236
    1C        C  293   4.428   3.934   4.360
    1C        C  294   4.324   4.124   4.477
    1C        C  295   4.394   4.002   4.479
    1C        C  296   4.280   4.185   4.597
    1C        C  297   4.328   4.132   4.719
    1C        C  298   4.194   4.308   4.835
    1C        C  299   4.279   4.193   4.837
    1C        C  300   4.166   4.394   4.946
    1C        C  301   4.348   2.881   2.059
    1C        C  302   4.465   3.068   2.176
    1C        C  303   4.390   2.947   2.176
    1C        C  304   4.481   3.142   2.297
    1C        C  305   4.453   3.075   2.418
    1C        C  306   4.504   3.284   2.537
    1C        C  307   4.476   3.146   2.538
    1C        C  308   4.510   3.357   2.658
    1C        C  309   4.499   3.289   2.781
    1C        C  310   4.531   3.501   2.899
    1C        C  311   4.516   3.361   2.901
    1C        C  312   4.519   3.572   3.021
    1C        C  313   4.518   3.503   3.144
    1C        C  314   4.490   3.716   3.263
    1C        C  315   4.515   3.576   3.265
    1C        C  316   4.472   3.789   3.382
    1C        C  317   4.493   3.723   3.506
    1C        C  318   4.431   3.924   3.626
    1C        C  319   4.482   3.792   3.629
    1C        C  320   4.397   3.986   3.748
    1C        C  321   4.426   3.925   3.873
    1C        C  322   4.315   4.110   3.989
    1C        C  323   4.393   3.993   3.993
    1C        C  324   4.273   4.165   4.112
    1C        C  325   4.320   4.113   4.235
    1C        C  326   4.181   4.280   4.352
    1C        C  327   4.279   4.178   4.354
    1C        C  328   4.134   4.336   4.472
    1C        C  329   4.186   4.290   4.595
    1C        C  330   4.021   4.436   4.713
    1C        C  331   4.133   4.348   4.713
    1C        C  332   3.972   4.492   4.832
    1C        C  333   4.055   4.479   4.944
    1C        C  334   4.553   3.268   2.060
    1C        C  335   4.530   3.130   2.064
    1C        C  336   4.538   3.347   2.174
    1C        C  337   4.517   3.280   2.296
    1C        C  338   4.526   3.496   2.410
    1C        C  339   4.520   3.355   2.416
    1C        C  340   4.524   3.568   2.531
    1C        C  341   4.523   3.498   2.654
    1C        C  342   4.499   3.709   2.771
    1C        C  343   4.528   3.570   2.775
    1C        C  344   4.478   3.777   2.893
    1C        C  345   4.494   3.711   3.016
    1C        C  346   4.424   3.912   3.137
    1C        C  347   4.469   3.779   3.138
    1C        C  348   4.390   3.981   3.256
    1C        C  349   4.420   3.920   3.380
    1C        C  350   4.319   4.103   3.502
    1C        C  351   4.395   3.984   3.503
    1C        C  352   4.273   4.157   3.624
    1C        C  353   4.320   4.104   3.746
    1C        C  354   4.170   4.261   3.866
    1C        C  355   4.271   4.162   3.865
    1C        C  356   4.115   4.307   3.988
    1C        C  357   4.173   4.264   4.109
    1C        C  358   4.005   4.396   4.229
    1C        C  359   4.123   4.320   4.229
    1C        C  360   3.947   4.440   4.350
    1C        C  361   4.016   4.415   4.470
    1C        C  362   3.829   4.521   4.591
    1C        C  363   3.959   4.464   4.589
    1C        C  364   3.765   4.556   4.712
    1C        C  365   3.841   4.545   4.831
    1C        C  366   3.630   4.589   4.951
    1C        C  367   3.767   4.567   4.948
    1C        C  368   4.507   3.565   2.055
    1C        C  369   4.520   3.487   2.171
    1C        C  370   4.500   3.707   2.287
    1C        C  371   4.520   3.567   2.288
    1C        C  372   4.483   3.779   2.407
    1C        C  373   4.497   3.706   2.527
    1C        C  374   4.429   3.908   2.647
    1C        C  375   4.483   3.777   2.649
    1C        C  376   4.391   3.969   2.768
    1C        C  377   4.423   3.907   2.892
    1C        C  378   4.315   4.092   3.010
    1C        C  379   4.393   3.974   3.013
    1C        C  380   4.267   4.147   3.131
    1C        C  381   4.307   4.095   3.256
    1C        C  382   4.170   4.253   3.376
    1C        C  383   4.265   4.149   3.379
    1C        C  384   4.115   4.299   3.498
    1C        C  385   4.167   4.251   3.620
    1C        C  386   4.003   4.387   3.741
    1C        C  387   4.118   4.304   3.742
    1C        C  388   3.944   4.429   3.862
    1C        C  389   4.000   4.389   3.985
    1C        C  390   3.815   4.492   4.106
    1C        C  391   3.942   4.431   4.107
    1C        C  392   3.750   4.518   4.229
    1C        C  393   3.818   4.500   4.351
    1C        C  394   3.615   4.556   4.473
    1C        C  395   3.754   4.532   4.472
    1C        C  396   3.547   4.569   4.596
    1C        C  397   3.625   4.574   4.714
    1C        C  398   3.414   4.549   4.838
    1C        C  399   3.552   4.579   4.835
    1C        C  400   3.345   4.513   4.955
    1C        C  401   4.507   3.704   2.051
    1C        C  402   4.451   3.916   2.162
    1C        C  403   4.492   3.781   2.167
    1C        C  404   4.409   3.977   2.282
    1C        C  405   4.439   3.913   2.405
    1C        C  406   4.318   4.090   2.524
    1C        C  407   4.400   3.975   2.526
    1C        C  408   4.275   4.146   2.647
    1C        C  409   4.315   4.088   2.769
    1C        C  410   4.171   4.248   2.889
    1C        C  411   4.271   4.149   2.889
    1C        C  412   4.116   4.294   3.010
    1C        C  413   4.167   4.247   3.133
    1C        C  414   3.994   4.372   3.253
    1C        C  415   4.113   4.296   3.254
    1C        C  416   3.936   4.411   3.376
    1C        C  417   3.999   4.379   3.498
    1C        C  418   3.810   4.477   3.619
    1C        C  419   3.940   4.421   3.620
    1C        C  420   3.746   4.508   3.741
    1C        C  421   3.815   4.487   3.862
    1C        C  422   3.609   4.541   3.985
    1C        C  423   3.747   4.511   3.984
    1C        C  424   3.541   4.550   4.108
    1C        C  425   3.611   4.544   4.231
    1C        C  426   3.400   4.553   4.355
    1C        C  427   3.541   4.562   4.353
    1C        C  428   3.332   4.552   4.479
    1C        C  429   3.406   4.567   4.599
    1C        C  430   3.197   4.521   4.723
    1C        C  431   3.336   4.552   4.721
    1C        C  432   3.125   4.497   4.843
    1C        C  433   3.207   4.498   4.957
    1C        C  434   4.387   4.128   2.051
    1C        C  435   4.447   4.002   2.052
    1C        C  436   4.303   4.166   2.161
    1C        C  437   4.331   4.096   2.281
    1C        C  438   4.182   4.251   2.402
    1C        C  439   4.278   4.148   2.401
    1C        C  440   4.122   4.294   2.522
    1C        C  441   4.173   4.244   2.644
    1C        C  442   4.001   4.370   2.764
    1C        C  443   4.117   4.291   2.765
    1C        C  444   3.938   4.407   2.885
    1C        C  445   3.997   4.372   3.008
    1C        C  446   3.810   4.474   3.130
    1C        C  447   3.935   4.408   3.129
    1C        C  448   3.745   4.499   3.253
    1C        C  449   3.810   4.473   3.376
    1C        C  450   3.606   4.532   3.496
    1C        C  451   3.744   4.503   3.497
    1C        C  452   3.537   4.544   3.619
    1C        C  453   3.608   4.540   3.741
    1C        C  454   3.397   4.552   3.863
    1C        C  455   3.538   4.553   3.863
    1C        C  456   3.329   4.544   3.987
    1C        C  457   3.400   4.547   4.109
    1C        C  458   3.193   4.513   4.236
    1C        C  459   3.331   4.543   4.233
    1C        C  460   3.127   4.490   4.359
    1C        C  461   3.196   4.513   4.480
    1C        C  462   3.002   4.431   4.602
    1C        C  463   3.128   4.495   4.603
    1C        C  464   2.934   4.398   4.721
    1C        C  465   2.991   4.446   4.842
    1C        C  466   2.802   4.336   4.961
    1C        C  467   2.908   4.427   4.956
    1C        C  468   4.124   4.285   2.039
    1C        C  469   4.187   4.249   2.159
    1C        C  470   4.004   4.364   2.279
    1C        C  471   4.129   4.297   2.279
    1C        C  472   3.941   4.404   2.399
    1C        C  473   4.005   4.373   2.521
    1C        C  474   3.812   4.467   2.642
    1C        C  475   3.940   4.406   2.642
    1C        C  476   3.744   4.490   2.763
    1C        C  477   3.810   4.467   2.886
    1C        C  478   3.605   4.526   3.008
    1C        C  479   3.743   4.496   3.007
    1C        C  480   3.533   4.533   3.130
    1C        C  481   3.606   4.527   3.250
    1C        C  482   3.395   4.541   3.373
    1C        C  483   3.537   4.538   3.373
    1C        C  484   3.325   4.533   3.496
    1C        C  485   3.395   4.549   3.617
    1C        C  486   3.191   4.505   3.745
    1C        C  487   3.327   4.544   3.740
    1C        C  488   3.126   4.480   3.868
    1C        C  489   3.192   4.510   3.989
    1C        C  490   3.006   4.416   4.116
    1C        C  491   3.128   4.489   4.113
    1C        C  492   2.944   4.382   4.238
    1C        C  493   3.004   4.421   4.360
    1C        C  494   2.826   4.306   4.482
    1C        C  495   2.942   4.388   4.482
    1C        C  496   2.770   4.260   4.603
    1C        C  497   2.823   4.309   4.725
    1C        C  498   2.671   4.159   4.841
    1C        C  499   2.759   4.269   4.845
    1C        C  500   2.594   4.119   4.951
    1C        C  501   4.009   4.364   2.040
    1C        C  502   3.815   4.461   2.155
    1C        C  503   3.939   4.394   2.157
    1C        C  504   3.746   4.485   2.275
    1C        C  505   3.812   4.463   2.398
    1C        C  506   3.605   4.512   2.520
    1C        C  507   3.744   4.487   2.519
    1C        C  508   3.534   4.522   2.641
    1C        C  509   3.605   4.514   2.763
    1C        C  510   3.395   4.532   2.885
    1C        C  511   3.536   4.529   2.885
    1C        C  512   3.321   4.527   3.005
    1C        C  513   3.392   4.534   3.127
    1C        C  514   3.188   4.496   3.256
    1C        C  515   3.325   4.531   3.251
    1C        C  516   3.121   4.478   3.378
    1C        C  517   3.187   4.501   3.500
    1C        C  518   3.000   4.411   3.625
    1C        C  519   3.122   4.481   3.624
    1C        C  520   2.943   4.372   3.748
    1C        C  521   3.002   4.412   3.870
    1C        C  522   2.840   4.283   3.996
    1C        C  523   2.947   4.374   3.995
    1C        C  524   2.795   4.229   4.119
    1C        C  525   2.837   4.289   4.239
    1C        C  526   2.703   4.130   4.362
    1C        C  527   2.781   4.247   4.362
    1C        C  528   2.660   4.073   4.484
    1C        C  529   2.684   4.149   4.601
    1C        C  530   2.587   3.958   4.729
    1C        C  531   2.645   4.088   4.723
    1C        C  532   2.543   3.899   4.851
    1C        C  533   2.533   3.993   4.958
    1C        C  534   3.618   4.557   2.039
    1C        C  535   3.749   4.506   2.040
    1C        C  536   3.537   4.544   2.156
    1C        C  537   3.606   4.512   2.276
    1C        C  538   3.393   4.524   2.399
    1C        C  539   3.535   4.519   2.398
    1C        C  540   3.322   4.516   2.520
    1C        C  541   3.392   4.523   2.642
    1C        C  542   3.184   4.487   2.766
    1C        C  543   3.322   4.519   2.764
    1C        C  544   3.117   4.467   2.889
    1C        C  545   3.185   4.490   3.011
    1C        C  546   2.994   4.408   3.134
    1C        C  547   3.119   4.473   3.135
    1C        C  548   2.938   4.369   3.258
    1C        C  549   2.996   4.411   3.380
    1C        C  550   2.836   4.274   3.506
    1C        C  551   2.940   4.370   3.503
    1C        C  552   2.783   4.229   3.628
    1C        C  553   2.835   4.281   3.749
    1C        C  554   2.706   4.118   3.876
    1C        C  555   2.791   4.231   3.874
    1C        C  556   2.663   4.061   3.998
    1C        C  557   2.703   4.122   4.119
    1C        C  558   2.597   3.941   4.242
    1C        C  559   2.664   4.065   4.242
    1C        C  560   2.571   3.881   4.367
    1C        C  561   2.593   3.949   4.489
    1C        C  562   2.531   3.747   4.613
    1C        C  563   2.560   3.885   4.611
    1C        C  564   2.518   3.678   4.736
    1C        C  565   2.521   3.758   4.854
    1C        C  566   2.538   3.547   4.977
    1C        C  567   2.530   3.686   4.974
    1C        C  568   3.327   4.480   2.044
    1C        C  569   3.397   4.517   2.159
    1C        C  570   3.181   4.484   2.281
    1C        C  571   3.320   4.516   2.278
    1C        C  572   3.112   4.466   2.403
    1C        C  573   3.183   4.489   2.523
    1C        C  574   2.988   4.403   2.646
    1C        C  575   3.117   4.462   2.645
    1C        C  576   2.932   4.360   2.768
    1C        C  577   2.991   4.403   2.890
    1C        C  578   2.829   4.272   3.014
    1C        C  579   2.933   4.367   3.013
    1C        C  580   2.786   4.218   3.138
    1C        C  581   2.834   4.273   3.258
    1C        C  582   2.702   4.112   3.384
    1C        C  583   2.787   4.225   3.383
    1C        C  584   2.664   4.055   3.507
    1C        C  585   2.699   4.116   3.630
    1C        C  586   2.604   3.931   3.754
    1C        C  587   2.667   4.057   3.755
    1C        C  588   2.577   3.868   3.877
    1C        C  589   2.600   3.935   3.999
    1C        C  590   2.532   3.735   4.126
    1C        C  591   2.573   3.870   4.122
    1C        C  592   2.521   3.669   4.250
    1C        C  593   2.535   3.744   4.369
    1C        C  594   2.516   3.535   4.496
    1C        C  595   2.523   3.676   4.492
    1C        C  596   2.516   3.463   4.618
    1C        C  597   2.516   3.536   4.739
    1C        C  598   2.538   3.327   4.861
    1C        C  599   2.529   3.468   4.862
    1C        C  600   2.534   3.251   4.979
    1C        C  601   3.192   4.449   2.045
    1C        C  602   2.981   4.395   2.158
    1C        C  603   3.114   4.448   2.161
    1C        C  604   2.928   4.357   2.284
    1C        C  605   2.991   4.393   2.405
    1C        C  606   2.818   4.270   2.528
    1C        C  607   2.928   4.359   2.526
    1C        C  608   2.770   4.220   2.651
    1C        C  609   2.825   4.268   2.772
    1C        C  610   2.686   4.110   2.897
    1C        C  611   2.775   4.220   2.894
    1C        C  612   2.651   4.050   3.020
    1C        C  613   2.697   4.109   3.140
    1C        C  614   2.594   3.926   3.266
    1C        C  615   2.662   4.050   3.263
    1C        C  616   2.568   3.862   3.389
    1C        C  617   2.602   3.928   3.509
    1C        C  618   2.535   3.728   3.634
    1C        C  619   2.577   3.863   3.632
    1C        C  620   2.517   3.662   3.758
    1C        C  621   2.534   3.733   3.879
    1C        C  622   2.510   3.526   4.009
    1C        C  623   2.520   3.666   4.003
    1C        C  624   2.514   3.456   4.132
    1C        C  625   2.512   3.528   4.253
    1C        C  626   2.537   3.319   4.377
    1C        C  627   2.516   3.459   4.376
    1C        C  628   2.552   3.251   4.500
    1C        C  629   2.533   3.323   4.620
    1C        C  630   2.599   3.119   4.745
    1C        C  631   2.552   3.254   4.742
    1C        C  632   2.625   3.051   4.867
    1C        C  633   2.562   3.114   4.979
    1C        C  634   2.781   4.301   2.056
    1C        C  635   2.890   4.389   2.048
    1C        C  636   2.743   4.231   2.171
    1C        C  637   2.810   4.277   2.286
    1C        C  638   2.682   4.106   2.411
    1C        C  639   2.765   4.220   2.407
    1C        C  640   2.647   4.043   2.533
    1C        C  641   2.689   4.105   2.653
    1C        C  642   2.589   3.919   2.775
    1C        C  643   2.650   4.046   2.776
    1C        C  644   2.563   3.855   2.898
    1C        C  645   2.589   3.923   3.020
    1C        C  646   2.529   3.723   3.146
    1C        C  647   2.570   3.858   3.144
    1C        C  648   2.518   3.654   3.269
    1C        C  649   2.531   3.726   3.390
    1C        C  650   2.506   3.517   3.518
    1C        C  651   2.516   3.658   3.513
    1C        C  652   2.511   3.449   3.641
    1C        C  653   2.509   3.521   3.763
    1C        C  654   2.530   3.314   3.890
    1C        C  655   2.509   3.454   3.887
    1C        C  656   2.552   3.247   4.012
    1C        C  657   2.536   3.316   4.133
    1C        C  658   2.604   3.117   4.258
    1C        C  659   2.551   3.248   4.256
    1C        C  660   2.633   3.052   4.381
    1C        C  661   2.602   3.119   4.501
    1C        C  662   2.708   2.937   4.626
    1C        C  663   2.631   3.055   4.624
    1C        C  664   2.752   2.877   4.746
    1C        C  665   2.699   2.929   4.868
    1C        C  666   2.741   2.864   4.985
    1C        C  667   2.680   4.021   2.060
    1C        C  668   2.680   4.104   2.172
    1C        C  669   2.587   3.909   2.292
    1C        C  670   2.645   4.039   2.293
    1C        C  671   2.558   3.846   2.415
    1C        C  672   2.580   3.918   2.535
    1C        C  673   2.511   3.716   2.661
    1C        C  674   2.556   3.850   2.656
    1C        C  675   2.500   3.647   2.783
    1C        C  676   2.526   3.719   2.902
    1C        C  677   2.505   3.510   3.028
    1C        C  678   2.514   3.651   3.025
    1C        C  679   2.504   3.442   3.152
    1C        C  680   2.503   3.514   3.273
    1C        C  681   2.529   3.306   3.400
    1C        C  682   2.505   3.445   3.397
    1C        C  683   2.545   3.238   3.523
    1C        C  684   2.531   3.309   3.645
    1C        C  685   2.599   3.112   3.771
    1C        C  686   2.547   3.243   3.769
    1C        C  687   2.633   3.051   3.894
    1C        C  688   2.602   3.114   4.016
    1C        C  689   2.711   2.932   4.136
    1C        C  690   2.634   3.050   4.138
    1C        C  691   2.753   2.878   4.260
    1C        C  692   2.706   2.932   4.382
    1C        C  693   2.750   2.878   4.505
    1C        C  694   2.624   3.893   2.057
    1C        C  695   2.524   3.702   2.175
    1C        C  696   2.573   3.834   2.173
    1C        C  697   2.504   3.636   2.298
    1C        C  698   2.520   3.710   2.417
    1C        C  699   2.488   3.503   2.542
    1C        C  700   2.497   3.644   2.540
    1C        C  701   2.494   3.433   2.664
    1C        C  702   2.488   3.506   2.785
    1C        C  703   2.526   3.298   2.911
    1C        C  704   2.501   3.437   2.907
    1C        C  705   2.544   3.231   3.034
    1C        C  706   2.529   3.303   3.155
    1C        C  707   2.598   3.106   3.280
    1C        C  708   2.545   3.236   3.278
    1C        C  709   2.624   3.040   3.402
    1C        C  710   2.599   3.107   3.524
    1C        C  711   2.711   2.933   3.648
    1C        C  712   2.630   3.049   3.648
    1C        C  713   2.758   2.880   3.770
    1C        C  714   2.713   2.935   3.893
    1C        C  715   2.757   2.877   4.014
    1C        C  716   2.455   3.497   2.060
    1C        C  717   2.497   3.630   2.057
    1C        C  718   2.465   3.421   2.181
    1C        C  719   2.483   3.496   2.300
    1C        C  720   2.514   3.288   2.426
    1C        C  721   2.488   3.426   2.423
    1C        C  722   2.538   3.220   2.547
    1C        C  723   2.528   3.295   2.666
    1C        C  724   2.587   3.094   2.791
    1C        C  725   2.543   3.228   2.789
    1C        C  726   2.619   3.032   2.914
    1C        C  727   2.589   3.097   3.036
    1C        C  728   2.705   2.921   3.159
    1C        C  729   2.626   3.038   3.159
    1C        C  730   2.752   2.871   3.283
    1C        C  731   2.701   2.922   3.405
    1C        C  732   2.754   2.874   3.527
    1C        C  733   2.489   3.195   2.073
    1C        C  734   2.487   3.279   2.185
    1C        C  735   2.581   3.083   2.303
    1C        C  736   2.523   3.213   2.306
    1C        C  737   2.613   3.019   2.425
    1C        C  738   2.592   3.089   2.546
    1C        C  739   2.696   2.910   2.670
    1C        C  740   2.620   3.028   2.670
    1C        C  741   2.740   2.855   2.793
    1C        C  742   2.699   2.916   2.914
    1C        C  743   2.752   2.869   3.037
    1C        C  744   2.537   3.065   2.077
    1C        C  745   2.685   2.892   2.184
    1C        C  746   2.605   3.008   2.186
    1C        C  747   2.729   2.838   2.307
    1C        C  748   2.684   2.897   2.428
    1C        C  749   2.739   2.850   2.549
    1C        C  750   2.733   2.831   2.068
    1C        C  751   3.655   2.302   1.998
    1C        O  752   3.679   2.195   2.061
    1C        O  753   3.734   2.313   1.883
    1C        C  754   4.650   3.062   2.009
    1C        O  755   4.656   3.013   1.893
    1C        O  756   4.758   3.028   2.091
    1C        C  757   4.437   4.225   1.952
    1C        O  758   4.520   4.312   1.991
    1C        O  759   4.456   4.183   1.820
    1C        C  760   3.613   4.676   1.951
    1C        O  761   3.638   4.790   1.999
    1C        O  762   3.655   4.665   1.818
    1C        C  763   2.886   4.487   1.937
    1C        O  764   2.880   4.440   1.820
    1C        O  765   2.796   4.594   1.946
    1C        C  766   2.363   3.460   1.950
    1C        O  767   2.381   3.487   1.828
    1C        O  768   2.228   3.436   1.978
    1C        C  769   4.692   3.583   5.059
    1C        O  770   4.671   3.595   5.182
    1C        O  771   4.821   3.625   5.021
    1C        C  772   4.274   4.459   5.024
    1C        O  773   4.331   4.419   5.129
    1C        O  774   4.304   4.596   5.014
    1C        C  775   4.138   2.528   5.083
    1C        O  776   4.217   2.431   5.073
    1C        O  777   4.135   2.593   5.207
    1C        C  778   2.892   4.540   5.050
    1C        O  779   2.812   4.634   5.023
    1C        O  780   2.956   4.545   5.175
    1C        C  781   2.500   3.047   5.096
    1C        O  782   2.395   2.979   5.081
    1C        O  783   2.554   3.053   5.224
    1C        C  784   2.463   3.969   5.086
    1C        O  785   2.339   3.954   5.102
    1C        O  786   2.523   3.937   5.209
    1C        C  787   2.942   2.398   2.037
    1C        O  788   2.898   2.388   1.920
    1C        O  789   2.909   2.288   2.114
    1C        C  790   3.171   2.362   5.048
    1C        O  791   3.161   2.252   4.988
    1C        O  792   3.225   2.363   5.177
    1C        H  793   4.263   3.036   5.049
    1C        H  794   4.144   2.837   5.061
    1C        H  795   4.505   3.123   5.058
    1C        H  796   4.526   3.367   5.068
    1C        H  797   4.513   3.794   5.053
    1C        H  798   4.406   3.969   5.056
    1C        H  799   4.280   4.158   5.049
    1C        H  800   4.023   4.512   5.041
    1C        H  801   3.816   4.609   5.033
    1C        H  802   3.582   4.616   5.044
    1C        H  803   3.393   4.505   5.050
    1C        H  804   3.175   4.442   5.043
    1C        H  805   3.909   2.447   5.043
    1C        H  806   3.673   2.417   5.053
    1C        H  807   2.984   2.520   5.041
    1C        H  808   3.447   2.430   5.067
    1C        H  809   2.877   2.733   5.079
    1C        H  810   2.698   2.880   5.082
    1C        H  811   2.478   3.289   5.062
    1C        H  812   2.567   3.508   5.073
    1C        H  813   2.476   3.727   5.056
    1C        H  814   2.556   4.195   5.016
    1C        H  815   2.778   4.298   5.058
    1C        H  816   2.747   2.894   1.982
    1C        H  817   2.850   2.683   1.974
    1C        H  818   3.213   2.451   1.987
    1C        H  819   3.444   2.489   1.986
    1C        H  820   3.862   2.500   1.972
    1C        H  821   4.054   2.637   1.967
    1C        H  822   4.257   2.702   1.981
    1C        H  823   4.406   2.900   1.971
    1C        H  824   4.583   3.312   1.967
    1C        H  825   4.512   3.516   1.960
    1C        H  826   4.557   3.751   1.968
    1C        H  827   3.786   4.473   1.945
    1C        H  828   3.961   4.367   1.944
    1C        H  829   4.114   4.200   1.975
    1C        H  830   4.502   3.973   1.964
    1C        H  831   2.651   3.833   1.972
    1C        H  832   2.758   4.032   1.988
    1C        H  833   2.708   4.303   1.978
    1C        H  834   3.370   4.498   1.948
    1C        H  835   3.162   4.383   1.966
    1C        H  836   2.495   2.991   2.012
    1C        H  837   2.415   3.215   1.998
    1C        H  838   2.473   3.688   1.970
    2V3OU   H29  839   2.805   3.550   1.618
    2V3OU   C27  840   2.782   3.503   1.717
    2V3OU   H27  841   2.722   3.577   1.776
    2V3OU   H28  842   2.728   3.405   1.713
    2V3OU   O11  843   2.906   3.480   1.786
    2V3OU   C15  844   2.921   3.392   1.891
    2V3OU   C13  845   3.050   3.375   1.944
    2V3OU   C14  846   3.072   3.268   2.031
    2V3OU   C16  847   2.971   3.186   2.080
    2V3OU    H6  848   2.988   3.108   2.156
    2V3OU   C12  849   3.214   3.232   2.057
    2V3OU    O2  850   3.240   3.125   2.116
    2V3OU   C10  851   3.327   3.311   2.007
    2V3OU    C8  852   3.458   3.270   2.026
    2V3OU   O10  853   3.491   3.147   2.074
    2V3OU   H26  854   3.406   3.106   2.096
    2V3OU    C6  855   3.564   3.349   1.972
    2V3OU    C5  856   3.538   3.469   1.908
    2V3OU    C4  857   3.704   3.297   1.972
    2V3OU    H4  858   3.718   3.226   2.059
    2V3OU    H5  859   3.713   3.227   1.883
    2V3OU    C2  860   3.816   3.400   1.968
    2V3OU    O6  861   3.810   3.473   2.091
    2V3OU   H21  862   3.778   3.558   2.055
    2V3OU    C3  863   3.781   3.494   1.852
    2V3OU    H2  864   3.856   3.577   1.848
    2V3OU    H3  865   3.781   3.435   1.757
    2V3OU   C25  866   3.949   3.325   1.957
    2V3OU    O7  867   3.998   3.290   1.850
    2V3OU   C26  868   4.029   3.289   2.082
    2V3OU   H22  869   4.066   3.385   2.128
    2V3OU   H23  870   4.116   3.225   2.054
    2V3OU    O8  871   3.967   3.207   2.178
    2V3OU   H24  872   3.929   3.258   2.251
    2V3OU    C1  873   3.649   3.565   1.875
    2V3OU    H1  874   3.624   3.618   1.778
    2V3OU    O3  875   3.654   3.656   1.986
    2V3OU   C19  876   3.615   3.792   1.968
    2V3OU    H9  877   3.514   3.808   1.921
    2V3OU    O4  878   3.709   3.851   1.881
    2V3OU   C20  879   3.840   3.874   1.935
    2V3OU   H10  880   3.878   3.769   1.951
    2V3OU   C24  881   3.611   3.855   2.107
    2V3OU   H16  882   3.546   3.793   2.174
    2V3OU   H17  883   3.564   3.957   2.102
    2V3OU   C23  884   3.751   3.869   2.165
    2V3OU   H15  885   3.789   3.763   2.183
    2V3OU    N1  886   3.742   3.950   2.285
    2V3OU   H19  887   3.802   3.918   2.358
    2V3OU   H20  888   3.646   3.934   2.312
    2V3OU   C21  889   3.850   3.944   2.070
    2V3OU   H11  890   3.955   3.928   2.110
    2V3OU    O5  891   3.823   4.083   2.068
    2V3OU   H18  892   3.778   4.108   2.150
    2V3OU   C22  893   3.910   3.947   1.821
    2V3OU   H12  894   3.859   4.044   1.799
    2V3OU   H13  895   3.905   3.887   1.727
    2V3OU   H14  896   4.020   3.957   1.844
    2V3OU   C11  897   3.159   3.472   1.926
    2V3OU    O1  898   3.135   3.590   1.890
    2V3OU    C9  899   3.301   3.429   1.932
    2V3OU    C7  900   3.403   3.509   1.882
    2V3OU    O9  901   3.383   3.618   1.800
    2V3OU   H25  902   3.287   3.625   1.817
    2V3OU   C17  903   2.815   3.316   1.947
    2V3OU    H7  904   2.713   3.340   1.917
    2V3OU   C18  905   2.842   3.215   2.038
    2V3OU    H8  906   2.766   3.142   2.070
    3SOL     OW  907   2.523   3.950   0.722
    3SOL    HW1  908   2.434   3.923   0.759
    3SOL    HW2  909   2.587   3.874   0.732
    4SOL     OW  910   0.057   5.769   1.859
    4SOL    HW1  911   0.103   5.714   1.790
    4SOL    HW2  912   6.981   5.772   1.839
    5SOL     OW  913   3.956   1.550   2.349
    5SOL    HW1  914   4.034   1.502   2.389
    5SOL    HW2  915   3.934   1.630   2.404
    6SOL     OW  916   3.470   2.070   2.172
    6SOL    HW1  917   3.473   2.091   2.270
    6SOL    HW2  918   3.537   2.127   2.124
    7SOL     OW  919   6.308   2.996   1.629
    7SOL    HW1  920   6.264   2.907   1.616
    7SOL    HW2  921   6.400   2.993   1.589
    8SOL     OW  922   2.216   6.583   5.142
    8SOL    HW1  923   2.308   6.564   5.177
    8SOL    HW2  924   2.150   6.522   5.186
    9SOL     OW  925   1.318   5.311   5.822
    9SOL    HW1  926   1.418   5.301   5.822
    9SOL    HW2  927   1.293   5.402   5.789
   10SOL     OW  928   0.310   4.225   5.887
   10SOL    HW1  929   0.410   4.228   5.882
   10SOL    HW2  930   0.278   4.134   5.862
   11SOL     OW  931   2.871   0.535   0.669
   11SOL    HW1  932   2.879   0.439   0.696
   11SOL    HW2  933   2.790   0.546   0.611
   12SOL     OW  934   4.712   6.276   3.349
   12SOL    HW1  935   4.743   6.302   3.257
   12SOL    HW2  936   4.699   6.358   3.404
   13SOL     OW  937   3.565   6.239   4.408
   13SOL    HW1  938   3.580   6.151   4.364
   13SOL    HW2  939   3.534   6.305   4.340
   14SOL     OW  940   4.048   5.906   6.067
   14SOL    HW1  941   4.008   5.846   5.998
   14SOL    HW2  942   4.077   5.851   6.146
   15SOL     OW  943   1.639   5.970   0.088
   15SOL    HW1  944   1.568   5.902   0.071
   15SOL    HW2  945   1.729   5.927   0.082
   16SOL     OW  946   6.413   1.950   5.551
   16SOL    HW1  947   6.318   1.916   5.552
   16SOL    HW2  948   6.467   1.896   5.487
   17SOL     OW  949   5.196   6.325   4.569
   17SOL    HW1  950   5.151   6.338   4.657
   17SOL    HW2  951   5.135   6.275   4.508
   18SOL     OW  952   2.941   1.978   6.675
   18SOL    HW1  953   2.938   1.887   6.634
   18SOL    HW2  954   2.849   2.004   6.703
   19SOL     OW  955   0.162   6.536   3.359
   19SOL    HW1  956   0.096   6.520   3.433
   19SOL    HW2  957   0.252   6.505   3.388
   20SOL     OW  958   3.133   0.470   4.544
   20SOL    HW1  959   3.045   0.494   4.584
   20SOL    HW2  960   3.168   0.546   4.490
   21SOL     OW  961   2.737   1.972   2.628
   21SOL    HW1  962   2.827   1.957   2.669
   21SOL    HW2  963   2.748   2.010   2.537
   22SOL     OW  964   2.023   0.478   0.136
   22SOL    HW1  965   1.952   0.436   0.080
   22SOL    HW2  966   2.088   0.408   0.165
   23SOL     OW  967   4.409   6.853   3.748
   23SOL    HW1  968   4.430   6.925   3.682
   23SOL    HW2  969   4.489   6.794   3.760
   24SOL     OW  970   5.294   0.961   4.258
   24SOL    HW1  971   5.203   0.926   4.239
   24SOL    HW2  972   5.361   0.912   4.203
   25SOL     OW  973   3.122   5.721   6.146
   25SOL    HW1  974   3.211   5.713   6.102
   25SOL    HW2  975   3.112   5.813   6.185
   26SOL     OW  976   5.780   1.328   1.259
   26SOL    HW1  977   5.763   1.411   1.206
   26SOL    HW2  978   5.770   1.248   1.200
   27SOL     OW  979   6.928   0.832   2.123
   27SOL    HW1  980   6.954   0.794   2.212
   27SOL    HW2  981   6.998   0.896   2.092
   28SOL     OW  982   4.685   0.979   7.009
   28SOL    HW1  983   4.594   0.940   6.998
   28SOL    HW2  984   4.744   0.949   6.934
   29SOL     OW  985   4.797   2.601   2.102
   29SOL    HW1  986   4.881   2.549   2.117
   29SOL    HW2  987   4.730   2.544   2.054
   30SOL     OW  988   2.816   7.014   5.558
   30SOL    HW1  989   2.810   0.077   5.506
   30SOL    HW2  990   2.790   6.937   5.500
   31SOL     OW  991   0.730   1.173   5.692
   31SOL    HW1  992   0.681   1.116   5.626
   31SOL    HW2  993   0.709   1.142   5.785
   32SOL     OW  994   0.447   2.471   2.886
   32SOL    HW1  995   0.487   2.560   2.909
   32SOL    HW2  996   0.350   2.471   2.908
   33SOL     OW  997   1.995   2.752   6.398
   33SOL    HW1  998   2.063   2.798   6.454
   33SOL    HW2  999   1.985   2.657   6.430
   34SOL     OW 1000   1.707   0.632   4.492
   34SOL    HW1 1001   1.719   0.682   4.578
   34SOL    HW2 1002   1.658   0.689   4.426
   35SOL     OW 1003   4.189   2.238   6.511
   35SOL    HW1 1004   4.196   2.308   6.440
   35SOL    HW2 1005   4.093   2.219   6.529
   36SOL     OW 1006   0.850   0.692   6.171
   36SOL    HW1 1007   0.885   0.785   6.186
   36SOL    HW2 1008   0.757   0.697   6.136
   37SOL     OW 1009   2.353   6.967   0.872
   37SOL    HW1 1010   2.375   6.870   0.884
   37SOL    HW2 1011   2.378   6.994   0.779
   38SOL     OW 1012   0.360   5.811   2.968
   38SOL    HW1 1013   0.296   5.755   3.021
   38SOL    HW2 1014   0.308   5.875   2.911
   39SOL     OW 1015   6.833   3.916   6.232
   39SOL    HW1 1016   6.848   3.819   6.214
   39SOL    HW2 1017   6.852   3.935   6.328
   40SOL     OW 1018   6.296   2.594   2.262
   40SOL    HW1 1019   6.198   2.602   2.242
   40SOL    HW2 1020   6.321   2.658   2.335
   41SOL     OW 1021   1.220   6.672   4.510
   41SOL    HW1 1022   1.313   6.692   4.479
   41SOL    HW2 1023   1.223   6.606   4.584
   42SOL     OW 1024   3.112   6.703   5.867
   42SOL    HW1 1025   3.111   6.801   5.848
   42SOL    HW2 1026   3.195   6.662   5.829
   43SOL     OW 1027   5.880   5.944   6.081
   43SOL    HW1 1028   5.907   6.023   6.027
   43SOL    HW2 1029   5.781   5.934   6.080
   44SOL     OW 1030   6.858   2.753   6.239
   44SOL    HW1 1031   6.811   2.676   6.283
   44SOL    HW2 1032   6.948   2.723   6.207
   45SOL     OW 1033   3.340   0.376   3.346
   45SOL    HW1 1034   3.366   0.283   3.369
   45SOL    HW2 1035   3.422   0.429   3.324
   46SOL     OW 1036   0.771   4.047   4.279
   46SOL    HW1 1037   0.676   4.017   4.264
   46SOL    HW2 1038   0.822   4.040   4.193
   47SOL     OW 1039   5.880   3.207   3.533
   47SOL    HW1 1040   5.886   3.107   3.537
   47SOL    HW2 1041   5.959   3.243   3.483
   48SOL     OW 1042   0.902   2.412   4.706
   48SOL    HW1 1043   0.973   2.424   4.776
   48SOL    HW2 1044   0.854   2.499   4.692
   49SOL     OW 1045   4.693   4.117   1.719
   49SOL    HW1 1046   4.606   4.142   1.762
   49SOL    HW2 1047   4.768   4.148   1.777
   50SOL     OW 1048   6.563   2.664   5.047
   50SOL    HW1 1049   6.609   2.630   5.129
   50SOL    HW2 1050   6.504   2.592   5.009
   51SOL     OW 1051   2.823   5.524   2.793
   51SOL    HW1 1052   2.819   5.585   2.714
   51SOL    HW2 1053   2.845   5.577   2.875
   52SOL     OW 1054   4.327   1.481   3.698
   52SOL    HW1 1055   4.267   1.498   3.619
   52SOL    HW2 1056   4.284   1.416   3.759
   53SOL     OW 1057   4.236   0.495   3.838
   53SOL    HW1 1058   4.239   0.470   3.741
   53SOL    HW2 1059   4.306   0.443   3.888
   54SOL     OW 1060   2.802   5.139   6.283
   54SOL    HW1 1061   2.805   5.040   6.273
   54SOL    HW2 1062   2.892   5.174   6.309
   55SOL     OW 1063   3.669   1.173   6.351
   55SOL    HW1 1064   3.612   1.155   6.432
   55SOL    HW2 1065   3.712   1.263   6.360
   56SOL     OW 1066   1.736   0.748   1.569
   56SOL    HW1 1067   1.800   0.702   1.507
   56SOL    HW2 1068   1.725   0.693   1.652
   57SOL     OW 1069   5.019   0.417   0.754
   57SOL    HW1 1070   4.978   0.360   0.682
   57SOL    HW2 1071   5.000   0.377   0.843
   58SOL     OW 1072   0.445   5.744   6.272
   58SOL    HW1 1073   0.414   5.839   6.282
   58SOL    HW2 1074   0.438   5.698   6.361
   59SOL     OW 1075   1.418   1.067   6.319
   59SOL    HW1 1076   1.395   1.024   6.407
   59SOL    HW2 1077   1.366   1.023   6.246
   60SOL     OW 1078   5.491   0.797   5.981
   60SOL    HW1 1079   5.544   0.737   5.921
   60SOL    HW2 1080   5.493   0.890   5.945
   61SOL     OW 1081   4.948   1.068   4.211
   61SOL    HW1 1082   4.878   1.053   4.281
   61SOL    HW2 1083   4.905   1.107   4.130
   62SOL     OW 1084   0.766   1.193   3.732
   62SOL    HW1 1085   0.844   1.255   3.728
   62SOL    HW2 1086   0.724   1.198   3.823
   63SOL     OW 1087   6.421   1.704   4.044
   63SOL    HW1 1088   6.383   1.686   3.953
   63SOL    HW2 1089   6.410   1.801   4.066
   64SOL     OW 1090   0.168   3.938   6.600
   64SOL    HW1 1091   0.179   4.009   6.670
   64SOL    HW2 1092   0.162   3.849   6.644
   65SOL     OW 1093   6.522   4.124   5.168
   65SOL    HW1 1094   6.614   4.085   5.167
   65SOL    HW2 1095   6.518   4.197   5.237
   66SOL     OW 1096   3.332   0.871   6.794
   66SOL    HW1 1097   3.323   0.871   6.894
   66SOL    HW2 1098   3.242   0.886   6.752
   67SOL     OW 1099   5.775   5.731   5.383
   67SOL    HW1 1100   5.721   5.726   5.299
   67SOL    HW2 1101   5.770   5.824   5.419
   68SOL     OW 1102   6.580   1.115   6.939
   68SOL    HW1 1103   6.651   1.101   6.869
   68SOL    HW2 1104   6.583   1.210   6.970
   69SOL     OW 1105   1.611   4.005   6.348
   69SOL    HW1 1106   1.644   4.028   6.439
   69SOL    HW2 1107   1.632   4.079   6.285
   70SOL     OW 1108   6.453   5.963   2.846
   70SOL    HW1 1109   6.387   5.998   2.780
   70SOL    HW2 1110   6.541   5.949   2.801
   71SOL     OW 1111   2.792   2.309   3.280
   71SOL    HW1 1112   2.833   2.331   3.192
   71SOL    HW2 1113   2.722   2.376   3.302
   72SOL     OW 1114   2.628   6.258   4.576
   72SOL    HW1 1115   2.697   6.225   4.640
   72SOL    HW2 1116   2.610   6.355   4.593
   73SOL     OW 1117   3.200   1.938   0.193
   73SOL    HW1 1118   3.255   2.015   0.162
   73SOL    HW2 1119   3.156   1.961   0.280
   74SOL     OW 1120   5.280   6.552   0.410
   74SOL    HW1 1121   5.343   6.587   0.341
   74SOL    HW2 1122   5.229   6.475   0.373
   75SOL     OW 1123   3.581   5.353   5.505
   75SOL    HW1 1124   3.616   5.446   5.495
   75SOL    HW2 1125   3.648   5.288   5.468
   76SOL     OW 1126   1.716   2.515   1.121
   76SOL    HW1 1127   1.675   2.575   1.190
   76SOL    HW2 1128   1.772   2.569   1.058
   77SOL     OW 1129   4.942   5.530   4.283
   77SOL    HW1 1130   4.885   5.531   4.200
   77SOL    HW2 1131   4.958   5.623   4.314
   78SOL     OW 1132   6.641   6.410   5.936
   78SOL    HW1 1133   6.683   6.457   5.858
   78SOL    HW2 1134   6.545   6.437   5.943
   79SOL     OW 1135   2.837   6.819   0.514
   79SOL    HW1 1136   2.846   6.844   0.418
   79SOL    HW2 1137   2.757   6.760   0.526
   80SOL     OW 1138   5.921   0.663   4.533
   80SOL    HW1 1139   5.927   0.685   4.630
   80SOL    HW2 1140   5.942   0.744   4.479
   81SOL     OW 1141   2.241   0.412   2.653
   81SOL    HW1 1142   2.283   0.373   2.571
   81SOL    HW2 1143   2.216   0.507   2.636
   82SOL     OW 1144   6.911   5.194   0.158
   82SOL    HW1 1145   6.922   5.113   0.099
   82SOL    HW2 1146   6.826   5.185   0.209
   83SOL     OW 1147   6.467   0.199   0.959
   83SOL    HW1 1148   6.488   0.296   0.973
   83SOL    HW2 1149   6.469   0.178   0.861
   84SOL     OW 1150   4.971   3.584   3.118
   84SOL    HW1 1151   5.033   3.566   3.041
   84SOL    HW2 1152   4.899   3.515   3.119
   85SOL     OW 1153   0.832   1.616   5.049
   85SOL    HW1 1154   0.759   1.681   5.069
   85SOL    HW2 1155   0.911   1.664   5.010
   86SOL     OW 1156   0.838   0.627   5.829
   86SOL    HW1 1157   0.900   0.557   5.795
   86SOL    HW2 1158   0.752   0.585   5.856
   87SOL     OW 1159   4.872   2.756   0.883
   87SOL    HW1 1160   4.902   2.678   0.937
   87SOL    HW2 1161   4.823   2.724   0.802
   88SOL     OW 1162   4.484   1.766   0.153
   88SOL    HW1 1163   4.510   1.838   0.088
   88SOL    HW2 1164   4.415   1.801   0.217
   89SOL     OW 1165   1.785   2.899   6.598
   89SOL    HW1 1166   1.793   2.991   6.636
   89SOL    HW2 1167   1.745   2.904   6.506
   90SOL     OW 1168   4.632   0.007   3.867
   90SOL    HW1 1169   4.585   0.001   3.955
   90SOL    HW2 1170   4.568   7.004   3.794
   91SOL     OW 1171   4.600   4.600   4.449
   91SOL    HW1 1172   4.561   4.685   4.413
   91SOL    HW2 1173   4.612   4.534   4.375
   92SOL     OW 1174   3.066   4.399   0.465
   92SOL    HW1 1175   3.038   4.495   0.476
   92SOL    HW2 1176   3.054   4.351   0.552
   93SOL     OW 1177   2.575   4.265   6.121
   93SOL    HW1 1178   2.624   4.346   6.087
   93SOL    HW2 1179   2.477   4.276   6.104
   94SOL     OW 1180   2.560   5.808   6.482
   94SOL    HW1 1181   2.536   5.793   6.386
   94SOL    HW2 1182   2.552   5.721   6.531
   95SOL     OW 1183   0.725   2.325   3.508
   95SOL    HW1 1184   0.791   2.250   3.511
   95SOL    HW2 1185   0.639   2.292   3.469
   96SOL     OW 1186   2.879   0.054   5.957
   96SOL    HW1 1187   2.933   0.011   6.029
   96SOL    HW2 1188   2.916   0.028   5.868
   97SOL     OW 1189   0.132   3.989   5.303
   97SOL    HW1 1190   0.059   3.932   5.265
   97SOL    HW2 1191   0.188   3.935   5.365
   98SOL     OW 1192   6.513   3.608   6.969
   98SOL    HW1 1193   6.545   3.619   0.040
   98SOL    HW2 1194   6.584   3.636   6.905
   99SOL     OW 1195   4.324   4.012   1.367
   99SOL    HW1 1196   4.421   3.990   1.366
   99SOL    HW2 1197   4.271   3.928   1.384
  100SOL     OW 1198   0.474   6.789   5.895
  100SOL    HW1 1199   0.468   6.781   5.995
  100SOL    HW2 1200   0.488   6.885   5.871
  101SOL     OW 1201   0.906   5.987   2.150
  101SOL    HW1 1202   0.980   5.929   2.182
  101SOL    HW2 1203   0.916   6.078   2.189
  102SOL     OW 1204   4.994   1.133   2.204
  102SOL    HW1 1205   4.900   1.117   2.174
  102SOL    HW2 1206   5.019   1.228   2.183
  103SOL     OW 1207   4.279   1.380   2.214
  103SOL    HW1 1208   4.226   1.355   2.295
  103SOL    HW2 1209   4.273   1.479   2.199
  104SOL     OW 1210   0.337   5.611   2.574
  104SOL    HW1 1211   0.423   5.560   2.570
  104SOL    HW2 1212   0.356   5.709   2.570
  105SOL     OW 1213   6.382   1.768   6.490
  105SOL    HW1 1214   6.435   1.696   6.445
  105SOL    HW2 1215   6.406   1.771   6.587
  106SOL     OW 1216   3.271   6.999   5.988
  106SOL    HW1 1217   3.197   6.961   6.044
  106SOL    HW2 1218   3.358   6.987   6.036
  107SOL     OW 1219   1.666   2.372   1.627
  107SOL    HW1 1220   1.709   2.281   1.626
  107SOL    HW2 1221   1.625   2.388   1.717
  108SOL     OW 1222   4.749   4.456   6.817
  108SOL    HW1 1223   4.762   4.437   6.719
  108SOL    HW2 1224   4.795   4.385   6.871
  109SOL     OW 1225   0.597   0.600   1.151
  109SOL    HW1 1226   0.644   0.519   1.185
  109SOL    HW2 1227   0.662   0.674   1.140
  110SOL     OW 1228   4.187   6.453   5.650
  110SOL    HW1 1229   4.137   6.431   5.566
  110SOL    HW2 1230   4.150   6.537   5.690
  111SOL     OW 1231   3.705   0.811   4.791
  111SOL    HW1 1232   3.668   0.902   4.809
  111SOL    HW2 1233   3.805   0.815   4.796
  112SOL     OW 1234   6.447   6.097   6.161
  112SOL    HW1 1235   6.352   6.068   6.175
  112SOL    HW2 1236   6.458   6.128   6.066
  113SOL     OW 1237   6.777   5.264   3.468
  113SOL    HW1 1238   6.684   5.300   3.464
  113SOL    HW2 1239   6.842   5.340   3.469
  114SOL     OW 1240   0.875   0.155   0.677
  114SOL    HW1 1241   0.793   0.114   0.717
  114SOL    HW2 1242   0.947   0.087   0.674
  115SOL     OW 1243   4.754   1.031   4.413
  115SOL    HW1 1244   4.775   0.939   4.445
  115SOL    HW2 1245   4.747   1.093   4.491
  116SOL     OW 1246   6.154   5.412   2.243
  116SOL    HW1 1247   6.252   5.424   2.260
  116SOL    HW2 1248   6.102   5.473   2.302
  117SOL     OW 1249   0.399   1.328   6.422
  117SOL    HW1 1250   0.328   1.359   6.359
  117SOL    HW2 1251   0.489   1.357   6.387
  118SOL     OW 1252   0.214   1.913   2.175
  118SOL    HW1 1253   0.246   1.833   2.227
  118SOL    HW2 1254   0.229   1.897   2.077
  119SOL     OW 1255   0.890   2.342   6.578
  119SOL    HW1 1256   0.946   2.287   6.640
  119SOL    HW2 1257   0.948   2.395   6.517
  120SOL     OW 1258   0.079   6.471   0.735
  120SOL    HW1 1259   0.171   6.433   0.721
  120SOL    HW2 1260   0.072   6.506   0.829
  121SOL     OW 1261   2.552   3.307   0.138
  121SOL    HW1 1262   2.516   3.373   0.204
  121SOL    HW2 1263   2.576   3.355   0.053
  122SOL     OW 1264   1.524   4.522   6.016
  122SOL    HW1 1265   1.447   4.586   6.019
  122SOL    HW2 1266   1.516   4.464   5.936
  123SOL     OW 1267   0.636   1.941   1.828
  123SOL    HW1 1268   0.585   1.875   1.773
  123SOL    HW2 1269   0.580   1.972   1.905
  124SOL     OW 1270   5.394   3.411   0.327
  124SOL    HW1 1271   5.387   3.401   0.426
  124SOL    HW2 1272   5.331   3.482   0.295
  125SOL     OW 1273   2.416   1.562   2.189
  125SOL    HW1 1274   2.386   1.584   2.096
  125SOL    HW2 1275   2.365   1.616   2.255
  126SOL     OW 1276   2.887   4.825   0.622
  126SOL    HW1 1277   2.869   4.793   0.714
  126SOL    HW2 1278   2.846   4.916   0.610
  127SOL     OW 1279   6.921   4.651   5.965
  127SOL    HW1 1280   6.917   4.561   5.922
  127SOL    HW2 1281   6.976   4.712   5.907
  128SOL     OW 1282   4.469   2.826   1.304
  128SOL    HW1 1283   4.412   2.887   1.359
  128SOL    HW2 1284   4.410   2.763   1.253
  129SOL     OW 1285   4.949   3.828   5.713
  129SOL    HW1 1286   4.946   3.911   5.657
  129SOL    HW2 1287   4.961   3.748   5.655
  130SOL     OW 1288   0.634   0.941   4.178
  130SOL    HW1 1289   0.630   0.909   4.273
  130SOL    HW2 1290   0.586   0.876   4.120
  131SOL     OW 1291   5.122   1.093   2.457
  131SOL    HW1 1292   5.072   1.089   2.371
  131SOL    HW2 1293   5.061   1.071   2.533
  132SOL     OW 1294   1.942   2.903   0.950
  132SOL    HW1 1295   2.035   2.935   0.966
  132SOL    HW2 1296   1.885   2.926   1.029
  133SOL     OW 1297   5.447   6.718   3.140
  133SOL    HW1 1298   5.464   6.627   3.102
  133SOL    HW2 1299   5.357   6.751   3.109
  134SOL     OW 1300   5.716   2.313   3.350
  134SOL    HW1 1301   5.815   2.321   3.335
  134SOL    HW2 1302   5.697   2.311   3.448
  135SOL     OW 1303   5.135   3.035   2.361
  135SOL    HW1 1304   5.040   3.042   2.329
  135SOL    HW2 1305   5.175   2.950   2.329
  136SOL     OW 1306   4.235   3.812   6.765
  136SOL    HW1 1307   4.295   3.759   6.826
  136SOL    HW2 1308   4.213   3.899   6.807
  137SOL     OW 1309   4.351   0.386   5.328
  137SOL    HW1 1310   4.382   0.456   5.392
  137SOL    HW2 1311   4.421   0.315   5.319
  138SOL     OW 1312   0.350   5.067   4.149
  138SOL    HW1 1313   0.286   5.135   4.185
  138SOL    HW2 1314   0.351   4.987   4.209
  139SOL     OW 1315   2.060   6.303   4.856
  139SOL    HW1 1316   2.151   6.342   4.868
  139SOL    HW2 1317   2.066   6.220   4.801
  140SOL     OW 1318   6.878   6.002   3.506
  140SOL    HW1 1319   6.908   5.976   3.598
  140SOL    HW2 1320   6.926   5.946   3.438
  141SOL     OW 1321   0.065   1.950   5.358
  141SOL    HW1 1322   0.020   1.971   5.271
  141SOL    HW2 1323   0.069   1.851   5.371
  142SOL     OW 1324   1.442   5.820   0.623
  142SOL    HW1 1325   1.461   5.723   0.609
  142SOL    HW2 1326   1.524   5.864   0.660
  143SOL     OW 1327   5.370   4.692   2.206
  143SOL    HW1 1328   5.332   4.604   2.179
  143SOL    HW2 1329   5.468   4.681   2.227
  144SOL     OW 1330   1.659   6.655   6.075
  144SOL    HW1 1331   1.572   6.605   6.072
  144SOL    HW2 1332   1.734   6.590   6.066
  145SOL     OW 1333   0.798   4.714   0.825
  145SOL    HW1 1334   0.776   4.649   0.752
  145SOL    HW2 1335   0.729   4.708   0.897
  146SOL     OW 1336   4.697   6.789   6.004
  146SOL    HW1 1337   4.795   6.779   5.985
  146SOL    HW2 1338   4.685   6.847   6.084
  147SOL     OW 1339   6.362   2.870   6.954
  147SOL    HW1 1340   6.440   2.830   7.003
  147SOL    HW2 1341   6.338   2.811   6.877
  148SOL     OW 1342   0.704   5.119   6.371
  148SOL    HW1 1343   0.605   5.107   6.381
  148SOL    HW2 1344   0.723   5.203   6.321
  149SOL     OW 1345   2.805   1.562   4.060
  149SOL    HW1 1346   2.843   1.477   4.098
  149SOL    HW2 1347   2.852   1.584   3.974
  150SOL     OW 1348   6.081   4.829   6.076
  150SOL    HW1 1349   6.065   4.860   6.169
  150SOL    HW2 1350   6.107   4.907   6.019
  151SOL     OW 1351   3.506   1.947   1.228
  151SOL    HW1 1352   3.489   1.882   1.154
  151SOL    HW2 1353   3.429   2.011   1.235
  152SOL     OW 1354   1.936   1.315   4.368
  152SOL    HW1 1355   1.921   1.237   4.430
  152SOL    HW2 1356   2.030   1.313   4.335
  153SOL     OW 1357   2.555   0.082   2.019
  153SOL    HW1 1358   2.582   0.130   1.935
  153SOL    HW2 1359   2.635   0.038   2.059
  154SOL     OW 1360   0.288   3.195   2.786
  154SOL    HW1 1361   0.286   3.172   2.884
  154SOL    HW2 1362   0.243   3.283   2.773
  155SOL     OW 1363   0.778   1.422   3.448
  155SOL    HW1 1364   0.809   1.401   3.540
  155SOL    HW2 1365   0.814   1.512   3.421
  156SOL     OW 1366   6.687   2.009   1.556
  156SOL    HW1 1367   6.661   2.091   1.505
  156SOL    HW2 1368   6.784   2.013   1.578
  157SOL     OW 1369   5.978   3.737   1.963
  157SOL    HW1 1370   6.057   3.756   2.021
  157SOL    HW2 1371   5.901   3.792   1.993
  158SOL     OW 1372   2.343   6.949   2.123
  158SOL    HW1 1373   2.389   6.860   2.130
  158SOL    HW2 1374   2.412   7.021   2.112
  159SOL     OW 1375   4.785   4.651   1.114
  159SOL    HW1 1376   4.802   4.641   1.016
  159SOL    HW2 1377   4.687   4.639   1.131
  160SOL     OW 1378   0.185   4.605   6.271
  160SOL    HW1 1379   0.175   4.704   6.259
  160SOL    HW2 1380   0.279   4.578   6.253
  161SOL     OW 1381   1.787   4.930   4.681
  161SOL    HW1 1382   1.768   4.882   4.766
  161SOL    HW2 1383   1.876   4.974   4.686
  162SOL     OW 1384   4.168   6.393   0.077
  162SOL    HW1 1385   4.109   6.423   0.152
  162SOL    HW2 1386   4.261   6.381   0.110
  163SOL     OW 1387   4.948   5.845   1.435
  163SOL    HW1 1388   4.946   5.759   1.487
  163SOL    HW2 1389   4.897   5.915   1.485
  164SOL     OW 1390   0.030   3.883   1.659
  164SOL    HW1 1391   7.019   3.850   1.570
  164SOL    HW2 1392   0.000   3.821   1.731
  165SOL     OW 1393   5.426   2.787   0.947
  165SOL    HW1 1394   5.372   2.719   0.996
  165SOL    HW2 1395   5.420   2.875   0.995
  166SOL     OW 1396   0.150   5.019   3.548
  166SOL    HW1 1397   0.052   5.004   3.530
  166SOL    HW2 1398   0.187   4.940   3.596
  167SOL     OW 1399   6.240   2.044   0.378
  167SOL    HW1 1400   6.143   2.053   0.355
  167SOL    HW2 1401   6.254   2.070   0.473
  168SOL     OW 1402   3.108   3.180   1.303
  168SOL    HW1 1403   3.193   3.231   1.289
  168SOL    HW2 1404   3.080   3.187   1.399
  169SOL     OW 1405   3.497   0.163   2.193
  169SOL    HW1 1406   3.568   0.146   2.124
  169SOL    HW2 1407   3.540   0.191   2.279
  170SOL     OW 1408   0.585   1.994   3.512
  170SOL    HW1 1409   0.538   2.010   3.425
  170SOL    HW2 1410   0.591   1.895   3.528
  171SOL     OW 1411   3.827   4.169   0.362
  171SOL    HW1 1412   3.772   4.098   0.318
  171SOL    HW2 1413   3.824   4.156   0.462
  172SOL     OW 1414   5.988   1.466   4.608
  172SOL    HW1 1415   6.084   1.436   4.610
  172SOL    HW2 1416   5.967   1.514   4.694
  173SOL     OW 1417   6.243   0.768   4.608
  173SOL    HW1 1418   6.152   0.802   4.631
  173SOL    HW2 1419   6.268   0.798   4.516
  174SOL     OW 1420   2.696   5.571   3.820
  174SOL    HW1 1421   2.698   5.472   3.831
  174SOL    HW2 1422   2.606   5.599   3.787
  175SOL     OW 1423   1.880   6.885   2.049
  175SOL    HW1 1424   1.944   6.812   2.025
  175SOL    HW2 1425   1.793   6.845   2.077
  176SOL     OW 1426   1.956   4.177   0.271
  176SOL    HW1 1427   1.976   4.103   0.207
  176SOL    HW2 1428   1.861   4.171   0.301
  177SOL     OW 1429   5.470   2.957   2.895
  177SOL    HW1 1430   5.471   2.989   2.801
  177SOL    HW2 1431   5.380   2.976   2.936
  178SOL     OW 1432   4.840   3.506   5.922
  178SOL    HW1 1433   4.915   3.536   5.982
  178SOL    HW2 1434   4.875   3.489   5.830
  179SOL     OW 1435   3.326   1.831   6.288
  179SOL    HW1 1436   3.344   1.783   6.203
  179SOL    HW2 1437   3.303   1.766   6.360
  180SOL     OW 1438   1.216   0.818   6.321
  180SOL    HW1 1439   1.236   0.729   6.280
  180SOL    HW2 1440   1.143   0.808   6.389
  181SOL     OW 1441   3.518   1.185   6.789
  181SOL    HW1 1442   3.438   1.243   6.809
  181SOL    HW2 1443   3.541   1.131   6.870
  182SOL     OW 1444   4.024   2.199   4.740
  182SOL    HW1 1445   3.926   2.178   4.731
  182SOL    HW2 1446   4.048   2.200   4.837
  183SOL     OW 1447   3.546   1.129   3.767
  183SOL    HW1 1448   3.586   1.038   3.778
  183SOL    HW2 1449   3.610   1.188   3.718
  184SOL     OW 1450   1.548   5.553   3.682
  184SOL    HW1 1451   1.599   5.595   3.607
  184SOL    HW2 1452   1.508   5.625   3.739
  185SOL     OW 1453   1.344   2.757   6.261
  185SOL    HW1 1454   1.415   2.688   6.271
  185SOL    HW2 1455   1.293   2.765   6.346
  186SOL     OW 1456   6.599   1.035   3.809
  186SOL    HW1 1457   6.515   1.078   3.775
  186SOL    HW2 1458   6.634   1.087   3.887
  187SOL     OW 1459   4.939   1.065   3.034
  187SOL    HW1 1460   4.864   1.090   3.094
  187SOL    HW2 1461   5.023   1.108   3.065
  188SOL     OW 1462   5.972   2.307   3.278
  188SOL    HW1 1463   6.031   2.340   3.204
  188SOL    HW2 1464   6.029   2.261   3.347
  189SOL     OW 1465   1.820   5.435   2.724
  189SOL    HW1 1466   1.737   5.448   2.670
  189SOL    HW2 1467   1.822   5.503   2.798
  190SOL     OW 1468   4.037   1.430   4.919
  190SOL    HW1 1469   4.063   1.451   5.013
  190SOL    HW2 1470   3.952   1.377   4.919
  191SOL     OW 1471   5.745   5.627   6.283
  191SOL    HW1 1472   5.828   5.672   6.316
  191SOL    HW2 1473   5.768   5.534   6.253
  192SOL     OW 1474   0.348   6.286   2.130
  192SOL    HW1 1475   0.280   6.275   2.203
  192SOL    HW2 1476   0.411   6.208   2.132
  193SOL     OW 1477   4.907   2.849   5.861
  193SOL    HW1 1478   4.847   2.846   5.941
  193SOL    HW2 1479   4.937   2.943   5.845
  194SOL     OW 1480   3.537   1.006   3.197
  194SOL    HW1 1481   3.512   0.922   3.245
  194SOL    HW2 1482   3.507   1.001   3.102
  195SOL     OW 1483   1.803   5.828   3.774
  195SOL    HW1 1484   1.819   5.843   3.676
  195SOL    HW2 1485   1.745   5.901   3.810
  196SOL     OW 1486   2.317   2.595   6.846
  196SOL    HW1 1487   2.276   2.686   6.845
  196SOL    HW2 1488   2.246   2.526   6.833
  197SOL     OW 1489   2.532   1.429   1.091
  197SOL    HW1 1490   2.602   1.494   1.065
  197SOL    HW2 1491   2.556   1.387   1.179
  198SOL     OW 1492   4.216   1.240   2.997
  198SOL    HW1 1493   4.179   1.193   3.076
  198SOL    HW2 1494   4.149   1.306   2.962
  199SOL     OW 1495   1.245   2.738   3.824
  199SOL    HW1 1496   1.161   2.788   3.801
  199SOL    HW2 1497   1.235   2.642   3.797
  200SOL     OW 1498   0.477   2.795   1.166
  200SOL    HW1 1499   0.451   2.849   1.086
  200SOL    HW2 1500   0.555   2.838   1.211
  201SOL     OW 1501   0.554   6.766   5.639
  201SOL    HW1 1502   0.623   6.837   5.623
  201SOL    HW2 1503   0.517   6.775   5.731
  202SOL     OW 1504   4.513   1.129   6.778
  202SOL    HW1 1505   4.484   1.042   6.740
  202SOL    HW2 1506   4.598   1.158   6.735
  203SOL     OW 1507   6.072   2.149   5.607
  203SOL    HW1 1508   6.111   2.060   5.633
  203SOL    HW2 1509   6.058   2.151   5.508
  204SOL     OW 1510   0.544   0.116   5.242
  204SOL    HW1 1511   0.633   0.132   5.284
  204SOL    HW2 1512   0.555   0.106   5.143
  205SOL     OW 1513   1.881   2.255   2.973
  205SOL    HW1 1514   1.955   2.321   2.957
  205SOL    HW2 1515   1.797   2.288   2.930
  206SOL     OW 1516   0.820   3.032   1.528
  206SOL    HW1 1517   0.751   3.091   1.484
  206SOL    HW2 1518   0.775   2.970   1.591
  207SOL     OW 1519   5.148   1.221   3.124
  207SOL    HW1 1520   5.204   1.219   3.207
  207SOL    HW2 1521   5.159   1.309   3.078
  208SOL     OW 1522   0.048   4.633   5.441
  208SOL    HW1 1523   0.085   4.567   5.507
  208SOL    HW2 1524   0.055   4.595   5.349
  209SOL     OW 1525   6.498   4.452   2.907
  209SOL    HW1 1526   6.536   4.475   2.817
  209SOL    HW2 1527   6.430   4.521   2.932
  210SOL     OW 1528   4.207   1.683   0.643
  210SOL    HW1 1529   4.154   1.730   0.713
  210SOL    HW2 1530   4.304   1.681   0.669
  211SOL     OW 1531   0.710   0.002   2.463
  211SOL    HW1 1532   0.743   0.096   2.469
  211SOL    HW2 1533   0.667   6.998   2.550
  212SOL     OW 1534   1.476   3.831   2.767
  212SOL    HW1 1535   1.574   3.848   2.757
  212SOL    HW2 1536   1.460   3.734   2.785
  213SOL     OW 1537   1.982   5.488   0.948
  213SOL    HW1 1538   1.913   5.443   1.005
  213SOL    HW2 1539   1.937   5.530   0.869
  214SOL     OW 1540   3.906   4.817   2.314
  214SOL    HW1 1541   3.979   4.768   2.267
  214SOL    HW2 1542   3.833   4.839   2.249
  215SOL     OW 1543   2.329   4.244   1.035
  215SOL    HW1 1544   2.291   4.327   1.075
  215SOL    HW2 1545   2.417   4.224   1.078
  216SOL     OW 1546   0.946   6.822   2.846
  216SOL    HW1 1547   0.911   6.755   2.911
  216SOL    HW2 1548   0.921   6.795   2.753
  217SOL     OW 1549   1.120   2.486   5.153
  217SOL    HW1 1550   1.029   2.454   5.179
  217SOL    HW2 1551   1.111   2.555   5.080
  218SOL     OW 1552   0.851   1.951   4.647
  218SOL    HW1 1553   0.839   1.944   4.548
  218SOL    HW2 1554   0.828   2.044   4.677
  219SOL     OW 1555   4.525   0.418   0.434
  219SOL    HW1 1556   4.446   0.431   0.494
  219SOL    HW2 1557   4.594   0.488   0.453
  220SOL     OW 1558   2.703   6.992   1.136
  220SOL    HW1 1559   2.613   6.956   1.160
  220SOL    HW2 1560   2.706   0.068   1.155
  221SOL     OW 1561   6.331   4.399   1.470
  221SOL    HW1 1562   6.250   4.410   1.412
  221SOL    HW2 1563   6.378   4.314   1.446
  222SOL     OW 1564   1.636   4.415   6.729
  222SOL    HW1 1565   1.647   4.372   6.640
  222SOL    HW2 1566   1.582   4.355   6.789
  223SOL     OW 1567   6.923   2.718   4.984
  223SOL    HW1 1568   6.871   2.697   5.067
  223SOL    HW2 1569   6.889   2.803   4.944
  224SOL     OW 1570   3.572   1.876   6.469
  224SOL    HW1 1571   3.518   1.818   6.530
  224SOL    HW2 1572   3.560   1.845   6.374
  225SOL     OW 1573   4.392   3.656   6.239
  225SOL    HW1 1574   4.339   3.718   6.182
  225SOL    HW2 1575   4.476   3.701   6.269
  226SOL     OW 1576   0.601   1.628   6.189
  226SOL    HW1 1577   0.639   1.656   6.277
  226SOL    HW2 1578   0.652   1.671   6.115
  227SOL     OW 1579   2.417   4.348   2.606
  227SOL    HW1 1580   2.515   4.335   2.590
  227SOL    HW2 1581   2.396   4.446   2.602
  228SOL     OW 1582   2.007   0.790   2.988
  228SOL    HW1 1583   1.945   0.846   2.933
  228SOL    HW2 1584   2.018   0.701   2.944
  229SOL     OW 1585   5.255   5.023   6.405
  229SOL    HW1 1586   5.235   5.060   6.496
  229SOL    HW2 1587   5.352   4.998   6.401
  230SOL     OW 1588   4.631   5.948   4.607
  230SOL    HW1 1589   4.582   5.868   4.569
  230SOL    HW2 1590   4.690   5.918   4.682
  231SOL     OW 1591   5.823   0.960   6.917
  231SOL    HW1 1592   5.803   1.056   6.899
  231SOL    HW2 1593   5.909   0.951   6.966
  232SOL     OW 1594   6.973   2.951   6.392
  232SOL    HW1 1595   6.920   2.880   6.346
  232SOL    HW2 1596   7.001   2.918   6.482
  233SOL     OW 1597   3.574   1.886   3.731
  233SOL    HW1 1598   3.531   1.975   3.716
  233SOL    HW2 1599   3.512   1.813   3.702
  234SOL     OW 1600   6.440   0.777   6.491
  234SOL    HW1 1601   6.436   0.713   6.568
  234SOL    HW2 1602   6.532   0.777   6.453
  235SOL     OW 1603   5.400   3.307   2.546
  235SOL    HW1 1604   5.345   3.317   2.463
  235SOL    HW2 1605   5.494   3.336   2.527
  236SOL     OW 1606   5.321   3.231   0.112
  236SOL    HW1 1607   5.379   3.225   0.031
  236SOL    HW2 1608   5.345   3.312   0.165
  237SOL     OW 1609   0.206   4.155   2.274
  237SOL    HW1 1610   0.225   4.237   2.220
  237SOL    HW2 1611   0.166   4.181   2.361
  238SOL     OW 1612   6.800   1.194   0.693
  238SOL    HW1 1613   6.737   1.268   0.715
  238SOL    HW2 1614   6.793   1.123   0.763
  239SOL     OW 1615   1.335   3.936   0.249
  239SOL    HW1 1616   1.260   3.984   0.203
  239SOL    HW2 1617   1.332   3.955   0.347
  240SOL     OW 1618   0.016   3.075   3.277
  240SOL    HW1 1619   6.978   3.024   3.338
  240SOL    HW2 1620   7.010   3.060   3.183
  241SOL     OW 1621   2.532   2.496   4.391
  241SOL    HW1 1622   2.486   2.575   4.351
  241SOL    HW2 1623   2.543   2.510   4.490
  242SOL     OW 1624   3.602   3.658   3.277
  242SOL    HW1 1625   3.549   3.718   3.338
  242SOL    HW2 1626   3.689   3.702   3.256
  243SOL     OW 1627   4.685   1.677   6.800
  243SOL    HW1 1628   4.695   1.623   6.883
  243SOL    HW2 1629   4.621   1.752   6.817
  244SOL     OW 1630   6.070   3.351   6.120
  244SOL    HW1 1631   6.163   3.314   6.110
  244SOL    HW2 1632   6.061   3.433   6.062
  245SOL     OW 1633   4.347   1.653   4.078
  245SOL    HW1 1634   4.316   1.744   4.103
  245SOL    HW2 1635   4.297   1.585   4.131
  246SOL     OW 1636   5.005   1.722   3.285
  246SOL    HW1 1637   4.970   1.793   3.224
  246SOL    HW2 1638   5.105   1.722   3.282
  247SOL     OW 1639   2.850   1.569   1.450
  247SOL    HW1 1640   2.774   1.633   1.464
  247SOL    HW2 1641   2.927   1.618   1.410
  248SOL     OW 1642   2.206   1.237   2.782
  248SOL    HW1 1643   2.185   1.143   2.807
  248SOL    HW2 1644   2.158   1.300   2.844
  249SOL     OW 1645   5.289   0.056   5.126
  249SOL    HW1 1646   5.343   0.138   5.105
  249SOL    HW2 1647   5.219   0.044   5.056
  250SOL     OW 1648   3.952   3.472   0.615
  250SOL    HW1 1649   3.864   3.433   0.642
  250SOL    HW2 1650   3.961   3.468   0.516
  251SOL     OW 1651   4.614   3.383   5.345
  251SOL    HW1 1652   4.565   3.406   5.429
  251SOL    HW2 1653   4.622   3.465   5.288
  252SOL     OW 1654   6.063   6.897   5.418
  252SOL    HW1 1655   6.133   6.956   5.379
  252SOL    HW2 1656   6.025   6.939   5.500
  253SOL     OW 1657   3.815   4.903   6.332
  253SOL    HW1 1658   3.746   4.966   6.297
  253SOL    HW2 1659   3.904   4.925   6.293
  254SOL     OW 1660   6.886   2.272   3.607
  254SOL    HW1 1661   6.876   2.193   3.667
  254SOL    HW2 1662   6.824   2.262   3.528
  255SOL     OW 1663   2.011   4.412   5.966
  255SOL    HW1 1664   1.970   4.321   5.965
  255SOL    HW2 1665   2.055   4.430   5.878
  256SOL     OW 1666   5.552   3.301   6.222
  256SOL    HW1 1667   5.456   3.286   6.245
  256SOL    HW2 1668   5.610   3.276   6.300
  257SOL     OW 1669   5.508   0.129   2.915
  257SOL    HW1 1670   5.478   0.156   3.007
  257SOL    HW2 1671   5.449   0.055   2.882
  258SOL     OW 1672   2.369   3.729   5.295
  258SOL    HW1 1673   2.439   3.724   5.367
  258SOL    HW2 1674   2.377   3.817   5.247
  259SOL     OW 1675   5.859   1.182   2.010
  259SOL    HW1 1676   5.879   1.105   2.071
  259SOL    HW2 1677   5.801   1.248   2.057
  260SOL     OW 1678   3.911   5.831   3.250
  260SOL    HW1 1679   3.994   5.887   3.252
  260SOL    HW2 1680   3.925   5.754   3.189
  261SOL     OW 1681   5.366   4.342   1.536
  261SOL    HW1 1682   5.321   4.322   1.622
  261SOL    HW2 1683   5.348   4.268   1.471
  262SOL     OW 1684   1.521   4.080   0.595
  262SOL    HW1 1685   1.532   4.175   0.623
  262SOL    HW2 1686   1.574   4.021   0.656
  263SOL     OW 1687   1.350   0.637   4.334
  263SOL    HW1 1688   1.438   0.684   4.332
  263SOL    HW2 1689   1.322   0.614   4.240
  264SOL     OW 1690   6.688   2.444   0.242
  264SOL    HW1 1691   6.744   2.527   0.246
  264SOL    HW2 1692   6.632   2.437   0.325
  265SOL     OW 1693   6.021   6.474   2.647
  265SOL    HW1 1694   6.073   6.544   2.598
  265SOL    HW2 1695   5.992   6.403   2.583
  266SOL     OW 1696   4.554   2.897   5.857
  266SOL    HW1 1697   4.620   2.880   5.931
  266SOL    HW2 1698   4.464   2.915   5.896
  267SOL     OW 1699   0.936   1.646   5.636
  267SOL    HW1 1700   0.969   1.688   5.721
  267SOL    HW2 1701   0.876   1.570   5.658
  268SOL     OW 1702   2.631   1.138   6.362
  268SOL    HW1 1703   2.587   1.103   6.444
  268SOL    HW2 1704   2.591   1.227   6.338
  269SOL     OW 1705   2.367   3.272   0.637
  269SOL    HW1 1706   2.298   3.318   0.693
  269SOL    HW2 1707   2.322   3.211   0.573
  270SOL     OW 1708   0.817   6.063   0.563
  270SOL    HW1 1709   0.870   5.981   0.543
  270SOL    HW2 1710   0.780   6.057   0.655
  271SOL     OW 1711   0.342   1.815   6.512
  271SOL    HW1 1712   0.292   1.877   6.572
  271SOL    HW2 1713   0.400   1.754   6.567
  272SOL     OW 1714   3.499   6.801   3.749
  272SOL    HW1 1715   3.561   6.802   3.828
  272SOL    HW2 1716   3.469   6.708   3.732
  273SOL     OW 1717   2.192   4.748   5.054
  273SOL    HW1 1718   2.272   4.733   5.113
  273SOL    HW2 1719   2.149   4.660   5.034
  274SOL     OW 1720   3.554   1.530   3.206
  274SOL    HW1 1721   3.461   1.494   3.197
  274SOL    HW2 1722   3.594   1.542   3.115
  275SOL     OW 1723   6.497   6.074   2.319
  275SOL    HW1 1724   6.545   6.119   2.243
  275SOL    HW2 1725   6.491   5.976   2.301
  276SOL     OW 1726   0.105   6.493   3.663
  276SOL    HW1 1727   0.007   6.513   3.666
  276SOL    HW2 1728   0.127   6.424   3.732
  277SOL     OW 1729   1.899   3.810   6.966
  277SOL    HW1 1730   1.803   3.781   6.957
  277SOL    HW2 1731   1.902   3.908   6.990
  278SOL     OW 1732   0.219   3.360   2.466
  278SOL    HW1 1733   0.281   3.283   2.456
  278SOL    HW2 1734   0.235   3.403   2.555
  279SOL     OW 1735   5.580   2.912   4.721
  279SOL    HW1 1736   5.676   2.916   4.693
  279SOL    HW2 1737   5.567   2.839   4.789
  280SOL     OW 1738   3.076   5.670   1.868
  280SOL    HW1 1739   3.176   5.675   1.868
  280SOL    HW2 1740   3.042   5.696   1.959
  281SOL     OW 1741   1.922   4.417   1.840
  281SOL    HW1 1742   1.976   4.454   1.916
  281SOL    HW2 1743   1.838   4.377   1.874
  282SOL     OW 1744   3.037   1.303   5.586
  282SOL    HW1 1745   3.010   1.399   5.576
  282SOL    HW2 1746   3.098   1.278   5.510
  283SOL     OW 1747   5.836   2.702   6.651
  283SOL    HW1 1748   5.777   2.715   6.571
  283SOL    HW2 1749   5.898   2.780   6.660
  284SOL     OW 1750   1.501   3.408   4.410
  284SOL    HW1 1751   1.561   3.335   4.377
  284SOL    HW2 1752   1.550   3.494   4.410
  285SOL     OW 1753   5.042   5.079   4.295
  285SOL    HW1 1754   5.094   5.039   4.371
  285SOL    HW2 1755   5.038   5.013   4.220
  286SOL     OW 1756   3.434   4.252   6.926
  286SOL    HW1 1757   3.342   4.269   6.962
  286SOL    HW2 1758   3.429   4.241   6.827
  287SOL     OW 1759   1.499   2.518   0.943
  287SOL    HW1 1760   1.464   2.550   1.031
  287SOL    HW2 1761   1.574   2.453   0.958
  288SOL     OW 1762   3.641   1.727   6.215
  288SOL    HW1 1763   3.696   1.661   6.266
  288SOL    HW2 1764   3.573   1.679   6.160
  289SOL     OW 1765   1.636   3.833   5.541
  289SOL    HW1 1766   1.545   3.808   5.507
  289SOL    HW2 1767   1.705   3.786   5.486
  290SOL     OW 1768   6.400   1.617   4.881
  290SOL    HW1 1769   6.405   1.669   4.966
  290SOL    HW2 1770   6.476   1.553   4.876
  291SOL     OW 1771   0.706   1.583   3.819
  291SOL    HW1 1772   0.674   1.504   3.871
  291SOL    HW2 1773   0.739   1.654   3.881
  292SOL     OW 1774   1.477   1.012   3.227
  292SOL    HW1 1775   1.433   0.922   3.228
  292SOL    HW2 1776   1.507   1.034   3.135
  293SOL     OW 1777   4.390   6.263   3.163
  293SOL    HW1 1778   4.324   6.335   3.184
  293SOL    HW2 1779   4.352   6.201   3.094
  294SOL     OW 1780   5.968   6.291   0.160
  294SOL    HW1 1781   5.973   6.239   0.075
  294SOL    HW2 1782   5.972   6.227   0.238
  295SOL     OW 1783   3.657   0.631   3.010
  295SOL    HW1 1784   3.705   0.658   2.927
  295SOL    HW2 1785   3.720   0.637   3.088
  296SOL     OW 1786   3.754   1.581   2.985
  296SOL    HW1 1787   3.799   1.506   2.936
  296SOL    HW2 1788   3.823   1.632   3.037
  297SOL     OW 1789   2.444   4.454   3.507
  297SOL    HW1 1790   2.397   4.389   3.447
  297SOL    HW2 1791   2.454   4.414   3.598
  298SOL     OW 1792   5.365   5.797   0.961
  298SOL    HW1 1793   5.323   5.818   0.872
  298SOL    HW2 1794   5.417   5.876   0.993
  299SOL     OW 1795   6.181   2.689   5.035
  299SOL    HW1 1796   6.159   2.658   5.127
  299SOL    HW2 1797   6.256   2.635   4.997
  300SOL     OW 1798   6.368   0.523   3.083
  300SOL    HW1 1799   6.378   0.615   3.046
  300SOL    HW2 1800   6.456   0.476   3.082
  301SOL     OW 1801   5.316   3.645   6.803
  301SOL    HW1 1802   5.309   3.667   6.900
  301SOL    HW2 1803   5.338   3.729   6.752
  302SOL     OW 1804   0.839   0.439   3.611
  302SOL    HW1 1805   0.749   0.397   3.619
  302SOL    HW2 1806   0.844   0.520   3.670
  303SOL     OW 1807   4.954   0.731   2.264
  303SOL    HW1 1808   4.891   0.654   2.280
  303SOL    HW2 1809   5.045   0.707   2.296
  304SOL     OW 1810   1.915   0.191   2.975
  304SOL    HW1 1811   1.829   0.147   2.999
  304SOL    HW2 1812   1.950   0.152   2.890
  305SOL     OW 1813   0.987   3.695   6.883
  305SOL    HW1 1814   1.015   3.662   6.973
  305SOL    HW2 1815   0.916   3.765   6.894
  306SOL     OW 1816   1.928   1.200   4.006
  306SOL    HW1 1817   2.023   1.169   4.000
  306SOL    HW2 1818   1.871   1.125   4.042
  307SOL     OW 1819   4.906   0.343   0.997
  307SOL    HW1 1820   4.909   0.363   1.095
  307SOL    HW2 1821   4.813   0.317   0.972
  308SOL     OW 1822   0.490   5.881   3.268
  308SOL    HW1 1823   0.539   5.961   3.304
  308SOL    HW2 1824   0.526   5.857   3.178
  309SOL     OW 1825   3.821   4.313   5.368
  309SOL    HW1 1826   3.787   4.402   5.398
  309SOL    HW2 1827   3.784   4.292   5.277
  310SOL     OW 1828   6.965   6.434   5.794
  310SOL    HW1 1829   6.954   6.512   5.855
  310SOL    HW2 1830   7.012   6.360   5.843
  311SOL     OW 1831   6.437   5.722   1.764
  311SOL    HW1 1832   6.365   5.680   1.817
  311SOL    HW2 1833   6.472   5.803   1.811
  312SOL     OW 1834   4.799   1.584   4.684
  312SOL    HW1 1835   4.849   1.555   4.603
  312SOL    HW2 1836   4.783   1.506   4.743
  313SOL     OW 1837   2.396   4.173   1.716
  313SOL    HW1 1838   2.462   4.247   1.705
  313SOL    HW2 1839   2.339   4.190   1.796
  314SOL     OW 1840   3.461   5.527   0.560
  314SOL    HW1 1841   3.489   5.623   0.571
  314SOL    HW2 1842   3.363   5.519   0.579
  315SOL     OW 1843   0.621   2.752   3.389
  315SOL    HW1 1844   0.646   2.796   3.303
  315SOL    HW2 1845   0.585   2.661   3.370
  316SOL     OW 1846   2.211   2.692   4.130
  316SOL    HW1 1847   2.137   2.651   4.185
  316SOL    HW2 1848   2.190   2.788   4.112
  317SOL     OW 1849   0.576   1.149   6.845
  317SOL    HW1 1850   0.498   1.108   6.891
  317SOL    HW2 1851   0.609   1.227   6.897
  318SOL     OW 1852   1.390   4.762   0.938
  318SOL    HW1 1853   1.303   4.721   0.963
  318SOL    HW2 1854   1.437   4.793   1.021
  319SOL     OW 1855   0.961   6.884   1.304
  319SOL    HW1 1856   0.875   6.924   1.333
  319SOL    HW2 1857   0.977   6.798   1.352
  320SOL     OW 1858   6.392   2.697   0.297
  320SOL    HW1 1859   6.396   2.795   0.319
  320SOL    HW2 1860   6.419   2.644   0.377
  321SOL     OW 1861   1.687   2.148   1.958
  321SOL    HW1 1862   1.647   2.224   1.907
  321SOL    HW2 1863   1.615   2.085   1.987
  322SOL     OW 1864   3.903   3.114   4.645
  322SOL    HW1 1865   3.848   3.063   4.579
  322SOL    HW2 1866   3.850   3.191   4.680
  323SOL     OW 1867   0.481   4.223   0.728
  323SOL    HW1 1868   0.504   4.285   0.653
  323SOL    HW2 1869   0.516   4.260   0.814
  324SOL     OW 1870   0.964   3.124   4.422
  324SOL    HW1 1871   0.890   3.141   4.486
  324SOL    HW2 1872   1.037   3.192   4.436
  325SOL     OW 1873   1.925   3.187   1.480
  325SOL    HW1 1874   1.897   3.244   1.403
  325SOL    HW2 1875   1.889   3.094   1.469
  326SOL     OW 1876   2.079   6.393   6.986
  326SOL    HW1 1877   2.159   6.334   6.999
  326SOL    HW2 1878   2.035   6.372   6.899
  327SOL     OW 1879   0.403   4.875   4.316
  327SOL    HW1 1880   0.469   4.936   4.361
  327SOL    HW2 1881   0.340   4.839   4.385
  328SOL     OW 1882   4.073   5.199   2.409
  328SOL    HW1 1883   4.126   5.283   2.396
  328SOL    HW2 1884   4.134   5.123   2.430
  329SOL     OW 1885   2.948   3.808   3.387
  329SOL    HW1 1886   2.983   3.856   3.306
  329SOL    HW2 1887   2.901   3.724   3.358
  330SOL     OW 1888   3.710   6.691   1.605
  330SOL    HW1 1889   3.738   6.648   1.691
  330SOL    HW2 1890   3.638   6.758   1.624
  331SOL     OW 1891   4.477   5.473   6.140
  331SOL    HW1 1892   4.465   5.564   6.101
  331SOL    HW2 1893   4.388   5.430   6.153
  332SOL     OW 1894   3.355   1.682   3.663
  332SOL    HW1 1895   3.299   1.640   3.734
  332SOL    HW2 1896   3.375   1.615   3.592
  333SOL     OW 1897   4.007   6.807   6.209
  333SOL    HW1 1898   4.050   6.735   6.154
  333SOL    HW2 1899   4.078   6.863   6.251
  334SOL     OW 1900   3.304   6.978   2.039
  334SOL    HW1 1901   3.238   6.904   2.053
  334SOL    HW2 1902   3.256   0.043   2.036
  335SOL     OW 1903   3.686   5.641   3.500
  335SOL    HW1 1904   3.782   5.666   3.511
  335SOL    HW2 1905   3.678   5.572   3.429
  336SOL     OW 1906   2.118   1.207   3.180
  336SOL    HW1 1907   2.054   1.177   3.250
  336SOL    HW2 1908   2.152   1.127   3.129
  337SOL     OW 1909   0.572   3.088   1.729
  337SOL    HW1 1910   0.631   3.008   1.723
  337SOL    HW2 1911   0.615   3.164   1.680
  338SOL     OW 1912   3.265   3.025   1.729
  338SOL    HW1 1913   3.202   2.969   1.675
  338SOL    HW2 1914   3.282   2.981   1.817
  339SOL     OW 1915   3.830   0.265   2.965
  339SOL    HW1 1916   3.763   0.225   3.028
  339SOL    HW2 1917   3.784   0.300   2.884
  340SOL     OW 1918   5.517   4.535   4.695
  340SOL    HW1 1919   5.570   4.616   4.670
  340SOL    HW2 1920   5.512   4.474   4.616
  341SOL     OW 1921   5.089   6.224   4.197
  341SOL    HW1 1922   5.034   6.187   4.121
  341SOL    HW2 1923   5.186   6.216   4.174
  342SOL     OW 1924   5.686   4.819   6.836
  342SOL    HW1 1925   5.775   4.842   6.875
  342SOL    HW2 1926   5.632   4.903   6.826
  343SOL     OW 1927   3.499   6.725   1.916
  343SOL    HW1 1928   3.578   6.786   1.920
  343SOL    HW2 1929   3.431   6.762   1.853
  344SOL     OW 1930   2.041   5.235   0.528
  344SOL    HW1 1931   2.089   5.245   0.615
  344SOL    HW2 1932   2.098   5.181   0.465
  345SOL     OW 1933   0.955   0.393   5.416
  345SOL    HW1 1934   0.970   0.420   5.321
  345SOL    HW2 1935   0.946   0.474   5.474
  346SOL     OW 1936   1.490   0.163   2.996
  346SOL    HW1 1937   1.524   0.250   2.960
  346SOL    HW2 1938   1.566   0.112   3.035
  347SOL     OW 1939   5.523   6.954   6.765
  347SOL    HW1 1940   5.461   6.979   6.690
  347SOL    HW2 1941   5.617   6.956   6.733
  348SOL     OW 1942   4.080   5.308   1.023
  348SOL    HW1 1943   4.013   5.313   0.949
  348SOL    HW2 1944   4.089   5.213   1.054
  349SOL     OW 1945   0.426   4.452   2.862
  349SOL    HW1 1946   0.371   4.381   2.818
  349SOL    HW2 1947   0.371   4.535   2.872
  350SOL     OW 1948   4.033   3.603   1.618
  350SOL    HW1 1949   4.016   3.670   1.546
  350SOL    HW2 1950   3.997   3.637   1.705
  351SOL     OW 1951   2.739   1.659   0.426
  351SOL    HW1 1952   2.759   1.608   0.343
  351SOL    HW2 1953   2.799   1.628   0.500
  352SOL     OW 1954   3.470   0.450   5.792
  352SOL    HW1 1955   3.476   0.356   5.824
  352SOL    HW2 1956   3.494   0.455   5.695
  353SOL     OW 1957   1.804   6.268   0.655
  353SOL    HW1 1958   1.838   6.323   0.579
  353SOL    HW2 1959   1.743   6.197   0.621
  354SOL     OW 1960   4.302   2.131   0.214
  354SOL    HW1 1961   4.263   2.092   0.297
  354SOL    HW2 1962   4.242   2.202   0.179
  355SOL     OW 1963   6.582   2.812   2.768
  355SOL    HW1 1964   6.561   2.751   2.844
  355SOL    HW2 1965   6.621   2.759   2.692
  356SOL     OW 1966   4.522   4.882   4.765
  356SOL    HW1 1967   4.501   4.975   4.793
  356SOL    HW2 1968   4.618   4.861   4.787
  357SOL     OW 1969   0.397   5.536   5.092
  357SOL    HW1 1970   0.493   5.555   5.111
  357SOL    HW2 1971   0.342   5.618   5.110
  358SOL     OW 1972   6.458   0.077   1.527
  358SOL    HW1 1973   6.467   0.027   1.441
  358SOL    HW2 1974   6.361   0.092   1.547
  359SOL     OW 1975   1.585   2.558   2.673
  359SOL    HW1 1976   1.586   2.564   2.573
  359SOL    HW2 1977   1.573   2.649   2.711
  360SOL     OW 1978   4.710   6.946   6.826
  360SOL    HW1 1979   4.673   6.974   6.737
  360SOL    HW2 1980   4.751   0.002   6.871
  361SOL     OW 1981   5.035   5.776   3.136
  361SOL    HW1 1982   5.009   5.872   3.145
  361SOL    HW2 1983   4.976   5.731   3.069
  362SOL     OW 1984   2.550   4.371   0.695
  362SOL    HW1 1985   2.606   4.289   0.683
  362SOL    HW2 1986   2.454   4.345   0.701
  363SOL     OW 1987   3.837   5.201   4.497
  363SOL    HW1 1988   3.879   5.111   4.507
  363SOL    HW2 1989   3.887   5.267   4.553
  364SOL     OW 1990   1.207   5.492   5.596
  364SOL    HW1 1991   1.120   5.450   5.623
  364SOL    HW2 1992   1.196   5.537   5.508
  365SOL     OW 1993   5.109   5.946   2.438
  365SOL    HW1 1994   5.199   5.920   2.403
  365SOL    HW2 1995   5.115   5.962   2.537
  366SOL     OW 1996   6.334   1.165   0.077
  366SOL    HW1 1997   6.416   1.203   0.034
  366SOL    HW2 1998   6.278   1.119   0.008
  367SOL     OW 1999   5.438   3.100   0.953
  367SOL    HW1 2000   5.351   3.115   0.908
  367SOL    HW2 2001   5.488   3.187   0.959
  368SOL     OW 2002   1.550   4.315   5.127
  368SOL    HW1 2003   1.455   4.285   5.141
  368SOL    HW2 2004   1.583   4.362   5.208
  369SOL     OW 2005   6.883   4.196   1.790
  369SOL    HW1 2006   6.980   4.211   1.809
  369SOL    HW2 2007   6.828   4.234   1.864
  370SOL     OW 2008   2.539   0.508   6.230
  370SOL    HW1 2009   2.573   0.538   6.141
  370SOL    HW2 2010   2.606   0.448   6.273
  371SOL     OW 2011   2.995   3.065   0.228
  371SOL    HW1 2012   3.065   3.135   0.237
  371SOL    HW2 2013   2.906   3.103   0.256
  372SOL     OW 2014   0.079   6.870   5.713
  372SOL    HW1 2015   0.148   6.861   5.785
  372SOL    HW2 2016   0.123   6.901   5.629
  373SOL     OW 2017   0.053   6.138   0.440
  373SOL    HW1 2018   0.151   6.121   0.449
  373SOL    HW2 2019   0.025   6.207   0.507
  374SOL     OW 2020   3.280   0.184   2.686
  374SOL    HW1 2021   3.228   0.269   2.690
  374SOL    HW2 2022   3.299   0.151   2.778
  375SOL     OW 2023   6.052   4.923   3.238
  375SOL    HW1 2024   6.064   5.021   3.255
  375SOL    HW2 2025   6.120   4.871   3.290
  376SOL     OW 2026   1.546   2.660   3.977
  376SOL    HW1 2027   1.642   2.642   3.995
  376SOL    HW2 2028   1.506   2.583   3.926
  377SOL     OW 2029   5.066   2.070   2.613
  377SOL    HW1 2030   4.973   2.037   2.631
  377SOL    HW2 2031   5.130   1.994   2.614
  378SOL     OW 2032   4.179   3.567   5.546
  378SOL    HW1 2033   4.093   3.517   5.545
  378SOL    HW2 2034   4.209   3.584   5.452
  379SOL     OW 2035   5.712   3.795   1.319
  379SOL    HW1 2036   5.778   3.758   1.384
  379SOL    HW2 2037   5.624   3.749   1.331
  380SOL     OW 2038   1.319   1.359   1.151
  380SOL    HW1 2039   1.416   1.383   1.152
  380SOL    HW2 2040   1.282   1.373   1.059
  381SOL     OW 2041   3.132   4.545   1.174
  381SOL    HW1 2042   3.034   4.558   1.161
  381SOL    HW2 2043   3.173   4.629   1.208
  382SOL     OW 2044   3.423   5.800   0.362
  382SOL    HW1 2045   3.421   5.889   0.317
  382SOL    HW2 2046   3.391   5.730   0.298
  383SOL     OW 2047   6.542   2.683   0.074
  383SOL    HW1 2048   6.588   2.772   0.081
  383SOL    HW2 2049   6.483   2.670   0.153
  384SOL     OW 2050   0.787   5.357   5.363
  384SOL    HW1 2051   0.773   5.315   5.274
  384SOL    HW2 2052   0.715   5.326   5.426
  385SOL     OW 2053   4.566   6.142   0.233
  385SOL    HW1 2054   4.626   6.080   0.183
  385SOL    HW2 2055   4.471   6.112   0.224
  386SOL     OW 2056   3.898   6.434   5.511
  386SOL    HW1 2057   3.836   6.358   5.527
  386SOL    HW2 2058   3.868   6.513   5.566
  387SOL     OW 2059   0.138   0.942   4.895
  387SOL    HW1 2060   0.106   0.954   4.801
  387SOL    HW2 2061   0.226   0.896   4.895
  388SOL     OW 2062   0.016   2.252   5.167
  388SOL    HW1 2063   7.002   2.318   5.232
  388SOL    HW2 2064   6.964   2.201   5.125
  389SOL     OW 2065   4.280   4.528   1.562
  389SOL    HW1 2066   4.334   4.446   1.577
  389SOL    HW2 2067   4.330   4.591   1.503
  390SOL     OW 2068   3.757   1.378   0.192
  390SOL    HW1 2069   3.704   1.455   0.156
  390SOL    HW2 2070   3.849   1.381   0.154
  391SOL     OW 2071   2.925   3.541   6.335
  391SOL    HW1 2072   2.827   3.556   6.334
  391SOL    HW2 2073   2.960   3.550   6.428
  392SOL     OW 2074   1.539   4.146   2.535
  392SOL    HW1 2075   1.634   4.120   2.515
  392SOL    HW2 2076   1.538   4.229   2.590
  393SOL     OW 2077   0.844   4.135   0.729
  393SOL    HW1 2078   0.925   4.077   0.731
  393SOL    HW2 2079   0.765   4.080   0.701
  394SOL     OW 2080   6.819   2.203   6.439
  394SOL    HW1 2081   6.777   2.219   6.528
  394SOL    HW2 2082   6.902   2.258   6.431
  395SOL     OW 2083   5.331   4.472   1.897
  395SOL    HW1 2084   5.304   4.442   1.988
  395SOL    HW2 2085   5.377   4.560   1.903
  396SOL     OW 2086   2.982   1.870   2.753
  396SOL    HW1 2087   3.067   1.863   2.805
  396SOL    HW2 2088   2.962   1.782   2.709
  397SOL     OW 2089   4.300   1.663   5.307
  397SOL    HW1 2090   4.336   1.646   5.398
  397SOL    HW2 2091   4.376   1.680   5.244
  398SOL     OW 2092   2.200   0.539   4.778
  398SOL    HW1 2093   2.122   0.480   4.802
  398SOL    HW2 2094   2.284   0.497   4.812
  399SOL     OW 2095   5.249   6.130   3.772
  399SOL    HW1 2096   5.303   6.183   3.706
  399SOL    HW2 2097   5.162   6.175   3.788
  400SOL     OW 2098   6.402   0.565   4.724
  400SOL    HW1 2099   6.483   0.552   4.667
  400SOL    HW2 2100   6.348   0.641   4.688
  401SOL     OW 2101   6.818   5.969   5.595
  401SOL    HW1 2102   6.884   6.033   5.634
  401SOL    HW2 2103   6.862   5.881   5.579
  402SOL     OW 2104   6.838   0.264   2.610
  402SOL    HW1 2105   6.843   0.171   2.574
  402SOL    HW2 2106   6.879   0.268   2.701
  403SOL     OW 2107   2.860   0.813   6.182
  403SOL    HW1 2108   2.926   0.806   6.107
  403SOL    HW2 2109   2.840   0.722   6.218
  404SOL     OW 2110   4.063   5.244   4.915
  404SOL    HW1 2111   4.073   5.147   4.891
  404SOL    HW2 2112   4.134   5.270   4.980
  405SOL     OW 2113   2.291   4.247   4.146
  405SOL    HW1 2114   2.350   4.256   4.227
  405SOL    HW2 2115   2.196   4.263   4.172
  406SOL     OW 2116   0.109   5.121   5.968
  406SOL    HW1 2117   0.174   5.149   6.039
  406SOL    HW2 2118   0.016   5.143   5.997
  407SOL     OW 2119   1.700   3.035   4.146
  407SOL    HW1 2120   1.709   3.059   4.049
  407SOL    HW2 2121   1.614   2.986   4.160
  408SOL     OW 2122   3.091   1.422   3.490
  408SOL    HW1 2123   3.132   1.379   3.410
  408SOL    HW2 2124   2.991   1.413   3.484
  409SOL     OW 2125   1.028   3.794   2.742
  409SOL    HW1 2126   0.960   3.727   2.711
  409SOL    HW2 2127   1.071   3.837   2.663
  410SOL     OW 2128   1.678   1.970   1.342
  410SOL    HW1 2129   1.704   1.964   1.246
  410SOL    HW2 2130   1.597   2.027   1.351
  411SOL     OW 2131   0.603   2.276   1.425
  411SOL    HW1 2132   0.697   2.243   1.411
  411SOL    HW2 2133   0.601   2.375   1.418
  412SOL     OW 2134   1.928   4.740   2.085
  412SOL    HW1 2135   1.839   4.720   2.127
  412SOL    HW2 2136   1.990   4.663   2.099
  413SOL     OW 2137   4.424   5.287   2.744
  413SOL    HW1 2138   4.387   5.322   2.658
  413SOL    HW2 2139   4.482   5.207   2.725
  414SOL     OW 2140   2.560   6.345   3.842
  414SOL    HW1 2141   2.632   6.279   3.821
  414SOL    HW2 2142   2.575   6.428   3.788
  415SOL     OW 2143   6.796   0.600   0.575
  415SOL    HW1 2144   6.752   0.556   0.654
  415SOL    HW2 2145   6.775   0.697   0.576
  416SOL     OW 2146   4.860   3.287   4.739
  416SOL    HW1 2147   4.868   3.250   4.832
  416SOL    HW2 2148   4.853   3.386   4.743
  417SOL     OW 2149   3.349   1.965   6.852
  417SOL    HW1 2150   3.409   1.995   6.777
  417SOL    HW2 2151   3.285   2.038   6.875
  418SOL     OW 2152   4.064   6.182   4.460
  418SOL    HW1 2153   3.969   6.203   4.479
  418SOL    HW2 2154   4.118   6.192   4.544
  419SOL     OW 2155   0.929   0.370   1.747
  419SOL    HW1 2156   1.010   0.365   1.805
  419SOL    HW2 2157   0.907   0.466   1.728
  420SOL     OW 2158   6.082   0.639   6.184
  420SOL    HW1 2159   6.114   0.641   6.279
  420SOL    HW2 2160   6.054   0.731   6.156
  421SOL     OW 2161   5.399   3.945   2.738
  421SOL    HW1 2162   5.305   3.911   2.733
  421SOL    HW2 2163   5.433   3.937   2.831
  422SOL     OW 2164   5.085   2.859   1.642
  422SOL    HW1 2165   5.051   2.773   1.604
  422SOL    HW2 2166   5.014   2.902   1.698
  423SOL     OW 2167   3.434   1.634   6.050
  423SOL    HW1 2168   3.479   1.677   5.972
  423SOL    HW2 2169   3.336   1.652   6.046
  424SOL     OW 2170   1.240   4.203   2.870
  424SOL    HW1 2171   1.329   4.179   2.909
  424SOL    HW2 2172   1.225   4.302   2.880
  425SOL     OW 2173   2.528   0.205   5.687
  425SOL    HW1 2174   2.451   0.184   5.747
  425SOL    HW2 2175   2.545   0.128   5.626
  426SOL     OW 2176   2.424   2.748   4.354
  426SOL    HW1 2177   2.375   2.715   4.274
  426SOL    HW2 2178   2.369   2.820   4.399
  427SOL     OW 2179   3.989   1.946   3.586
  427SOL    HW1 2180   3.951   1.967   3.676
  427SOL    HW2 2181   3.919   1.961   3.516
  428SOL     OW 2182   2.646   1.398   5.621
  428SOL    HW1 2183   2.562   1.452   5.622
  428SOL    HW2 2184   2.623   1.301   5.627
  429SOL     OW 2185   1.233   5.779   4.005
  429SOL    HW1 2186   1.191   5.867   3.985
  429SOL    HW2 2187   1.332   5.788   4.003
  430SOL     OW 2188   1.368   7.006   3.238
  430SOL    HW1 2189   1.385   6.914   3.201
  430SOL    HW2 2190   1.282   0.018   3.201
  431SOL     OW 2191   2.845   1.861   1.946
  431SOL    HW1 2192   2.937   1.872   1.909
  431SOL    HW2 2193   2.787   1.817   1.877
  432SOL     OW 2194   4.144   1.920   1.518
  432SOL    HW1 2195   4.208   1.888   1.449
  432SOL    HW2 2196   4.194   1.950   1.599
  433SOL     OW 2197   1.982   6.377   0.424
  433SOL    HW1 2198   2.010   6.429   0.342
  433SOL    HW2 2199   1.991   6.436   0.504
  434SOL     OW 2200   3.780   6.312   3.419
  434SOL    HW1 2201   3.774   6.313   3.319
  434SOL    HW2 2202   3.817   6.399   3.451
  435SOL     OW 2203   2.759   1.664   6.172
  435SOL    HW1 2204   2.795   1.718   6.247
  435SOL    HW2 2205   2.815   1.677   6.091
  436SOL     OW 2206   4.946   7.022   2.899
  436SOL    HW1 2207   4.958   7.011   2.997
  436SOL    HW2 2208   4.951   6.933   2.854
  437SOL     OW 2209   6.649   0.293   4.498
  437SOL    HW1 2210   6.638   0.243   4.584
  437SOL    HW2 2211   6.563   0.291   4.447
  438SOL     OW 2212   0.564   4.041   2.851
  438SOL    HW1 2213   0.537   3.954   2.893
  438SOL    HW2 2214   0.632   4.086   2.910
  439SOL     OW 2215   5.994   0.509   3.374
  439SOL    HW1 2216   5.904   0.544   3.350
  439SOL    HW2 2217   5.993   0.409   3.374
  440SOL     OW 2218   4.515   0.874   0.432
  440SOL    HW1 2219   4.599   0.887   0.379
  440SOL    HW2 2220   4.489   0.960   0.475
  441SOL     OW 2221   0.395   4.447   3.124
  441SOL    HW1 2222   0.421   4.440   3.028
  441SOL    HW2 2223   0.452   4.514   3.170
  442SOL     OW 2224   5.889   3.164   5.953
  442SOL    HW1 2225   5.929   3.235   6.011
  442SOL    HW2 2226   5.863   3.204   5.865
  443SOL     OW 2227   4.913   3.551   2.658
  443SOL    HW1 2228   4.883   3.518   2.569
  443SOL    HW2 2229   4.918   3.475   2.722
  444SOL     OW 2230   4.255   0.845   1.397
  444SOL    HW1 2231   4.249   0.779   1.322
  444SOL    HW2 2232   4.232   0.936   1.364
  445SOL     OW 2233   1.312   5.638   2.341
  445SOL    HW1 2234   1.273   5.556   2.383
  445SOL    HW2 2235   1.344   5.700   2.412
  446SOL     OW 2236   5.497   7.016   1.651
  446SOL    HW1 2237   5.467   0.086   1.628
  446SOL    HW2 2238   5.516   6.965   1.567
  447SOL     OW 2239   6.228   4.133   0.540
  447SOL    HW1 2240   6.315   4.087   0.525
  447SOL    HW2 2241   6.183   4.094   0.620
  448SOL     OW 2242   2.603   6.617   3.125
  448SOL    HW1 2243   2.613   6.518   3.132
  448SOL    HW2 2244   2.556   6.651   3.207
  449SOL     OW 2245   2.160   3.516   4.872
  449SOL    HW1 2246   2.210   3.523   4.785
  449SOL    HW2 2247   2.174   3.599   4.925
  450SOL     OW 2248   0.978   4.911   3.250
  450SOL    HW1 2249   1.038   4.896   3.329
  450SOL    HW2 2250   0.930   4.826   3.228
  451SOL     OW 2251   0.881   2.005   2.550
  451SOL    HW1 2252   0.894   1.906   2.548
  451SOL    HW2 2253   0.799   2.029   2.499
  452SOL     OW 2254   4.718   6.027   2.636
  452SOL    HW1 2255   4.631   6.017   2.590
  452SOL    HW2 2256   4.704   6.028   2.735
  453SOL     OW 2257   3.509   0.681   0.085
  453SOL    HW1 2258   3.460   0.601   0.048
  453SOL    HW2 2259   3.464   0.764   0.054
  454SOL     OW 2260   0.167   3.695   6.753
  454SOL    HW1 2261   0.249   3.678   6.699
  454SOL    HW2 2262   0.192   3.745   6.837
  455SOL     OW 2263   6.154   4.424   6.235
  455SOL    HW1 2264   6.175   4.465   6.324
  455SOL    HW2 2265   6.182   4.485   6.162
  456SOL     OW 2266   2.845   0.668   2.373
  456SOL    HW1 2267   2.871   0.573   2.385
  456SOL    HW2 2268   2.841   0.690   2.276
  457SOL     OW 2269   2.339   0.351   6.875
  457SOL    HW1 2270   2.365   0.401   6.957
  457SOL    HW2 2271   2.307   0.260   6.900
  458SOL     OW 2272   2.826   1.124   3.476
  458SOL    HW1 2273   2.831   1.222   3.462
  458SOL    HW2 2274   2.863   1.101   3.566
  459SOL     OW 2275   2.747   0.222   4.202
  459SOL    HW1 2276   2.705   0.308   4.174
  459SOL    HW2 2277   2.720   0.200   4.296
  460SOL     OW 2278   1.147   1.965   5.021
  460SOL    HW1 2279   1.115   2.018   5.100
  460SOL    HW2 2280   1.240   1.993   4.999
  461SOL     OW 2281   0.844   5.044   5.937
  461SOL    HW1 2282   0.803   4.956   5.961
  461SOL    HW2 2283   0.780   5.117   5.956
  462SOL     OW 2284   3.120   4.014   4.275
  462SOL    HW1 2285   3.183   4.024   4.352
  462SOL    HW2 2286   3.054   3.942   4.295
  463SOL     OW 2287   5.672   6.943   2.344
  463SOL    HW1 2288   5.608   6.988   2.282
  463SOL    HW2 2289   5.667   6.987   2.434
  464SOL     OW 2290   3.895   5.744   5.904
  464SOL    HW1 2291   3.837   5.669   5.934
  464SOL    HW2 2292   3.930   5.724   5.813
  465SOL     OW 2293   0.993   3.679   0.172
  465SOL    HW1 2294   0.910   3.623   0.174
  465SOL    HW2 2295   1.057   3.647   0.242
  466SOL     OW 2296   4.246   5.688   4.621
  466SOL    HW1 2297   4.300   5.682   4.705
  466SOL    HW2 2298   4.258   5.778   4.580
  467SOL     OW 2299   6.698   0.197   1.588
  467SOL    HW1 2300   6.711   0.226   1.493
  467SOL    HW2 2301   6.611   0.149   1.596
  468SOL     OW 2302   3.822   0.079   6.692
  468SOL    HW1 2303   3.785   0.103   6.602
  468SOL    HW2 2304   3.920   0.060   6.684
  469SOL     OW 2305   2.890   4.950   6.090
  469SOL    HW1 2306   2.795   4.964   6.061
  469SOL    HW2 2307   2.942   4.910   6.015
  470SOL     OW 2308   2.119   5.128   2.394
  470SOL    HW1 2309   2.072   5.067   2.330
  470SOL    HW2 2310   2.116   5.222   2.359
  471SOL     OW 2311   2.160   2.605   4.595
  471SOL    HW1 2312   2.131   2.637   4.505
  471SOL    HW2 2313   2.239   2.659   4.625
  472SOL     OW 2314   5.899   3.916   6.264
  472SOL    HW1 2315   5.936   3.851   6.330
  472SOL    HW2 2316   5.870   3.868   6.182
  473SOL     OW 2317   0.118   3.097   2.263
  473SOL    HW1 2318   0.063   3.104   2.181
  473SOL    HW2 2319   0.197   3.159   2.256
  474SOL     OW 2320   4.956   6.095   3.976
  474SOL    HW1 2321   4.922   6.158   3.906
  474SOL    HW2 2322   4.880   6.066   4.034
  475SOL     OW 2323   6.068   1.808   0.807
  475SOL    HW1 2324   6.069   1.905   0.784
  475SOL    HW2 2325   6.119   1.794   0.892
  476SOL     OW 2326   0.698   4.659   1.190
  476SOL    HW1 2327   0.630   4.731   1.178
  476SOL    HW2 2328   0.785   4.699   1.218
  477SOL     OW 2329   1.368   4.490   3.870
  477SOL    HW1 2330   1.317   4.547   3.806
  477SOL    HW2 2331   1.304   4.434   3.924
  478SOL     OW 2332   4.760   5.985   1.669
  478SOL    HW1 2333   4.694   5.961   1.739
  478SOL    HW2 2334   4.853   5.965   1.703
  479SOL     OW 2335   3.590   3.881   3.494
  479SOL    HW1 2336   3.506   3.880   3.439
  479SOL    HW2 2337   3.591   3.801   3.554
  480SOL     OW 2338   1.698   0.037   3.082
  480SOL    HW1 2339   1.746   6.972   3.072
  480SOL    HW2 2340   1.675   0.051   3.178
  481SOL     OW 2341   0.373   6.870   0.926
  481SOL    HW1 2342   0.387   6.853   1.023
  481SOL    HW2 2343   0.367   6.969   0.910
  482SOL     OW 2344   4.444   5.341   1.802
  482SOL    HW1 2345   4.440   5.257   1.747
  482SOL    HW2 2346   4.509   5.404   1.761
  483SOL     OW 2347   5.326   1.789   3.590
  483SOL    HW1 2348   5.263   1.798   3.513
  483SOL    HW2 2349   5.382   1.707   3.579
  484SOL     OW 2350   2.184   4.249   4.472
  484SOL    HW1 2351   2.203   4.220   4.566
  484SOL    HW2 2352   2.264   4.298   4.436
  485SOL     OW 2353   5.327   3.003   1.611
  485SOL    HW1 2354   5.247   2.944   1.629
  485SOL    HW2 2355   5.346   3.004   1.513
  486SOL     OW 2356   6.202   6.378   6.188
  486SOL    HW1 2357   6.184   6.313   6.263
  486SOL    HW2 2358   6.235   6.464   6.226
  487SOL     OW 2359   6.763   6.999   5.451
  487SOL    HW1 2360   6.838   0.032   5.485
  487SOL    HW2 2361   6.775   6.904   5.479
  488SOL     OW 2362   1.581   5.821   2.941
  488SOL    HW1 2363   1.641   5.873   2.881
  488SOL    HW2 2364   1.632   5.747   2.985
  489SOL     OW 2365   1.048   5.923   5.711
  489SOL    HW1 2366   0.978   5.993   5.701
  489SOL    HW2 2367   1.057   5.873   5.625
  490SOL     OW 2368   1.257   4.116   5.644
  490SOL    HW1 2369   1.346   4.144   5.608
  490SOL    HW2 2370   1.261   4.021   5.675
  491SOL     OW 2371   0.596   2.378   0.584
  491SOL    HW1 2372   0.532   2.427   0.525
  491SOL    HW2 2373   0.614   2.288   0.546
  492SOL     OW 2374   1.625   2.152   5.968
  492SOL    HW1 2375   1.586   2.078   5.912
  492SOL    HW2 2376   1.595   2.240   5.932
  493SOL     OW 2377   2.290   5.787   4.635
  493SOL    HW1 2378   2.380   5.746   4.648
  493SOL    HW2 2379   2.268   5.791   4.538
  494SOL     OW 2380   2.622   6.266   5.229
  494SOL    HW1 2381   2.674   6.213   5.162
  494SOL    HW2 2382   2.681   6.337   5.268
  495SOL     OW 2383   3.606   4.822   5.896
  495SOL    HW1 2384   3.646   4.843   5.807
  495SOL    HW2 2385   3.525   4.764   5.883
  496SOL     OW 2386   5.176   1.715   2.903
  496SOL    HW1 2387   5.079   1.731   2.888
  496SOL    HW2 2388   5.222   1.802   2.920
  497SOL     OW 2389   3.087   1.289   0.292
  497SOL    HW1 2390   3.052   1.205   0.251
  497SOL    HW2 2391   3.187   1.286   0.293
  498SOL     OW 2392   1.005   6.702   1.513
  498SOL    HW1 2393   0.952   6.618   1.496
  498SOL    HW2 2394   1.047   6.696   1.604
  499SOL     OW 2395   2.755   6.186   6.454
  499SOL    HW1 2396   2.698   6.222   6.528
  499SOL    HW2 2397   2.796   6.262   6.403
  500SOL     OW 2398   6.155   2.246   0.061
  500SOL    HW1 2399   6.224   2.241   7.011
  500SOL    HW2 2400   6.135   2.342   0.081
  501SOL     OW 2401   0.891   0.685   3.786
  501SOL    HW1 2402   0.929   0.718   3.700
  501SOL    HW2 2403   0.891   0.760   3.853
  502SOL     OW 2404   2.147   5.217   6.642
  502SOL    HW1 2405   2.130   5.265   6.728
  502SOL    HW2 2406   2.212   5.142   6.658
  503SOL     OW 2407   3.974   4.703   6.804
  503SOL    HW1 2408   4.039   4.738   6.736
  503SOL    HW2 2409   3.887   4.750   6.794
  504SOL     OW 2410   6.074   6.682   2.024
  504SOL    HW1 2411   6.022   6.651   2.104
  504SOL    HW2 2412   6.015   6.738   1.966
  505SOL     OW 2413   5.185   6.760   5.044
  505SOL    HW1 2414   5.118   6.816   4.995
  505SOL    HW2 2415   5.158   6.752   5.139
  506SOL     OW 2416   4.291   5.217   2.995
  506SOL    HW1 2417   4.363   5.230   2.928
  506SOL    HW2 2418   4.267   5.306   3.036
  507SOL     OW 2419   3.297   0.818   0.649
  507SOL    HW1 2420   3.324   0.785   0.558
  507SOL    HW2 2421   3.228   0.756   0.687
  508SOL     OW 2422   6.906   5.042   3.578
  508SOL    HW1 2423   6.865   5.127   3.546
  508SOL    HW2 2424   6.834   4.977   3.603
  509SOL     OW 2425   4.653   6.943   5.792
  509SOL    HW1 2426   4.601   6.899   5.718
  509SOL    HW2 2427   4.635   6.895   5.878
  510SOL     OW 2428   6.911   3.834   0.287
  510SOL    HW1 2429   6.924   3.866   0.193
  510SOL    HW2 2430   6.900   3.735   0.287
  511SOL     OW 2431   0.797   1.697   0.770
  511SOL    HW1 2432   0.791   1.749   0.685
  511SOL    HW2 2433   0.882   1.719   0.818
  512SOL     OW 2434   6.499   2.552   5.933
  512SOL    HW1 2435   6.505   2.643   5.975
  512SOL    HW2 2436   6.482   2.484   6.005
  513SOL     OW 2437   5.281   0.842   2.486
  513SOL    HW1 2438   5.226   0.761   2.505
  513SOL    HW2 2439   5.236   0.923   2.523
  514SOL     OW 2440   6.628   6.643   3.995
  514SOL    HW1 2441   6.610   6.716   3.928
  514SOL    HW2 2442   6.725   6.642   4.017
  515SOL     OW 2443   3.685   0.184   6.495
  515SOL    HW1 2444   3.693   0.148   6.402
  515SOL    HW2 2445   3.707   0.281   6.496
  516SOL     OW 2446   2.476   5.760   1.568
  516SOL    HW1 2447   2.403   5.802   1.514
  516SOL    HW2 2448   2.561   5.762   1.517
  517SOL     OW 2449   3.407   5.355   1.822
  517SOL    HW1 2450   3.421   5.453   1.828
  517SOL    HW2 2451   3.489   5.307   1.855
  518SOL     OW 2452   2.117   3.415   3.641
  518SOL    HW1 2453   2.041   3.366   3.598
  518SOL    HW2 2454   2.199   3.404   3.585
  519SOL     OW 2455   0.567   6.953   3.123
  519SOL    HW1 2456   0.471   6.931   3.135
  519SOL    HW2 2457   0.600   7.006   3.201
  520SOL     OW 2458   1.000   3.050   0.258
  520SOL    HW1 2459   1.047   2.969   0.223
  520SOL    HW2 2460   1.010   3.054   0.357
  521SOL     OW 2461   5.904   5.747   4.723
  521SOL    HW1 2462   5.918   5.707   4.632
  521SOL    HW2 2463   5.862   5.678   4.782
  522SOL     OW 2464   3.932   3.825   1.465
  522SOL    HW1 2465   3.889   3.766   1.397
  522SOL    HW2 2466   3.896   3.918   1.456
  523SOL     OW 2467   0.573   6.555   1.734
  523SOL    HW1 2468   0.541   6.639   1.691
  523SOL    HW2 2469   0.511   6.530   1.809
  524SOL     OW 2470   0.004   2.314   1.998
  524SOL    HW1 2471   6.952   2.333   1.933
  524SOL    HW2 2472   6.987   2.287   2.086
  525SOL     OW 2473   1.944   3.433   5.930
  525SOL    HW1 2474   1.942   3.428   5.830
  525SOL    HW2 2475   2.015   3.498   5.959
  526SOL     OW 2476   2.788   6.948   4.322
  526SOL    HW1 2477   2.809   7.020   4.388
  526SOL    HW2 2478   2.851   6.954   4.245
  527SOL     OW 2479   0.727   1.542   0.405
  527SOL    HW1 2480   0.715   1.630   0.359
  527SOL    HW2 2481   0.822   1.513   0.396
  528SOL     OW 2482   6.707   3.258   4.336
  528SOL    HW1 2483   6.777   3.242   4.406
  528SOL    HW2 2484   6.733   3.336   4.279
  529SOL     OW 2485   1.839   0.478   6.504
  529SOL    HW1 2486   1.797   0.388   6.519
  529SOL    HW2 2487   1.937   0.466   6.486
  530SOL     OW 2488   4.047   3.621   0.829
  530SOL    HW1 2489   4.033   3.560   0.907
  530SOL    HW2 2490   4.007   3.580   0.747
  531SOL     OW 2491   1.657   0.212   1.462
  531SOL    HW1 2492   1.730   0.242   1.401
  531SOL    HW2 2493   1.649   0.275   1.539
  532SOL     OW 2494   2.866   2.139   1.167
  532SOL    HW1 2495   2.882   2.208   1.096
  532SOL    HW2 2496   2.854   2.185   1.255
  533SOL     OW 2497   3.573   0.575   4.456
  533SOL    HW1 2498   3.599   0.481   4.431
  533SOL    HW2 2499   3.501   0.607   4.396
  534SOL     OW 2500   1.054   5.281   1.454
  534SOL    HW1 2501   0.994   5.322   1.522
  534SOL    HW2 2502   1.149   5.307   1.473
  535SOL     OW 2503   5.260   3.525   3.794
  535SOL    HW1 2504   5.293   3.434   3.819
  535SOL    HW2 2505   5.333   3.592   3.807
  536SOL     OW 2506   6.201   6.209   2.364
  536SOL    HW1 2507   6.213   6.234   2.268
  536SOL    HW2 2508   6.238   6.118   2.380
  537SOL     OW 2509   2.892   1.095   4.532
  537SOL    HW1 2510   2.851   1.181   4.501
  537SOL    HW2 2511   2.895   1.030   4.456
  538SOL     OW 2512   2.697   4.770   5.483
  538SOL    HW1 2513   2.640   4.845   5.449
  538SOL    HW2 2514   2.726   4.712   5.406
  539SOL     OW 2515   1.191   6.726   0.133
  539SOL    HW1 2516   1.221   6.769   0.219
  539SOL    HW2 2517   1.095   6.701   0.141
  540SOL     OW 2518   0.765   0.518   3.965
  540SOL    HW1 2519   0.726   0.437   3.921
  540SOL    HW2 2520   0.826   0.565   3.901
  541SOL     OW 2521   4.400   6.237   4.278
  541SOL    HW1 2522   4.325   6.187   4.237
  541SOL    HW2 2523   4.394   6.230   4.378
  542SOL     OW 2524   3.083   0.184   6.611
  542SOL    HW1 2525   3.175   0.154   6.584
  542SOL    HW2 2526   3.015   0.121   6.572
  543SOL     OW 2527   5.736   2.321   4.161
  543SOL    HW1 2528   5.794   2.281   4.091
  543SOL    HW2 2529   5.720   2.418   4.139
  544SOL     OW 2530   1.224   3.898   1.177
  544SOL    HW1 2531   1.142   3.911   1.122
  544SOL    HW2 2532   1.292   3.847   1.126
  545SOL     OW 2533   5.889   1.616   1.360
  545SOL    HW1 2534   5.855   1.697   1.407
  545SOL    HW2 2535   5.825   1.591   1.287
  546SOL     OW 2536   0.621   3.813   2.620
  546SOL    HW1 2537   0.563   3.895   2.621
  546SOL    HW2 2538   0.595   3.753   2.696
  547SOL     OW 2539   4.138   1.709   6.505
  547SOL    HW1 2540   4.223   1.678   6.547
  547SOL    HW2 2541   4.063   1.650   6.536
  548SOL     OW 2542   3.109   2.944   6.850
  548SOL    HW1 2543   3.097   2.932   6.752
  548SOL    HW2 2544   3.022   2.974   6.891
  549SOL     OW 2545   6.108   2.273   0.900
  549SOL    HW1 2546   6.110   2.372   0.913
  549SOL    HW2 2547   6.164   2.229   0.969
  550SOL     OW 2548   0.188   5.550   3.144
  550SOL    HW1 2549   0.089   5.544   3.130
  550SOL    HW2 2550   0.207   5.610   3.222
  551SOL     OW 2551   6.364   1.331   0.316
  551SOL    HW1 2552   6.385   1.289   0.404
  551SOL    HW2 2553   6.378   1.264   0.243
  552SOL     OW 2554   6.027   5.357   5.437
  552SOL    HW1 2555   5.996   5.348   5.342
  552SOL    HW2 2556   6.108   5.415   5.441
  553SOL     OW 2557   3.202   0.874   5.480
  553SOL    HW1 2558   3.165   0.831   5.397
  553SOL    HW2 2559   3.184   0.816   5.559
  554SOL     OW 2560   5.860   5.923   0.919
  554SOL    HW1 2561   5.818   5.980   0.990
  554SOL    HW2 2562   5.792   5.897   0.852
  555SOL     OW 2563   2.089   4.744   6.137
  555SOL    HW1 2564   2.069   4.747   6.234
  555SOL    HW2 2565   2.021   4.690   6.089
  556SOL     OW 2566   4.739   1.408   3.685
  556SOL    HW1 2567   4.669   1.363   3.740
  556SOL    HW2 2568   4.703   1.423   3.593
  557SOL     OW 2569   6.638   4.316   6.183
  557SOL    HW1 2570   6.666   4.398   6.134
  557SOL    HW2 2571   6.543   4.325   6.211
  558SOL     OW 2572   3.335   3.839   2.386
  558SOL    HW1 2573   3.346   3.930   2.427
  558SOL    HW2 2574   3.358   3.769   2.454
  559SOL     OW 2575   6.199   6.560   5.560
  559SOL    HW1 2576   6.211   6.562   5.461
  559SOL    HW2 2577   6.210   6.467   5.593
  560SOL     OW 2578   6.397   3.207   2.912
  560SOL    HW1 2579   6.353   3.117   2.908
  560SOL    HW2 2580   6.493   3.195   2.937
  561SOL     OW 2581   0.756   3.026   6.465
  561SOL    HW1 2582   0.778   2.950   6.404
  561SOL    HW2 2583   0.821   3.101   6.450
  562SOL     OW 2584   3.868   0.422   5.821
  562SOL    HW1 2585   3.953   0.468   5.797
  562SOL    HW2 2586   3.888   0.328   5.849
  563SOL     OW 2587   1.732   2.283   4.306
  563SOL    HW1 2588   1.695   2.234   4.385
  563SOL    HW2 2589   1.673   2.267   4.226
  564SOL     OW 2590   0.270   2.126   5.145
  564SOL    HW1 2591   0.179   2.164   5.162
  564SOL    HW2 2592   0.334   2.161   5.213
  565SOL     OW 2593   3.357   3.423   3.444
  565SOL    HW1 2594   3.385   3.417   3.349
  565SOL    HW2 2595   3.289   3.495   3.455
  566SOL     OW 2596   3.283   6.217   2.891
  566SOL    HW1 2597   3.371   6.188   2.855
  566SOL    HW2 2598   3.219   6.140   2.888
  567SOL     OW 2599   2.163   2.951   6.611
  567SOL    HW1 2600   2.167   2.894   6.694
  567SOL    HW2 2601   2.126   3.041   6.635
  568SOL     OW 2602   6.763   0.239   0.894
  568SOL    HW1 2603   6.777   0.141   0.897
  568SOL    HW2 2604   6.779   0.278   0.985
  569SOL     OW 2605   0.086   1.932   0.298
  569SOL    HW1 2606   7.010   1.922   0.284
  569SOL    HW2 2607   0.134   1.920   0.211
  570SOL     OW 2608   2.759   0.297   5.806
  570SOL    HW1 2609   2.829   0.239   5.847
  570SOL    HW2 2610   2.700   0.241   5.747
  571SOL     OW 2611   2.817   5.103   2.765
  571SOL    HW1 2612   2.912   5.129   2.745
  571SOL    HW2 2613   2.807   5.085   2.863
  572SOL     OW 2614   2.311   6.830   4.285
  572SOL    HW1 2615   2.242   6.866   4.222
  572SOL    HW2 2616   2.402   6.860   4.256
  573SOL     OW 2617   6.677   1.535   5.265
  573SOL    HW1 2618   6.731   1.605   5.313
  573SOL    HW2 2619   6.727   1.504   5.184
  574SOL     OW 2620   2.720   1.699   5.524
  574SOL    HW1 2621   2.637   1.679   5.576
  574SOL    HW2 2622   2.702   1.688   5.426
  575SOL     OW 2623   3.070   3.553   0.794
  575SOL    HW1 2624   3.092   3.572   0.698
  575SOL    HW2 2625   3.005   3.478   0.799
  576SOL     OW 2626   1.912   3.119   2.919
  576SOL    HW1 2627   1.914   3.019   2.929
  576SOL    HW2 2628   1.979   3.159   2.981
  577SOL     OW 2629   0.938   1.497   1.637
  577SOL    HW1 2630   0.990   1.581   1.621
  577SOL    HW2 2631   0.928   1.483   1.736
  578SOL     OW 2632   1.946   5.341   6.425
  578SOL    HW1 2633   2.039   5.322   6.455
  578SOL    HW2 2634   1.885   5.269   6.458
  579SOL     OW 2635   2.449   4.491   2.247
  579SOL    HW1 2636   2.369   4.550   2.257
  579SOL    HW2 2637   2.499   4.515   2.164
  580SOL     OW 2638   4.267   5.273   5.100
  580SOL    HW1 2639   4.326   5.200   5.135
  580SOL    HW2 2640   4.318   5.359   5.097
  581SOL     OW 2641   1.394   3.232   3.982
  581SOL    HW1 2642   1.486   3.254   3.949
  581SOL    HW2 2643   1.350   3.169   3.918
  582SOL     OW 2644   5.459   5.331   3.666
  582SOL    HW1 2645   5.439   5.276   3.748
  582SOL    HW2 2646   5.408   5.417   3.671
  583SOL     OW 2647   3.277   4.948   5.924
  583SOL    HW1 2648   3.318   4.866   5.884
  583SOL    HW2 2649   3.209   4.986   5.861
  584SOL     OW 2650   4.488   0.789   6.873
  584SOL    HW1 2651   4.510   0.697   6.841
  584SOL    HW2 2652   4.391   0.808   6.856
  585SOL     OW 2653   2.750   6.549   1.804
  585SOL    HW1 2654   2.771   6.501   1.719
  585SOL    HW2 2655   2.831   6.546   1.864
  586SOL     OW 2656   4.404   6.924   1.055
  586SOL    HW1 2657   4.454   6.839   1.073
  586SOL    HW2 2658   4.376   6.965   1.141
  587SOL     OW 2659   5.376   2.279   1.965
  587SOL    HW1 2660   5.286   2.260   2.006
  587SOL    HW2 2661   5.366   2.347   1.893
  588SOL     OW 2662   0.991   5.544   2.015
  588SOL    HW1 2663   0.914   5.580   2.067
  588SOL    HW2 2664   0.988   5.579   1.922
  589SOL     OW 2665   3.585   6.065   1.266
  589SOL    HW1 2666   3.582   6.148   1.321
  589SOL    HW2 2667   3.492   6.042   1.235
  590SOL     OW 2668   4.725   1.478   6.965
  590SOL    HW1 2669   4.699   1.427   0.024
  590SOL    HW2 2670   4.822   1.465   6.946
  591SOL     OW 2671   4.314   5.789   4.328
  591SOL    HW1 2672   4.400   5.740   4.310
  591SOL    HW2 2673   4.251   5.775   4.251
  592SOL     OW 2674   4.377   2.279   4.621
  592SOL    HW1 2675   4.365   2.326   4.709
  592SOL    HW2 2676   4.452   2.322   4.571
  593SOL     OW 2677   3.452   1.738   5.485
  593SOL    HW1 2678   3.369   1.688   5.459
  593SOL    HW2 2679   3.518   1.675   5.524
  594SOL     OW 2680   6.264   1.407   1.569
  594SOL    HW1 2681   6.167   1.405   1.546
  594SOL    HW2 2682   6.296   1.502   1.569
  595SOL     OW 2683   5.259   6.198   2.633
  595SOL    HW1 2684   5.250   6.112   2.683
  595SOL    HW2 2685   5.206   6.269   2.679
  596SOL     OW 2686   6.641   4.083   3.989
  596SOL    HW1 2687   6.740   4.090   4.000
  596SOL    HW2 2688   6.606   4.009   4.047
  597SOL     OW 2689   2.866   0.016   6.509
  597SOL    HW1 2690   2.782   0.064   6.484
  597SOL    HW2 2691   2.857   6.941   6.486
  598SOL     OW 2692   2.947   3.337   4.821
  598SOL    HW1 2693   3.045   3.318   4.819
  598SOL    HW2 2694   2.905   3.305   4.736
  599SOL     OW 2695   0.851   5.934   1.900
  599SOL    HW1 2696   0.911   5.988   1.842
  599SOL    HW2 2697   0.876   5.947   1.996
  600SOL     OW 2698   6.942   4.009   4.875
  600SOL    HW1 2699   0.002   4.055   4.842
  600SOL    HW2 2700   6.966   3.947   4.949
  601SOL     OW 2701   1.369   0.834   5.191
  601SOL    HW1 2702   1.270   0.846   5.205
  601SOL    HW2 2703   1.386   0.797   5.100
  602SOL     OW 2704   3.047   6.094   4.374
  602SOL    HW1 2705   3.114   6.168   4.371
  602SOL    HW2 2706   2.955   6.131   4.378
  603SOL     OW 2707   1.770   1.008   5.467
  603SOL    HW1 2708   1.686   0.956   5.455
  603SOL    HW2 2709   1.793   1.011   5.564
  604SOL     OW 2710   6.484   2.380   1.886
  604SOL    HW1 2711   6.473   2.330   1.801
  604SOL    HW2 2712   6.394   2.400   1.925
  605SOL     OW 2713   0.182   4.933   2.386
  605SOL    HW1 2714   0.088   4.967   2.375
  605SOL    HW2 2715   0.180   4.834   2.398
  606SOL     OW 2716   3.633   0.277   4.844
  606SOL    HW1 2717   3.659   0.252   4.937
  606SOL    HW2 2718   3.601   0.372   4.843
  607SOL     OW 2719   1.164   4.877   6.114
  607SOL    HW1 2720   1.199   4.800   6.166
  607SOL    HW2 2721   1.072   4.856   6.080
  608SOL     OW 2722   3.473   0.533   5.536
  608SOL    HW1 2723   3.420   0.474   5.474
  608SOL    HW2 2724   3.444   0.628   5.524
  609SOL     OW 2725   4.042   2.580   1.658
  609SOL    HW1 2726   4.061   2.678   1.650
  609SOL    HW2 2727   4.095   2.530   1.589
  610SOL     OW 2728   4.658   3.481   0.664
  610SOL    HW1 2729   4.715   3.433   0.730
  610SOL    HW2 2730   4.712   3.503   0.583
  611SOL     OW 2731   3.755   0.212   2.029
  611SOL    HW1 2732   3.801   0.197   2.116
  611SOL    HW2 2733   3.808   0.275   1.973
  612SOL     OW 2734   3.838   4.546   5.926
  612SOL    HW1 2735   3.774   4.617   5.894
  612SOL    HW2 2736   3.855   4.482   5.852
  613SOL     OW 2737   4.546   5.408   5.327
  613SOL    HW1 2738   4.589   5.390   5.415
  613SOL    HW2 2739   4.450   5.431   5.340
  614SOL     OW 2740   5.112   5.711   5.763
  614SOL    HW1 2741   5.046   5.637   5.779
  614SOL    HW2 2742   5.185   5.678   5.702
  615SOL     OW 2743   0.212   4.841   1.030
  615SOL    HW1 2744   0.166   4.846   1.119
  615SOL    HW2 2745   0.164   4.776   0.971
  616SOL     OW 2746   5.851   3.043   3.252
  616SOL    HW1 2747   5.828   3.001   3.340
  616SOL    HW2 2748   5.774   3.034   3.190
  617SOL     OW 2749   2.388   5.170   5.912
  617SOL    HW1 2750   2.483   5.181   5.941
  617SOL    HW2 2751   2.334   5.132   5.988
  618SOL     OW 2752   1.346   1.201   2.181
  618SOL    HW1 2753   1.413   1.144   2.134
  618SOL    HW2 2754   1.353   1.185   2.280
  619SOL     OW 2755   0.854   1.396   6.454
  619SOL    HW1 2756   0.941   1.433   6.422
  619SOL    HW2 2757   0.870   1.336   6.532
  620SOL     OW 2758   4.925   3.358   0.245
  620SOL    HW1 2759   4.861   3.284   0.268
  620SOL    HW2 2760   4.997   3.323   0.184
  621SOL     OW 2761   0.553   4.745   0.505
  621SOL    HW1 2762   0.525   4.790   0.590
  621SOL    HW2 2763   0.616   4.805   0.455
  622SOL     OW 2764   2.081   1.616   0.267
  622SOL    HW1 2765   2.172   1.609   0.307
  622SOL    HW2 2766   2.050   1.711   0.270
  623SOL     OW 2767   1.011   4.830   6.454
  623SOL    HW1 2768   0.971   4.880   6.531
  623SOL    HW2 2769   0.995   4.881   6.370
  624SOL     OW 2770   0.901   3.187   2.789
  624SOL    HW1 2771   0.858   3.276   2.775
  624SOL    HW2 2772   0.830   3.116   2.794
  625SOL     OW 2773   2.962   1.319   2.458
  625SOL    HW1 2774   3.037   1.341   2.520
  625SOL    HW2 2775   2.949   1.395   2.394
  626SOL     OW 2776   1.955   6.667   4.429
  626SOL    HW1 2777   1.896   6.719   4.368
  626SOL    HW2 2778   2.033   6.630   4.378
  627SOL     OW 2779   5.514   0.647   0.319
  627SOL    HW1 2780   5.449   0.683   0.386
  627SOL    HW2 2781   5.582   0.718   0.298
  628SOL     OW 2782   4.819   4.389   4.145
  628SOL    HW1 2783   4.740   4.371   4.203
  628SOL    HW2 2784   4.890   4.320   4.163
  629SOL     OW 2785   0.408   0.193   1.308
  629SOL    HW1 2786   0.390   0.290   1.289
  629SOL    HW2 2787   0.492   0.165   1.262
  630SOL     OW 2788   4.169   1.408   1.031
  630SOL    HW1 2789   4.133   1.375   1.118
  630SOL    HW2 2790   4.245   1.471   1.048
  631SOL     OW 2791   2.274   6.817   5.718
  631SOL    HW1 2792   2.198   6.858   5.769
  631SOL    HW2 2793   2.321   6.888   5.665
  632SOL     OW 2794   2.436   0.864   1.056
  632SOL    HW1 2795   2.447   0.963   1.045
  632SOL    HW2 2796   2.342   0.844   1.084
  633SOL     OW 2797   3.217   6.694   6.801
  633SOL    HW1 2798   3.252   6.601   6.787
  633SOL    HW2 2799   3.286   6.749   6.848
  634SOL     OW 2800   4.100   5.702   1.141
  634SOL    HW1 2801   4.075   5.662   1.053
  634SOL    HW2 2802   4.135   5.795   1.127
  635SOL     OW 2803   2.763   0.075   2.920
  635SOL    HW1 2804   2.801   0.097   2.830
  635SOL    HW2 2805   2.664   0.060   2.912
  636SOL     OW 2806   4.913   5.195   6.625
  636SOL    HW1 2807   5.008   5.170   6.607
  636SOL    HW2 2808   4.863   5.201   6.539
  637SOL     OW 2809   4.868   4.840   1.312
  637SOL    HW1 2810   4.873   4.774   1.237
  637SOL    HW2 2811   4.879   4.792   1.399
  638SOL     OW 2812   4.648   1.216   1.909
  638SOL    HW1 2813   4.568   1.267   1.942
  638SOL    HW2 2814   4.694   1.173   1.987
  639SOL     OW 2815   4.181   4.727   1.939
  639SOL    HW1 2816   4.270   4.687   1.919
  639SOL    HW2 2817   4.116   4.700   1.868
  640SOL     OW 2818   3.139   4.099   5.015
  640SOL    HW1 2819   3.068   4.169   5.015
  640SOL    HW2 2820   3.188   4.100   4.928
  641SOL     OW 2821   6.904   5.809   4.885
  641SOL    HW1 2822   6.814   5.780   4.854
  641SOL    HW2 2823   6.908   5.909   4.888
  642SOL     OW 2824   0.499   4.932   4.823
  642SOL    HW1 2825   0.441   5.005   4.787
  642SOL    HW2 2826   0.537   4.959   4.911
  643SOL     OW 2827   6.250   5.344   6.175
  643SOL    HW1 2828   6.261   5.381   6.267
  643SOL    HW2 2829   6.195   5.407   6.120
  644SOL     OW 2830   0.902   6.232   2.674
  644SOL    HW1 2831   0.863   6.142   2.695
  644SOL    HW2 2832   0.877   6.297   2.746
  645SOL     OW 2833   5.436   2.650   4.031
  645SOL    HW1 2834   5.464   2.663   4.126
  645SOL    HW2 2835   5.385   2.564   4.023
  646SOL     OW 2836   1.203   1.300   4.553
  646SOL    HW1 2837   1.111   1.282   4.590
  646SOL    HW2 2838   1.232   1.391   4.581
  647SOL     OW 2839   6.119   2.879   0.334
  647SOL    HW1 2840   6.090   2.857   0.427
  647SOL    HW2 2841   6.143   2.794   0.286
  648SOL     OW 2842   5.644   4.416   2.000
  648SOL    HW1 2843   5.694   4.345   1.949
  648SOL    HW2 2844   5.638   4.498   1.943
  649SOL     OW 2845   4.341   4.737   1.051
  649SOL    HW1 2846   4.432   4.763   1.021
  649SOL    HW2 2847   4.318   4.647   1.013
  650SOL     OW 2848   4.754   4.103   0.396
  650SOL    HW1 2849   4.768   4.169   0.471
  650SOL    HW2 2850   4.785   4.013   0.426
  651SOL     OW 2851   0.705   6.019   0.789
  651SOL    HW1 2852   0.612   5.984   0.802
  651SOL    HW2 2853   0.737   6.059   0.875
  652SOL     OW 2854   4.540   1.434   2.834
  652SOL    HW1 2855   4.602   1.512   2.836
  652SOL    HW2 2856   4.448   1.464   2.861
  653SOL     OW 2857   3.757   4.908   4.244
  653SOL    HW1 2858   3.671   4.954   4.268
  653SOL    HW2 2859   3.746   4.858   4.158
  654SOL     OW 2860   0.187   4.816   6.883
  654SOL    HW1 2861   0.230   4.762   6.955
  654SOL    HW2 2862   0.137   4.756   6.821
  655SOL     OW 2863   0.999   0.606   0.923
  655SOL    HW1 2864   0.958   0.593   0.832
  655SOL    HW2 2865   0.965   0.535   0.985
  656SOL     OW 2866   2.422   6.603   2.430
  656SOL    HW1 2867   2.337   6.579   2.383
  656SOL    HW2 2868   2.452   6.693   2.401
  657SOL     OW 2869   3.387   1.306   0.535
  657SOL    HW1 2870   3.485   1.311   0.519
  657SOL    HW2 2871   3.370   1.258   0.621
  658SOL     OW 2872   2.888   3.898   7.022
  658SOL    HW1 2873   2.973   3.861   0.037
  658SOL    HW2 2874   2.858   3.840   6.946
  659SOL     OW 2875   3.047   6.971   0.030
  659SOL    HW1 2876   3.043   0.027   6.991
  659SOL    HW2 2877   3.035   6.887   6.999
  660SOL     OW 2878   3.654   5.361   2.638
  660SOL    HW1 2879   3.594   5.298   2.687
  660SOL    HW2 2880   3.749   5.333   2.650
  661SOL     OW 2881   4.014   5.685   3.029
  661SOL    HW1 2882   4.092   5.688   2.967
  661SOL    HW2 2883   3.951   5.614   3.000
  662SOL     OW 2884   3.326   1.407   6.190
  662SOL    HW1 2885   3.370   1.487   6.149
  662SOL    HW2 2886   3.328   1.331   6.125
  663SOL     OW 2887   2.635   5.133   5.161
  663SOL    HW1 2888   2.617   5.221   5.118
  663SOL    HW2 2889   2.577   5.063   5.119
  664SOL     OW 2890   6.952   0.228   6.751
  664SOL    HW1 2891   6.968   0.184   6.662
  664SOL    HW2 2892   6.922   0.159   6.817
  665SOL     OW 2893   2.865   5.469   3.496
  665SOL    HW1 2894   2.871   5.441   3.592
  665SOL    HW2 2895   2.811   5.402   3.445
  666SOL     OW 2896   3.724   0.330   1.751
  666SOL    HW1 2897   3.729   0.372   1.841
  666SOL    HW2 2898   3.629   0.306   1.731
  667SOL     OW 2899   0.885   6.375   1.914
  667SOL    HW1 2900   0.917   6.297   1.968
  667SOL    HW2 2901   0.818   6.344   1.847
  668SOL     OW 2902   5.507   4.424   6.132
  668SOL    HW1 2903   5.566   4.447   6.054
  668SOL    HW2 2904   5.550   4.353   6.187
  669SOL     OW 2905   5.482   1.367   2.675
  669SOL    HW1 2906   5.422   1.442   2.648
  669SOL    HW2 2907   5.434   1.280   2.665
  670SOL     OW 2908   1.428   2.408   3.892
  670SOL    HW1 2909   1.358   2.454   3.837
  670SOL    HW2 2910   1.396   2.401   3.987
  671SOL     OW 2911   2.201   6.388   1.305
  671SOL    HW1 2912   2.130   6.423   1.365
  671SOL    HW2 2913   2.206   6.288   1.313
  672SOL     OW 2914   0.394   6.459   1.910
  672SOL    HW1 2915   0.308   6.466   1.860
  672SOL    HW2 2916   0.389   6.383   1.975
  673SOL     OW 2917   5.293   6.386   1.085
  673SOL    HW1 2918   5.339   6.434   1.010
  673SOL    HW2 2919   5.203   6.425   1.099
  674SOL     OW 2920   6.921   1.315   5.172
  674SOL    HW1 2921   6.847   1.273   5.120
  674SOL    HW2 2922   7.007   1.267   5.153
  675SOL     OW 2923   5.844   2.463   2.416
  675SOL    HW1 2924   5.909   2.393   2.448
  675SOL    HW2 2925   5.789   2.494   2.494
  676SOL     OW 2926   2.319   4.531   5.373
  676SOL    HW1 2927   2.267   4.556   5.454
  676SOL    HW2 2928   2.395   4.472   5.399
  677SOL     OW 2929   4.622   1.255   1.325
  677SOL    HW1 2930   4.583   1.311   1.252
  677SOL    HW2 2931   4.577   1.166   1.327
  678SOL     OW 2932   2.330   4.120   5.612
  678SOL    HW1 2933   2.412   4.094   5.560
  678SOL    HW2 2934   2.253   4.064   5.582
  679SOL     OW 2935   4.942   1.472   5.159
  679SOL    HW1 2936   4.900   1.458   5.069
  679SOL    HW2 2937   4.890   1.421   5.228
  680SOL     OW 2938   5.180   6.976   3.973
  680SOL    HW1 2939   5.154   6.964   3.877
  680SOL    HW2 2940   5.113   0.013   4.018
  681SOL     OW 2941   5.283   6.162   2.090
  681SOL    HW1 2942   5.333   6.248   2.075
  681SOL    HW2 2943   5.273   6.146   2.188
  682SOL     OW 2944   0.798   0.942   2.513
  682SOL    HW1 2945   0.897   0.934   2.496
  682SOL    HW2 2946   0.750   0.869   2.464
  683SOL     OW 2947   4.242   3.780   1.048
  683SOL    HW1 2948   4.210   3.730   1.129
  683SOL    HW2 2949   4.327   3.738   1.015
  684SOL     OW 2950   6.330   0.230   6.448
  684SOL    HW1 2951   6.415   0.183   6.471
  684SOL    HW2 2952   6.282   0.254   6.533
  685SOL     OW 2953   3.390   1.115   3.507
  685SOL    HW1 2954   3.416   1.032   3.557
  685SOL    HW2 2955   3.470   1.152   3.460
  686SOL     OW 2956   4.075   1.173   4.287
  686SOL    HW1 2957   4.122   1.177   4.198
  686SOL    HW2 2958   4.120   1.106   4.345
  687SOL     OW 2959   1.229   1.945   4.586
  687SOL    HW1 2960   1.157   1.936   4.517
  687SOL    HW2 2961   1.314   1.908   4.550
  688SOL     OW 2962   6.739   1.636   6.581
  688SOL    HW1 2963   6.720   1.543   6.550
  688SOL    HW2 2964   6.660   1.673   6.630
  689SOL     OW 2965   1.333   5.028   5.578
  689SOL    HW1 2966   1.291   5.061   5.662
  689SOL    HW2 2967   1.282   5.064   5.499
  690SOL     OW 2968   6.207   3.814   2.663
  690SOL    HW1 2969   6.209   3.724   2.705
  690SOL    HW2 2970   6.128   3.866   2.697
  691SOL     OW 2971   4.070   1.711   6.972
  691SOL    HW1 2972   4.141   1.669   0.006
  691SOL    HW2 2973   4.035   1.643   6.907
  692SOL     OW 2974   2.930   1.672   5.098
  692SOL    HW1 2975   2.957   1.705   5.188
  692SOL    HW2 2976   2.923   1.749   5.035
  693SOL     OW 2977   4.932   6.077   3.291
  693SOL    HW1 2978   4.919   6.145   3.363
  693SOL    HW2 2979   5.012   6.103   3.236
  694SOL     OW 2980   4.467   5.692   4.774
  694SOL    HW1 2981   4.497   5.705   4.680
  694SOL    HW2 2982   4.546   5.671   4.832
  695SOL     OW 2983   3.120   6.508   4.111
  695SOL    HW1 2984   3.029   6.469   4.112
  695SOL    HW2 2985   3.142   6.543   4.202
  696SOL     OW 2986   4.805   4.021   3.175
  696SOL    HW1 2987   4.766   3.988   3.261
  696SOL    HW2 2988   4.812   3.944   3.110
  697SOL     OW 2989   0.600   4.593   2.227
  697SOL    HW1 2990   0.569   4.551   2.141
  697SOL    HW2 2991   0.567   4.687   2.231
  698SOL     OW 2992   4.990   6.916   1.577
  698SOL    HW1 2993   5.015   6.825   1.609
  698SOL    HW2 2994   4.901   6.941   1.616
  699SOL     OW 2995   2.836   2.064   0.740
  699SOL    HW1 2996   2.846   2.119   0.657
  699SOL    HW2 2997   2.830   1.967   0.715
  700SOL     OW 2998   3.307   0.037   2.928
  700SOL    HW1 2999   3.226   7.004   2.908
  700SOL    HW2 3000   3.282   0.111   2.989
  701SOL     OW 3001   6.138   4.731   1.302
  701SOL    HW1 3002   6.138   4.728   1.402
  701SOL    HW2 3003   6.209   4.793   1.270
  702SOL     OW 3004   2.901   1.299   4.098
  702SOL    HW1 3005   2.982   1.320   4.153
  702SOL    HW2 3006   2.852   1.222   4.139
  703SOL     OW 3007   2.898   2.776   5.952
  703SOL    HW1 3008   2.927   2.825   5.870
  703SOL    HW2 3009   2.800   2.757   5.946
  704SOL     OW 3010   1.677   2.903   6.084
  704SOL    HW1 3011   1.598   2.862   6.039
  704SOL    HW2 3012   1.648   2.982   6.137
  705SOL     OW 3013   6.971   6.024   4.001
  705SOL    HW1 3014   6.914   6.106   4.000
  705SOL    HW2 3015   6.942   5.963   3.928
  706SOL     OW 3016   4.420   0.791   5.368
  706SOL    HW1 3017   4.321   0.796   5.381
  706SOL    HW2 3018   4.441   0.780   5.271
  707SOL     OW 3019   3.354   4.896   3.824
  707SOL    HW1 3020   3.332   4.912   3.728
  707SOL    HW2 3021   3.426   4.827   3.831
  708SOL     OW 3022   2.429   0.964   3.184
  708SOL    HW1 3023   2.487   0.953   3.104
  708SOL    HW2 3024   2.475   1.022   3.251
  709SOL     OW 3025   2.025   0.184   1.967
  709SOL    HW1 3026   1.940   0.153   1.924
  709SOL    HW2 3027   2.097   0.117   1.949
  710SOL     OW 3028   4.879   2.931   1.802
  710SOL    HW1 3029   4.783   2.939   1.831
  710SOL    HW2 3030   4.934   2.902   1.880
  711SOL     OW 3031   0.373   2.327   5.739
  711SOL    HW1 3032   0.423   2.414   5.738
  711SOL    HW2 3033   0.342   2.307   5.832
  712SOL     OW 3034   4.418   2.731   0.833
  712SOL    HW1 3035   4.441   2.804   0.897
  712SOL    HW2 3036   4.480   2.653   0.848
  713SOL     OW 3037   3.948   2.764   5.286
  713SOL    HW1 3038   4.018   2.697   5.258
  713SOL    HW2 3039   3.871   2.760   5.222
  714SOL     OW 3040   5.778   4.748   3.288
  714SOL    HW1 3041   5.873   4.747   3.257
  714SOL    HW2 3042   5.760   4.832   3.340
  715SOL     OW 3043   6.397   4.997   5.983
  715SOL    HW1 3044   6.408   5.090   6.016
  715SOL    HW2 3045   6.337   4.996   5.903
  716SOL     OW 3046   1.874   0.874   2.548
  716SOL    HW1 3047   1.898   0.869   2.451
  716SOL    HW2 3048   1.920   0.952   2.590
  717SOL     OW 3049   5.299   4.959   3.822
  717SOL    HW1 3050   5.343   4.874   3.792
  717SOL    HW2 3051   5.207   4.965   3.785
  718SOL     OW 3052   5.178   1.798   4.260
  718SOL    HW1 3053   5.215   1.891   4.259
  718SOL    HW2 3054   5.097   1.794   4.202
  719SOL     OW 3055   6.572   0.712   2.682
  719SOL    HW1 3056   6.481   0.726   2.642
  719SOL    HW2 3057   6.637   0.776   2.643
  720SOL     OW 3058   1.726   1.016   0.090
  720SOL    HW1 3059   1.645   1.035   0.034
  720SOL    HW2 3060   1.786   1.095   0.090
  721SOL     OW 3061   0.123   2.522   2.662
  721SOL    HW1 3062   0.124   2.568   2.751
  721SOL    HW2 3063   0.152   2.587   2.591
  722SOL     OW 3064   4.285   0.307   6.834
  722SOL    HW1 3065   4.322   0.273   6.920
  722SOL    HW2 3066   4.203   0.361   6.853
  723SOL     OW 3067   2.144   6.323   3.852
  723SOL    HW1 3068   2.055   6.300   3.815
  723SOL    HW2 3069   2.190   6.389   3.792
  724SOL     OW 3070   1.020   1.337   3.660
  724SOL    HW1 3071   1.100   1.380   3.619
  724SOL    HW2 3072   1.016   1.360   3.757
  725SOL     OW 3073   2.074   4.516   2.071
  725SOL    HW1 3074   2.098   4.516   2.168
  725SOL    HW2 3075   2.149   4.475   2.018
  726SOL     OW 3076   2.304   5.120   0.442
  726SOL    HW1 3077   2.327   5.048   0.508
  726SOL    HW2 3078   2.346   5.206   0.471
  727SOL     OW 3079   4.468   5.251   5.809
  727SOL    HW1 3080   4.416   5.249   5.895
  727SOL    HW2 3081   4.407   5.231   5.733
  728SOL     OW 3082   6.838   3.347   4.967
  728SOL    HW1 3083   6.803   3.277   5.029
  728SOL    HW2 3084   6.766   3.413   4.945
  729SOL     OW 3085   0.180   3.321   1.301
  729SOL    HW1 3086   0.170   3.381   1.222
  729SOL    HW2 3087   0.094   3.319   1.352
  730SOL     OW 3088   5.112   0.799   2.874
  730SOL    HW1 3089   5.136   0.896   2.870
  730SOL    HW2 3090   5.013   0.790   2.873
  731SOL     OW 3091   4.598   4.246   6.975
  731SOL    HW1 3092   4.679   4.297   7.002
  731SOL    HW2 3093   4.624   4.171   6.913
  732SOL     OW 3094   4.700   1.668   3.002
  732SOL    HW1 3095   4.669   1.710   3.087
  732SOL    HW2 3096   4.733   1.575   3.021
  733SOL     OW 3097   6.207   6.613   3.336
  733SOL    HW1 3098   6.282   6.668   3.373
  733SOL    HW2 3099   6.120   6.650   3.367
  734SOL     OW 3100   5.879   5.247   2.732
  734SOL    HW1 3101   5.861   5.293   2.645
  734SOL    HW2 3102   5.895   5.317   2.803
  735SOL     OW 3103   5.627   0.619   1.740
  735SOL    HW1 3104   5.689   0.696   1.730
  735SOL    HW2 3105   5.550   0.645   1.799
  736SOL     OW 3106   1.329   1.548   4.293
  736SOL    HW1 3107   1.319   1.500   4.206
  736SOL    HW2 3108   1.362   1.484   4.363
  737SOL     OW 3109   6.099   0.981   6.425
  737SOL    HW1 3110   6.113   1.080   6.420
  737SOL    HW2 3111   6.117   0.950   6.518
  738SOL     OW 3112   2.540   4.157   1.153
  738SOL    HW1 3113   2.568   4.062   1.166
  738SOL    HW2 3114   2.475   4.183   1.224
  739SOL     OW 3115   2.874   6.723   4.930
  739SOL    HW1 3116   2.784   6.740   4.971
  739SOL    HW2 3117   2.862   6.705   4.832
  740SOL     OW 3118   5.607   2.116   3.193
  740SOL    HW1 3119   5.658   2.196   3.225
  740SOL    HW2 3120   5.568   2.068   3.271
  741SOL     OW 3121   2.575   0.435   4.144
  741SOL    HW1 3122   2.616   0.526   4.136
  741SOL    HW2 3123   2.520   0.416   4.063
  742SOL     OW 3124   1.629   6.387   1.050
  742SOL    HW1 3125   1.728   6.389   1.036
  742SOL    HW2 3126   1.602   6.295   1.079
  743SOL     OW 3127   1.131   6.183   3.652
  743SOL    HW1 3128   1.035   6.209   3.658
  743SOL    HW2 3129   1.157   6.169   3.557
  744SOL     OW 3130   5.476   1.381   0.318
  744SOL    HW1 3131   5.461   1.308   0.385
  744SOL    HW2 3132   5.555   1.358   0.261
  745SOL     OW 3133   2.317   5.774   4.959
  745SOL    HW1 3134   2.269   5.702   5.009
  745SOL    HW2 3135   2.297   5.767   4.861
  746SOL     OW 3136   5.591   4.645   5.510
  746SOL    HW1 3137   5.512   4.589   5.484
  746SOL    HW2 3138   5.667   4.626   5.448
  747SOL     OW 3139   5.399   5.602   3.228
  747SOL    HW1 3140   5.315   5.569   3.270
  747SOL    HW2 3141   5.451   5.526   3.189
  748SOL     OW 3142   5.486   5.738   2.576
  748SOL    HW1 3143   5.435   5.711   2.658
  748SOL    HW2 3144   5.564   5.677   2.563
  749SOL     OW 3145   5.131   4.459   3.513
  749SOL    HW1 3146   5.129   4.521   3.435
  749SOL    HW2 3147   5.057   4.482   3.576
  750SOL     OW 3148   2.450   1.732   1.833
  750SOL    HW1 3149   2.383   1.659   1.849
  750SOL    HW2 3150   2.410   1.802   1.775
  751SOL     OW 3151   4.585   1.313   0.309
  751SOL    HW1 3152   4.683   1.295   0.294
  751SOL    HW2 3153   4.532   1.272   0.236
  752SOL     OW 3154   3.334   2.605   5.280
  752SOL    HW1 3155   3.277   2.676   5.239
  752SOL    HW2 3156   3.302   2.515   5.248
  753SOL     OW 3157   3.804   3.995   5.160
  753SOL    HW1 3158   3.890   3.964   5.120
  753SOL    HW2 3159   3.813   4.001   5.259
  754SOL     OW 3160   5.670   0.910   6.213
  754SOL    HW1 3161   5.592   0.945   6.162
  754SOL    HW2 3162   5.655   0.814   6.236
  755SOL     OW 3163   3.044   4.338   5.280
  755SOL    HW1 3164   3.013   4.417   5.228
  755SOL    HW2 3165   3.098   4.368   5.358
  756SOL     OW 3166   2.629   5.357   6.399
  756SOL    HW1 3167   2.693   5.294   6.356
  756SOL    HW2 3168   2.626   5.442   6.347
  757SOL     OW 3169   1.798   6.834   2.537
  757SOL    HW1 3170   1.804   6.923   2.492
  757SOL    HW2 3171   1.713   6.788   2.510
  758SOL     OW 3172   3.335   1.422   4.109
  758SOL    HW1 3173   3.389   1.462   4.184
  758SOL    HW2 3174   3.270   1.356   4.146
  759SOL     OW 3175   0.259   3.065   4.405
  759SOL    HW1 3176   0.306   3.000   4.464
  759SOL    HW2 3177   0.236   3.021   4.318
  760SOL     OW 3178   6.960   0.064   3.513
  760SOL    HW1 3179   6.933   0.160   3.514
  760SOL    HW2 3180   6.899   0.012   3.453
  761SOL     OW 3181   4.847   4.056   5.582
  761SOL    HW1 3182   4.850   4.150   5.549
  761SOL    HW2 3183   4.826   3.995   5.506
  762SOL     OW 3184   2.736   6.163   5.013
  762SOL    HW1 3185   2.811   6.101   4.992
  762SOL    HW2 3186   2.678   6.175   4.933
  763SOL     OW 3187   5.867   0.344   6.738
  763SOL    HW1 3188   5.823   0.395   6.664
  763SOL    HW2 3189   5.799   0.287   6.783
  764SOL     OW 3190   5.202   0.025   5.392
  764SOL    HW1 3191   5.213   0.014   5.293
  764SOL    HW2 3192   5.273   6.995   5.439
  765SOL     OW 3193   0.873   6.422   0.861
  765SOL    HW1 3194   0.811   6.462   0.929
  765SOL    HW2 3195   0.907   6.495   0.800
  766SOL     OW 3196   1.699   2.521   5.004
  766SOL    HW1 3197   1.604   2.540   5.028
  766SOL    HW2 3198   1.711   2.530   4.905
  767SOL     OW 3199   0.280   6.732   3.622
  767SOL    HW1 3200   0.217   6.806   3.643
  767SOL    HW2 3201   0.235   6.644   3.636
  768SOL     OW 3202   2.401   6.271   2.094
  768SOL    HW1 3203   2.478   6.319   2.137
  768SOL    HW2 3204   2.363   6.328   2.022
  769SOL     OW 3205   2.872   1.883   4.939
  769SOL    HW1 3206   2.912   1.900   4.849
  769SOL    HW2 3207   2.868   1.969   4.990
  770SOL     OW 3208   2.382   4.729   4.485
  770SOL    HW1 3209   2.421   4.658   4.543
  770SOL    HW2 3210   2.409   4.715   4.390
  771SOL     OW 3211   1.182   5.400   2.482
  771SOL    HW1 3212   1.197   5.358   2.571
  771SOL    HW2 3213   1.189   5.331   2.411
  772SOL     OW 3214   5.096   4.716   6.542
  772SOL    HW1 3215   5.116   4.627   6.583
  772SOL    HW2 3216   5.015   4.755   6.585
  773SOL     OW 3217   0.705   3.348   3.760
  773SOL    HW1 3218   0.766   3.414   3.803
  773SOL    HW2 3219   0.748   3.311   3.677
  774SOL     OW 3220   1.949   1.081   3.393
  774SOL    HW1 3221   1.937   1.020   3.314
  774SOL    HW2 3222   1.910   1.170   3.373
  775SOL     OW 3223   2.169   3.893   4.170
  775SOL    HW1 3224   2.174   3.803   4.126
  775SOL    HW2 3225   2.255   3.912   4.218
  776SOL     OW 3226   1.628   6.555   6.380
  776SOL    HW1 3227   1.718   6.598   6.373
  776SOL    HW2 3228   1.558   6.619   6.346
  777SOL     OW 3229   2.346   3.915   0.071
  777SOL    HW1 3230   2.384   3.932   7.003
  777SOL    HW2 3231   2.417   3.876   0.130
  778SOL     OW 3232   3.501   6.855   1.649
  778SOL    HW1 3233   3.556   6.930   1.688
  778SOL    HW2 3234   3.422   6.894   1.601
  779SOL     OW 3235   0.093   2.321   2.434
  779SOL    HW1 3236   0.150   2.272   2.367
  779SOL    HW2 3237   0.099   2.420   2.416
  780SOL     OW 3238   1.354   2.067   5.327
  780SOL    HW1 3239   1.335   2.014   5.409
  780SOL    HW2 3240   1.292   2.146   5.323
  781SOL     OW 3241   0.639   4.004   0.645
  781SOL    HW1 3242   0.634   3.932   0.576
  781SOL    HW2 3243   0.557   4.061   0.639
  782SOL     OW 3244   1.811   3.740   6.181
  782SOL    HW1 3245   1.796   3.829   6.139
  782SOL    HW2 3246   1.857   3.750   6.269
  783SOL     OW 3247   5.690   4.371   6.638
  783SOL    HW1 3248   5.660   4.466   6.631
  783SOL    HW2 3249   5.640   4.316   6.571
  784SOL     OW 3250   3.205   6.404   0.943
  784SOL    HW1 3251   3.115   6.360   0.943
  784SOL    HW2 3252   3.235   6.420   1.037
  785SOL     OW 3253   0.511   0.234   4.352
  785SOL    HW1 3254   0.543   0.178   4.276
  785SOL    HW2 3255   0.543   0.194   4.438
  786SOL     OW 3256   6.628   1.270   3.469
  786SOL    HW1 3257   6.560   1.275   3.395
  786SOL    HW2 3258   6.590   1.310   3.552
  787SOL     OW 3259   2.563   0.069   0.460
  787SOL    HW1 3260   2.525   0.031   0.376
  787SOL    HW2 3261   2.647   0.120   0.440
  788SOL     OW 3262   4.026   3.385   0.985
  788SOL    HW1 3263   3.931   3.356   0.975
  788SOL    HW2 3264   4.044   3.407   1.080
  789SOL     OW 3265   4.453   5.395   1.479
  789SOL    HW1 3266   4.516   5.415   1.404
  789SOL    HW2 3267   4.359   5.395   1.444
  790SOL     OW 3268   0.639   2.997   2.145
  790SOL    HW1 3269   0.551   2.951   2.152
  790SOL    HW2 3270   0.625   3.094   2.125
  791SOL     OW 3271   3.284   5.042   5.033
  791SOL    HW1 3272   3.195   5.062   5.072
  791SOL    HW2 3273   3.335   5.127   5.021
  792SOL     OW 3274   1.037   1.034   1.178
  792SOL    HW1 3275   1.081   0.950   1.210
  792SOL    HW2 3276   1.066   1.053   1.084
  793SOL     OW 3277   3.487   5.699   3.800
  793SOL    HW1 3278   3.493   5.607   3.761
  793SOL    HW2 3279   3.576   5.745   3.794
  794SOL     OW 3280   3.011   3.350   3.742
  794SOL    HW1 3281   3.021   3.311   3.650
  794SOL    HW2 3282   2.961   3.436   3.736
  795SOL     OW 3283   3.962   0.741   6.373
  795SOL    HW1 3284   3.892   0.809   6.353
  795SOL    HW2 3285   3.975   0.682   6.293
  796SOL     OW 3286   1.788   3.149   6.722
  796SOL    HW1 3287   1.736   3.166   6.806
  796SOL    HW2 3288   1.886   3.149   6.743
  797SOL     OW 3289   5.034   0.070   0.580
  797SOL    HW1 3290   5.001   0.003   0.513
  797SOL    HW2 3291   4.968   0.077   0.655
  798SOL     OW 3292   3.861   6.742   0.529
  798SOL    HW1 3293   3.817   6.670   0.584
  798SOL    HW2 3294   3.841   6.831   0.570
  799SOL     OW 3295   1.267   1.792   6.879
  799SOL    HW1 3296   1.280   1.708   6.931
  799SOL    HW2 3297   1.171   1.820   6.884
  800SOL     OW 3298   6.307   2.029   1.500
  800SOL    HW1 3299   6.235   1.961   1.514
  800SOL    HW2 3300   6.372   2.025   1.576
  801SOL     OW 3301   1.836   5.306   5.358
  801SOL    HW1 3302   1.779   5.260   5.425
  801SOL    HW2 3303   1.928   5.319   5.395
  802SOL     OW 3304   5.183   2.375   6.840
  802SOL    HW1 3305   5.277   2.409   6.845
  802SOL    HW2 3306   5.120   2.452   6.836
  803SOL     OW 3307   2.613   0.664   5.522
  803SOL    HW1 3308   2.637   0.757   5.494
  803SOL    HW2 3309   2.679   0.600   5.483
  804SOL     OW 3310   6.732   0.450   1.666
  804SOL    HW1 3311   6.725   0.357   1.630
  804SOL    HW2 3312   6.741   0.447   1.766
  805SOL     OW 3313   3.092   1.101   3.705
  805SOL    HW1 3314   3.037   1.161   3.764
  805SOL    HW2 3315   3.189   1.118   3.722
  806SOL     OW 3316   1.329   6.410   5.191
  806SOL    HW1 3317   1.427   6.417   5.207
  806SOL    HW2 3318   1.292   6.501   5.169
  807SOL     OW 3319   0.673   6.428   5.160
  807SOL    HW1 3320   0.631   6.517   5.181
  807SOL    HW2 3321   0.772   6.438   5.155
  808SOL     OW 3322   5.384   2.752   0.478
  808SOL    HW1 3323   5.297   2.761   0.430
  808SOL    HW2 3324   5.434   2.674   0.442
  809SOL     OW 3325   1.327   5.392   0.183
  809SOL    HW1 3326   1.252   5.327   0.195
  809SOL    HW2 3327   1.399   5.372   0.249
  810SOL     OW 3328   2.774   3.230   0.310
  810SOL    HW1 3329   2.804   3.317   0.350
  810SOL    HW2 3330   2.709   3.248   0.237
  811SOL     OW 3331   5.476   4.932   4.455
  811SOL    HW1 3332   5.497   5.018   4.407
  811SOL    HW2 3333   5.447   4.863   4.389
  812SOL     OW 3334   0.690   2.672   2.475
  812SOL    HW1 3335   0.692   2.573   2.464
  812SOL    HW2 3336   0.605   2.698   2.521
  813SOL     OW 3337   1.555   1.762   4.933
  813SOL    HW1 3338   1.486   1.737   4.864
  813SOL    HW2 3339   1.509   1.803   5.011
  814SOL     OW 3340   1.232   5.575   3.002
  814SOL    HW1 3341   1.148   5.541   3.045
  814SOL    HW2 3342   1.309   5.565   3.065
  815SOL     OW 3343   4.934   2.070   4.011
  815SOL    HW1 3344   4.837   2.055   3.993
  815SOL    HW2 3345   4.950   2.069   4.110
  816SOL     OW 3346   5.130   3.537   0.293
  816SOL    HW1 3347   5.143   3.559   0.390
  816SOL    HW2 3348   5.069   3.459   0.284
  817SOL     OW 3349   1.269   5.110   0.150
  817SOL    HW1 3350   1.337   5.049   0.189
  817SOL    HW2 3351   1.191   5.117   0.213
  818SOL     OW 3352   5.915   3.012   3.790
  818SOL    HW1 3353   5.933   3.075   3.866
  818SOL    HW2 3354   5.818   3.019   3.765
  819SOL     OW 3355   5.117   2.566   2.201
  819SOL    HW1 3356   5.106   2.574   2.300
  819SOL    HW2 3357   5.183   2.494   2.181
  820SOL     OW 3358   2.387   1.730   4.974
  820SOL    HW1 3359   2.300   1.773   4.948
  820SOL    HW2 3360   2.419   1.769   5.060
  821SOL     OW 3361   5.626   4.037   5.128
  821SOL    HW1 3362   5.553   4.102   5.151
  821SOL    HW2 3363   5.585   3.950   5.099
  822SOL     OW 3364   1.122   4.559   3.747
  822SOL    HW1 3365   1.060   4.482   3.733
  822SOL    HW2 3366   1.090   4.615   3.823
  823SOL     OW 3367   0.837   3.589   5.992
  823SOL    HW1 3368   0.853   3.558   6.085
  823SOL    HW2 3369   0.844   3.689   5.988
  824SOL     OW 3370   5.536   1.149   5.605
  824SOL    HW1 3371   5.450   1.175   5.649
  824SOL    HW2 3372   5.610   1.209   5.638
  825SOL     OW 3373   6.669   5.935   0.859
  825SOL    HW1 3374   6.703   6.006   0.922
  825SOL    HW2 3375   6.590   5.971   0.809
  826SOL     OW 3376   3.848   1.348   5.651
  826SOL    HW1 3377   3.869   1.353   5.553
  826SOL    HW2 3378   3.899   1.418   5.700
  827SOL     OW 3379   3.218   3.675   4.289
  827SOL    HW1 3380   3.138   3.712   4.335
  827SOL    HW2 3381   3.296   3.674   4.352
  828SOL     OW 3382   6.051   5.963   4.810
  828SOL    HW1 3383   5.986   5.893   4.783
  828SOL    HW2 3384   6.144   5.934   4.786
  829SOL     OW 3385   3.363   2.966   2.852
  829SOL    HW1 3386   3.447   3.007   2.819
  829SOL    HW2 3387   3.346   2.994   2.947
  830SOL     OW 3388   6.469   4.616   0.142
  830SOL    HW1 3389   6.393   4.676   0.170
  830SOL    HW2 3390   6.546   4.630   0.203
  831SOL     OW 3391   5.763   6.091   1.110
  831SOL    HW1 3392   5.803   6.071   1.199
  831SOL    HW2 3393   5.765   6.190   1.093
  832SOL     OW 3394   3.249   1.881   4.811
  832SOL    HW1 3395   3.226   1.829   4.893
  832SOL    HW2 3396   3.285   1.819   4.742
  833SOL     OW 3397   1.729   3.279   6.073
  833SOL    HW1 3398   1.674   3.226   6.009
  833SOL    HW2 3399   1.801   3.328   6.023
  834SOL     OW 3400   4.764   3.643   6.842
  834SOL    HW1 3401   4.805   3.577   6.904
  834SOL    HW2 3402   4.674   3.611   6.813
  835SOL     OW 3403   1.250   0.272   3.812
  835SOL    HW1 3404   1.232   0.371   3.808
  835SOL    HW2 3405   1.348   0.257   3.805
  836SOL     OW 3406   3.162   1.156   5.400
  836SOL    HW1 3407   3.100   1.133   5.325
  836SOL    HW2 3408   3.157   1.085   5.470
  837SOL     OW 3409   1.752   0.532   0.583
  837SOL    HW1 3410   1.663   0.574   0.602
  837SOL    HW2 3411   1.824   0.587   0.625
  838SOL     OW 3412   2.058   5.717   3.732
  838SOL    HW1 3413   2.112   5.759   3.659
  838SOL    HW2 3414   1.961   5.726   3.711
  839SOL     OW 3415   1.577   1.380   1.303
  839SOL    HW1 3416   1.661   1.421   1.269
  839SOL    HW2 3417   1.596   1.288   1.339
  840SOL     OW 3418   5.175   5.540   0.087
  840SOL    HW1 3419   5.141   5.615   0.143
  840SOL    HW2 3420   5.107   5.467   0.083
  841SOL     OW 3421   3.694   4.861   5.627
  841SOL    HW1 3422   3.783   4.893   5.594
  841SOL    HW2 3423   3.634   4.843   5.549
  842SOL     OW 3424   3.111   0.543   0.493
  842SOL    HW1 3425   3.015   0.561   0.516
  842SOL    HW2 3426   3.152   0.487   0.565
  843SOL     OW 3427   1.144   1.571   2.067
  843SOL    HW1 3428   1.147   1.474   2.045
  843SOL    HW2 3429   1.235   1.611   2.051
  844SOL     OW 3430   6.619   0.076   1.153
  844SOL    HW1 3431   6.572   0.122   1.078
  844SOL    HW2 3432   6.552   0.029   1.211
  845SOL     OW 3433   3.229   1.833   2.868
  845SOL    HW1 3434   3.312   1.837   2.812
  845SOL    HW2 3435   3.247   1.782   2.952
  846SOL     OW 3436   2.669   2.109   0.223
  846SOL    HW1 3437   2.737   2.040   0.248
  846SOL    HW2 3438   2.652   2.169   0.301
  847SOL     OW 3439   2.576   3.737   1.418
  847SOL    HW1 3440   2.606   3.785   1.500
  847SOL    HW2 3441   2.553   3.642   1.442
  848SOL     OW 3442   6.624   6.277   6.253
  848SOL    HW1 3443   6.675   6.234   6.178
  848SOL    HW2 3444   6.545   6.221   6.277
  849SOL     OW 3445   6.136   3.982   0.300
  849SOL    HW1 3446   6.166   3.993   0.395
  849SOL    HW2 3447   6.203   4.023   0.239
  850SOL     OW 3448   0.175   0.658   5.312
  850SOL    HW1 3449   0.090   0.654   5.365
  850SOL    HW2 3450   0.212   0.565   5.302
  851SOL     OW 3451   6.558   2.973   5.947
  851SOL    HW1 3452   6.643   3.006   5.988
  851SOL    HW2 3453   6.540   3.025   5.863
  852SOL     OW 3454   0.116   3.470   2.055
  852SOL    HW1 3455   0.045   3.424   2.002
  852SOL    HW2 3456   0.186   3.404   2.083
  853SOL     OW 3457   2.106   3.954   0.177
  853SOL    HW1 3458   2.079   3.891   0.250
  853SOL    HW2 3459   2.188   3.919   0.132
  854SOL     OW 3460   6.134   6.542   6.961
  854SOL    HW1 3461   6.207   6.520   6.896
  854SOL    HW2 3462   6.171   6.601   0.011
  855SOL     OW 3463   6.631   1.093   0.409
  855SOL    HW1 3464   6.661   1.180   0.370
  855SOL    HW2 3465   6.608   1.030   0.335
  856SOL     OW 3466   2.286   6.615   6.658
  856SOL    HW1 3467   2.194   6.641   6.688
  856SOL    HW2 3468   2.354   6.663   6.715
  857SOL     OW 3469   6.904   5.201   4.289
  857SOL    HW1 3470   6.917   5.217   4.191
  857SOL    HW2 3471   6.816   5.238   4.317
  858SOL     OW 3472   3.816   3.353   0.383
  858SOL    HW1 3473   3.826   3.292   0.305
  858SOL    HW2 3474   3.826   3.300   0.468
  859SOL     OW 3475   4.307   6.980   5.440
  859SOL    HW1 3476   4.254   0.020   5.383
  859SOL    HW2 3477   4.399   6.969   5.401
  860SOL     OW 3478   5.074   2.622   5.471
  860SOL    HW1 3479   5.104   2.542   5.523
  860SOL    HW2 3480   5.102   2.705   5.519
  861SOL     OW 3481   2.252   5.663   2.518
  861SOL    HW1 3482   2.272   5.761   2.512
  861SOL    HW2 3483   2.209   5.632   2.433
  862SOL     OW 3484   1.674   4.303   3.744
  862SOL    HW1 3485   1.739   4.230   3.720
  862SOL    HW2 3486   1.587   4.285   3.699
  863SOL     OW 3487   0.354   0.193   6.425
  863SOL    HW1 3488   0.422   0.256   6.387
  863SOL    HW2 3489   0.266   0.210   6.380
  864SOL     OW 3490   4.954   0.032   5.170
  864SOL    HW1 3491   4.858   0.034   5.143
  864SOL    HW2 3492   4.979   0.121   5.209
  865SOL     OW 3493   1.949   5.658   4.266
  865SOL    HW1 3494   1.903   5.622   4.184
  865SOL    HW2 3495   1.957   5.585   4.334
  866SOL     OW 3496   2.072   6.363   1.943
  866SOL    HW1 3497   2.071   6.352   2.042
  866SOL    HW2 3498   2.165   6.385   1.913
  867SOL     OW 3499   6.125   1.746   0.532
  867SOL    HW1 3500   6.070   1.787   0.459
  867SOL    HW2 3501   6.095   1.782   0.620
  868SOL     OW 3502   6.679   2.379   2.293
  868SOL    HW1 3503   6.694   2.294   2.243
  868SOL    HW2 3504   6.645   2.449   2.230
  869SOL     OW 3505   7.022   3.968   3.893
  869SOL    HW1 3506   0.045   4.056   3.877
  869SOL    HW2 3507   6.960   3.977   3.971
  870SOL     OW 3508   3.210   5.070   1.389
  870SOL    HW1 3509   3.255   5.014   1.458
  870SOL    HW2 3510   3.277   5.102   1.322
  871SOL     OW 3511   4.874   1.760   3.507
  871SOL    HW1 3512   4.918   1.713   3.584
  871SOL    HW2 3513   4.920   1.736   3.422
  872SOL     OW 3514   6.660   2.671   4.058
  872SOL    HW1 3515   6.745   2.638   4.018
  872SOL    HW2 3516   6.604   2.714   3.987
  873SOL     OW 3517   4.417   6.520   5.454
  873SOL    HW1 3518   4.343   6.492   5.516
  873SOL    HW2 3519   4.417   6.462   5.373
  874SOL     OW 3520   5.605   3.715   0.559
  874SOL    HW1 3521   5.655   3.802   0.560
  874SOL    HW2 3522   5.602   3.680   0.465
  875SOL     OW 3523   5.002   5.297   1.278
  875SOL    HW1 3524   4.951   5.250   1.205
  875SOL    HW2 3525   4.986   5.251   1.365
  876SOL     OW 3526   0.443   5.355   2.205
  876SOL    HW1 3527   0.503   5.279   2.231
  876SOL    HW2 3528   0.369   5.363   2.272
  877SOL     OW 3529   3.172   4.236   0.025
  877SOL    HW1 3530   3.190   4.291   0.106
  877SOL    HW2 3531   3.200   4.141   0.041
  878SOL     OW 3532   4.019   0.008   3.881
  878SOL    HW1 3533   4.065   6.942   3.878
  878SOL    HW2 3534   4.078   0.078   3.841
  879SOL     OW 3535   4.738   0.611   0.461
  879SOL    HW1 3536   4.760   0.678   0.390
  879SOL    HW2 3537   4.820   0.591   0.514
  880SOL     OW 3538   3.063   3.785   3.638
  880SOL    HW1 3539   3.085   3.865   3.693
  880SOL    HW2 3540   3.019   3.814   3.553
  881SOL     OW 3541   4.522   2.639   5.161
  881SOL    HW1 3542   4.448   2.679   5.214
  881SOL    HW2 3543   4.535   2.544   5.189
  882SOL     OW 3544   0.733   3.154   4.587
  882SOL    HW1 3545   0.785   3.162   4.672
  882SOL    HW2 3546   0.635   3.158   4.608
  883SOL     OW 3547   3.040   0.219   2.463
  883SOL    HW1 3548   2.984   0.199   2.543
  883SOL    HW2 3549   3.115   0.153   2.457
  884SOL     OW 3550   4.900   3.157   4.995
  884SOL    HW1 3551   5.000   3.149   4.989
  884SOL    HW2 3552   4.874   3.195   5.083
  885SOL     OW 3553   2.784   1.483   5.874
  885SOL    HW1 3554   2.739   1.421   5.939
  885SOL    HW2 3555   2.750   1.464   5.782
  886SOL     OW 3556   3.464   0.541   0.324
  886SOL    HW1 3557   3.389   0.590   0.370
  886SOL    HW2 3558   3.484   0.586   0.237
  887SOL     OW 3559   3.890   0.446   3.780
  887SOL    HW1 3560   3.974   0.425   3.730
  887SOL    HW2 3561   3.827   0.369   3.775
  888SOL     OW 3562   0.816   0.711   2.954
  888SOL    HW1 3563   0.877   0.759   3.017
  888SOL    HW2 3564   0.858   0.706   2.864
  889SOL     OW 3565   0.768   3.905   6.967
  889SOL    HW1 3566   0.759   4.005   6.968
  889SOL    HW2 3567   0.794   3.873   0.036
  890SOL     OW 3568   2.055   5.447   3.818
  890SOL    HW1 3569   2.075   5.541   3.790
  890SOL    HW2 3570   1.960   5.425   3.795
  891SOL     OW 3571   5.520   4.950   1.143
  891SOL    HW1 3572   5.554   4.996   1.225
  891SOL    HW2 3573   5.423   4.930   1.153
  892SOL     OW 3574   2.606   3.977   5.646
  892SOL    HW1 3575   2.595   4.007   5.551
  892SOL    HW2 3576   2.565   3.886   5.656
  893SOL     OW 3577   2.101   6.308   2.903
  893SOL    HW1 3578   2.152   6.387   2.868
  893SOL    HW2 3579   2.130   6.226   2.855
  894SOL     OW 3580   0.896   3.553   1.524
  894SOL    HW1 3581   0.861   3.580   1.614
  894SOL    HW2 3582   0.979   3.606   1.504
  895SOL     OW 3583   0.442   5.157   3.302
  895SOL    HW1 3584   0.374   5.226   3.329
  895SOL    HW2 3585   0.531   5.182   3.341
  896SOL     OW 3586   6.338   5.570   0.316
  896SOL    HW1 3587   6.272   5.611   0.379
  896SOL    HW2 3588   6.315   5.474   0.302
  897SOL     OW 3589   4.980   1.442   0.449
  897SOL    HW1 3590   5.043   1.448   0.526
  897SOL    HW2 3591   4.892   1.406   0.481
  898SOL     OW 3592   3.371   5.394   2.564
  898SOL    HW1 3593   3.303   5.321   2.566
  898SOL    HW2 3594   3.458   5.359   2.597
  899SOL     OW 3595   0.681   5.339   6.236
  899SOL    HW1 3596   0.590   5.379   6.238
  899SOL    HW2 3597   0.749   5.408   6.263
  900SOL     OW 3598   5.759   6.676   0.120
  900SOL    HW1 3599   5.850   6.698   0.155
  900SOL    HW2 3600   5.703   6.758   0.119
  901SOL     OW 3601   1.791   0.336   2.474
  901SOL    HW1 3602   1.865   0.269   2.470
  901SOL    HW2 3603   1.828   0.425   2.499
  902SOL     OW 3604   6.985   3.327   0.703
  902SOL    HW1 3605   0.014   3.395   0.755
  902SOL    HW2 3606   6.892   3.322   0.737
  903SOL     OW 3607   0.018   2.398   6.328
  903SOL    HW1 3608   0.048   2.460   6.255
  903SOL    HW2 3609   0.002   2.307   6.290
  904SOL     OW 3610   2.981   2.241   3.764
  904SOL    HW1 3611   2.910   2.273   3.700
  904SOL    HW2 3612   3.047   2.185   3.714
  905SOL     OW 3613   5.346   2.462   0.294
  905SOL    HW1 3614   5.414   2.534   0.285
  905SOL    HW2 3615   5.254   2.503   0.296
  906SOL     OW 3616   0.602   1.902   5.835
  906SOL    HW1 3617   0.604   1.958   5.752
  906SOL    HW2 3618   0.558   1.953   5.909
  907SOL     OW 3619   4.963   3.520   7.010
  907SOL    HW1 3620   5.036   3.588   7.016
  907SOL    HW2 3621   4.997   3.432   0.021
  908SOL     OW 3622   2.535   4.775   2.434
  908SOL    HW1 3623   2.608   4.743   2.374
  908SOL    HW2 3624   2.553   4.869   2.462
  909SOL     OW 3625   4.328   4.998   6.515
  909SOL    HW1 3626   4.402   5.047   6.561
  909SOL    HW2 3627   4.367   4.927   6.457
  910SOL     OW 3628   2.766   2.981   1.405
  910SOL    HW1 3629   2.703   2.973   1.482
  910SOL    HW2 3630   2.716   2.968   1.319
  911SOL     OW 3631   1.835   5.839   5.930
  911SOL    HW1 3632   1.781   5.820   5.848
  911SOL    HW2 3633   1.858   5.937   5.933
  912SOL     OW 3634   5.295   2.928   3.511
  912SOL    HW1 3635   5.208   2.969   3.537
  912SOL    HW2 3636   5.289   2.892   3.418
  913SOL     OW 3637   5.342   6.396   3.283
  913SOL    HW1 3638   5.433   6.421   3.248
  913SOL    HW2 3639   5.274   6.459   3.246
  914SOL     OW 3640   2.708   0.538   6.649
  914SOL    HW1 3641   2.687   0.584   6.735
  914SOL    HW2 3642   2.642   0.465   6.633
  915SOL     OW 3643   5.924   4.987   0.406
  915SOL    HW1 3644   5.924   5.075   0.455
  915SOL    HW2 3645   6.018   4.963   0.381
  916SOL     OW 3646   1.232   2.254   2.424
  916SOL    HW1 3647   1.273   2.294   2.506
  916SOL    HW2 3648   1.259   2.307   2.344
  917SOL     OW 3649   0.384   6.746   0.671
  917SOL    HW1 3650   0.395   6.756   0.769
  917SOL    HW2 3651   0.353   6.832   0.631
  918SOL     OW 3652   2.423   6.691   0.989
  918SOL    HW1 3653   2.476   6.720   1.069
  918SOL    HW2 3654   2.473   6.621   0.939
  919SOL     OW 3655   5.756   1.587   3.552
  919SOL    HW1 3656   5.719   1.623   3.638
  919SOL    HW2 3657   5.831   1.645   3.521
  920SOL     OW 3658   2.442   4.540   1.529
  920SOL    HW1 3659   2.362   4.520   1.584
  920SOL    HW2 3660   2.516   4.573   1.588
  921SOL     OW 3661   5.297   5.877   4.569
  921SOL    HW1 3662   5.227   5.901   4.637
  921SOL    HW2 3663   5.350   5.959   4.546
  922SOL     OW 3664   3.790   3.346   4.338
  922SOL    HW1 3665   3.849   3.396   4.275
  922SOL    HW2 3666   3.821   3.251   4.345
  923SOL     OW 3667   2.126   2.951   5.530
  923SOL    HW1 3668   2.203   2.979   5.588
  923SOL    HW2 3669   2.145   2.861   5.490
  924SOL     OW 3670   6.748   3.952   2.311
  924SOL    HW1 3671   6.844   3.925   2.308
  924SOL    HW2 3672   6.701   3.899   2.382
  925SOL     OW 3673   6.737   1.844   0.403
  925SOL    HW1 3674   6.730   1.746   0.417
  925SOL    HW2 3675   6.672   1.892   0.461
  926SOL     OW 3676   0.230   1.722   1.799
  926SOL    HW1 3677   0.322   1.698   1.768
  926SOL    HW2 3678   0.180   1.763   1.723
  927SOL     OW 3679   5.755   3.746   4.014
  927SOL    HW1 3680   5.670   3.694   4.006
  927SOL    HW2 3681   5.749   3.810   4.091
  928SOL     OW 3682   3.252   6.192   6.710
  928SOL    HW1 3683   3.311   6.191   6.629
  928SOL    HW2 3684   3.264   6.106   6.760
  929SOL     OW 3685   6.483   1.311   6.587
  929SOL    HW1 3686   6.420   1.239   6.617
  929SOL    HW2 3687   6.575   1.288   6.617
  930SOL     OW 3688   4.152   4.510   6.296
  930SOL    HW1 3689   4.099   4.444   6.243
  930SOL    HW2 3690   4.249   4.493   6.284
  931SOL     OW 3691   6.293   2.701   3.719
  931SOL    HW1 3692   6.291   2.801   3.715
  931SOL    HW2 3693   6.307   2.664   3.627
  932SOL     OW 3694   3.732   0.647   3.622
  932SOL    HW1 3695   3.815   0.618   3.670
  932SOL    HW2 3696   3.652   0.624   3.677
  933SOL     OW 3697   1.635   5.015   2.879
  933SOL    HW1 3698   1.685   4.950   2.821
  933SOL    HW2 3699   1.699   5.057   2.943
  934SOL     OW 3700   2.453   5.750   6.240
  934SOL    HW1 3701   2.358   5.721   6.250
  934SOL    HW2 3702   2.470   5.778   6.146
  935SOL     OW 3703   5.249   3.960   3.196
  935SOL    HW1 3704   5.220   3.870   3.227
  935SOL    HW2 3705   5.169   4.018   3.181
  936SOL     OW 3706   1.515   0.318   6.102
  936SOL    HW1 3707   1.474   0.262   6.029
  936SOL    HW2 3708   1.468   0.301   6.188
  937SOL     OW 3709   4.071   0.872   5.414
  937SOL    HW1 3710   4.092   0.775   5.427
  937SOL    HW2 3711   4.098   0.923   5.495
  938SOL     OW 3712   6.722   5.725   3.720
  938SOL    HW1 3713   6.635   5.744   3.674
  938SOL    HW2 3714   6.705   5.702   3.815
  939SOL     OW 3715   6.928   6.660   5.095
  939SOL    HW1 3716   6.896   6.747   5.059
  939SOL    HW2 3717   6.959   6.602   5.019
  940SOL     OW 3718   1.442   4.957   0.617
  940SOL    HW1 3719   1.515   5.024   0.627
  940SOL    HW2 3720   1.482   4.865   0.606
  941SOL     OW 3721   4.364   0.556   6.164
  941SOL    HW1 3722   4.405   0.471   6.130
  941SOL    HW2 3723   4.278   0.535   6.212
  942SOL     OW 3724   6.842   5.503   0.983
  942SOL    HW1 3725   6.761   5.444   0.985
  942SOL    HW2 3726   6.833   5.568   0.908
  943SOL     OW 3727   2.802   4.731   2.667
  943SOL    HW1 3728   2.728   4.721   2.733
  943SOL    HW2 3729   2.877   4.669   2.691
  944SOL     OW 3730   0.580   6.329   4.247
  944SOL    HW1 3731   0.573   6.276   4.331
  944SOL    HW2 3732   0.605   6.423   4.268
  945SOL     OW 3733   0.772   5.610   5.510
  945SOL    HW1 3734   0.675   5.612   5.537
  945SOL    HW2 3735   0.790   5.526   5.459
  946SOL     OW 3736   4.832   4.711   4.000
  946SOL    HW1 3737   4.833   4.692   4.098
  946SOL    HW2 3738   4.739   4.730   3.971
  947SOL     OW 3739   3.852   3.854   3.661
  947SOL    HW1 3740   3.785   3.907   3.714
  947SOL    HW2 3741   3.832   3.757   3.669
  948SOL     OW 3742   4.775   1.520   2.205
  948SOL    HW1 3743   4.814   1.592   2.262
  948SOL    HW2 3744   4.688   1.491   2.242
  949SOL     OW 3745   3.173   6.381   0.013
  949SOL    HW1 3746   3.218   6.381   6.946
  949SOL    HW2 3747   3.238   6.352   0.082
  950SOL     OW 3748   6.579   5.919   1.887
  950SOL    HW1 3749   6.611   5.883   1.974
  950SOL    HW2 3750   6.588   6.019   1.887
  951SOL     OW 3751   1.578   0.178   3.335
  951SOL    HW1 3752   1.609   0.143   3.424
  951SOL    HW2 3753   1.488   0.139   3.314
  952SOL     OW 3754   4.232   1.977   2.206
  952SOL    HW1 3755   4.180   2.061   2.221
  952SOL    HW2 3756   4.175   1.912   2.156
  953SOL     OW 3757   0.151   5.410   4.921
  953SOL    HW1 3758   0.090   5.350   4.972
  953SOL    HW2 3759   0.185   5.482   4.980
  954SOL     OW 3760   4.960   5.444   2.490
  954SOL    HW1 3761   4.964   5.543   2.501
  954SOL    HW2 3762   4.880   5.420   2.434
  955SOL     OW 3763   1.337   4.182   6.537
  955SOL    HW1 3764   1.416   4.121   6.543
  955SOL    HW2 3765   1.331   4.220   6.445
  956SOL     OW 3766   6.693   0.417   1.153
  956SOL    HW1 3767   6.730   0.364   1.229
  956SOL    HW2 3768   6.596   0.436   1.170
  957SOL     OW 3769   6.425   2.265   3.656
  957SOL    HW1 3770   6.420   2.287   3.559
  957SOL    HW2 3771   6.435   2.350   3.709
  958SOL     OW 3772   5.195   6.936   2.228
  958SOL    HW1 3773   5.201   6.863   2.297
  958SOL    HW2 3774   5.112   6.989   2.243
  959SOL     OW 3775   3.603   0.132   3.901
  959SOL    HW1 3776   3.544   0.213   3.910
  959SOL    HW2 3777   3.603   0.081   3.987
  960SOL     OW 3778   0.855   0.597   0.257
  960SOL    HW1 3779   0.854   0.586   0.158
  960SOL    HW2 3780   0.918   0.531   0.298
  961SOL     OW 3781   3.060   6.418   3.355
  961SOL    HW1 3782   3.032   6.499   3.305
  961SOL    HW2 3783   3.086   6.346   3.290
  962SOL     OW 3784   6.613   6.920   5.207
  962SOL    HW1 3785   6.667   6.993   5.252
  962SOL    HW2 3786   6.660   6.891   5.124
  963SOL     OW 3787   4.603   2.609   1.104
  963SOL    HW1 3788   4.624   2.573   1.013
  963SOL    HW2 3789   4.660   2.689   1.122
  964SOL     OW 3790   5.008   4.166   4.976
  964SOL    HW1 3791   5.079   4.118   4.924
  964SOL    HW2 3792   5.019   4.265   4.963
  965SOL     OW 3793   5.534   2.252   2.965
  965SOL    HW1 3794   5.571   2.203   3.044
  965SOL    HW2 3795   5.579   2.218   2.882
  966SOL     OW 3796   5.337   1.820   3.853
  966SOL    HW1 3797   5.246   1.856   3.875
  966SOL    HW2 3798   5.344   1.804   3.755
  967SOL     OW 3799   4.820   4.053   6.163
  967SOL    HW1 3800   4.890   4.001   6.115
  967SOL    HW2 3801   4.738   3.997   6.173
  968SOL     OW 3802   3.897   0.114   1.731
  968SOL    HW1 3803   3.952   0.185   1.687
  968SOL    HW2 3804   3.808   0.152   1.757
  969SOL     OW 3805   3.362   4.558   5.468
  969SOL    HW1 3806   3.399   4.649   5.487
  969SOL    HW2 3807   3.282   4.567   5.409
  970SOL     OW 3808   6.195   0.205   5.728
  970SOL    HW1 3809   6.159   0.150   5.803
  970SOL    HW2 3810   6.245   0.146   5.664
  971SOL     OW 3811   6.836   4.416   3.196
  971SOL    HW1 3812   6.790   4.332   3.168
  971SOL    HW2 3813   6.841   4.419   3.296
  972SOL     OW 3814   0.024   2.208   1.385
  972SOL    HW1 3815   6.965   2.255   1.353
  972SOL    HW2 3816   0.045   2.237   1.479
  973SOL     OW 3817   0.366   4.301   6.509
  973SOL    HW1 3818   0.367   4.329   6.605
  973SOL    HW2 3819   0.275   4.265   6.485
  974SOL     OW 3820   6.983   5.030   4.517
  974SOL    HW1 3821   6.976   5.092   4.438
  974SOL    HW2 3822   0.021   4.954   4.494
  975SOL     OW 3823   2.012   6.707   2.369
  975SOL    HW1 3824   1.943   6.768   2.407
  975SOL    HW2 3825   2.087   6.762   2.330
  976SOL     OW 3826   6.366   4.468   2.041
  976SOL    HW1 3827   6.363   4.391   1.976
  976SOL    HW2 3828   6.278   4.516   2.039
  977SOL     OW 3829   0.262   1.687   2.298
  977SOL    HW1 3830   0.359   1.661   2.299
  977SOL    HW2 3831   0.223   1.674   2.389
  978SOL     OW 3832   5.390   2.596   2.578
  978SOL    HW1 3833   5.369   2.690   2.603
  978SOL    HW2 3834   5.363   2.534   2.652
  979SOL     OW 3835   0.363   3.416   0.366
  979SOL    HW1 3836   0.426   3.340   0.350
  979SOL    HW2 3837   0.340   3.419   0.464
  980SOL     OW 3838   3.762   1.583   5.237
  980SOL    HW1 3839   3.691   1.519   5.206
  980SOL    HW2 3840   3.725   1.675   5.240
  981SOL     OW 3841   6.647   0.213   4.741
  981SOL    HW1 3842   6.701   0.129   4.739
  981SOL    HW2 3843   6.642   0.247   4.835
  982SOL     OW 3844   0.579   1.514   5.483
  982SOL    HW1 3845   0.645   1.541   5.413
  982SOL    HW2 3846   0.491   1.557   5.464
  983SOL     OW 3847   0.477   3.477   3.655
  983SOL    HW1 3848   0.442   3.422   3.579
  983SOL    HW2 3849   0.552   3.428   3.700
  984SOL     OW 3850   1.627   1.959   2.867
  984SOL    HW1 3851   1.643   1.992   2.960
  984SOL    HW2 3852   1.547   2.005   2.828
  985SOL     OW 3853   6.116   3.955   4.342
  985SOL    HW1 3854   6.198   3.938   4.287
  985SOL    HW2 3855   6.040   3.980   4.282
  986SOL     OW 3856   5.237   4.289   1.145
  986SOL    HW1 3857   5.250   4.220   1.216
  986SOL    HW2 3858   5.192   4.369   1.184
  987SOL     OW 3859   5.856   5.242   3.701
  987SOL    HW1 3860   5.769   5.275   3.738
  987SOL    HW2 3861   5.868   5.146   3.725
  988SOL     OW 3862   3.410   3.988   1.456
  988SOL    HW1 3863   3.488   3.977   1.518
  988SOL    HW2 3864   3.333   3.936   1.491
  989SOL     OW 3865   0.185   2.009   0.911
  989SOL    HW1 3866   0.179   2.002   1.011
  989SOL    HW2 3867   0.241   2.089   0.887
  990SOL     OW 3868   3.609   0.157   3.140
  990SOL    HW1 3869   3.679   0.173   3.210
  990SOL    HW2 3870   3.564   0.244   3.118
  991SOL     OW 3871   6.840   4.213   4.097
  991SOL    HW1 3872   6.802   4.282   4.160
  991SOL    HW2 3873   6.921   4.251   4.052
  992SOL     OW 3874   0.447   2.847   1.462
  992SOL    HW1 3875   0.402   2.935   1.476
  992SOL    HW2 3876   0.540   2.862   1.429
  993SOL     OW 3877   1.853   5.092   0.894
  993SOL    HW1 3878   1.919   5.102   0.968
  993SOL    HW2 3879   1.785   5.023   0.918
  994SOL     OW 3880   3.299   6.468   1.191
  994SOL    HW1 3881   3.397   6.451   1.187
  994SOL    HW2 3882   3.282   6.564   1.214
  995SOL     OW 3883   5.428   3.786   5.296
  995SOL    HW1 3884   5.365   3.861   5.317
  995SOL    HW2 3885   5.491   3.773   5.373
  996SOL     OW 3886   3.824   6.053   5.608
  996SOL    HW1 3887   3.775   6.141   5.604
  996SOL    HW2 3888   3.772   5.989   5.665
  997SOL     OW 3889   1.512   6.364   3.960
  997SOL    HW1 3890   1.584   6.295   3.965
  997SOL    HW2 3891   1.551   6.451   3.930
  998SOL     OW 3892   5.907   0.189   6.278
  998SOL    HW1 3893   5.962   0.206   6.360
  998SOL    HW2 3894   5.903   0.272   6.223
  999SOL     OW 3895   4.819   3.448   1.866
  999SOL    HW1 3896   4.858   3.370   1.914
  999SOL    HW2 3897   4.745   3.418   1.806
 1000SOL     OW 3898   3.903   1.487   1.700
 1000SOL    HW1 3899   3.816   1.532   1.716
 1000SOL    HW2 3900   3.970   1.554   1.667
 1001SOL     OW 3901   3.066   6.602   2.347
 1001SOL    HW1 3902   3.097   6.509   2.369
 1001SOL    HW2 3903   3.127   6.668   2.391
 1002SOL     OW 3904   5.608   2.970   1.199
 1002SOL    HW1 3905   5.584   2.984   1.102
 1002SOL    HW2 3906   5.525   2.979   1.255
 1003SOL     OW 3907   1.592   6.028   2.039
 1003SOL    HW1 3908   1.559   6.098   2.103
 1003SOL    HW2 3909   1.616   5.945   2.090
 1004SOL     OW 3910   5.565   1.933   3.437
 1004SOL    HW1 3911   5.564   1.853   3.376
 1004SOL    HW2 3912   5.474   1.947   3.475
 1005SOL     OW 3913   1.458   4.864   4.906
 1005SOL    HW1 3914   1.390   4.839   4.837
 1005SOL    HW2 3915   1.461   4.964   4.914
 1006SOL     OW 3916   2.413   4.014   0.474
 1006SOL    HW1 3917   2.464   4.008   0.559
 1006SOL    HW2 3918   2.470   4.056   0.403
 1007SOL     OW 3919   4.576   1.942   6.383
 1007SOL    HW1 3920   4.666   1.903   6.365
 1007SOL    HW2 3921   4.574   2.037   6.350
 1008SOL     OW 3922   0.733   4.607   5.148
 1008SOL    HW1 3923   0.655   4.582   5.091
 1008SOL    HW2 3924   0.795   4.665   5.096
 1009SOL     OW 3925   6.237   5.003   5.247
 1009SOL    HW1 3926   6.303   5.078   5.246
 1009SOL    HW2 3927   6.236   4.959   5.158
 1010SOL     OW 3928   2.237   3.166   1.513
 1010SOL    HW1 3929   2.201   3.257   1.489
 1010SOL    HW2 3930   2.309   3.176   1.582
 1011SOL     OW 3931   0.852   4.944   2.549
 1011SOL    HW1 3932   0.837   4.871   2.483
 1011SOL    HW2 3933   0.866   5.031   2.501
 1012SOL     OW 3934   5.968   0.473   2.472
 1012SOL    HW1 3935   6.002   0.394   2.420
 1012SOL    HW2 3936   5.905   0.526   2.415
 1013SOL     OW 3937   6.956   0.593   5.971
 1013SOL    HW1 3938   6.959   0.504   6.018
 1013SOL    HW2 3939   6.861   0.620   5.956
 1014SOL     OW 3940   1.401   5.097   3.994
 1014SOL    HW1 3941   1.355   5.010   3.972
 1014SOL    HW2 3942   1.454   5.086   4.078
 1015SOL     OW 3943   3.392   0.338   6.373
 1015SOL    HW1 3944   3.398   0.249   6.419
 1015SOL    HW2 3945   3.405   0.325   6.275
 1016SOL     OW 3946   5.007   4.260   1.624
 1016SOL    HW1 3947   5.085   4.242   1.683
 1016SOL    HW2 3948   5.003   4.357   1.601
 1017SOL     OW 3949   1.823   1.420   2.003
 1017SOL    HW1 3950   1.905   1.476   2.003
 1017SOL    HW2 3951   1.809   1.381   2.094
 1018SOL     OW 3952   0.205   5.333   3.810
 1018SOL    HW1 3953   0.240   5.352   3.719
 1018SOL    HW2 3954   0.135   5.261   3.804
 1019SOL     OW 3955   0.064   5.024   0.326
 1019SOL    HW1 3956   7.009   5.060   0.377
 1019SOL    HW2 3957   0.031   4.966   0.251
 1020SOL     OW 3958   0.085   0.395   1.376
 1020SOL    HW1 3959   0.057   0.348   1.292
 1020SOL    HW2 3960   0.148   0.336   1.427
 1021SOL     OW 3961   6.057   5.696   1.571
 1021SOL    HW1 3962   5.975   5.748   1.594
 1021SOL    HW2 3963   6.058   5.676   1.473
 1022SOL     OW 3964   2.516   6.495   6.323
 1022SOL    HW1 3965   2.488   6.403   6.353
 1022SOL    HW2 3966   2.442   6.559   6.342
 1023SOL     OW 3967   0.147   1.690   3.363
 1023SOL    HW1 3968   0.236   1.645   3.370
 1023SOL    HW2 3969   0.081   1.644   3.423
 1024SOL     OW 3970   1.371   2.004   4.805
 1024SOL    HW1 3971   1.403   2.098   4.795
 1024SOL    HW2 3972   1.310   1.981   4.730
 1025SOL     OW 3973   4.954   3.915   0.108
 1025SOL    HW1 3974   5.020   3.945   0.039
 1025SOL    HW2 3975   5.002   3.887   0.191
 1026SOL     OW 3976   3.088   2.589   1.272
 1026SOL    HW1 3977   3.145   2.666   1.300
 1026SOL    HW2 3978   3.007   2.584   1.331
 1027SOL     OW 3979   1.199   6.394   1.415
 1027SOL    HW1 3980   1.113   6.407   1.464
 1027SOL    HW2 3981   1.275   6.423   1.473
 1028SOL     OW 3982   0.981   5.965   3.052
 1028SOL    HW1 3983   1.002   5.898   3.123
 1028SOL    HW2 3984   0.941   6.046   3.094
 1029SOL     OW 3985   1.508   1.961   5.811
 1029SOL    HW1 3986   1.564   1.884   5.780
 1029SOL    HW2 3987   1.415   1.929   5.830
 1030SOL     OW 3988   3.251   3.460   1.571
 1030SOL    HW1 3989   3.173   3.513   1.537
 1030SOL    HW2 3990   3.336   3.512   1.556
 1031SOL     OW 3991   3.643   3.442   1.516
 1031SOL    HW1 3992   3.574   3.514   1.523
 1031SOL    HW2 3993   3.666   3.427   1.420
 1032SOL     OW 3994   2.079   1.442   6.022
 1032SOL    HW1 3995   2.006   1.452   6.090
 1032SOL    HW2 3996   2.074   1.517   5.956
 1033SOL     OW 3997   0.771   6.069   2.411
 1033SOL    HW1 3998   0.814   5.978   2.416
 1033SOL    HW2 3999   0.842   6.138   2.400
 1034SOL     OW 4000   3.582   6.833   4.656
 1034SOL    HW1 4001   3.605   6.896   4.582
 1034SOL    HW2 4002   3.493   6.857   4.695
 1035SOL     OW 4003   0.650   1.442   5.949
 1035SOL    HW1 4004   0.704   1.486   6.022
 1035SOL    HW2 4005   0.697   1.453   5.862
 1036SOL     OW 4006   5.088   1.690   1.180
 1036SOL    HW1 4007   5.096   1.670   1.083
 1036SOL    HW2 4008   5.108   1.787   1.196
 1037SOL     OW 4009   1.950   2.429   2.679
 1037SOL    HW1 4010   1.887   2.354   2.661
 1037SOL    HW2 4011   1.915   2.513   2.637
 1038SOL     OW 4012   3.040   0.451   6.968
 1038SOL    HW1 4013   3.049   0.439   6.869
 1038SOL    HW2 4014   3.034   0.548   6.989
 1039SOL     OW 4015   3.403   3.184   3.626
 1039SOL    HW1 4016   3.379   3.258   3.564
 1039SOL    HW2 4017   3.479   3.131   3.588
 1040SOL     OW 4018   3.969   1.028   2.887
 1040SOL    HW1 4019   3.937   1.010   2.981
 1040SOL    HW2 4020   3.941   0.952   2.828
 1041SOL     OW 4021   6.471   6.374   5.334
 1041SOL    HW1 4022   6.557   6.418   5.308
 1041SOL    HW2 4023   6.396   6.439   5.321
 1042SOL     OW 4024   4.754   4.555   2.270
 1042SOL    HW1 4025   4.671   4.550   2.216
 1042SOL    HW2 4026   4.741   4.618   2.346
 1043SOL     OW 4027   3.210   1.217   3.291
 1043SOL    HW1 4028   3.123   1.169   3.295
 1043SOL    HW2 4029   3.283   1.158   3.325
 1044SOL     OW 4030   5.829   4.478   1.315
 1044SOL    HW1 4031   5.773   4.438   1.387
 1044SOL    HW2 4032   5.876   4.405   1.264
 1045SOL     OW 4033   2.380   0.900   3.897
 1045SOL    HW1 4034   2.356   0.897   3.994
 1045SOL    HW2 4035   2.372   0.994   3.864
 1046SOL     OW 4036   3.430   1.225   1.070
 1046SOL    HW1 4037   3.387   1.138   1.097
 1046SOL    HW2 4038   3.386   1.300   1.119
 1047SOL     OW 4039   3.029   0.172   3.305
 1047SOL    HW1 4040   3.051   0.120   3.388
 1047SOL    HW2 4041   2.993   0.262   3.331
 1048SOL     OW 4042   2.102   5.886   2.013
 1048SOL    HW1 4043   2.045   5.812   2.050
 1048SOL    HW2 4044   2.198   5.863   2.025
 1049SOL     OW 4045   3.787   0.044   5.281
 1049SOL    HW1 4046   3.846   0.086   5.349
 1049SOL    HW2 4047   3.723   7.004   5.327
 1050SOL     OW 4048   3.598   5.037   4.006
 1050SOL    HW1 4049   3.665   5.107   3.981
 1050SOL    HW2 4050   3.535   5.022   3.929
 1051SOL     OW 4051   0.217   6.979   0.296
 1051SOL    HW1 4052   0.256   6.932   0.217
 1051SOL    HW2 4053   0.118   6.972   0.295
 1052SOL     OW 4054   3.945   0.418   6.532
 1052SOL    HW1 4055   4.008   0.433   6.608
 1052SOL    HW2 4056   3.997   0.397   6.449
 1053SOL     OW 4057   6.115   3.499   2.389
 1053SOL    HW1 4058   6.207   3.519   2.357
 1053SOL    HW2 4059   6.054   3.574   2.365
 1054SOL     OW 4060   3.658   4.381   0.337
 1054SOL    HW1 4061   3.682   4.431   0.420
 1054SOL    HW2 4062   3.722   4.306   0.324
 1055SOL     OW 4063   4.066   5.763   6.714
 1055SOL    HW1 4064   4.092   5.791   6.806
 1055SOL    HW2 4065   3.978   5.804   6.690
 1056SOL     OW 4066   2.528   4.486   0.382
 1056SOL    HW1 4067   2.575   4.420   0.442
 1056SOL    HW2 4068   2.595   4.542   0.335
 1057SOL     OW 4069   3.561   1.932   1.505
 1057SOL    HW1 4070   3.557   1.966   1.411
 1057SOL    HW2 4071   3.584   2.007   1.566
 1058SOL     OW 4072   3.545   2.156   2.726
 1058SOL    HW1 4073   3.449   2.183   2.732
 1058SOL    HW2 4074   3.583   2.145   2.818
 1059SOL     OW 4075   2.367   6.207   1.561
 1059SOL    HW1 4076   2.358   6.307   1.571
 1059SOL    HW2 4077   2.381   6.166   1.651
 1060SOL     OW 4078   0.216   5.747   5.200
 1060SOL    HW1 4079   0.180   5.830   5.243
 1060SOL    HW2 4080   0.179   5.739   5.107
 1061SOL     OW 4081   6.969   4.237   0.479
 1061SOL    HW1 4082   0.031   4.245   0.531
 1061SOL    HW2 4083   6.931   4.145   0.491
 1062SOL     OW 4084   3.755   6.241   5.066
 1062SOL    HW1 4085   3.809   6.317   5.029
 1062SOL    HW2 4086   3.745   6.170   4.997
 1063SOL     OW 4087   1.446   6.652   5.444
 1063SOL    HW1 4088   1.505   6.588   5.395
 1063SOL    HW2 4089   1.502   6.725   5.482
 1064SOL     OW 4090   0.523   4.334   0.980
 1064SOL    HW1 4091   0.621   4.343   0.995
 1064SOL    HW2 4092   0.478   4.421   1.000
 1065SOL     OW 4093   3.627   0.581   4.894
 1065SOL    HW1 4094   3.695   0.533   4.949
 1065SOL    HW2 4095   3.667   0.666   4.857
 1066SOL     OW 4096   4.456   0.810   2.178
 1066SOL    HW1 4097   4.445   0.733   2.241
 1066SOL    HW2 4098   4.553   0.824   2.159
 1067SOL     OW 4099   2.887   1.373   0.522
 1067SOL    HW1 4100   2.922   1.451   0.573
 1067SOL    HW2 4101   2.960   1.333   0.466
 1068SOL     OW 4102   5.948   3.368   1.193
 1068SOL    HW1 4103   5.904   3.279   1.177
 1068SOL    HW2 4104   5.956   3.383   1.292
 1069SOL     OW 4105   6.271   4.271   0.948
 1069SOL    HW1 4106   6.241   4.196   1.007
 1069SOL    HW2 4107   6.203   4.286   0.876
 1070SOL     OW 4108   2.053   0.753   2.323
 1070SOL    HW1 4109   1.956   0.737   2.302
 1070SOL    HW2 4110   2.097   0.796   2.244
 1071SOL     OW 4111   6.608   2.317   4.884
 1071SOL    HW1 4112   6.682   2.263   4.844
 1071SOL    HW2 4113   6.575   2.384   4.818
 1072SOL     OW 4114   3.442   1.176   2.168
 1072SOL    HW1 4115   3.437   1.249   2.099
 1072SOL    HW2 4116   3.366   1.186   2.232
 1073SOL     OW 4117   5.278   1.816   3.278
 1073SOL    HW1 4118   5.284   1.916   3.281
 1073SOL    HW2 4119   5.348   1.781   3.215
 1074SOL     OW 4120   3.258   4.958   1.630
 1074SOL    HW1 4121   3.185   5.024   1.648
 1074SOL    HW2 4122   3.327   4.965   1.702
 1075SOL     OW 4123   5.704   2.118   5.290
 1075SOL    HW1 4124   5.636   2.170   5.238
 1075SOL    HW2 4125   5.675   2.023   5.297
 1076SOL     OW 4126   2.169   3.920   4.909
 1076SOL    HW1 4127   2.242   3.928   4.978
 1076SOL    HW2 4128   2.195   3.972   4.827
 1077SOL     OW 4129   6.851   0.466   6.867
 1077SOL    HW1 4130   6.904   0.387   6.834
 1077SOL    HW2 4131   6.878   0.487   6.961
 1078SOL     OW 4132   6.941   6.448   3.942
 1078SOL    HW1 4133   6.898   6.472   4.029
 1078SOL    HW2 4134   7.012   6.380   3.959
 1079SOL     OW 4135   1.432   6.030   2.383
 1079SOL    HW1 4136   1.372   6.002   2.457
 1079SOL    HW2 4137   1.512   5.971   2.380
 1080SOL     OW 4138   2.454   5.414   5.162
 1080SOL    HW1 4139   2.417   5.500   5.197
 1080SOL    HW2 4140   2.383   5.367   5.110
 1081SOL     OW 4141   6.225   5.693   4.623
 1081SOL    HW1 4142   6.168   5.612   4.606
 1081SOL    HW2 4143   6.206   5.762   4.554
 1082SOL     OW 4144   5.735   6.850   5.965
 1082SOL    HW1 4145   5.809   6.800   6.010
 1082SOL    HW2 4146   5.656   6.790   5.954
 1083SOL     OW 4147   4.832   3.963   1.034
 1083SOL    HW1 4148   4.778   4.013   0.967
 1083SOL    HW2 4149   4.918   4.010   1.051
 1084SOL     OW 4150   0.178   0.039   6.625
 1084SOL    HW1 4151   0.240   0.112   6.596
 1084SOL    HW2 4152   0.090   0.049   6.579
 1085SOL     OW 4153   1.771   3.940   3.960
 1085SOL    HW1 4154   1.788   3.842   3.962
 1085SOL    HW2 4155   1.686   3.961   4.009
 1086SOL     OW 4156   6.451   4.202   6.490
 1086SOL    HW1 4157   6.529   4.140   6.484
 1086SOL    HW2 4158   6.454   4.266   6.413
 1087SOL     OW 4159   1.704   0.282   5.521
 1087SOL    HW1 4160   1.685   0.379   5.536
 1087SOL    HW2 4161   1.631   0.227   5.562
 1088SOL     OW 4162   0.125   4.738   3.627
 1088SOL    HW1 4163   0.189   4.686   3.685
 1088SOL    HW2 4164   0.034   4.699   3.636
 1089SOL     OW 4165   6.921   4.796   4.671
 1089SOL    HW1 4166   6.883   4.812   4.762
 1089SOL    HW2 4167   6.940   4.884   4.627
 1090SOL     OW 4168   5.602   1.794   4.466
 1090SOL    HW1 4169   5.666   1.766   4.538
 1090SOL    HW2 4170   5.519   1.830   4.508
 1091SOL     OW 4171   2.190   3.136   3.870
 1091SOL    HW1 4172   2.194   3.059   3.807
 1091SOL    HW2 4173   2.279   3.182   3.873
 1092SOL     OW 4174   1.063   4.664   0.895
 1092SOL    HW1 4175   1.086   4.759   0.920
 1092SOL    HW2 4176   0.965   4.658   0.878
 1093SOL     OW 4177   2.431   6.514   1.267
 1093SOL    HW1 4178   2.338   6.480   1.285
 1093SOL    HW2 4179   2.492   6.436   1.249
 1094SOL     OW 4180   1.104   0.419   2.977
 1094SOL    HW1 4181   1.023   0.386   3.025
 1094SOL    HW2 4182   1.175   0.444   3.043
 1095SOL     OW 4183   6.852   3.047   6.976
 1095SOL    HW1 4184   6.819   3.011   0.041
 1095SOL    HW2 4185   6.777   3.047   6.910
 1096SOL     OW 4186   2.654   5.504   1.083
 1096SOL    HW1 4187   2.714   5.521   1.162
 1096SOL    HW2 4188   2.613   5.590   1.054
 1097SOL     OW 4189   2.448   5.368   3.523
 1097SOL    HW1 4190   2.408   5.423   3.597
 1097SOL    HW2 4191   2.390   5.288   3.507
 1098SOL     OW 4192   5.853   4.463   0.209
 1098SOL    HW1 4193   5.851   4.467   0.109
 1098SOL    HW2 4194   5.795   4.387   0.240
 1099SOL     OW 4195   4.479   1.520   6.122
 1099SOL    HW1 4196   4.448   1.467   6.201
 1099SOL    HW2 4197   4.412   1.511   6.049
 1100SOL     OW 4198   3.934   0.936   3.867
 1100SOL    HW1 4199   3.971   1.029   3.874
 1100SOL    HW2 4200   4.009   0.870   3.866
 1101SOL     OW 4201   5.842   3.423   5.324
 1101SOL    HW1 4202   5.906   3.361   5.369
 1101SOL    HW2 4203   5.785   3.372   5.260
 1102SOL     OW 4204   2.299   0.677   4.367
 1102SOL    HW1 4205   2.221   0.681   4.430
 1102SOL    HW2 4206   2.384   0.680   4.419
 1103SOL     OW 4207   2.847   0.776   6.573
 1103SOL    HW1 4208   2.817   0.691   6.616
 1103SOL    HW2 4209   2.829   0.771   6.474
 1104SOL     OW 4210   0.925   4.142   3.015
 1104SOL    HW1 4211   0.983   4.067   2.985
 1104SOL    HW2 4212   0.980   4.226   3.023
 1105SOL     OW 4213   5.315   1.594   5.153
 1105SOL    HW1 4214   5.361   1.678   5.126
 1105SOL    HW2 4215   5.336   1.573   5.248
 1106SOL     OW 4216   0.618   1.269   0.267
 1106SOL    HW1 4217   0.672   1.211   0.328
 1106SOL    HW2 4218   0.660   1.359   0.262
 1107SOL     OW 4219   0.990   0.695   6.830
 1107SOL    HW1 4220   0.927   0.762   6.790
 1107SOL    HW2 4221   1.072   0.687   6.773
 1108SOL     OW 4222   3.210   6.319   4.361
 1108SOL    HW1 4223   3.158   6.404   4.373
 1108SOL    HW2 4224   3.290   6.336   4.305
 1109SOL     OW 4225   5.598   1.588   4.073
 1109SOL    HW1 4226   5.515   1.616   4.121
 1109SOL    HW2 4227   5.640   1.668   4.031
 1110SOL     OW 4228   3.511   0.918   2.931
 1110SOL    HW1 4229   3.545   0.830   2.962
 1110SOL    HW2 4230   3.419   0.907   2.893
 1111SOL     OW 4231   5.059   3.659   6.064
 1111SOL    HW1 4232   5.079   3.756   6.047
 1111SOL    HW2 4233   4.995   3.652   6.141
 1112SOL     OW 4234   6.192   0.755   2.464
 1112SOL    HW1 4235   6.100   0.759   2.504
 1112SOL    HW2 4236   6.252   0.817   2.513
 1113SOL     OW 4237   6.324   4.234   2.871
 1113SOL    HW1 4238   6.395   4.292   2.911
 1113SOL    HW2 4239   6.365   4.173   2.803
 1114SOL     OW 4240   4.269   2.519   6.097
 1114SOL    HW1 4241   4.252   2.613   6.128
 1114SOL    HW2 4242   4.254   2.456   6.173
 1115SOL     OW 4243   2.937   3.999   5.975
 1115SOL    HW1 4244   2.875   4.022   5.900
 1115SOL    HW2 4245   3.031   4.024   5.950
 1116SOL     OW 4246   5.468   0.913   6.658
 1116SOL    HW1 4247   5.533   0.987   6.639
 1116SOL    HW2 4248   5.376   0.942   6.633
 1117SOL     OW 4249   0.970   2.523   1.833
 1117SOL    HW1 4250   0.908   2.525   1.754
 1117SOL    HW2 4251   1.046   2.586   1.817
 1118SOL     OW 4252   3.123   5.413   0.076
 1118SOL    HW1 4253   3.221   5.400   0.062
 1118SOL    HW2 4254   3.086   5.337   0.130
 1119SOL     OW 4255   4.276   4.744   3.657
 1119SOL    HW1 4256   4.277   4.746   3.557
 1119SOL    HW2 4257   4.347   4.682   3.690
 1120SOL     OW 4258   6.519   5.515   0.909
 1120SOL    HW1 4259   6.598   5.531   0.851
 1120SOL    HW2 4260   6.476   5.602   0.933
 1121SOL     OW 4261   0.813   4.915   4.144
 1121SOL    HW1 4262   0.859   4.895   4.230
 1121SOL    HW2 4263   0.762   5.000   4.152
 1122SOL     OW 4264   5.630   2.754   2.403
 1122SOL    HW1 4265   5.684   2.705   2.472
 1122SOL    HW2 4266   5.534   2.756   2.431
 1123SOL     OW 4267   4.219   2.171   3.178
 1123SOL    HW1 4268   4.122   2.151   3.191
 1123SOL    HW2 4269   4.249   2.237   3.248
 1124SOL     OW 4270   1.971   2.934   4.898
 1124SOL    HW1 4271   2.027   2.922   4.981
 1124SOL    HW2 4272   1.992   2.862   4.833
 1125SOL     OW 4273   1.640   3.681   4.342
 1125SOL    HW1 4274   1.736   3.688   4.315
 1125SOL    HW2 4275   1.607   3.771   4.371
 1126SOL     OW 4276   4.393   5.851   5.506
 1126SOL    HW1 4277   4.416   5.812   5.595
 1126SOL    HW2 4278   4.413   5.949   5.507
 1127SOL     OW 4279   5.419   5.693   3.933
 1127SOL    HW1 4280   5.512   5.669   3.958
 1127SOL    HW2 4281   5.402   5.790   3.953
 1128SOL     OW 4282   6.196   1.530   3.726
 1128SOL    HW1 4283   6.102   1.505   3.702
 1128SOL    HW2 4284   6.223   1.609   3.672
 1129SOL     OW 4285   1.928   7.019   1.310
 1129SOL    HW1 4286   1.838   6.987   1.278
 1129SOL    HW2 4287   1.999   6.965   1.266
 1130SOL     OW 4288   2.072   5.179   3.077
 1130SOL    HW1 4289   2.149   5.150   3.133
 1130SOL    HW2 4290   2.094   5.267   3.033
 1131SOL     OW 4291   0.926   6.657   3.764
 1131SOL    HW1 4292   1.006   6.679   3.819
 1131SOL    HW2 4293   0.860   6.733   3.769
 1132SOL     OW 4294   4.051   1.115   3.263
 1132SOL    HW1 4295   4.006   1.053   3.199
 1132SOL    HW2 4296   4.007   1.204   3.260
 1133SOL     OW 4297   1.211   6.687   5.102
 1133SOL    HW1 4298   1.267   6.762   5.066
 1133SOL    HW2 4299   1.127   6.679   5.049
 1134SOL     OW 4300   4.876   0.182   1.372
 1134SOL    HW1 4301   4.895   0.200   1.468
 1134SOL    HW2 4302   4.891   0.085   1.353
 1135SOL     OW 4303   1.840   6.534   3.619
 1135SOL    HW1 4304   1.787   6.611   3.584
 1135SOL    HW2 4305   1.845   6.462   3.550
 1136SOL     OW 4306   2.771   5.990   2.702
 1136SOL    HW1 4307   2.710   5.911   2.707
 1136SOL    HW2 4308   2.786   6.014   2.607
 1137SOL     OW 4309   0.331   5.960   6.893
 1137SOL    HW1 4310   0.322   5.862   6.905
 1137SOL    HW2 4311   0.419   5.981   6.851
 1138SOL     OW 4312   2.131   2.884   5.103
 1138SOL    HW1 4313   2.212   2.927   5.141
 1138SOL    HW2 4314   2.110   2.800   5.153
 1139SOL     OW 4315   2.732   4.647   4.007
 1139SOL    HW1 4316   2.809   4.685   3.956
 1139SOL    HW2 4317   2.743   4.666   4.104
 1140SOL     OW 4318   2.065   1.245   1.889
 1140SOL    HW1 4319   2.151   1.194   1.900
 1140SOL    HW2 4320   2.078   1.318   1.821
 1141SOL     OW 4321   5.506   4.942   6.043
 1141SOL    HW1 4322   5.589   4.942   5.987
 1141SOL    HW2 4323   5.487   4.850   6.076
 1142SOL     OW 4324   2.391   0.162   3.073
 1142SOL    HW1 4325   2.476   0.176   3.024
 1142SOL    HW2 4326   2.356   0.070   3.055
 1143SOL     OW 4327   0.726   3.995   1.603
 1143SOL    HW1 4328   0.725   3.948   1.691
 1143SOL    HW2 4329   0.815   3.981   1.559
 1144SOL     OW 4330   5.508   4.530   2.468
 1144SOL    HW1 4331   5.558   4.569   2.391
 1144SOL    HW2 4332   5.483   4.435   2.446
 1145SOL     OW 4333   1.186   1.635   0.560
 1145SOL    HW1 4334   1.140   1.720   0.533
 1145SOL    HW2 4335   1.270   1.625   0.507
 1146SOL     OW 4336   0.765   0.937   1.736
 1146SOL    HW1 4337   0.790   1.004   1.806
 1146SOL    HW2 4338   0.848   0.891   1.704
 1147SOL     OW 4339   3.057   6.170   1.067
 1147SOL    HW1 4340   3.040   6.173   1.166
 1147SOL    HW2 4341   2.989   6.110   1.024
 1148SOL     OW 4342   3.775   6.103   1.961
 1148SOL    HW1 4343   3.809   6.036   2.028
 1148SOL    HW2 4344   3.685   6.135   1.991
 1149SOL     OW 4345   5.643   2.458   1.377
 1149SOL    HW1 4346   5.588   2.389   1.425
 1149SOL    HW2 4347   5.718   2.488   1.435
 1150SOL     OW 4348   1.479   3.955   6.625
 1150SOL    HW1 4349   1.572   3.989   6.630
 1150SOL    HW2 4350   1.480   3.857   6.604
 1151SOL     OW 4351   6.442   5.040   3.523
 1151SOL    HW1 4352   6.509   5.036   3.449
 1151SOL    HW2 4353   6.403   4.950   3.539
 1152SOL     OW 4354   4.877   0.944   6.804
 1152SOL    HW1 4355   4.974   0.945   6.779
 1152SOL    HW2 4356   4.828   1.014   6.752
 1153SOL     OW 4357   6.651   6.778   1.202
 1153SOL    HW1 4358   6.725   6.818   1.257
 1153SOL    HW2 4359   6.670   6.794   1.105
 1154SOL     OW 4360   1.430   3.641   2.163
 1154SOL    HW1 4361   1.469   3.569   2.104
 1154SOL    HW2 4362   1.475   3.639   2.252
 1155SOL     OW 4363   1.911   6.926   4.753
 1155SOL    HW1 4364   1.876   6.832   4.759
 1155SOL    HW2 4365   2.002   6.924   4.714
 1156SOL     OW 4366   3.892   1.826   4.854
 1156SOL    HW1 4367   3.933   1.770   4.925
 1156SOL    HW2 4368   3.963   1.880   4.808
 1157SOL     OW 4369   4.246   0.471   5.636
 1157SOL    HW1 4370   4.296   0.386   5.625
 1157SOL    HW2 4371   4.224   0.486   5.733
 1158SOL     OW 4372   5.454   5.859   3.337
 1158SOL    HW1 4373   5.399   5.937   3.364
 1158SOL    HW2 4374   5.395   5.789   3.296
 1159SOL     OW 4375   6.839   5.891   2.689
 1159SOL    HW1 4376   6.875   5.965   2.633
 1159SOL    HW2 4377   6.749   5.864   2.655
 1160SOL     OW 4378   4.128   6.898   0.841
 1160SOL    HW1 4379   4.159   6.926   0.932
 1160SOL    HW2 4380   4.084   6.975   0.796
 1161SOL     OW 4381   6.713   5.723   6.816
 1161SOL    HW1 4382   6.661   5.649   6.859
 1161SOL    HW2 4383   6.733   5.699   6.721
 1162SOL     OW 4384   2.024   3.112   5.329
 1162SOL    HW1 4385   2.051   3.034   5.386
 1162SOL    HW2 4386   2.060   3.099   5.237
 1163SOL     OW 4387   6.203   4.207   1.655
 1163SOL    HW1 4388   6.215   4.118   1.612
 1163SOL    HW2 4389   6.239   4.279   1.596
 1164SOL     OW 4390   5.367   2.052   4.380
 1164SOL    HW1 4391   5.312   2.133   4.397
 1164SOL    HW2 4392   5.378   2.001   4.465
 1165SOL     OW 4393   4.444   6.573   3.220
 1165SOL    HW1 4394   4.348   6.577   3.249
 1165SOL    HW2 4395   4.502   6.561   3.300
 1166SOL     OW 4396   2.304   6.679   6.376
 1166SOL    HW1 4397   2.297   6.672   6.476
 1166SOL    HW2 4398   2.296   6.776   6.349
 1167SOL     OW 4399   5.079   3.928   2.223
 1167SOL    HW1 4400   5.128   3.936   2.136
 1167SOL    HW2 4401   5.006   3.860   2.215
 1168SOL     OW 4402   5.745   2.604   2.624
 1168SOL    HW1 4403   5.767   2.698   2.651
 1168SOL    HW2 4404   5.715   2.552   2.703
 1169SOL     OW 4405   5.671   0.967   5.744
 1169SOL    HW1 4406   5.621   1.021   5.677
 1169SOL    HW2 4407   5.624   0.880   5.759
 1170SOL     OW 4408   4.940   0.214   3.335
 1170SOL    HW1 4409   4.994   0.296   3.321
 1170SOL    HW2 4410   4.843   0.238   3.336
 1171SOL     OW 4411   1.709   0.339   0.836
 1171SOL    HW1 4412   1.669   0.273   0.899
 1171SOL    HW2 4413   1.636   0.390   0.789
 1172SOL     OW 4414   6.527   3.580   0.596
 1172SOL    HW1 4415   6.484   3.524   0.525
 1172SOL    HW2 4416   6.501   3.544   0.686
 1173SOL     OW 4417   2.923   1.177   1.422
 1173SOL    HW1 4418   2.964   1.224   1.500
 1173SOL    HW2 4419   2.953   1.221   1.337
 1174SOL     OW 4420   3.824   3.700   1.261
 1174SOL    HW1 4421   3.862   3.756   1.188
 1174SOL    HW2 4422   3.792   3.613   1.225
 1175SOL     OW 4423   4.055   3.086   5.601
 1175SOL    HW1 4424   4.107   3.134   5.671
 1175SOL    HW2 4425   3.960   3.115   5.604
 1176SOL     OW 4426   5.125   3.475   5.865
 1176SOL    HW1 4427   5.183   3.398   5.892
 1176SOL    HW2 4428   5.128   3.545   5.936
 1177SOL     OW 4429   5.935   2.274   4.708
 1177SOL    HW1 4430   5.849   2.310   4.673
 1177SOL    HW2 4431   6.007   2.283   4.639
 1178SOL     OW 4432   3.079   4.326   0.746
 1178SOL    HW1 4433   3.061   4.372   0.833
 1178SOL    HW2 4434   3.177   4.324   0.729
 1179SOL     OW 4435   2.422   6.037   0.379
 1179SOL    HW1 4436   2.411   6.128   0.417
 1179SOL    HW2 4437   2.347   5.978   0.411
 1180SOL     OW 4438   3.522   5.803   1.537
 1180SOL    HW1 4439   3.524   5.810   1.437
 1180SOL    HW2 4440   3.616   5.799   1.571
 1181SOL     OW 4441   0.478   5.403   6.788
 1181SOL    HW1 4442   0.420   5.414   6.708
 1181SOL    HW2 4443   0.537   5.323   6.777
 1182SOL     OW 4444   3.448   5.575   2.916
 1182SOL    HW1 4445   3.509   5.577   2.836
 1182SOL    HW2 4446   3.366   5.628   2.896
 1183SOL     OW 4447   1.843   4.553   6.906
 1183SOL    HW1 4448   1.796   4.622   6.850
 1183SOL    HW2 4449   1.786   4.470   6.911
 1184SOL     OW 4450   0.855   0.504   4.652
 1184SOL    HW1 4451   0.883   0.455   4.570
 1184SOL    HW2 4452   0.866   0.603   4.636
 1185SOL     OW 4453   6.736   0.986   6.251
 1185SOL    HW1 4454   6.738   0.918   6.325
 1185SOL    HW2 4455   6.676   1.061   6.278
 1186SOL     OW 4456   4.925   5.787   4.393
 1186SOL    HW1 4457   4.871   5.835   4.324
 1186SOL    HW2 4458   4.878   5.792   4.481
 1187SOL     OW 4459   6.826   6.903   6.730
 1187SOL    HW1 4460   6.876   6.966   6.789
 1187SOL    HW2 4461   6.880   6.820   6.717
 1188SOL     OW 4462   2.825   6.049   4.708
 1188SOL    HW1 4463   2.857   5.978   4.646
 1188SOL    HW2 4464   2.860   6.032   4.800
 1189SOL     OW 4465   6.952   3.483   2.631
 1189SOL    HW1 4466   6.892   3.424   2.685
 1189SOL    HW2 4467   6.965   3.444   2.540
 1190SOL     OW 4468   1.924   5.894   3.507
 1190SOL    HW1 4469   2.022   5.902   3.522
 1190SOL    HW2 4470   1.907   5.829   3.433
 1191SOL     OW 4471   4.082   4.911   3.365
 1191SOL    HW1 4472   4.166   4.922   3.419
 1191SOL    HW2 4473   4.093   4.834   3.303
 1192SOL     OW 4474   3.735   6.016   3.217
 1192SOL    HW1 4475   3.793   5.936   3.231
 1192SOL    HW2 4476   3.640   5.988   3.209
 1193SOL     OW 4477   5.847   4.617   4.496
 1193SOL    HW1 4478   5.761   4.661   4.521
 1193SOL    HW2 4479   5.919   4.686   4.493
 1194SOL     OW 4480   5.538   0.367   1.826
 1194SOL    HW1 4481   5.576   0.372   1.918
 1194SOL    HW2 4482   5.530   0.459   1.788
 1195SOL     OW 4483   6.084   4.973   1.982
 1195SOL    HW1 4484   6.136   5.058   1.981
 1195SOL    HW2 4485   5.986   4.993   1.975
 1196SOL     OW 4486   0.471   6.207   3.234
 1196SOL    HW1 4487   0.507   6.227   3.143
 1196SOL    HW2 4488   0.372   6.198   3.229
 1197SOL     OW 4489   3.304   0.863   0.038
 1197SOL    HW1 4490   3.324   0.920   0.118
 1197SOL    HW2 4491   3.209   0.875   0.010
 1198SOL     OW 4492   0.910   2.696   1.136
 1198SOL    HW1 4493   0.980   2.624   1.136
 1198SOL    HW2 4494   0.951   2.782   1.167
 1199SOL     OW 4495   4.439   5.102   1.629
 1199SOL    HW1 4496   4.529   5.102   1.586
 1199SOL    HW2 4497   4.403   5.009   1.632
 1200SOL     OW 4498   3.467   3.283   2.585
 1200SOL    HW1 4499   3.452   3.208   2.521
 1200SOL    HW2 4500   3.542   3.259   2.647
 1201SOL     OW 4501   1.054   0.909   4.719
 1201SOL    HW1 4502   1.108   0.985   4.755
 1201SOL    HW2 4503   1.114   0.846   4.670
 1202SOL     OW 4504   1.092   5.906   6.376
 1202SOL    HW1 4505   1.095   5.992   6.426
 1202SOL    HW2 4506   1.050   5.922   6.286
 1203SOL     OW 4507   5.037   6.107   6.405
 1203SOL    HW1 4508   4.994   6.056   6.480
 1203SOL    HW2 4509   4.968   6.165   6.361
 1204SOL     OW 4510   2.408   0.206   1.697
 1204SOL    HW1 4511   2.387   0.184   1.793
 1204SOL    HW2 4512   2.336   0.265   1.660
 1205SOL     OW 4513   4.733   4.370   1.530
 1205SOL    HW1 4514   4.745   4.427   1.611
 1205SOL    HW2 4515   4.794   4.291   1.534
 1206SOL     OW 4516   3.182   2.941   4.667
 1206SOL    HW1 4517   3.215   2.951   4.761
 1206SOL    HW2 4518   3.112   2.869   4.664
 1207SOL     OW 4519   2.561   7.020   1.585
 1207SOL    HW1 4520   2.474   0.040   1.611
 1207SOL    HW2 4521   2.615   0.064   1.534
 1208SOL     OW 4522   3.627   3.751   0.014
 1208SOL    HW1 4523   3.571   3.810   6.978
 1208SOL    HW2 4524   3.717   3.791   0.025
 1209SOL     OW 4525   3.717   0.318   5.566
 1209SOL    HW1 4526   3.764   0.379   5.630
 1209SOL    HW2 4527   3.703   0.365   5.479
 1210SOL     OW 4528   2.743   6.811   3.514
 1210SOL    HW1 4529   2.809   6.736   3.514
 1210SOL    HW2 4530   2.681   6.800   3.436
 1211SOL     OW 4531   1.623   3.497   1.091
 1211SOL    HW1 4532   1.629   3.400   1.115
 1211SOL    HW2 4533   1.685   3.517   1.015
 1212SOL     OW 4534   0.423   0.449   6.238
 1212SOL    HW1 4535   0.461   0.524   6.184
 1212SOL    HW2 4536   0.326   0.466   6.254
 1213SOL     OW 4537   5.812   2.719   0.142
 1213SOL    HW1 4538   5.909   2.708   0.124
 1213SOL    HW2 4539   5.774   2.787   0.079
 1214SOL     OW 4540   6.970   2.163   1.023
 1214SOL    HW1 4541   0.002   2.101   0.966
 1214SOL    HW2 4542   0.008   2.206   1.091
 1215SOL     OW 4543   1.501   4.363   4.399
 1215SOL    HW1 4544   1.601   4.359   4.398
 1215SOL    HW2 4545   1.465   4.318   4.317
 1216SOL     OW 4546   4.210   0.452   0.223
 1216SOL    HW1 4547   4.214   0.480   0.319
 1216SOL    HW2 4548   4.232   0.354   0.216
 1217SOL     OW 4549   1.709   4.658   0.360
 1217SOL    HW1 4550   1.804   4.686   0.365
 1217SOL    HW2 4551   1.673   4.644   0.453
 1218SOL     OW 4552   1.623   4.719   4.548
 1218SOL    HW1 4553   1.678   4.787   4.596
 1218SOL    HW2 4554   1.684   4.662   4.492
 1219SOL     OW 4555   4.837   5.684   2.152
 1219SOL    HW1 4556   4.786   5.601   2.130
 1219SOL    HW2 4557   4.893   5.711   2.073
 1220SOL     OW 4558   1.349   5.118   3.022
 1220SOL    HW1 4559   1.413   5.194   3.029
 1220SOL    HW2 4560   1.304   5.104   3.111
 1221SOL     OW 4561   5.376   2.947   5.787
 1221SOL    HW1 4562   5.322   3.025   5.755
 1221SOL    HW2 4563   5.347   2.923   5.879
 1222SOL     OW 4564   6.014   6.810   7.017
 1222SOL    HW1 4565   6.051   6.743   6.952
 1222SOL    HW2 4566   6.022   6.901   6.978
 1223SOL     OW 4567   3.982   0.445   0.546
 1223SOL    HW1 4568   3.953   0.540   0.542
 1223SOL    HW2 4569   3.956   0.405   0.634
 1224SOL     OW 4570   2.331   6.861   1.295
 1224SOL    HW1 4571   2.296   6.937   1.240
 1224SOL    HW2 4572   2.410   6.821   1.248
 1225SOL     OW 4573   3.154   4.143   6.166
 1225SOL    HW1 4574   3.130   4.198   6.086
 1225SOL    HW2 4575   3.072   4.099   6.202
 1226SOL     OW 4576   2.476   4.257   1.413
 1226SOL    HW1 4577   2.436   4.207   1.489
 1226SOL    HW2 4578   2.502   4.349   1.443
 1227SOL     OW 4579   6.638   3.051   6.791
 1227SOL    HW1 4580   6.600   3.004   6.711
 1227SOL    HW2 4581   6.605   3.145   6.794
 1228SOL     OW 4582   3.771   2.763   6.729
 1228SOL    HW1 4583   3.679   2.800   6.737
 1228SOL    HW2 4584   3.778   2.709   6.645
 1229SOL     OW 4585   4.661   4.656   6.407
 1229SOL    HW1 4586   4.745   4.612   6.437
 1229SOL    HW2 4587   4.671   4.689   6.313
 1230SOL     OW 4588   4.245   0.622   4.327
 1230SOL    HW1 4589   4.149   0.650   4.333
 1230SOL    HW2 4590   4.256   0.529   4.361
 1231SOL     OW 4591   1.984   3.877   5.107
 1231SOL    HW1 4592   2.009   3.952   5.167
 1231SOL    HW2 4593   2.038   3.882   5.023
 1232SOL     OW 4594   1.084   2.829   5.528
 1232SOL    HW1 4595   1.020   2.850   5.603
 1232SOL    HW2 4596   1.163   2.889   5.535
 1233SOL     OW 4597   1.343   2.707   5.604
 1233SOL    HW1 4598   1.311   2.802   5.605
 1233SOL    HW2 4599   1.264   2.646   5.593
 1234SOL     OW 4600   6.768   4.631   4.505
 1234SOL    HW1 4601   6.803   4.700   4.568
 1234SOL    HW2 4602   6.674   4.654   4.479
 1235SOL     OW 4603   6.666   5.373   2.443
 1235SOL    HW1 4604   6.756   5.350   2.407
 1235SOL    HW2 4605   6.644   5.313   2.519
 1236SOL     OW 4606   5.203   1.119   6.433
 1236SOL    HW1 4607   5.262   1.043   6.405
 1236SOL    HW2 4608   5.256   1.204   6.435
 1237SOL     OW 4609   2.712   4.527   6.034
 1237SOL    HW1 4610   2.733   4.572   5.948
 1237SOL    HW2 4611   2.695   4.596   6.105
 1238SOL     OW 4612   2.208   1.084   1.408
 1238SOL    HW1 4613   2.160   1.001   1.381
 1238SOL    HW2 4614   2.233   1.136   1.327
 1239SOL     OW 4615   0.366   5.934   6.532
 1239SOL    HW1 4616   0.291   5.949   6.597
 1239SOL    HW2 4617   0.441   5.886   6.577
 1240SOL     OW 4618   5.500   6.195   1.766
 1240SOL    HW1 4619   5.571   6.198   1.695
 1240SOL    HW2 4620   5.540   6.216   1.855
 1241SOL     OW 4621   6.460   3.491   4.674
 1241SOL    HW1 4622   6.523   3.485   4.597
 1241SOL    HW2 4623   6.391   3.419   4.666
 1242SOL     OW 4624   1.768   3.470   0.228
 1242SOL    HW1 4625   1.833   3.511   0.163
 1242SOL    HW2 4626   1.744   3.538   0.298
 1243SOL     OW 4627   2.348   5.251   5.365
 1243SOL    HW1 4628   2.361   5.312   5.287
 1243SOL    HW2 4629   2.331   5.158   5.332
 1244SOL     OW 4630   0.238   0.684   3.006
 1244SOL    HW1 4631   0.301   0.609   3.026
 1244SOL    HW2 4632   0.267   0.730   2.922
 1245SOL     OW 4633   2.828   3.267   6.915
 1245SOL    HW1 4634   2.820   3.356   6.960
 1245SOL    HW2 4635   2.879   3.278   6.829
 1246SOL     OW 4636   2.205   6.513   2.240
 1246SOL    HW1 4637   2.231   6.417   2.241
 1246SOL    HW2 4638   2.114   6.523   2.280
 1247SOL     OW 4639   3.049   6.966   6.168
 1247SOL    HW1 4640   2.967   6.937   6.217
 1247SOL    HW2 4641   3.127   6.967   6.232
 1248SOL     OW 4642   1.364   6.437   3.699
 1248SOL    HW1 4643   1.443   6.401   3.650
 1248SOL    HW2 4644   1.308   6.361   3.733
 1249SOL     OW 4645   5.769   3.605   3.203
 1249SOL    HW1 4646   5.861   3.622   3.168
 1249SOL    HW2 4647   5.768   3.521   3.257
 1250SOL     OW 4648   1.415   4.573   4.544
 1250SOL    HW1 4649   1.483   4.645   4.530
 1250SOL    HW2 4650   1.447   4.488   4.503
 1251SOL     OW 4651   4.194   0.971   4.443
 1251SOL    HW1 4652   4.185   0.941   4.538
 1251SOL    HW2 4653   4.285   1.009   4.428
 1252SOL     OW 4654   3.516   3.549   6.046
 1252SOL    HW1 4655   3.469   3.609   6.111
 1252SOL    HW2 4656   3.449   3.488   6.003
 1253SOL     OW 4657   3.498   5.443   2.283
 1253SOL    HW1 4658   3.454   5.464   2.371
 1253SOL    HW2 4659   3.456   5.361   2.244
 1254SOL     OW 4660   6.245   2.174   3.405
 1254SOL    HW1 4661   6.217   2.250   3.464
 1254SOL    HW2 4662   6.336   2.192   3.367
 1255SOL     OW 4663   0.350   0.247   5.423
 1255SOL    HW1 4664   0.399   0.180   5.369
 1255SOL    HW2 4665   0.305   0.313   5.363
 1256SOL     OW 4666   6.485   0.319   2.283
 1256SOL    HW1 4667   6.573   0.363   2.304
 1256SOL    HW2 4668   6.410   0.377   2.315
 1257SOL     OW 4669   6.836   0.798   3.160
 1257SOL    HW1 4670   6.787   0.725   3.207
 1257SOL    HW2 4671   6.868   0.865   3.227
 1258SOL     OW 4672   1.178   6.160   3.034
 1258SOL    HW1 4673   1.174   6.061   3.016
 1258SOL    HW2 4674   1.086   6.198   3.031
 1259SOL     OW 4675   4.207   2.017   5.660
 1259SOL    HW1 4676   4.176   2.022   5.565
 1259SOL    HW2 4677   4.140   1.965   5.714
 1260SOL     OW 4678   0.919   1.156   6.798
 1260SOL    HW1 4679   0.871   1.141   6.712
 1260SOL    HW2 4680   0.896   1.083   6.863
 1261SOL     OW 4681   0.497   5.115   0.169
 1261SOL    HW1 4682   0.461   5.151   0.083
 1261SOL    HW2 4683   0.461   5.023   0.183
 1262SOL     OW 4684   5.558   5.693   1.835
 1262SOL    HW1 4685   5.638   5.660   1.785
 1262SOL    HW2 4686   5.583   5.770   1.893
 1263SOL     OW 4687   0.718   2.029   2.328
 1263SOL    HW1 4688   0.790   1.967   2.300
 1263SOL    HW2 4689   0.711   2.104   2.262
 1264SOL     OW 4690   1.077   3.604   5.295
 1264SOL    HW1 4691   1.160   3.623   5.243
 1264SOL    HW2 4692   1.058   3.682   5.355
 1265SOL     OW 4693   6.251   5.532   5.377
 1265SOL    HW1 4694   6.222   5.624   5.406
 1265SOL    HW2 4695   6.347   5.519   5.401
 1266SOL     OW 4696   1.387   0.838   4.876
 1266SOL    HW1 4697   1.486   0.853   4.883
 1266SOL    HW2 4698   1.341   0.926   4.858
 1267SOL     OW 4699   4.698   0.738   2.072
 1267SOL    HW1 4700   4.708   0.722   1.974
 1267SOL    HW2 4701   4.698   0.650   2.120
 1268SOL     OW 4702   4.140   2.392   5.358
 1268SOL    HW1 4703   4.227   2.343   5.358
 1268SOL    HW2 4704   4.148   2.475   5.302
 1269SOL     OW 4705   5.678   2.561   4.047
 1269SOL    HW1 4706   5.748   2.632   4.041
 1269SOL    HW2 4707   5.588   2.601   4.032
 1270SOL     OW 4708   1.570   4.544   2.527
 1270SOL    HW1 4709   1.538   4.487   2.603
 1270SOL    HW2 4710   1.504   4.541   2.452
 1271SOL     OW 4711   1.762   1.162   1.425
 1271SOL    HW1 4712   1.759   1.071   1.383
 1271SOL    HW2 4713   1.674   1.183   1.466
 1272SOL     OW 4714   6.596   4.081   0.198
 1272SOL    HW1 4715   6.600   4.176   0.229
 1272SOL    HW2 4716   6.666   4.066   0.128
 1273SOL     OW 4717   1.282   4.313   5.204
 1273SOL    HW1 4718   1.268   4.322   5.302
 1273SOL    HW2 4719   1.302   4.402   5.164
 1274SOL     OW 4720   0.532   4.950   1.973
 1274SOL    HW1 4721   0.510   5.046   1.994
 1274SOL    HW2 4722   0.495   4.891   2.045
 1275SOL     OW 4723   2.730   0.670   3.127
 1275SOL    HW1 4724   2.754   0.746   3.187
 1275SOL    HW2 4725   2.683   0.706   3.046
 1276SOL     OW 4726   5.404   4.732   4.299
 1276SOL    HW1 4727   5.369   4.797   4.232
 1276SOL    HW2 4728   5.369   4.641   4.278
 1277SOL     OW 4729   0.321   5.690   6.965
 1277SOL    HW1 4730   0.289   5.644   6.881
 1277SOL    HW2 4731   0.394   5.636   7.007
 1278SOL     OW 4732   1.038   6.040   2.487
 1278SOL    HW1 4733   1.050   6.087   2.399
 1278SOL    HW2 4734   0.987   6.100   2.549
 1279SOL     OW 4735   3.174   2.730   6.353
 1279SOL    HW1 4736   3.148   2.695   6.263
 1279SOL    HW2 4737   3.095   2.728   6.414
 1280SOL     OW 4738   3.271   1.465   3.162
 1280SOL    HW1 4739   3.259   1.371   3.193
 1280SOL    HW2 4740   3.243   1.474   3.067
 1281SOL     OW 4741   3.463   6.322   3.947
 1281SOL    HW1 4742   3.516   6.252   3.899
 1281SOL    HW2 4743   3.373   6.331   3.904
 1282SOL     OW 4744   6.821   2.961   0.915
 1282SOL    HW1 4745   6.897   2.896   0.928
 1282SOL    HW2 4746   6.790   2.992   1.005
 1283SOL     OW 4747   5.824   3.231   4.982
 1283SOL    HW1 4748   5.741   3.182   4.958
 1283SOL    HW2 4749   5.886   3.171   5.031
 1284SOL     OW 4750   3.607   1.424   1.363
 1284SOL    HW1 4751   3.625   1.516   1.399
 1284SOL    HW2 4752   3.631   1.422   1.265
 1285SOL     OW 4753   3.380   1.837   4.537
 1285SOL    HW1 4754   3.474   1.804   4.540
 1285SOL    HW2 4755   3.380   1.937   4.543
 1286SOL     OW 4756   5.145   2.321   1.573
 1286SOL    HW1 4757   5.047   2.326   1.593
 1286SOL    HW2 4758   5.191   2.398   1.616
 1287SOL     OW 4759   0.137   4.683   4.764
 1287SOL    HW1 4760   0.046   4.710   4.735
 1287SOL    HW2 4761   0.170   4.609   4.706
 1288SOL     OW 4762   4.422   3.967   6.091
 1288SOL    HW1 4763   4.326   3.940   6.089
 1288SOL    HW2 4764   4.429   4.064   6.067
 1289SOL     OW 4765   6.197   0.765   1.451
 1289SOL    HW1 4766   6.162   0.858   1.439
 1289SOL    HW2 4767   6.250   0.760   1.536
 1290SOL     OW 4768   1.548   0.297   6.840
 1290SOL    HW1 4769   1.456   0.299   6.800
 1290SOL    HW2 4770   1.540   0.296   6.940
 1291SOL     OW 4771   6.620   4.646   3.459
 1291SOL    HW1 4772   6.686   4.716   3.431
 1291SOL    HW2 4773   6.639   4.561   3.410
 1292SOL     OW 4774   0.563   5.930   1.872
 1292SOL    HW1 4775   0.663   5.932   1.875
 1292SOL    HW2 4776   0.532   5.859   1.809
 1293SOL     OW 4777   2.485   1.623   6.916
 1293SOL    HW1 4778   2.517   1.680   6.841
 1293SOL    HW2 4779   2.483   1.677   7.001
 1294SOL     OW 4780   1.896   4.107   5.723
 1294SOL    HW1 4781   1.864   4.134   5.632
 1294SOL    HW2 4782   1.983   4.059   5.715
 1295SOL     OW 4783   7.011   3.497   1.488
 1295SOL    HW1 4784   7.004   3.400   1.510
 1295SOL    HW2 4785   0.083   3.528   1.501
 1296SOL     OW 4786   5.467   6.767   5.959
 1296SOL    HW1 4787   5.421   6.680   5.941
 1296SOL    HW2 4788   5.407   6.842   5.931
 1297SOL     OW 4789   0.337   0.690   2.571
 1297SOL    HW1 4790   0.353   0.721   2.664
 1297SOL    HW2 4791   0.364   0.762   2.507
 1298SOL     OW 4792   5.751   5.361   2.527
 1298SOL    HW1 4793   5.661   5.325   2.552
 1298SOL    HW2 4794   5.767   5.345   2.430
 1299SOL     OW 4795   2.074   3.449   4.185
 1299SOL    HW1 4796   2.001   3.452   4.116
 1299SOL    HW2 4797   2.084   3.355   4.219
 1300SOL     OW 4798   2.174   4.111   0.868
 1300SOL    HW1 4799   2.118   4.054   0.927
 1300SOL    HW2 4800   2.238   4.165   0.923
 1301SOL     OW 4801   1.156   0.794   1.901
 1301SOL    HW1 4802   1.082   0.741   1.860
 1301SOL    HW2 4803   1.130   0.821   1.994
 1302SOL     OW 4804   5.361   6.205   6.124
 1302SOL    HW1 4805   5.351   6.147   6.204
 1302SOL    HW2 4806   5.419   6.284   6.146
 1303SOL     OW 4807   4.355   6.937   1.808
 1303SOL    HW1 4808   4.256   6.927   1.795
 1303SOL    HW2 4809   4.387   6.868   1.872
 1304SOL     OW 4810   0.925   1.250   1.533
 1304SOL    HW1 4811   0.999   1.230   1.469
 1304SOL    HW2 4812   0.922   1.349   1.551
 1305SOL     OW 4813   5.477   4.624   6.791
 1305SOL    HW1 4814   5.545   4.678   6.840
 1305SOL    HW2 4815   5.445   4.675   6.711
 1306SOL     OW 4816   1.408   5.198   4.736
 1306SOL    HW1 4817   1.447   5.156   4.818
 1306SOL    HW2 4818   1.315   5.165   4.722
 1307SOL     OW 4819   1.746   2.880   3.699
 1307SOL    HW1 4820   1.698   2.793   3.684
 1307SOL    HW2 4821   1.774   2.919   3.612
 1308SOL     OW 4822   6.606   5.465   6.302
 1308SOL    HW1 4823   6.651   5.540   6.351
 1308SOL    HW2 4824   6.552   5.411   6.366
 1309SOL     OW 4825   5.285   4.453   5.964
 1309SOL    HW1 4826   5.380   4.459   5.996
 1309SOL    HW2 4827   5.234   4.391   6.023
 1310SOL     OW 4828   0.899   3.506   3.869
 1310SOL    HW1 4829   0.930   3.571   3.799
 1310SOL    HW2 4830   0.972   3.441   3.889
 1311SOL     OW 4831   6.757   5.675   0.523
 1311SOL    HW1 4832   6.795   5.760   0.487
 1311SOL    HW2 4833   6.824   5.602   0.513
 1312SOL     OW 4834   1.516   0.915   5.428
 1312SOL    HW1 4835   1.484   0.866   5.347
 1312SOL    HW2 4836   1.480   0.871   5.510
 1313SOL     OW 4837   6.590   5.146   3.027
 1313SOL    HW1 4838   6.676   5.123   2.982
 1313SOL    HW2 4839   6.575   5.084   3.104
 1314SOL     OW 4840   2.619   1.583   4.739
 1314SOL    HW1 4841   2.573   1.657   4.787
 1314SOL    HW2 4842   2.704   1.618   4.699
 1315SOL     OW 4843   6.210   0.164   4.001
 1315SOL    HW1 4844   6.205   0.083   3.943
 1315SOL    HW2 4845   6.132   0.166   4.063
 1316SOL     OW 4846   3.997   0.804   4.774
 1316SOL    HW1 4847   3.998   0.722   4.717
 1316SOL    HW2 4848   4.077   0.860   4.754
 1317SOL     OW 4849   2.806   3.451   5.840
 1317SOL    HW1 4850   2.901   3.479   5.852
 1317SOL    HW2 4851   2.782   3.457   5.743
 1318SOL     OW 4852   2.141   2.723   0.208
 1318SOL    HW1 4853   2.092   2.689   0.128
 1318SOL    HW2 4854   2.093   2.696   0.291
 1319SOL     OW 4855   7.019   6.232   0.185
 1319SOL    HW1 4856   7.007   6.162   0.114
 1319SOL    HW2 4857   0.041   6.192   0.265
 1320SOL     OW 4858   3.456   2.833   6.291
 1320SOL    HW1 4859   3.493   2.897   6.358
 1320SOL    HW2 4860   3.357   2.826   6.303
 1321SOL     OW 4861   5.975   2.160   6.449
 1321SOL    HW1 4862   6.046   2.099   6.485
 1321SOL    HW2 4863   5.890   2.109   6.438
 1322SOL     OW 4864   2.781   1.368   6.400
 1322SOL    HW1 4865   2.752   1.274   6.418
 1322SOL    HW2 4866   2.790   1.383   6.302
 1323SOL     OW 4867   3.408   0.185   0.508
 1323SOL    HW1 4868   3.471   0.235   0.569
 1323SOL    HW2 4869   3.433   0.203   0.413
 1324SOL     OW 4870   1.646   3.724   6.993
 1324SOL    HW1 4871   1.618   3.713   6.897
 1324SOL    HW2 4872   1.594   3.660   0.027
 1325SOL     OW 4873   2.199   5.829   6.024
 1325SOL    HW1 4874   2.175   5.833   5.927
 1325SOL    HW2 4875   2.293   5.797   6.034
 1326SOL     OW 4876   4.809   4.021   4.408
 1326SOL    HW1 4877   4.812   4.092   4.479
 1326SOL    HW2 4878   4.810   3.931   4.452
 1327SOL     OW 4879   0.332   6.377   0.738
 1327SOL    HW1 4880   0.342   6.317   0.817
 1327SOL    HW2 4881   0.418   6.426   0.722
 1328SOL     OW 4882   1.101   3.445   5.808
 1328SOL    HW1 4883   1.166   3.516   5.782
 1328SOL    HW2 4884   1.008   3.477   5.791
 1329SOL     OW 4885   0.185   2.680   3.265
 1329SOL    HW1 4886   0.218   2.588   3.243
 1329SOL    HW2 4887   0.213   2.704   3.358
 1330SOL     OW 4888   6.581   2.214   0.897
 1330SOL    HW1 4889   6.600   2.252   0.987
 1330SOL    HW2 4890   6.604   2.117   0.896
 1331SOL     OW 4891   4.121   2.246   2.538
 1331SOL    HW1 4892   4.057   2.265   2.613
 1331SOL    HW2 4893   4.180   2.168   2.564
 1332SOL     OW 4894   2.045   0.473   1.230
 1332SOL    HW1 4895   2.006   0.541   1.168
 1332SOL    HW2 4896   2.141   0.458   1.207
 1333SOL     OW 4897   3.939   3.868   2.848
 1333SOL    HW1 4898   3.916   3.943   2.910
 1333SOL    HW2 4899   3.903   3.782   2.884
 1334SOL     OW 4900   6.839   1.398   2.484
 1334SOL    HW1 4901   6.809   1.451   2.405
 1334SOL    HW2 4902   6.787   1.313   2.489
 1335SOL     OW 4903   1.824   3.859   1.620
 1335SOL    HW1 4904   1.900   3.832   1.560
 1335SOL    HW2 4905   1.794   3.951   1.597
 1336SOL     OW 4906   3.665   0.897   5.626
 1336SOL    HW1 4907   3.610   0.838   5.568
 1336SOL    HW2 4908   3.622   0.988   5.631
 1337SOL     OW 4909   5.950   1.756   3.985
 1337SOL    HW1 4910   6.032   1.796   3.944
 1337SOL    HW2 4911   5.977   1.692   4.057
 1338SOL     OW 4912   6.226   4.213   4.198
 1338SOL    HW1 4913   6.233   4.118   4.170
 1338SOL    HW2 4914   6.318   4.251   4.209
 1339SOL     OW 4915   0.259   0.368   6.845
 1339SOL    HW1 4916   0.336   0.350   6.784
 1339SOL    HW2 4917   0.228   0.282   6.885
 1340SOL     OW 4918   4.984   1.148   1.678
 1340SOL    HW1 4919   4.916   1.084   1.713
 1340SOL    HW2 4920   5.029   1.108   1.598
 1341SOL     OW 4921   4.504   6.772   6.913
 1341SOL    HW1 4922   4.460   6.841   6.970
 1341SOL    HW2 4923   4.578   6.814   6.860
 1342SOL     OW 4924   3.182   5.508   0.592
 1342SOL    HW1 4925   3.128   5.445   0.537
 1342SOL    HW2 4926   3.147   5.601   0.580
 1343SOL     OW 4927   4.997   5.140   3.149
 1343SOL    HW1 4928   5.085   5.179   3.176
 1343SOL    HW2 4929   5.006   5.097   3.059
 1344SOL     OW 4930   6.993   0.012   4.419
 1344SOL    HW1 4931   6.905   7.016   4.374
 1344SOL    HW2 4932   0.045   7.018   4.355
 1345SOL     OW 4933   0.377   5.572   1.875
 1345SOL    HW1 4934   0.374   5.479   1.911
 1345SOL    HW2 4935   0.380   5.637   1.952
 1346SOL     OW 4936   2.557   5.319   5.749
 1346SOL    HW1 4937   2.513   5.234   5.779
 1346SOL    HW2 4938   2.647   5.298   5.711
 1347SOL     OW 4939   1.841   0.425   6.937
 1347SOL    HW1 4940   1.764   0.361   6.945
 1347SOL    HW2 4941   1.878   0.420   6.845
 1348SOL     OW 4942   0.085   6.136   5.054
 1348SOL    HW1 4943   0.013   6.196   5.089
 1348SOL    HW2 4944   0.139   6.101   5.130
 1349SOL     OW 4945   5.501   3.611   3.937
 1349SOL    HW1 4946   5.531   3.576   3.848
 1349SOL    HW2 4947   5.493   3.535   4.002
 1350SOL     OW 4948   3.245   3.662   0.310
 1350SOL    HW1 4949   3.317   3.597   0.284
 1350SOL    HW2 4950   3.285   3.751   0.327
 1351SOL     OW 4951   6.359   2.296   4.203
 1351SOL    HW1 4952   6.417   2.270   4.125
 1351SOL    HW2 4953   6.382   2.390   4.230
 1352SOL     OW 4954   6.860   0.046   2.439
 1352SOL    HW1 4955   6.881   6.975   2.467
 1352SOL    HW2 4956   6.816   0.045   2.349
 1353SOL     OW 4957   0.563   1.731   1.304
 1353SOL    HW1 4958   0.601   1.776   1.385
 1353SOL    HW2 4959   0.579   1.788   1.224
 1354SOL     OW 4960   6.119   4.202   2.497
 1354SOL    HW1 4961   6.069   4.273   2.448
 1354SOL    HW2 4962   6.217   4.222   2.493
 1355SOL     OW 4963   5.773   3.571   4.301
 1355SOL    HW1 4964   5.742   3.665   4.285
 1355SOL    HW2 4965   5.711   3.508   4.254
 1356SOL     OW 4966   3.621   2.827   2.239
 1356SOL    HW1 4967   3.703   2.872   2.205
 1356SOL    HW2 4968   3.591   2.757   2.173
 1357SOL     OW 4969   6.849   3.463   5.446
 1357SOL    HW1 4970   6.927   3.402   5.453
 1357SOL    HW2 4971   6.771   3.414   5.408
 1358SOL     OW 4972   1.168   6.578   6.929
 1358SOL    HW1 4973   1.196   6.624   7.013
 1358SOL    HW2 4974   1.208   6.486   6.926
 1359SOL     OW 4975   6.567   3.952   1.504
 1359SOL    HW1 4976   6.521   4.035   1.473
 1359SOL    HW2 4977   6.588   3.959   1.601
 1360SOL     OW 4978   3.274   3.096   6.354
 1360SOL    HW1 4979   3.187   3.126   6.393
 1360SOL    HW2 4980   3.257   3.046   6.269
 1361SOL     OW 4981   0.215   3.900   4.797
 1361SOL    HW1 4982   0.280   3.829   4.770
 1361SOL    HW2 4983   0.233   3.927   4.891
 1362SOL     OW 4984   3.619   2.898   2.521
 1362SOL    HW1 4985   3.651   2.846   2.442
 1362SOL    HW2 4986   3.519   2.898   2.523
 1363SOL     OW 4987   6.938   5.688   5.531
 1363SOL    HW1 4988   6.914   5.663   5.437
 1363SOL    HW2 4989   0.014   5.674   5.545
 1364SOL     OW 4990   4.339   4.500   0.317
 1364SOL    HW1 4991   4.372   4.513   0.223
 1364SOL    HW2 4992   4.258   4.556   0.332
 1365SOL     OW 4993   0.784   3.599   6.275
 1365SOL    HW1 4994   0.696   3.620   6.317
 1365SOL    HW2 4995   0.839   3.545   6.338
 1366SOL     OW 4996   2.045   0.363   4.904
 1366SOL    HW1 4997   2.001   0.340   4.818
 1366SOL    HW2 4998   1.978   0.405   4.966
 1367SOL     OW 4999   2.115   1.174   2.358
 1367SOL    HW1 5000   2.067   1.144   2.275
 1367SOL    HW2 5001   2.166   1.257   2.338
 1368SOL     OW 5002   6.002   0.198   4.188
 1368SOL    HW1 5003   5.940   0.133   4.143
 1368SOL    HW2 5004   5.949   0.259   4.247
 1369SOL     OW 5005   0.530   0.785   3.308
 1369SOL    HW1 5006   0.511   0.758   3.402
 1369SOL    HW2 5007   0.448   0.828   3.269
 1370SOL     OW 5008   3.266   0.687   2.081
 1370SOL    HW1 5009   3.222   0.748   2.147
 1370SOL    HW2 5010   3.238   0.592   2.100
 1371SOL     OW 5011   3.506   0.177   5.846
 1371SOL    HW1 5012   3.444   0.177   5.768
 1371SOL    HW2 5013   3.458   0.145   5.927
 1372SOL     OW 5014   2.509   1.890   2.406
 1372SOL    HW1 5015   2.570   1.822   2.366
 1372SOL    HW2 5016   2.510   1.972   2.349
 1373SOL     OW 5017   0.714   5.680   1.466
 1373SOL    HW1 5018   0.746   5.759   1.518
 1373SOL    HW2 5019   0.615   5.674   1.473
 1374SOL     OW 5020   4.519   2.155   0.624
 1374SOL    HW1 5021   4.487   2.061   0.625
 1374SOL    HW2 5022   4.449   2.214   0.584
 1375SOL     OW 5023   0.218   4.119   6.215
 1375SOL    HW1 5024   0.167   4.153   6.295
 1375SOL    HW2 5025   0.154   4.083   6.148
 1376SOL     OW 5026   4.832   3.105   3.238
 1376SOL    HW1 5027   4.849   3.167   3.315
 1376SOL    HW2 5028   4.835   3.011   3.270
 1377SOL     OW 5029   6.753   5.290   5.222
 1377SOL    HW1 5030   6.685   5.349   5.177
 1377SOL    HW2 5031   6.780   5.331   5.309
 1378SOL     OW 5032   1.606   2.481   0.085
 1378SOL    HW1 5033   1.548   2.466   0.165
 1378SOL    HW2 5034   1.643   2.394   0.053
 1379SOL     OW 5035   3.826   6.692   2.823
 1379SOL    HW1 5036   3.753   6.756   2.848
 1379SOL    HW2 5037   3.889   6.682   2.899
 1380SOL     OW 5038   6.339   0.119   2.659
 1380SOL    HW1 5039   6.404   0.192   2.640
 1380SOL    HW2 5040   6.304   0.129   2.753
 1381SOL     OW 5041   6.793   2.005   0.789
 1381SOL    HW1 5042   6.723   1.934   0.777
 1381SOL    HW2 5043   6.796   2.032   0.886
 1382SOL     OW 5044   5.469   4.702   6.196
 1382SOL    HW1 5045   5.445   4.607   6.178
 1382SOL    HW2 5046   5.462   4.720   6.295
 1383SOL     OW 5047   2.372   0.225   0.569
 1383SOL    HW1 5048   2.279   0.191   0.554
 1383SOL    HW2 5049   2.438   0.154   0.545
 1384SOL     OW 5050   3.062   2.192   2.536
 1384SOL    HW1 5051   2.970   2.224   2.513
 1384SOL    HW2 5052   3.060   2.094   2.556
 1385SOL     OW 5053   6.898   3.004   3.031
 1385SOL    HW1 5054   6.930   2.951   2.952
 1385SOL    HW2 5055   6.850   2.942   3.094
 1386SOL     OW 5056   1.775   2.550   4.360
 1386SOL    HW1 5057   1.774   2.450   4.368
 1386SOL    HW2 5058   1.683   2.582   4.338
 1387SOL     OW 5059   2.526   0.207   5.052
 1387SOL    HW1 5060   2.619   0.212   5.015
 1387SOL    HW2 5061   2.481   0.296   5.043
 1388SOL     OW 5062   6.282   0.929   4.054
 1388SOL    HW1 5063   6.335   0.863   4.108
 1388SOL    HW2 5064   6.187   0.898   4.047
 1389SOL     OW 5065   5.662   0.089   4.452
 1389SOL    HW1 5066   5.712   0.038   4.522
 1389SOL    HW2 5067   5.618   0.024   4.389
 1390SOL     OW 5068   4.997   2.195   2.373
 1390SOL    HW1 5069   4.952   2.268   2.423
 1390SOL    HW2 5070   5.043   2.133   2.437
 1391SOL     OW 5071   4.825   0.489   4.535
 1391SOL    HW1 5072   4.868   0.406   4.502
 1391SOL    HW2 5073   4.803   0.479   4.632
 1392SOL     OW 5074   4.868   5.993   6.600
 1392SOL    HW1 5075   4.845   6.024   6.692
 1392SOL    HW2 5076   4.793   5.937   6.564
 1393SOL     OW 5077   6.342   0.951   6.301
 1393SOL    HW1 5078   6.400   0.923   6.377
 1393SOL    HW2 5079   6.247   0.956   6.332
 1394SOL     OW 5080   4.487   6.991   4.121
 1394SOL    HW1 5081   4.508   6.895   4.139
 1394SOL    HW2 5082   4.389   7.006   4.134
 1395SOL     OW 5083   1.364   4.856   2.230
 1395SOL    HW1 5084   1.414   4.858   2.143
 1395SOL    HW2 5085   1.270   4.886   2.215
 1396SOL     OW 5086   2.262   1.436   3.961
 1396SOL    HW1 5087   2.362   1.429   3.952
 1396SOL    HW2 5088   2.240   1.512   4.022
 1397SOL     OW 5089   0.310   5.426   4.056
 1397SOL    HW1 5090   0.404   5.404   4.080
 1397SOL    HW2 5091   0.283   5.375   3.975
 1398SOL     OW 5092   0.663   1.000   0.966
 1398SOL    HW1 5093   0.714   0.927   0.920
 1398SOL    HW2 5094   0.709   1.024   1.051
 1399SOL     OW 5095   4.219   0.184   0.331
 1399SOL    HW1 5096   4.153   0.152   0.263
 1399SOL    HW2 5097   4.307   0.140   0.314
 1400SOL     OW 5098   6.148   6.933   4.854
 1400SOL    HW1 5099   6.139   6.994   4.775
 1400SOL    HW2 5100   6.216   6.970   4.917
 1401SOL     OW 5101   5.278   0.374   3.414
 1401SOL    HW1 5102   5.359   0.384   3.356
 1401SOL    HW2 5103   5.203   0.429   3.378
 1402SOL     OW 5104   6.863   4.770   2.066
 1402SOL    HW1 5105   6.853   4.711   2.146
 1402SOL    HW2 5106   6.930   4.731   2.003
 1403SOL     OW 5107   3.044   2.943   6.567
 1403SOL    HW1 5108   2.986   3.016   6.531
 1403SOL    HW2 5109   3.003   2.855   6.545
 1404SOL     OW 5110   4.654   6.866   0.568
 1404SOL    HW1 5111   4.568   6.913   0.587
 1404SOL    HW2 5112   4.635   6.769   0.550
 1405SOL     OW 5113   1.530   3.267   0.938
 1405SOL    HW1 5114   1.446   3.321   0.934
 1405SOL    HW2 5115   1.553   3.234   0.846
 1406SOL     OW 5116   2.352   2.983   1.329
 1406SOL    HW1 5117   2.391   3.057   1.274
 1406SOL    HW2 5118   2.325   3.018   1.418
 1407SOL     OW 5119   0.509   2.962   0.919
 1407SOL    HW1 5120   0.607   2.973   0.935
 1407SOL    HW2 5121   0.461   3.046   0.947
 1408SOL     OW 5122   5.979   6.312   0.537
 1408SOL    HW1 5123   5.988   6.267   0.448
 1408SOL    HW2 5124   5.994   6.246   0.610
 1409SOL     OW 5125   6.672   1.722   5.712
 1409SOL    HW1 5126   6.712   1.640   5.752
 1409SOL    HW2 5127   6.689   1.800   5.771
 1410SOL     OW 5128   3.633   1.969   5.751
 1410SOL    HW1 5129   3.592   2.033   5.815
 1410SOL    HW2 5130   3.732   1.983   5.749
 1411SOL     OW 5131   3.838   5.102   0.247
 1411SOL    HW1 5132   3.895   5.088   0.328
 1411SOL    HW2 5133   3.826   5.015   0.199
 1412SOL     OW 5134   1.444   2.926   0.434
 1412SOL    HW1 5135   1.538   2.933   0.466
 1412SOL    HW2 5136   1.443   2.889   0.342
 1413SOL     OW 5137   1.762   1.559   5.394
 1413SOL    HW1 5138   1.773   1.508   5.479
 1413SOL    HW2 5139   1.790   1.654   5.408
 1414SOL     OW 5140   1.213   4.444   2.255
 1414SOL    HW1 5141   1.301   4.491   2.248
 1414SOL    HW2 5142   1.198   4.416   2.350
 1415SOL     OW 5143   1.958   1.625   4.452
 1415SOL    HW1 5144   1.976   1.704   4.393
 1415SOL    HW2 5145   2.032   1.559   4.444
 1416SOL     OW 5146   3.905   0.205   5.057
 1416SOL    HW1 5147   3.866   0.148   5.128
 1416SOL    HW2 5148   3.922   0.150   4.975
 1417SOL     OW 5149   3.587   3.200   6.011
 1417SOL    HW1 5150   3.539   3.251   6.082
 1417SOL    HW2 5151   3.625   3.265   5.944
 1418SOL     OW 5152   3.424   4.384   6.565
 1418SOL    HW1 5153   3.517   4.394   6.529
 1418SOL    HW2 5154   3.359   4.386   6.490
 1419SOL     OW 5155   1.844   4.804   2.487
 1419SOL    HW1 5156   1.872   4.709   2.498
 1419SOL    HW2 5157   1.906   4.850   2.424
 1420SOL     OW 5158   2.874   6.600   3.285
 1420SOL    HW1 5159   2.810   6.640   3.220
 1420SOL    HW2 5160   2.823   6.550   3.356
 1421SOL     OW 5161   1.316   4.938   5.879
 1421SOL    HW1 5162   1.239   4.988   5.839
 1421SOL    HW2 5163   1.304   4.934   5.978
 1422SOL     OW 5164   2.276   4.202   6.087
 1422SOL    HW1 5165   2.270   4.255   6.171
 1422SOL    HW2 5166   2.190   4.153   6.073
 1423SOL     OW 5167   4.132   0.622   5.426
 1423SOL    HW1 5168   4.034   0.605   5.410
 1423SOL    HW2 5169   4.169   0.549   5.483
 1424SOL     OW 5170   6.224   3.285   6.686
 1424SOL    HW1 5171   6.197   3.209   6.745
 1424SOL    HW2 5172   6.210   3.371   6.736
 1425SOL     OW 5173   4.969   6.523   3.454
 1425SOL    HW1 5174   4.920   6.568   3.380
 1425SOL    HW2 5175   4.995   6.590   3.524
 1426SOL     OW 5176   3.563   2.163   0.271
 1426SOL    HW1 5177   3.478   2.181   0.222
 1426SOL    HW2 5178   3.551   2.184   0.368
 1427SOL     OW 5179   1.448   1.167   3.950
 1427SOL    HW1 5180   1.534   1.152   3.998
 1427SOL    HW2 5181   1.429   1.089   3.891
 1428SOL     OW 5182   0.504   3.979   4.225
 1428SOL    HW1 5183   0.472   4.043   4.294
 1428SOL    HW2 5184   0.429   3.920   4.195
 1429SOL     OW 5185   5.886   1.064   0.807
 1429SOL    HW1 5186   5.948   1.113   0.869
 1429SOL    HW2 5187   5.925   1.063   0.715
 1430SOL     OW 5188   2.110   3.816   3.627
 1430SOL    HW1 5189   2.095   3.769   3.540
 1430SOL    HW2 5190   2.164   3.899   3.611
 1431SOL     OW 5191   2.383   0.888   6.186
 1431SOL    HW1 5192   2.482   0.885   6.196
 1431SOL    HW2 5193   2.355   0.979   6.155
 1432SOL     OW 5194   2.702   1.331   2.240
 1432SOL    HW1 5195   2.668   1.424   2.258
 1432SOL    HW2 5196   2.675   1.271   2.315
 1433SOL     OW 5197   2.698   6.801   3.810
 1433SOL    HW1 5198   2.638   6.843   3.878
 1433SOL    HW2 5199   2.734   6.871   3.749
 1434SOL     OW 5200   0.397   3.232   0.801
 1434SOL    HW1 5201   0.312   3.231   0.750
 1434SOL    HW2 5202   0.466   3.176   0.754
 1435SOL     OW 5203   1.169   6.738   3.885
 1435SOL    HW1 5204   1.253   6.684   3.882
 1435SOL    HW2 5205   1.186   6.824   3.933
 1436SOL     OW 5206   5.448   2.113   6.863
 1436SOL    HW1 5207   5.410   2.150   6.948
 1436SOL    HW2 5208   5.397   2.151   6.785
 1437SOL     OW 5209   3.892   0.334   6.121
 1437SOL    HW1 5210   3.871   0.253   6.066
 1437SOL    HW2 5211   3.819   0.349   6.187
 1438SOL     OW 5212   2.622   0.384   2.402
 1438SOL    HW1 5213   2.664   0.314   2.460
 1438SOL    HW2 5214   2.522   0.376   2.407
 1439SOL     OW 5215   0.605   5.072   6.773
 1439SOL    HW1 5216   0.675   5.068   6.844
 1439SOL    HW2 5217   0.600   4.984   6.726
 1440SOL     OW 5218   3.422   3.170   3.293
 1440SOL    HW1 5219   3.406   3.168   3.195
 1440SOL    HW2 5220   3.399   3.082   3.334
 1441SOL     OW 5221   6.169   2.965   3.672
 1441SOL    HW1 5222   6.227   3.008   3.741
 1441SOL    HW2 5223   6.075   2.961   3.705
 1442SOL     OW 5224   5.166   4.784   0.040
 1442SOL    HW1 5225   5.211   4.816   0.124
 1442SOL    HW2 5226   5.180   4.686   0.029
 1443SOL     OW 5227   0.413   2.661   2.608
 1443SOL    HW1 5228   0.411   2.566   2.576
 1443SOL    HW2 5229   0.456   2.664   2.699
 1444SOL     OW 5230   4.631   1.089   3.559
 1444SOL    HW1 5231   4.645   0.994   3.587
 1444SOL    HW2 5232   4.575   1.090   3.475
 1445SOL     OW 5233   6.346   2.151   1.061
 1445SOL    HW1 5234   6.288   2.116   1.134
 1445SOL    HW2 5235   6.412   2.081   1.035
 1446SOL     OW 5236   4.516   0.976   1.325
 1446SOL    HW1 5237   4.427   0.933   1.341
 1446SOL    HW2 5238   4.579   0.951   1.399
 1447SOL     OW 5239   6.595   0.666   5.380
 1447SOL    HW1 5240   6.515   0.722   5.357
 1447SOL    HW2 5241   6.657   0.720   5.438
 1448SOL     OW 5242   5.461   0.464   6.709
 1448SOL    HW1 5243   5.368   0.437   6.733
 1448SOL    HW2 5244   5.512   0.483   6.793
 1449SOL     OW 5245   4.611   6.053   1.334
 1449SOL    HW1 5246   4.695   6.036   1.282
 1449SOL    HW2 5247   4.634   6.074   1.429
 1450SOL     OW 5248   5.473   3.140   3.543
 1450SOL    HW1 5249   5.520   3.171   3.460
 1450SOL    HW2 5250   5.433   3.050   3.525
 1451SOL     OW 5251   1.379   6.377   3.035
 1451SOL    HW1 5252   1.354   6.436   3.112
 1451SOL    HW2 5253   1.321   6.295   3.035
 1452SOL     OW 5254   4.356   1.216   5.390
 1452SOL    HW1 5255   4.299   1.174   5.320
 1452SOL    HW2 5256   4.298   1.261   5.458
 1453SOL     OW 5257   5.563   5.024   5.205
 1453SOL    HW1 5258   5.628   5.087   5.248
 1453SOL    HW2 5259   5.612   4.958   5.148
 1454SOL     OW 5260   4.147   4.051   1.015
 1454SOL    HW1 5261   4.120   4.041   1.111
 1454SOL    HW2 5262   4.181   3.963   0.981
 1455SOL     OW 5263   1.991   2.547   1.317
 1455SOL    HW1 5264   2.078   2.585   1.347
 1455SOL    HW2 5265   1.920   2.567   1.385
 1456SOL     OW 5266   6.088   6.083   3.530
 1456SOL    HW1 5267   6.097   6.169   3.480
 1456SOL    HW2 5268   6.121   6.096   3.624
 1457SOL     OW 5269   1.390   0.666   3.081
 1457SOL    HW1 5270   1.370   0.571   3.105
 1457SOL    HW2 5271   1.488   0.683   3.092
 1458SOL     OW 5272   5.501   5.534   6.875
 1458SOL    HW1 5273   5.598   5.514   6.892
 1458SOL    HW2 5274   5.489   5.560   6.779
 1459SOL     OW 5275   2.090   0.175   0.008
 1459SOL    HW1 5276   2.003   0.132   0.035
 1459SOL    HW2 5277   2.116   0.145   6.939
 1460SOL     OW 5278   1.495   0.226   0.083
 1460SOL    HW1 5279   1.511   0.128   0.074
 1460SOL    HW2 5280   1.506   0.254   0.178
 1461SOL     OW 5281   5.581   4.729   1.478
 1461SOL    HW1 5282   5.521   4.808   1.482
 1461SOL    HW2 5283   5.576   4.687   1.387
 1462SOL     OW 5284   5.881   0.723   6.528
 1462SOL    HW1 5285   5.974   0.741   6.560
 1462SOL    HW2 5286   5.859   0.786   6.454
 1463SOL     OW 5287   0.598   1.391   4.688
 1463SOL    HW1 5288   0.630   1.328   4.617
 1463SOL    HW2 5289   0.674   1.414   4.748
 1464SOL     OW 5290   0.560   6.298   0.997
 1464SOL    HW1 5291   0.642   6.242   1.009
 1464SOL    HW2 5292   0.585   6.387   0.960
 1465SOL     OW 5293   6.966   6.525   4.848
 1465SOL    HW1 5294   0.039   6.498   4.834
 1465SOL    HW2 5295   6.940   6.594   4.780
 1466SOL     OW 5296   5.443   5.211   3.929
 1466SOL    HW1 5297   5.424   5.250   4.019
 1466SOL    HW2 5298   5.381   5.134   3.912
 1467SOL     OW 5299   0.567   2.443   3.193
 1467SOL    HW1 5300   0.533   2.349   3.189
 1467SOL    HW2 5301   0.495   2.506   3.163
 1468SOL     OW 5302   5.599   5.655   3.506
 1468SOL    HW1 5303   5.568   5.693   3.593
 1468SOL    HW2 5304   5.596   5.726   3.436
 1469SOL     OW 5305   0.596   1.569   2.979
 1469SOL    HW1 5306   0.591   1.471   2.998
 1469SOL    HW2 5307   0.612   1.584   2.881
 1470SOL     OW 5308   0.174   1.354   3.292
 1470SOL    HW1 5309   0.254   1.370   3.234
 1470SOL    HW2 5310   0.108   1.297   3.244
 1471SOL     OW 5311   0.209   0.079   6.973
 1471SOL    HW1 5312   0.236   7.016   7.018
 1471SOL    HW2 5313   0.128   0.061   6.916
 1472SOL     OW 5314   3.846   0.677   5.670
 1472SOL    HW1 5315   3.807   0.620   5.743
 1472SOL    HW2 5316   3.808   0.769   5.675
 1473SOL     OW 5317   6.186   4.196   3.684
 1473SOL    HW1 5318   6.263   4.260   3.678
 1473SOL    HW2 5319   6.220   4.102   3.676
 1474SOL     OW 5320   4.657   5.827   3.754
 1474SOL    HW1 5321   4.570   5.848   3.709
 1474SOL    HW2 5322   4.722   5.794   3.686
 1475SOL     OW 5323   0.423   0.946   2.462
 1475SOL    HW1 5324   0.468   0.994   2.537
 1475SOL    HW2 5325   0.343   0.998   2.432
 1476SOL     OW 5326   6.475   1.958   2.154
 1476SOL    HW1 5327   6.538   1.885   2.129
 1476SOL    HW2 5328   6.477   1.972   2.253
 1477SOL     OW 5329   2.350   5.877   3.856
 1477SOL    HW1 5330   2.264   5.841   3.893
 1477SOL    HW2 5331   2.342   5.976   3.844
 1478SOL     OW 5332   6.387   4.134   1.391
 1478SOL    HW1 5333   6.317   4.066   1.413
 1478SOL    HW2 5334   6.381   4.159   1.295
 1479SOL     OW 5335   1.594   5.172   0.638
 1479SOL    HW1 5336   1.654   5.182   0.558
 1479SOL    HW2 5337   1.628   5.228   0.713
 1480SOL     OW 5338   2.570   1.152   6.926
 1480SOL    HW1 5339   2.635   1.075   6.923
 1480SOL    HW2 5340   2.621   1.238   6.928
 1481SOL     OW 5341   5.952   2.594   6.151
 1481SOL    HW1 5342   5.934   2.617   6.246
 1481SOL    HW2 5343   6.029   2.647   6.117
 1482SOL     OW 5344   6.170   0.674   6.451
 1482SOL    HW1 5345   6.246   0.737   6.433
 1482SOL    HW2 5346   6.187   0.624   6.536
 1483SOL     OW 5347   6.340   1.852   6.952
 1483SOL    HW1 5348   6.332   1.948   6.923
 1483SOL    HW2 5349   6.375   1.849   0.023
 1484SOL     OW 5350   6.321   5.306   2.533
 1484SOL    HW1 5351   6.397   5.343   2.480
 1484SOL    HW2 5352   6.242   5.366   2.524
 1485SOL     OW 5353   5.093   2.971   4.161
 1485SOL    HW1 5354   5.000   2.973   4.198
 1485SOL    HW2 5355   5.108   2.884   4.116
 1486SOL     OW 5356   4.696   1.845   2.116
 1486SOL    HW1 5357   4.745   1.786   2.052
 1486SOL    HW2 5358   4.616   1.797   2.151
 1487SOL     OW 5359   6.339   1.350   5.620
 1487SOL    HW1 5360   6.373   1.386   5.533
 1487SOL    HW2 5361   6.326   1.251   5.613
 1488SOL     OW 5362   4.346   1.744   3.234
 1488SOL    HW1 5363   4.328   1.823   3.175
 1488SOL    HW2 5364   4.261   1.691   3.246
 1489SOL     OW 5365   4.099   5.826   5.026
 1489SOL    HW1 5366   4.182   5.882   5.017
 1489SOL    HW2 5367   4.114   5.738   4.980
 1490SOL     OW 5368   1.789   2.735   0.467
 1490SOL    HW1 5369   1.805   2.833   0.481
 1490SOL    HW2 5370   1.828   2.684   0.544
 1491SOL     OW 5371   0.331   3.022   4.815
 1491SOL    HW1 5372   0.254   2.959   4.823
 1491SOL    HW2 5373   0.362   3.048   4.907
 1492SOL     OW 5374   5.061   1.991   1.958
 1492SOL    HW1 5375   5.065   2.030   1.866
 1492SOL    HW2 5376   5.069   2.064   2.026
 1493SOL     OW 5377   4.792   1.022   5.294
 1493SOL    HW1 5378   4.757   1.097   5.350
 1493SOL    HW2 5379   4.769   0.935   5.337
 1494SOL     OW 5380   4.692   2.792   6.055
 1494SOL    HW1 5381   4.697   2.771   6.153
 1494SOL    HW2 5382   4.728   2.715   6.003
 1495SOL     OW 5383   1.858   3.035   2.419
 1495SOL    HW1 5384   1.858   3.095   2.499
 1495SOL    HW2 5385   1.937   3.055   2.362
 1496SOL     OW 5386   0.514   0.629   2.307
 1496SOL    HW1 5387   0.420   0.602   2.328
 1496SOL    HW2 5388   0.514   0.703   2.240
 1497SOL     OW 5389   6.169   5.468   4.862
 1497SOL    HW1 5390   6.072   5.456   4.842
 1497SOL    HW2 5391   6.223   5.437   4.784
 1498SOL     OW 5392   2.836   6.244   0.409
 1498SOL    HW1 5393   2.769   6.181   0.369
 1498SOL    HW2 5394   2.830   6.333   0.363
 1499SOL     OW 5395   0.565   4.166   5.806
 1499SOL    HW1 5396   0.634   4.221   5.760
 1499SOL    HW2 5397   0.602   4.076   5.827
 1500SOL     OW 5398   4.892   0.386   6.244
 1500SOL    HW1 5399   4.901   0.443   6.326
 1500SOL    HW2 5400   4.864   0.443   6.167
 1501SOL     OW 5401   3.777   0.056   6.266
 1501SOL    HW1 5402   3.837   0.084   6.190
 1501SOL    HW2 5403   3.821   7.005   6.317
 1502SOL     OW 5404   6.392   6.341   0.138
 1502SOL    HW1 5405   6.491   6.340   0.123
 1502SOL    HW2 5406   6.345   6.308   0.057
 1503SOL     OW 5407   3.374   3.020   5.943
 1503SOL    HW1 5408   3.348   3.078   5.866
 1503SOL    HW2 5409   3.469   3.037   5.968
 1504SOL     OW 5410   2.943   6.005   4.947
 1504SOL    HW1 5411   3.017   6.051   4.996
 1504SOL    HW2 5412   2.958   5.907   4.947
 1505SOL     OW 5413   5.080   5.286   0.430
 1505SOL    HW1 5414   5.043   5.251   0.516
 1505SOL    HW2 5415   5.119   5.376   0.444
 1506SOL     OW 5416   0.687   6.139   4.070
 1506SOL    HW1 5417   0.637   6.188   4.142
 1506SOL    HW2 5418   0.698   6.043   4.096
 1507SOL     OW 5419   1.893   1.933   6.327
 1507SOL    HW1 5420   1.943   1.988   6.261
 1507SOL    HW2 5421   1.923   1.956   6.420
 1508SOL     OW 5422   5.472   6.947   0.363
 1508SOL    HW1 5423   5.455   6.914   0.456
 1508SOL    HW2 5424   5.405   7.019   0.341
 1509SOL     OW 5425   4.878   2.093   0.322
 1509SOL    HW1 5426   4.787   2.055   0.340
 1509SOL    HW2 5427   4.942   2.018   0.305
 1510SOL     OW 5428   6.658   1.592   3.791
 1510SOL    HW1 5429   6.658   1.639   3.879
 1510SOL    HW2 5430   6.752   1.577   3.761
 1511SOL     OW 5431   1.739   2.356   0.601
 1511SOL    HW1 5432   1.806   2.403   0.544
 1511SOL    HW2 5433   1.653   2.407   0.603
 1512SOL     OW 5434   6.869   0.676   1.861
 1512SOL    HW1 5435   6.896   0.580   1.860
 1512SOL    HW2 5436   6.880   0.713   1.953
 1513SOL     OW 5437   3.603   0.726   2.514
 1513SOL    HW1 5438   3.650   0.814   2.504
 1513SOL    HW2 5439   3.669   0.656   2.542
 1514SOL     OW 5440   5.050   1.716   5.234
 1514SOL    HW1 5441   5.008   1.630   5.205
 1514SOL    HW2 5442   5.148   1.704   5.244
 1515SOL     OW 5443   0.165   4.667   4.252
 1515SOL    HW1 5444   0.227   4.603   4.296
 1515SOL    HW2 5445   0.135   4.629   4.164
 1516SOL     OW 5446   0.897   1.424   0.746
 1516SOL    HW1 5447   0.925   1.433   0.650
 1516SOL    HW2 5448   0.799   1.409   0.750
 1517SOL     OW 5449   4.143   6.002   3.269
 1517SOL    HW1 5450   4.208   6.057   3.320
 1517SOL    HW2 5451   4.155   6.017   3.171
 1518SOL     OW 5452   0.757   4.460   1.013
 1518SOL    HW1 5453   0.731   4.545   1.059
 1518SOL    HW2 5454   0.843   4.426   1.051
 1519SOL     OW 5455   6.487   4.570   0.693
 1519SOL    HW1 5456   6.422   4.558   0.617
 1519SOL    HW2 5457   6.436   4.581   0.778
 1520SOL     OW 5458   1.105   3.525   2.891
 1520SOL    HW1 5459   1.093   3.489   2.984
 1520SOL    HW2 5460   1.042   3.601   2.877
 1521SOL     OW 5461   2.775   3.718   6.830
 1521SOL    HW1 5462   2.815   3.787   6.769
 1521SOL    HW2 5463   2.685   3.691   6.795
 1522SOL     OW 5464   6.302   2.365   6.871
 1522SOL    HW1 5465   6.260   2.394   6.784
 1522SOL    HW2 5466   6.385   2.419   6.886
 1523SOL     OW 5467   0.517   1.703   0.698
 1523SOL    HW1 5468   0.437   1.702   0.758
 1523SOL    HW2 5469   0.598   1.675   0.751
 1524SOL     OW 5470   6.995   0.752   2.434
 1524SOL    HW1 5471   0.009   0.792   2.518
 1524SOL    HW2 5472   6.934   0.675   2.457
 1525SOL     OW 5473   4.402   2.145   6.373
 1525SOL    HW1 5474   4.324   2.156   6.434
 1525SOL    HW2 5475   4.370   2.111   6.284
 1526SOL     OW 5476   6.761   2.291   1.945
 1526SOL    HW1 5477   6.680   2.309   1.890
 1526SOL    HW2 5478   6.735   2.242   2.028
 1527SOL     OW 5479   3.243   1.751   5.739
 1527SOL    HW1 5480   3.343   1.762   5.736
 1527SOL    HW2 5481   3.202   1.834   5.778
 1528SOL     OW 5482   5.018   6.272   3.515
 1528SOL    HW1 5483   4.996   6.368   3.499
 1528SOL    HW2 5484   5.114   6.263   3.542
 1529SOL     OW 5485   3.199   0.556   5.897
 1529SOL    HW1 5486   3.162   0.474   5.940
 1529SOL    HW2 5487   3.287   0.535   5.855
 1530SOL     OW 5488   4.025   6.323   1.928
 1530SOL    HW1 5489   4.046   6.345   2.023
 1530SOL    HW2 5490   3.977   6.235   1.923
 1531SOL     OW 5491   6.742   6.997   4.752
 1531SOL    HW1 5492   6.745   6.955   4.842
 1531SOL    HW2 5493   6.791   6.940   4.686
 1532SOL     OW 5494   3.012   1.823   5.296
 1532SOL    HW1 5495   3.068   1.860   5.370
 1532SOL    HW2 5496   2.935   1.883   5.278
 1533SOL     OW 5497   6.027   2.612   6.834
 1533SOL    HW1 5498   6.068   2.526   6.806
 1533SOL    HW2 5499   5.963   2.643   6.764
 1534SOL     OW 5500   6.939   6.209   1.183
 1534SOL    HW1 5501   6.861   6.147   1.169
 1534SOL    HW2 5502   6.911   6.285   1.241
 1535SOL     OW 5503   4.491   5.542   4.028
 1535SOL    HW1 5504   4.447   5.499   4.107
 1535SOL    HW2 5505   4.428   5.542   3.950
 1536SOL     OW 5506   2.791   6.448   4.965
 1536SOL    HW1 5507   2.884   6.454   4.930
 1536SOL    HW2 5508   2.770   6.353   4.987
 1537SOL     OW 5509   1.691   5.480   4.202
 1537SOL    HW1 5510   1.760   5.424   4.157
 1537SOL    HW2 5511   1.605   5.429   4.207
 1538SOL     OW 5512   2.188   5.683   6.523
 1538SOL    HW1 5513   2.190   5.779   6.551
 1538SOL    HW2 5514   2.100   5.642   6.547
 1539SOL     OW 5515   3.392   4.768   1.514
 1539SOL    HW1 5516   3.351   4.845   1.563
 1539SOL    HW2 5517   3.387   4.686   1.571
 1540SOL     OW 5518   0.502   6.607   4.580
 1540SOL    HW1 5519   0.573   6.607   4.509
 1540SOL    HW2 5520   0.535   6.556   4.660
 1541SOL     OW 5521   4.918   2.514   1.001
 1541SOL    HW1 5522   4.883   2.440   0.943
 1541SOL    HW2 5523   5.010   2.490   1.032
 1542SOL     OW 5524   1.191   6.427   0.760
 1542SOL    HW1 5525   1.134   6.500   0.721
 1542SOL    HW2 5526   1.136   6.343   0.767
 1543SOL     OW 5527   3.160   4.055   4.011
 1543SOL    HW1 5528   3.125   4.068   4.103
 1543SOL    HW2 5529   3.258   4.075   4.009
 1544SOL     OW 5530   3.587   4.059   2.664
 1544SOL    HW1 5531   3.513   4.067   2.598
 1544SOL    HW2 5532   3.671   4.031   2.617
 1545SOL     OW 5533   5.629   0.291   4.673
 1545SOL    HW1 5534   5.593   0.220   4.733
 1545SOL    HW2 5535   5.646   0.252   4.582
 1546SOL     OW 5536   0.860   6.512   6.023
 1546SOL    HW1 5537   0.829   6.447   6.092
 1546SOL    HW2 5538   0.792   6.517   5.949
 1547SOL     OW 5539   3.456   6.106   0.370
 1547SOL    HW1 5540   3.535   6.065   0.326
 1547SOL    HW2 5541   3.476   6.125   0.466
 1548SOL     OW 5542   5.354   4.187   4.532
 1548SOL    HW1 5543   5.413   4.265   4.508
 1548SOL    HW2 5544   5.410   4.105   4.544
 1549SOL     OW 5545   6.817   1.768   1.204
 1549SOL    HW1 5546   6.788   1.734   1.115
 1549SOL    HW2 5547   6.915   1.755   1.215
 1550SOL     OW 5548   2.230   6.092   4.723
 1550SOL    HW1 5549   2.203   6.102   4.819
 1550SOL    HW2 5550   2.261   5.999   4.706
 1551SOL     OW 5551   1.728   2.101   0.469
 1551SOL    HW1 5552   1.753   2.184   0.518
 1551SOL    HW2 5553   1.758   2.108   0.374
 1552SOL     OW 5554   0.997   0.844   0.357
 1552SOL    HW1 5555   1.002   0.898   0.273
 1552SOL    HW2 5556   0.942   0.763   0.342
 1553SOL     OW 5557   6.022   1.452   6.510
 1553SOL    HW1 5558   5.948   1.483   6.570
 1553SOL    HW2 5559   6.105   1.437   6.565
 1554SOL     OW 5560   3.429   1.768   1.835
 1554SOL    HW1 5561   3.416   1.852   1.782
 1554SOL    HW2 5562   3.524   1.737   1.825
 1555SOL     OW 5563   4.055   1.398   5.904
 1555SOL    HW1 5564   4.020   1.470   5.843
 1555SOL    HW2 5565   3.978   1.350   5.945
 1556SOL     OW 5566   3.499   1.499   0.915
 1556SOL    HW1 5567   3.508   1.400   0.909
 1556SOL    HW2 5568   3.590   1.541   0.909
 1557SOL     OW 5569   1.894   2.086   0.753
 1557SOL    HW1 5570   1.921   2.006   0.807
 1557SOL    HW2 5571   1.833   2.057   0.679
 1558SOL     OW 5572   6.457   3.295   6.329
 1558SOL    HW1 5573   6.418   3.387   6.318
 1558SOL    HW2 5574   6.478   3.280   6.426
 1559SOL     OW 5575   2.012   4.338   3.372
 1559SOL    HW1 5576   2.033   4.345   3.469
 1559SOL    HW2 5577   1.921   4.376   3.355
 1560SOL     OW 5578   4.157   1.488   1.352
 1560SOL    HW1 5579   4.118   1.397   1.335
 1560SOL    HW2 5580   4.138   1.514   1.447
 1561SOL     OW 5581   6.437   5.785   1.007
 1561SOL    HW1 5582   6.502   5.855   0.977
 1561SOL    HW2 5583   6.416   5.798   1.104
 1562SOL     OW 5584   3.661   6.436   2.225
 1562SOL    HW1 5585   3.713   6.407   2.306
 1562SOL    HW2 5586   3.713   6.504   2.174
 1563SOL     OW 5587   4.214   2.148   3.968
 1563SOL    HW1 5588   4.192   2.209   4.045
 1563SOL    HW2 5589   4.252   2.202   3.893
 1564SOL     OW 5590   1.652   2.365   2.870
 1564SOL    HW1 5591   1.578   2.329   2.926
 1564SOL    HW2 5592   1.614   2.420   2.795
 1565SOL     OW 5593   3.986   1.172   4.716
 1565SOL    HW1 5594   3.942   1.256   4.746
 1565SOL    HW2 5595   4.043   1.135   4.790
 1566SOL     OW 5596   4.486   4.885   3.023
 1566SOL    HW1 5597   4.521   4.799   3.059
 1566SOL    HW2 5598   4.412   4.918   3.082
 1567SOL     OW 5599   5.332   6.847   4.769
 1567SOL    HW1 5600   5.247   6.899   4.767
 1567SOL    HW2 5601   5.348   6.811   4.860
 1568SOL     OW 5602   2.679   5.475   2.185
 1568SOL    HW1 5603   2.691   5.385   2.143
 1568SOL    HW2 5604   2.591   5.479   2.231
 1569SOL     OW 5605   2.708   0.401   3.214
 1569SOL    HW1 5606   2.715   0.501   3.214
 1569SOL    HW2 5607   2.750   0.365   3.298
 1570SOL     OW 5608   3.448   6.848   6.851
 1570SOL    HW1 5609   3.534   6.873   6.896
 1570SOL    HW2 5610   3.458   6.857   6.752
 1571SOL     OW 5611   0.746   2.216   4.634
 1571SOL    HW1 5612   0.808   2.295   4.631
 1571SOL    HW2 5613   0.656   2.244   4.599
 1572SOL     OW 5614   1.795   5.281   1.892
 1572SOL    HW1 5615   1.881   5.235   1.871
 1572SOL    HW2 5616   1.806   5.341   1.971
 1573SOL     OW 5617   5.228   4.823   0.302
 1573SOL    HW1 5618   5.143   4.776   0.325
 1573SOL    HW2 5619   5.243   4.899   0.365
 1574SOL     OW 5620   0.009   3.298   2.927
 1574SOL    HW1 5621   0.070   3.237   2.978
 1574SOL    HW2 5622   6.954   3.246   2.892
 1575SOL     OW 5623   0.246   1.034   0.496
 1575SOL    HW1 5624   0.148   1.050   0.482
 1575SOL    HW2 5625   0.298   1.083   0.426
 1576SOL     OW 5626   0.248   0.401   2.312
 1576SOL    HW1 5627   0.224   0.497   2.297
 1576SOL    HW2 5628   0.165   0.346   2.314
 1577SOL     OW 5629   4.724   6.071   5.300
 1577SOL    HW1 5630   4.648   6.135   5.309
 1577SOL    HW2 5631   4.790   6.106   5.234
 1578SOL     OW 5632   5.040   0.872   0.495
 1578SOL    HW1 5633   4.997   0.818   0.568
 1578SOL    HW2 5634   5.016   0.833   0.406
 1579SOL     OW 5635   1.581   2.275   1.139
 1579SOL    HW1 5636   1.613   2.365   1.167
 1579SOL    HW2 5637   1.632   2.245   1.059
 1580SOL     OW 5638   3.234   3.588   2.709
 1580SOL    HW1 5639   3.143   3.568   2.673
 1580SOL    HW2 5640   3.294   3.618   2.634
 1581SOL     OW 5641   6.606   4.108   5.979
 1581SOL    HW1 5642   6.689   4.065   5.944
 1581SOL    HW2 5643   6.630   4.168   6.056
 1582SOL     OW 5644   4.470   6.352   5.259
 1582SOL    HW1 5645   4.489   6.405   5.176
 1582SOL    HW2 5646   4.422   6.268   5.234
 1583SOL     OW 5647   1.110   5.952   5.016
 1583SOL    HW1 5648   1.150   6.014   5.083
 1583SOL    HW2 5649   1.184   5.913   4.960
 1584SOL     OW 5650   0.220   5.061   6.807
 1584SOL    HW1 5651   0.275   5.107   6.876
 1584SOL    HW2 5652   0.189   4.973   6.842
 1585SOL     OW 5653   3.790   6.955   3.011
 1585SOL    HW1 5654   3.858   0.006   3.016
 1585SOL    HW2 5655   3.781   6.912   3.100
 1586SOL     OW 5656   2.537   4.547   3.834
 1586SOL    HW1 5657   2.485   4.631   3.849
 1586SOL    HW2 5658   2.631   4.560   3.866
 1587SOL     OW 5659   2.260   5.930   5.682
 1587SOL    HW1 5660   2.333   5.918   5.614
 1587SOL    HW2 5661   2.174   5.893   5.646
 1588SOL     OW 5662   5.873   0.891   2.598
 1588SOL    HW1 5663   5.862   0.796   2.626
 1588SOL    HW2 5664   5.825   0.951   2.662
 1589SOL     OW 5665   6.148   4.607   4.255
 1589SOL    HW1 5666   6.124   4.688   4.308
 1589SOL    HW2 5667   6.088   4.599   4.175
 1590SOL     OW 5668   6.468   2.516   3.822
 1590SOL    HW1 5669   6.387   2.563   3.786
 1590SOL    HW2 5670   6.550   2.556   3.782
 1591SOL     OW 5671   0.741   6.629   1.938
 1591SOL    HW1 5672   0.802   6.553   1.957
 1591SOL    HW2 5673   0.682   6.607   1.861
 1592SOL     OW 5674   0.351   3.943   6.884
 1592SOL    HW1 5675   0.427   3.895   6.841
 1592SOL    HW2 5676   0.296   3.879   6.938
 1593SOL     OW 5677   2.501   0.562   0.110
 1593SOL    HW1 5678   2.439   0.582   0.185
 1593SOL    HW2 5679   2.576   0.504   0.142
 1594SOL     OW 5680   6.235   0.519   2.108
 1594SOL    HW1 5681   6.142   0.503   2.077
 1594SOL    HW2 5682   6.233   0.548   2.204
 1595SOL     OW 5683   1.086   4.052   6.541
 1595SOL    HW1 5684   1.068   4.096   6.629
 1595SOL    HW2 5685   1.183   4.062   6.519
 1596SOL     OW 5686   4.911   4.790   2.632
 1596SOL    HW1 5687   4.968   4.708   2.646
 1596SOL    HW2 5688   4.835   4.767   2.572
 1597SOL     OW 5689   4.016   6.654   6.596
 1597SOL    HW1 5690   4.106   6.688   6.571
 1597SOL    HW2 5691   3.993   6.685   6.689
 1598SOL     OW 5692   1.901   5.638   0.175
 1598SOL    HW1 5693   1.873   5.542   0.173
 1598SOL    HW2 5694   1.837   5.690   0.230
 1599SOL     OW 5695   4.804   5.214   4.063
 1599SOL    HW1 5696   4.724   5.187   4.010
 1599SOL    HW2 5697   4.814   5.314   4.060
 1600SOL     OW 5698   3.997   0.753   2.576
 1600SOL    HW1 5699   4.090   0.763   2.610
 1600SOL    HW2 5700   3.981   0.816   2.501
 1601SOL     OW 5701   6.290   6.579   4.228
 1601SOL    HW1 5702   6.215   6.573   4.294
 1601SOL    HW2 5703   6.325   6.673   4.225
 1602SOL     OW 5704   3.805   5.226   3.928
 1602SOL    HW1 5705   3.809   5.222   3.828
 1602SOL    HW2 5706   3.896   5.210   3.966
 1603SOL     OW 5707   3.050   5.783   3.020
 1603SOL    HW1 5708   2.960   5.744   3.038
 1603SOL    HW2 5709   3.100   5.794   3.105
 1604SOL     OW 5710   3.916   5.134   2.096
 1604SOL    HW1 5711   3.851   5.062   2.119
 1604SOL    HW2 5712   3.930   5.193   2.175
 1605SOL     OW 5713   4.879   5.557   1.292
 1605SOL    HW1 5714   4.915   5.634   1.239
 1605SOL    HW2 5715   4.923   5.473   1.262
 1606SOL     OW 5716   3.896   6.416   4.947
 1606SOL    HW1 5717   3.883   6.513   4.966
 1606SOL    HW2 5718   3.912   6.404   4.849
 1607SOL     OW 5719   4.210   5.692   2.826
 1607SOL    HW1 5720   4.171   5.621   2.768
 1607SOL    HW2 5721   4.262   5.757   2.770
 1608SOL     OW 5722   6.394   0.872   3.175
 1608SOL    HW1 5723   6.330   0.816   3.226
 1608SOL    HW2 5724   6.412   0.830   3.086
 1609SOL     OW 5725   3.709   6.403   0.400
 1609SOL    HW1 5726   3.675   6.457   0.477
 1609SOL    HW2 5727   3.765   6.327   0.436
 1610SOL     OW 5728   4.992   0.310   0.434
 1610SOL    HW1 5729   4.963   0.269   0.348
 1610SOL    HW2 5730   5.013   0.238   0.500
 1611SOL     OW 5731   1.114   4.120   1.330
 1611SOL    HW1 5732   1.166   4.044   1.290
 1611SOL    HW2 5733   1.177   4.194   1.352
 1612SOL     OW 5734   3.845   6.897   2.013
 1612SOL    HW1 5735   3.812   6.966   2.077
 1612SOL    HW2 5736   3.898   6.941   1.940
 1613SOL     OW 5737   0.123   5.583   2.241
 1613SOL    HW1 5738   0.065   5.549   2.168
 1613SOL    HW2 5739   0.173   5.507   2.283
 1614SOL     OW 5740   6.451   2.343   6.157
 1614SOL    HW1 5741   6.376   2.281   6.135
 1614SOL    HW2 5742   6.416   2.421   6.209
 1615SOL     OW 5743   1.414   5.120   6.180
 1615SOL    HW1 5744   1.359   5.198   6.150
 1615SOL    HW2 5745   1.508   5.150   6.199
 1616SOL     OW 5746   1.923   1.589   4.740
 1616SOL    HW1 5747   1.914   1.624   4.647
 1616SOL    HW2 5748   1.832   1.572   4.777
 1617SOL     OW 5749   5.613   5.929   3.103
 1617SOL    HW1 5750   5.659   6.016   3.123
 1617SOL    HW2 5751   5.546   5.910   3.175
 1618SOL     OW 5752   3.243   5.224   3.062
 1618SOL    HW1 5753   3.275   5.139   3.103
 1618SOL    HW2 5754   3.184   5.272   3.127
 1619SOL     OW 5755   1.218   5.529   6.944
 1619SOL    HW1 5756   1.123   5.561   6.943
 1619SOL    HW2 5757   1.250   5.523   0.016
 1620SOL     OW 5758   4.161   5.469   6.287
 1620SOL    HW1 5759   4.103   5.460   6.206
 1620SOL    HW2 5760   4.186   5.379   6.321
 1621SOL     OW 5761   5.124   6.225   0.514
 1621SOL    HW1 5762   5.045   6.281   0.537
 1621SOL    HW2 5763   5.195   6.239   0.583
 1622SOL     OW 5764   0.436   4.723   4.634
 1622SOL    HW1 5765   0.489   4.774   4.702
 1622SOL    HW2 5766   0.344   4.705   4.670
 1623SOL     OW 5767   0.803   1.753   3.994
 1623SOL    HW1 5768   0.858   1.836   3.988
 1623SOL    HW2 5769   0.815   1.712   4.084
 1624SOL     OW 5770   4.250   1.122   0.934
 1624SOL    HW1 5771   4.212   1.210   0.964
 1624SOL    HW2 5772   4.332   1.138   0.879
 1625SOL     OW 5773   1.424   5.418   0.776
 1625SOL    HW1 5774   1.402   5.432   0.872
 1625SOL    HW2 5775   1.502   5.356   0.768
 1626SOL     OW 5776   3.330   1.760   1.383
 1626SOL    HW1 5777   3.342   1.848   1.428
 1626SOL    HW2 5778   3.406   1.746   1.319
 1627SOL     OW 5779   4.519   1.431   4.534
 1627SOL    HW1 5780   4.556   1.513   4.491
 1627SOL    HW2 5781   4.456   1.457   4.608
 1628SOL     OW 5782   5.428   6.699   0.223
 1628SOL    HW1 5783   5.460   6.703   0.128
 1628SOL    HW2 5784   5.423   6.791   0.260
 1629SOL     OW 5785   1.901   0.912   3.205
 1629SOL    HW1 5786   1.955   0.849   3.149
 1629SOL    HW2 5787   1.813   0.871   3.227
 1630SOL     OW 5788   0.431   3.676   0.020
 1630SOL    HW1 5789   0.394   3.664   0.111
 1630SOL    HW2 5790   0.505   3.745   0.022
 1631SOL     OW 5791   0.182   3.107   1.037
 1631SOL    HW1 5792   0.094   3.094   1.082
 1631SOL    HW2 5793   0.177   3.071   0.944
 1632SOL     OW 5794   6.688   4.790   2.957
 1632SOL    HW1 5795   6.645   4.812   2.869
 1632SOL    HW2 5796   6.620   4.790   3.029
 1633SOL     OW 5797   5.357   3.029   3.914
 1633SOL    HW1 5798   5.379   3.037   4.011
 1633SOL    HW2 5799   5.285   3.094   3.891
 1634SOL     OW 5800   5.004   0.290   4.522
 1634SOL    HW1 5801   5.096   0.327   4.532
 1634SOL    HW2 5802   5.002   0.229   4.443
 1635SOL     OW 5803   3.623   6.020   4.265
 1635SOL    HW1 5804   3.719   6.047   4.257
 1635SOL    HW2 5805   3.604   5.943   4.204
 1636SOL     OW 5806   5.721   6.612   1.450
 1636SOL    HW1 5807   5.639   6.608   1.394
 1636SOL    HW2 5808   5.780   6.687   1.417
 1637SOL     OW 5809   7.000   6.963   2.147
 1637SOL    HW1 5810   7.014   0.036   2.121
 1637SOL    HW2 5811   0.050   6.934   2.210
 1638SOL     OW 5812   0.076   2.681   2.087
 1638SOL    HW1 5813   0.033   2.744   2.152
 1638SOL    HW2 5814   0.175   2.696   2.086
 1639SOL     OW 5815   4.716   2.703   2.764
 1639SOL    HW1 5816   4.754   2.783   2.810
 1639SOL    HW2 5817   4.656   2.654   2.827
 1640SOL     OW 5818   6.266   0.242   0.289
 1640SOL    HW1 5819   6.188   0.296   0.322
 1640SOL    HW2 5820   6.287   0.269   0.195
 1641SOL     OW 5821   6.213   2.411   3.101
 1641SOL    HW1 5822   6.290   2.352   3.077
 1641SOL    HW2 5823   6.154   2.424   3.021
 1642SOL     OW 5824   5.590   2.113   5.536
 1642SOL    HW1 5825   5.613   2.104   5.439
 1642SOL    HW2 5826   5.658   2.171   5.580
 1643SOL     OW 5827   2.740   5.680   4.171
 1643SOL    HW1 5828   2.823   5.640   4.133
 1643SOL    HW2 5829   2.670   5.686   4.099
 1644SOL     OW 5830   5.971   3.120   0.707
 1644SOL    HW1 5831   5.938   3.039   0.658
 1644SOL    HW2 5832   6.065   3.104   0.738
 1645SOL     OW 5833   2.047   0.527   5.502
 1645SOL    HW1 5834   1.991   0.572   5.571
 1645SOL    HW2 5835   2.129   0.488   5.545
 1646SOL     OW 5836   0.774   5.301   0.940
 1646SOL    HW1 5837   0.869   5.322   0.959
 1646SOL    HW2 5838   0.723   5.386   0.928
 1647SOL     OW 5839   6.592   2.646   4.439
 1647SOL    HW1 5840   6.681   2.690   4.432
 1647SOL    HW2 5841   6.531   2.702   4.495
 1648SOL     OW 5842   5.532   6.248   0.946
 1648SOL    HW1 5843   5.607   6.307   0.976
 1648SOL    HW2 5844   5.450   6.267   1.002
 1649SOL     OW 5845   2.860   0.373   3.481
 1649SOL    HW1 5846   2.807   0.458   3.485
 1649SOL    HW2 5847   2.901   0.356   3.570
 1650SOL     OW 5848   3.011   4.905   6.578
 1650SOL    HW1 5849   3.049   4.923   6.487
 1650SOL    HW2 5850   2.922   4.952   6.586
 1651SOL     OW 5851   0.627   3.045   3.811
 1651SOL    HW1 5852   0.601   2.953   3.843
 1651SOL    HW2 5853   0.567   3.072   3.736
 1652SOL     OW 5854   0.372   2.521   1.200
 1652SOL    HW1 5855   0.283   2.498   1.161
 1652SOL    HW2 5856   0.385   2.620   1.200
 1653SOL     OW 5857   6.831   4.795   3.339
 1653SOL    HW1 5858   6.874   4.757   3.257
 1653SOL    HW2 5859   6.882   4.876   3.369
 1654SOL     OW 5860   0.917   3.184   2.034
 1654SOL    HW1 5861   0.958   3.226   2.115
 1654SOL    HW2 5862   0.852   3.114   2.062
 1655SOL     OW 5863   0.044   6.894   4.683
 1655SOL    HW1 5864   6.999   6.902   4.609
 1655SOL    HW2 5865   0.071   6.985   4.713
 1656SOL     OW 5866   2.008   4.794   4.231
 1656SOL    HW1 5867   1.941   4.725   4.257
 1656SOL    HW2 5868   1.965   4.884   4.228
 1657SOL     OW 5869   1.237   0.340   5.249
 1657SOL    HW1 5870   1.154   0.352   5.194
 1657SOL    HW2 5871   1.244   0.415   5.315
 1658SOL     OW 5872   6.519   0.082   6.621
 1658SOL    HW1 5873   6.578   0.002   6.606
 1658SOL    HW2 5874   6.452   0.061   6.692
 1659SOL     OW 5875   5.045   6.970   6.365
 1659SOL    HW1 5876   5.117   6.992   6.300
 1659SOL    HW2 5877   4.970   6.925   6.318
 1660SOL     OW 5878   1.899   0.214   2.194
 1660SOL    HW1 5879   1.964   0.195   2.121
 1660SOL    HW2 5880   1.909   0.309   2.224
 1661SOL     OW 5881   3.904   4.857   2.884
 1661SOL    HW1 5882   3.915   4.955   2.902
 1661SOL    HW2 5883   3.946   4.834   2.797
 1662SOL     OW 5884   0.366   0.837   4.996
 1662SOL    HW1 5885   0.341   0.870   5.087
 1662SOL    HW2 5886   0.462   0.855   4.979
 1663SOL     OW 5887   4.828   4.925   0.901
 1663SOL    HW1 5888   4.918   4.886   0.921
 1663SOL    HW2 5889   4.826   4.956   0.806
 1664SOL     OW 5890   0.979   0.178   5.617
 1664SOL    HW1 5891   0.962   0.266   5.573
 1664SOL    HW2 5892   1.038   0.122   5.558
 1665SOL     OW 5893   2.202   4.202   0.398
 1665SOL    HW1 5894   2.272   4.131   0.384
 1665SOL    HW2 5895   2.131   4.193   0.329
 1666SOL     OW 5896   5.371   6.813   6.416
 1666SOL    HW1 5897   5.467   6.789   6.402
 1666SOL    HW2 5898   5.315   6.767   6.347
 1667SOL     OW 5899   0.887   6.482   1.231
 1667SOL    HW1 5900   0.986   6.496   1.218
 1667SOL    HW2 5901   0.872   6.397   1.282
 1668SOL     OW 5902   5.227   4.349   3.858
 1668SOL    HW1 5903   5.298   4.365   3.789
 1668SOL    HW2 5904   5.181   4.435   3.879
 1669SOL     OW 5905   6.493   3.645   5.255
 1669SOL    HW1 5906   6.561   3.672   5.187
 1669SOL    HW2 5907   6.450   3.727   5.294
 1670SOL     OW 5908   1.657   4.686   5.793
 1670SOL    HW1 5909   1.570   4.636   5.791
 1670SOL    HW2 5910   1.704   4.669   5.880
 1671SOL     OW 5911   6.157   2.029   1.225
 1671SOL    HW1 5912   6.207   1.945   1.243
 1671SOL    HW2 5913   6.105   2.055   1.306
 1672SOL     OW 5914   1.054   3.302   6.738
 1672SOL    HW1 5915   1.023   3.209   6.759
 1672SOL    HW2 5916   0.975   3.363   6.736
 1673SOL     OW 5917   2.638   1.394   4.361
 1673SOL    HW1 5918   2.554   1.444   4.339
 1673SOL    HW2 5919   2.632   1.301   4.324
 1674SOL     OW 5920   4.903   2.155   2.939
 1674SOL    HW1 5921   4.821   2.121   2.986
 1674SOL    HW2 5922   4.877   2.191   2.849
 1675SOL     OW 5923   4.883   1.001   0.964
 1675SOL    HW1 5924   4.803   0.981   1.021
 1675SOL    HW2 5925   4.966   0.991   1.020
 1676SOL     OW 5926   1.656   1.503   2.909
 1676SOL    HW1 5927   1.692   1.593   2.934
 1676SOL    HW2 5928   1.720   1.458   2.846
 1677SOL     OW 5929   4.065   3.859   3.508
 1677SOL    HW1 5930   4.130   3.933   3.498
 1677SOL    HW2 5931   3.994   3.884   3.574
 1678SOL     OW 5932   0.604   6.432   0.687
 1678SOL    HW1 5933   0.683   6.442   0.747
 1678SOL    HW2 5934   0.633   6.389   0.601
 1679SOL     OW 5935   1.679   1.744   5.757
 1679SOL    HW1 5936   1.753   1.790   5.806
 1679SOL    HW2 5937   1.705   1.650   5.738
 1680SOL     OW 5938   5.092   2.569   3.982
 1680SOL    HW1 5939   5.137   2.658   3.979
 1680SOL    HW2 5940   5.156   2.500   4.014
 1681SOL     OW 5941   1.875   6.298   3.751
 1681SOL    HW1 5942   1.860   6.382   3.701
 1681SOL    HW2 5943   1.834   6.221   3.701
 1682SOL     OW 5944   2.444   6.967   5.541
 1682SOL    HW1 5945   2.463   6.892   5.477
 1682SOL    HW2 5946   2.414   0.025   5.490
 1683SOL     OW 5947   5.878   5.085   2.317
 1683SOL    HW1 5948   5.974   5.092   2.290
 1683SOL    HW2 5949   5.871   5.036   2.404
 1684SOL     OW 5950   2.610   4.353   1.707
 1684SOL    HW1 5951   2.667   4.278   1.675
 1684SOL    HW2 5952   2.669   4.429   1.737
 1685SOL     OW 5953   0.342   1.017   5.519
 1685SOL    HW1 5954   0.440   1.031   5.525
 1685SOL    HW2 5955   0.300   1.040   5.607
 1686SOL     OW 5956   4.568   6.375   2.973
 1686SOL    HW1 5957   4.509   6.371   3.054
 1686SOL    HW2 5958   4.522   6.427   2.901
 1687SOL     OW 5959   6.360   4.351   2.523
 1687SOL    HW1 5960   6.458   4.360   2.507
 1687SOL    HW2 5961   6.320   4.441   2.539
 1688SOL     OW 5962   2.170   1.736   3.558
 1688SOL    HW1 5963   2.239   1.798   3.522
 1688SOL    HW2 5964   2.211   1.645   3.572
 1689SOL     OW 5965   5.382   0.865   1.568
 1689SOL    HW1 5966   5.362   0.769   1.588
 1689SOL    HW2 5967   5.336   0.922   1.636
 1690SOL     OW 5968   0.374   4.096   4.425
 1690SOL    HW1 5969   0.418   4.184   4.441
 1690SOL    HW2 5970   0.288   4.092   4.476
 1691SOL     OW 5971   4.906   2.600   5.260
 1691SOL    HW1 5972   4.954   2.617   5.345
 1691SOL    HW2 5973   4.867   2.685   5.225
 1692SOL     OW 5974   6.026   5.327   1.200
 1692SOL    HW1 5975   5.952   5.391   1.178
 1692SOL    HW2 5976   6.028   5.311   1.298
 1693SOL     OW 5977   5.685   0.386   5.068
 1693SOL    HW1 5978   5.606   0.327   5.052
 1693SOL    HW2 5979   5.746   0.343   5.134
 1694SOL     OW 5980   4.876   0.695   5.626
 1694SOL    HW1 5981   4.837   0.647   5.704
 1694SOL    HW2 5982   4.972   0.670   5.616
 1695SOL     OW 5983   3.619   0.679   6.209
 1695SOL    HW1 5984   3.676   0.656   6.130
 1695SOL    HW2 5985   3.654   0.763   6.252
 1696SOL     OW 5986   4.193   6.122   0.009
 1696SOL    HW1 5987   4.231   6.091   0.097
 1696SOL    HW2 5988   4.193   6.221   0.005
 1697SOL     OW 5989   6.092   2.337   1.201
 1697SOL    HW1 5990   6.091   2.436   1.194
 1697SOL    HW2 5991   6.008   2.300   1.160
 1698SOL     OW 5992   3.728   0.678   1.722
 1698SOL    HW1 5993   3.823   0.689   1.751
 1698SOL    HW2 5994   3.670   0.740   1.775
 1699SOL     OW 5995   2.454   0.267   0.199
 1699SOL    HW1 5996   2.511   0.315   0.266
 1699SOL    HW2 5997   2.509   0.239   0.121
 1700SOL     OW 5998   6.236   3.725   3.308
 1700SOL    HW1 5999   6.274   3.774   3.230
 1700SOL    HW2 6000   6.308   3.710   3.376
 1701SOL     OW 6001   0.241   5.467   4.641
 1701SOL    HW1 6002   0.220   5.460   4.739
 1701SOL    HW2 6003   0.156   5.479   4.589
 1702SOL     OW 6004   1.949   2.667   5.564
 1702SOL    HW1 6005   1.888   2.746   5.569
 1702SOL    HW2 6006   1.986   2.659   5.471
 1703SOL     OW 6007   3.296   2.186   0.479
 1703SOL    HW1 6008   3.298   2.176   0.578
 1703SOL    HW2 6009   3.201   2.185   0.447
 1704SOL     OW 6010   2.609   1.762   0.984
 1704SOL    HW1 6011   2.625   1.836   1.049
 1704SOL    HW2 6012   2.697   1.727   0.950
 1705SOL     OW 6013   4.218   1.306   0.442
 1705SOL    HW1 6014   4.145   1.308   0.512
 1705SOL    HW2 6015   4.219   1.394   0.394
 1706SOL     OW 6016   4.183   2.291   0.646
 1706SOL    HW1 6017   4.244   2.306   0.568
 1706SOL    HW2 6018   4.165   2.378   0.691
 1707SOL     OW 6019   4.478   1.959   2.349
 1707SOL    HW1 6020   4.387   1.985   2.318
 1707SOL    HW2 6021   4.493   1.862   2.332
 1708SOL     OW 6022   3.053   5.393   1.508
 1708SOL    HW1 6023   3.060   5.401   1.607
 1708SOL    HW2 6024   2.961   5.362   1.484
 1709SOL     OW 6025   4.404   5.791   0.568
 1709SOL    HW1 6026   4.387   5.765   0.663
 1709SOL    HW2 6027   4.490   5.841   0.562
 1710SOL     OW 6028   3.767   5.310   3.050
 1710SOL    HW1 6029   3.806   5.224   3.084
 1710SOL    HW2 6030   3.670   5.295   3.029
 1711SOL     OW 6031   3.552   5.055   6.267
 1711SOL    HW1 6032   3.501   5.102   6.195
 1711SOL    HW2 6033   3.501   5.061   6.353
 1712SOL     OW 6034   6.812   2.084   3.866
 1712SOL    HW1 6035   6.838   1.990   3.889
 1712SOL    HW2 6036   6.737   2.083   3.800
 1713SOL     OW 6037   3.802   0.968   2.497
 1713SOL    HW1 6038   3.882   1.022   2.470
 1713SOL    HW2 6039   3.771   0.997   2.587
 1714SOL     OW 6040   3.528   2.841   0.131
 1714SOL    HW1 6041   3.573   2.752   0.127
 1714SOL    HW2 6042   3.434   2.832   0.098
 1715SOL     OW 6043   1.600   6.617   2.948
 1715SOL    HW1 6044   1.587   6.571   3.036
 1715SOL    HW2 6045   1.563   6.559   2.875
 1716SOL     OW 6046   4.398   0.325   3.456
 1716SOL    HW1 6047   4.309   0.281   3.442
 1716SOL    HW2 6048   4.419   0.327   3.554
 1717SOL     OW 6049   3.723   5.944   5.354
 1717SOL    HW1 6050   3.753   5.998   5.432
 1717SOL    HW2 6051   3.803   5.913   5.302
 1718SOL     OW 6052   1.387   2.553   1.190
 1718SOL    HW1 6053   1.290   2.529   1.182
 1718SOL    HW2 6054   1.420   2.530   1.281
 1719SOL     OW 6055   0.802   5.453   1.588
 1719SOL    HW1 6056   0.777   5.528   1.528
 1719SOL    HW2 6057   0.856   5.488   1.665
 1720SOL     OW 6058   6.573   2.604   5.425
 1720SOL    HW1 6059   6.507   2.552   5.370
 1720SOL    HW2 6060   6.601   2.549   5.504
 1721SOL     OW 6061   1.749   2.067   1.605
 1721SOL    HW1 6062   1.819   2.016   1.655
 1721SOL    HW2 6063   1.733   2.024   1.516
 1722SOL     OW 6064   2.912   2.300   3.004
 1722SOL    HW1 6065   2.885   2.218   2.953
 1722SOL    HW2 6066   3.005   2.288   3.039
 1723SOL     OW 6067   5.289   2.792   0.088
 1723SOL    HW1 6068   5.229   2.811   0.010
 1723SOL    HW2 6069   5.375   2.842   0.077
 1724SOL     OW 6070   6.847   2.375   1.293
 1724SOL    HW1 6071   6.755   2.337   1.282
 1724SOL    HW2 6072   6.864   2.443   1.222
 1725SOL     OW 6073   2.187   5.902   6.889
 1725SOL    HW1 6074   2.223   5.824   6.939
 1725SOL    HW2 6075   2.145   5.967   6.953
 1726SOL     OW 6076   5.626   4.009   3.812
 1726SOL    HW1 6077   5.636   4.017   3.912
 1726SOL    HW2 6078   5.680   3.931   3.780
 1727SOL     OW 6079   3.079   3.399   3.166
 1727SOL    HW1 6080   3.099   3.476   3.106
 1727SOL    HW2 6081   3.157   3.380   3.225
 1728SOL     OW 6082   4.716   2.219   4.282
 1728SOL    HW1 6083   4.638   2.213   4.220
 1728SOL    HW2 6084   4.731   2.130   4.326
 1729SOL     OW 6085   1.844   3.874   2.265
 1729SOL    HW1 6086   1.937   3.875   2.229
 1729SOL    HW2 6087   1.811   3.780   2.271
 1730SOL     OW 6088   2.955   4.852   5.834
 1730SOL    HW1 6089   2.859   4.875   5.817
 1730SOL    HW2 6090   2.960   4.760   5.874
 1731SOL     OW 6091   5.787   4.430   4.236
 1731SOL    HW1 6092   5.789   4.517   4.286
 1731SOL    HW2 6093   5.692   4.409   4.210
 1732SOL     OW 6094   2.031   4.438   6.257
 1732SOL    HW1 6095   2.024   4.447   6.158
 1732SOL    HW2 6096   2.112   4.383   6.280
 1733SOL     OW 6097   2.906   4.302   0.203
 1733SOL    HW1 6098   2.888   4.250   0.120
 1733SOL    HW2 6099   2.957   4.245   0.268
 1734SOL     OW 6100   6.949   3.089   1.201
 1734SOL    HW1 6101   6.954   2.990   1.217
 1734SOL    HW2 6102   6.860   3.112   1.163
 1735SOL     OW 6103   3.765   5.119   6.082
 1735SOL    HW1 6104   3.693   5.109   6.150
 1735SOL    HW2 6105   3.724   5.139   5.993
 1736SOL     OW 6106   4.572   3.203   0.892
 1736SOL    HW1 6107   4.600   3.108   0.903
 1736SOL    HW2 6108   4.473   3.207   0.877
 1737SOL     OW 6109   4.612   1.525   5.263
 1737SOL    HW1 6110   4.666   1.555   5.184
 1737SOL    HW2 6111   4.580   1.606   5.312
 1738SOL     OW 6112   1.074   3.157   4.723
 1738SOL    HW1 6113   1.137   3.092   4.680
 1738SOL    HW2 6114   1.021   3.110   4.794
 1739SOL     OW 6115   5.572   0.333   3.972
 1739SOL    HW1 6116   5.489   0.368   3.929
 1739SOL    HW2 6117   5.563   0.235   3.988
 1740SOL     OW 6118   6.413   2.950   4.421
 1740SOL    HW1 6119   6.398   3.044   4.454
 1740SOL    HW2 6120   6.479   2.951   4.346
 1741SOL     OW 6121   1.080   2.242   4.475
 1741SOL    HW1 6122   1.068   2.158   4.423
 1741SOL    HW2 6123   1.087   2.220   4.573
 1742SOL     OW 6124   5.913   6.375   6.884
 1742SOL    HW1 6125   5.997   6.417   6.918
 1742SOL    HW2 6126   5.837   6.439   6.896
 1743SOL     OW 6127   1.233   0.736   2.879
 1743SOL    HW1 6128   1.313   0.720   2.937
 1743SOL    HW2 6129   1.160   0.673   2.905
 1744SOL     OW 6130   3.688   1.708   4.106
 1744SOL    HW1 6131   3.703   1.760   4.190
 1744SOL    HW2 6132   3.755   1.736   4.037
 1745SOL     OW 6133   6.823   6.406   1.347
 1745SOL    HW1 6134   6.805   6.351   1.429
 1745SOL    HW2 6135   6.738   6.449   1.317
 1746SOL     OW 6136   1.676   4.299   4.024
 1746SOL    HW1 6137   1.662   4.317   3.927
 1746SOL    HW2 6138   1.753   4.353   4.058
 1747SOL     OW 6139   3.657   0.287   2.375
 1747SOL    HW1 6140   3.719   0.254   2.446
 1747SOL    HW2 6141   3.711   0.311   2.294
 1748SOL     OW 6142   6.913   1.851   4.649
 1748SOL    HW1 6143   6.971   1.915   4.600
 1748SOL    HW2 6144   6.838   1.901   4.693
 1749SOL     OW 6145   1.650   4.928   0.931
 1749SOL    HW1 6146   1.674   4.875   1.013
 1749SOL    HW2 6147   1.560   4.898   0.898
 1750SOL     OW 6148   4.531   6.899   5.283
 1750SOL    HW1 6149   4.526   6.799   5.280
 1750SOL    HW2 6150   4.591   6.931   5.210
 1751SOL     OW 6151   5.416   2.584   5.247
 1751SOL    HW1 6152   5.320   2.605   5.231
 1751SOL    HW2 6153   5.446   2.626   5.332
 1752SOL     OW 6154   6.410   0.874   1.190
 1752SOL    HW1 6155   6.480   0.813   1.226
 1752SOL    HW2 6156   6.347   0.822   1.132
 1753SOL     OW 6157   6.529   1.880   1.752
 1753SOL    HW1 6158   6.593   1.835   1.815
 1753SOL    HW2 6159   6.580   1.940   1.690
 1754SOL     OW 6160   3.395   5.559   5.117
 1754SOL    HW1 6161   3.416   5.539   5.021
 1754SOL    HW2 6162   3.477   5.595   5.162
 1755SOL     OW 6163   6.357   6.875   5.333
 1755SOL    HW1 6164   6.453   6.876   5.306
 1755SOL    HW2 6165   6.338   6.954   5.392
 1756SOL     OW 6166   5.013   0.191   5.852
 1756SOL    HW1 6167   5.102   0.145   5.843
 1756SOL    HW2 6168   5.027   0.283   5.888
 1757SOL     OW 6169   2.377   4.756   5.261
 1757SOL    HW1 6170   2.458   4.753   5.201
 1757SOL    HW2 6171   2.358   4.664   5.295
 1758SOL     OW 6172   2.039   6.599   4.805
 1758SOL    HW1 6173   1.956   6.565   4.760
 1758SOL    HW2 6174   2.062   6.539   4.881
 1759SOL     OW 6175   1.559   6.559   6.924
 1759SOL    HW1 6176   1.547   6.648   6.879
 1759SOL    HW2 6177   1.525   6.564   7.018
 1760SOL     OW 6178   6.108   1.263   5.142
 1760SOL    HW1 6179   6.156   1.348   5.167
 1760SOL    HW2 6180   6.057   1.278   5.058
 1761SOL     OW 6181   6.071   1.858   2.234
 1761SOL    HW1 6182   6.111   1.772   2.265
 1761SOL    HW2 6183   6.081   1.866   2.135
 1762SOL     OW 6184   6.921   1.609   5.869
 1762SOL    HW1 6185   6.878   1.611   5.959
 1762SOL    HW2 6186   7.014   1.645   5.876
 1763SOL     OW 6187   0.957   3.981   4.051
 1763SOL    HW1 6188   1.034   4.000   4.112
 1763SOL    HW2 6189   0.977   4.017   3.960
 1764SOL     OW 6190   0.721   5.104   2.891
 1764SOL    HW1 6191   0.749   5.010   2.872
 1764SOL    HW2 6192   0.645   5.104   2.956
 1765SOL     OW 6193   5.167   3.184   2.811
 1765SOL    HW1 6194   5.242   3.194   2.745
 1765SOL    HW2 6195   5.183   3.102   2.867
 1766SOL     OW 6196   4.598   5.283   4.313
 1766SOL    HW1 6197   4.570   5.188   4.320
 1766SOL    HW2 6198   4.695   5.292   4.336
 1767SOL     OW 6199   0.781   4.934   1.857
 1767SOL    HW1 6200   0.695   4.950   1.906
 1767SOL    HW2 6201   0.845   4.885   1.916
 1768SOL     OW 6202   5.206   6.549   2.227
 1768SOL    HW1 6203   5.130   6.604   2.191
 1768SOL    HW2 6204   5.172   6.459   2.255
 1769SOL     OW 6205   5.128   0.673   6.619
 1769SOL    HW1 6206   5.085   0.606   6.680
 1769SOL    HW2 6207   5.196   0.628   6.562
 1770SOL     OW 6208   2.318   5.297   6.441
 1770SOL    HW1 6209   2.260   5.268   6.516
 1770SOL    HW2 6210   2.386   5.226   6.422
 1771SOL     OW 6211   1.121   3.645   6.174
 1771SOL    HW1 6212   1.094   3.667   6.268
 1771SOL    HW2 6213   1.146   3.730   6.127
 1772SOL     OW 6214   2.329   4.394   3.913
 1772SOL    HW1 6215   2.352   4.345   3.997
 1772SOL    HW2 6216   2.404   4.456   3.889
 1773SOL     OW 6217   0.893   6.787   5.234
 1773SOL    HW1 6218   0.855   6.781   5.326
 1773SOL    HW2 6219   0.970   6.852   5.234
 1774SOL     OW 6220   5.520   5.087   0.915
 1774SOL    HW1 6221   5.466   5.171   0.920
 1774SOL    HW2 6222   5.537   5.052   1.007
 1775SOL     OW 6223   2.612   5.519   6.164
 1775SOL    HW1 6224   2.564   5.605   6.183
 1775SOL    HW2 6225   2.546   5.450   6.135
 1776SOL     OW 6226   4.833   1.326   6.074
 1776SOL    HW1 6227   4.928   1.355   6.070
 1776SOL    HW2 6228   4.793   1.330   5.982
 1777SOL     OW 6229   5.092   6.702   6.815
 1777SOL    HW1 6230   5.104   6.644   6.733
 1777SOL    HW2 6231   5.138   6.789   6.801
 1778SOL     OW 6232   5.934   6.851   3.961
 1778SOL    HW1 6233   6.026   6.890   3.951
 1778SOL    HW2 6234   5.887   6.855   3.874
 1779SOL     OW 6235   5.846   5.982   3.905
 1779SOL    HW1 6236   5.893   5.951   3.823
 1779SOL    HW2 6237   5.906   6.041   3.959
 1780SOL     OW 6238   2.002   5.754   4.667
 1780SOL    HW1 6239   2.098   5.751   4.640
 1780SOL    HW2 6240   1.972   5.663   4.698
 1781SOL     OW 6241   3.991   0.776   4.363
 1781SOL    HW1 6242   4.054   0.840   4.407
 1781SOL    HW2 6243   3.903   0.778   4.411
 1782SOL     OW 6244   1.150   1.410   2.735
 1782SOL    HW1 6245   1.077   1.382   2.672
 1782SOL    HW2 6246   1.220   1.339   2.739
 1783SOL     OW 6247   2.332   4.185   6.552
 1783SOL    HW1 6248   2.346   4.086   6.558
 1783SOL    HW2 6249   2.288   4.217   6.636
 1784SOL     OW 6250   2.916   6.998   1.423
 1784SOL    HW1 6251   2.905   6.907   1.385
 1784SOL    HW2 6252   2.996   7.000   1.484
 1785SOL     OW 6253   1.144   6.592   4.227
 1785SOL    HW1 6254   1.157   6.503   4.182
 1785SOL    HW2 6255   1.185   6.590   4.318
 1786SOL     OW 6256   1.160   6.041   0.581
 1786SOL    HW1 6257   1.109   6.111   0.630
 1786SOL    HW2 6258   1.133   5.951   0.615
 1787SOL     OW 6259   2.813   3.782   6.101
 1787SOL    HW1 6260   2.866   3.846   6.045
 1787SOL    HW2 6261   2.852   3.690   6.093
 1788SOL     OW 6262   4.580   3.787   0.640
 1788SOL    HW1 6263   4.571   3.690   0.662
 1788SOL    HW2 6264   4.566   3.842   0.723
 1789SOL     OW 6265   6.602   4.147   2.170
 1789SOL    HW1 6266   6.508   4.146   2.204
 1789SOL    HW2 6267   6.657   4.084   2.224
 1790SOL     OW 6268   2.395   2.737   4.634
 1790SOL    HW1 6269   2.458   2.675   4.681
 1790SOL    HW2 6270   2.435   2.766   4.547
 1791SOL     OW 6271   5.083   6.676   3.178
 1791SOL    HW1 6272   5.124   6.757   3.136
 1791SOL    HW2 6273   5.098   6.678   3.277
 1792SOL     OW 6274   0.298   1.426   5.735
 1792SOL    HW1 6275   0.303   1.383   5.645
 1792SOL    HW2 6276   0.380   1.480   5.751
 1793SOL     OW 6277   7.009   1.290   6.133
 1793SOL    HW1 6278   0.021   1.290   6.039
 1793SOL    HW2 6279   6.919   1.333   6.136
 1794SOL     OW 6280   1.018   0.267   6.282
 1794SOL    HW1 6281   1.043   0.200   6.212
 1794SOL    HW2 6282   1.003   0.356   6.240
 1795SOL     OW 6283   6.244   4.041   1.093
 1795SOL    HW1 6284   6.344   4.034   1.097
 1795SOL    HW2 6285   6.203   3.962   1.140
 1796SOL     OW 6286   1.139   0.147   6.486
 1796SOL    HW1 6287   1.059   0.100   6.523
 1796SOL    HW2 6288   1.118   0.181   6.394
 1797SOL     OW 6289   2.543   4.969   5.384
 1797SOL    HW1 6290   2.469   4.926   5.331
 1797SOL    HW2 6291   2.589   5.037   5.328
 1798SOL     OW 6292   2.872   3.520   4.267
 1798SOL    HW1 6293   2.960   3.474   4.257
 1798SOL    HW2 6294   2.836   3.543   4.176
 1799SOL     OW 6295   3.343   1.194   0.285
 1799SOL    HW1 6296   3.362   1.097   0.271
 1799SOL    HW2 6297   3.370   1.220   0.378
 1800SOL     OW 6298   5.529   3.976   4.596
 1800SOL    HW1 6299   5.506   3.885   4.561
 1800SOL    HW2 6300   5.608   3.969   4.658
 1801SOL     OW 6301   1.402   1.477   1.982
 1801SOL    HW1 6302   1.432   1.388   1.950
 1801SOL    HW2 6303   1.379   1.534   1.903
 1802SOL     OW 6304   6.729   4.874   3.674
 1802SOL    HW1 6305   6.679   4.939   3.730
 1802SOL    HW2 6306   6.714   4.781   3.709
 1803SOL     OW 6307   0.944   6.813   3.210
 1803SOL    HW1 6308   0.957   6.885   3.142
 1803SOL    HW2 6309   1.027   6.757   3.217
 1804SOL     OW 6310   2.226   3.259   5.779
 1804SOL    HW1 6311   2.154   3.303   5.725
 1804SOL    HW2 6312   2.251   3.319   5.856
 1805SOL     OW 6313   0.100   5.671   6.685
 1805SOL    HW1 6314   0.069   5.594   6.741
 1805SOL    HW2 6315   0.038   5.748   6.696
 1806SOL     OW 6316   6.700   1.797   2.285
 1806SOL    HW1 6317   6.772   1.847   2.237
 1806SOL    HW2 6318   6.705   1.700   2.260
 1807SOL     OW 6319   0.042   3.005   2.513
 1807SOL    HW1 6320   0.079   3.049   2.431
 1807SOL    HW2 6321   0.116   2.992   2.579
 1808SOL     OW 6322   4.797   1.941   6.023
 1808SOL    HW1 6323   4.892   1.957   6.051
 1808SOL    HW2 6324   4.742   2.022   6.042
 1809SOL     OW 6325   4.069   0.705   5.876
 1809SOL    HW1 6326   4.018   0.690   5.791
 1809SOL    HW2 6327   4.166   0.687   5.861
 1810SOL     OW 6328   0.171   6.974   4.247
 1810SOL    HW1 6329   0.195   0.047   4.229
 1810SOL    HW2 6330   0.176   6.922   4.162
 1811SOL     OW 6331   4.154   5.704   1.888
 1811SOL    HW1 6332   4.121   5.610   1.875
 1811SOL    HW2 6333   4.106   5.765   1.825
 1812SOL     OW 6334   4.737   6.546   5.660
 1812SOL    HW1 6335   4.660   6.569   5.719
 1812SOL    HW2 6336   4.814   6.608   5.681
 1813SOL     OW 6337   4.265   4.764   2.594
 1813SOL    HW1 6338   4.279   4.691   2.527
 1813SOL    HW2 6339   4.170   4.765   2.624
 1814SOL     OW 6340   6.977   5.459   0.533
 1814SOL    HW1 6341   0.027   5.499   0.589
 1814SOL    HW2 6342   7.011   5.445   0.440
 1815SOL     OW 6343   5.748   6.298   1.522
 1815SOL    HW1 6344   5.775   6.394   1.533
 1815SOL    HW2 6345   5.690   6.290   1.441
 1816SOL     OW 6346   4.234   5.140   5.636
 1816SOL    HW1 6347   4.216   5.226   5.588
 1816SOL    HW2 6348   4.256   5.069   5.569
 1817SOL     OW 6349   0.953   1.659   3.724
 1817SOL    HW1 6350   1.007   1.652   3.808
 1817SOL    HW2 6351   0.861   1.623   3.740
 1818SOL     OW 6352   1.946   0.079   0.992
 1818SOL    HW1 6353   2.018   0.082   0.923
 1818SOL    HW2 6354   1.974   0.021   1.068
 1819SOL     OW 6355   2.265   4.662   3.516
 1819SOL    HW1 6356   2.233   4.686   3.425
 1819SOL    HW2 6357   2.343   4.600   3.509
 1820SOL     OW 6358   4.012   6.684   5.051
 1820SOL    HW1 6359   4.039   6.751   5.121
 1820SOL    HW2 6360   4.077   6.608   5.050
 1821SOL     OW 6361   3.260   2.167   2.737
 1821SOL    HW1 6362   3.198   2.202   2.667
 1821SOL    HW2 6363   3.234   2.205   2.826
 1822SOL     OW 6364   6.487   2.939   2.536
 1822SOL    HW1 6365   6.512   2.901   2.626
 1822SOL    HW2 6366   6.557   3.005   2.508
 1823SOL     OW 6367   3.593   6.178   2.520
 1823SOL    HW1 6368   3.651   6.097   2.514
 1823SOL    HW2 6369   3.649   6.259   2.502
 1824SOL     OW 6370   4.219   2.977   1.385
 1824SOL    HW1 6371   4.202   2.926   1.470
 1824SOL    HW2 6372   4.223   3.075   1.405
 1825SOL     OW 6373   2.081   1.399   5.305
 1825SOL    HW1 6374   2.011   1.329   5.295
 1825SOL    HW2 6375   2.051   1.484   5.262
 1826SOL     OW 6376   3.594   2.220   1.668
 1826SOL    HW1 6377   3.639   2.245   1.754
 1826SOL    HW2 6378   3.656   2.240   1.591
 1827SOL     OW 6379   5.945   4.256   1.187
 1827SOL    HW1 6380   5.963   4.202   1.105
 1827SOL    HW2 6381   5.872   4.213   1.241
 1828SOL     OW 6382   1.687   2.946   5.151
 1828SOL    HW1 6383   1.731   2.857   5.141
 1828SOL    HW2 6384   1.727   3.010   5.084
 1829SOL     OW 6385   3.720   0.455   3.422
 1829SOL    HW1 6386   3.672   0.376   3.461
 1829SOL    HW2 6387   3.743   0.519   3.495
 1830SOL     OW 6388   4.620   6.840   4.550
 1830SOL    HW1 6389   4.665   6.909   4.493
 1830SOL    HW2 6390   4.665   6.752   4.538
 1831SOL     OW 6391   4.255   5.363   1.254
 1831SOL    HW1 6392   4.332   5.300   1.245
 1831SOL    HW2 6393   4.189   5.345   1.181
 1832SOL     OW 6394   2.278   3.099   0.446
 1832SOL    HW1 6395   2.367   3.057   0.428
 1832SOL    HW2 6396   2.220   3.090   0.365
 1833SOL     OW 6397   5.317   0.734   0.476
 1833SOL    HW1 6398   5.254   0.811   0.461
 1833SOL    HW2 6399   5.278   0.672   0.544
 1834SOL     OW 6400   1.684   2.192   5.652
 1834SOL    HW1 6401   1.744   2.271   5.658
 1834SOL    HW2 6402   1.593   2.221   5.622
 1835SOL     OW 6403   6.734   6.180   0.961
 1835SOL    HW1 6404   6.770   6.271   0.941
 1835SOL    HW2 6405   6.651   6.189   1.016
 1836SOL     OW 6406   4.813   2.548   1.752
 1836SOL    HW1 6407   4.883   2.588   1.692
 1836SOL    HW2 6408   4.735   2.609   1.758
 1837SOL     OW 6409   3.209   2.968   6.129
 1837SOL    HW1 6410   3.201   2.869   6.144
 1837SOL    HW2 6411   3.281   2.986   6.062
 1838SOL     OW 6412   6.627   0.905   0.855
 1838SOL    HW1 6413   6.533   0.935   0.842
 1838SOL    HW2 6414   6.630   0.806   0.866
 1839SOL     OW 6415   0.155   1.192   6.862
 1839SOL    HW1 6416   0.201   1.201   6.774
 1839SOL    HW2 6417   0.117   1.280   6.889
 1840SOL     OW 6418   4.651   6.546   3.416
 1840SOL    HW1 6419   4.653   6.604   3.498
 1840SOL    HW2 6420   4.733   6.563   3.361
 1841SOL     OW 6421   2.287   0.955   2.413
 1841SOL    HW1 6422   2.312   0.900   2.333
 1841SOL    HW2 6423   2.227   1.030   2.384
 1842SOL     OW 6424   1.455   5.646   0.066
 1842SOL    HW1 6425   1.445   5.707   0.144
 1842SOL    HW2 6426   1.497   5.560   0.097
 1843SOL     OW 6427   2.737   1.374   4.891
 1843SOL    HW1 6428   2.671   1.401   4.821
 1843SOL    HW2 6429   2.829   1.401   4.862
 1844SOL     OW 6430   5.574   2.389   6.411
 1844SOL    HW1 6431   5.606   2.379   6.505
 1844SOL    HW2 6432   5.636   2.339   6.350
 1845SOL     OW 6433   1.461   1.512   3.103
 1845SOL    HW1 6434   1.528   1.512   3.028
 1845SOL    HW2 6435   1.405   1.594   3.097
 1846SOL     OW 6436   4.204   1.648   2.187
 1846SOL    HW1 6437   4.145   1.717   2.145
 1846SOL    HW2 6438   4.219   1.672   2.283
 1847SOL     OW 6439   2.174   6.125   5.384
 1847SOL    HW1 6440   2.188   6.126   5.483
 1847SOL    HW2 6441   2.262   6.115   5.337
 1848SOL     OW 6442   2.741   5.741   3.562
 1848SOL    HW1 6443   2.770   5.731   3.658
 1848SOL    HW2 6444   2.752   5.653   3.515
 1849SOL     OW 6445   4.619   2.729   1.818
 1849SOL    HW1 6446   4.531   2.683   1.816
 1849SOL    HW2 6447   4.608   2.821   1.855
 1850SOL     OW 6448   5.219   1.468   1.259
 1850SOL    HW1 6449   5.177   1.412   1.331
 1850SOL    HW2 6450   5.168   1.553   1.248
 1851SOL     OW 6451   0.280   3.993   5.039
 1851SOL    HW1 6452   0.236   3.946   5.116
 1851SOL    HW2 6453   0.379   3.995   5.053
 1852SOL     OW 6454   0.692   6.775   2.644
 1852SOL    HW1 6455   0.621   6.705   2.643
 1852SOL    HW2 6456   0.757   6.758   2.569
 1853SOL     OW 6457   0.111   2.652   4.725
 1853SOL    HW1 6458   0.080   2.566   4.685
 1853SOL    HW2 6459   0.044   2.724   4.707
 1854SOL     OW 6460   0.363   0.148   3.511
 1854SOL    HW1 6461   0.330   0.159   3.417
 1854SOL    HW2 6462   0.423   0.068   3.515
 1855SOL     OW 6463   4.546   2.380   4.429
 1855SOL    HW1 6464   4.614   2.310   4.408
 1855SOL    HW2 6465   4.592   2.468   4.443
 1856SOL     OW 6466   3.501   2.745   0.454
 1856SOL    HW1 6467   3.555   2.733   0.370
 1856SOL    HW2 6468   3.428   2.811   0.437
 1857SOL     OW 6469   4.053   1.720   1.154
 1857SOL    HW1 6470   3.963   1.717   1.197
 1857SOL    HW2 6471   4.116   1.662   1.205
 1858SOL     OW 6472   4.512   2.597   4.058
 1858SOL    HW1 6473   4.526   2.624   3.963
 1858SOL    HW2 6474   4.567   2.656   4.118
 1859SOL     OW 6475   6.119   2.070   4.184
 1859SOL    HW1 6476   6.027   2.033   4.189
 1859SOL    HW2 6477   6.116   2.169   4.196
 1860SOL     OW 6478   1.415   1.630   4.732
 1860SOL    HW1 6479   1.441   1.706   4.673
 1860SOL    HW2 6480   1.315   1.620   4.732
 1861SOL     OW 6481   6.582   0.017   3.678
 1861SOL    HW1 6482   6.557   0.114   3.687
 1861SOL    HW2 6483   6.652   0.008   3.606
 1862SOL     OW 6484   3.038   5.438   6.513
 1862SOL    HW1 6485   3.046   5.340   6.497
 1862SOL    HW2 6486   2.963   5.475   6.458
 1863SOL     OW 6487   0.139   2.937   0.551
 1863SOL    HW1 6488   0.128   2.923   0.650
 1863SOL    HW2 6489   0.164   2.850   0.508
 1864SOL     OW 6490   3.924   5.303   2.624
 1864SOL    HW1 6491   3.972   5.258   2.549
 1864SOL    HW2 6492   3.965   5.275   2.711
 1865SOL     OW 6493   5.678   1.439   5.645
 1865SOL    HW1 6494   5.710   1.406   5.734
 1865SOL    HW2 6495   5.601   1.502   5.659
 1866SOL     OW 6496   1.023   5.032   3.707
 1866SOL    HW1 6497   1.100   5.024   3.771
 1866SOL    HW2 6498   0.994   5.127   3.701
 1867SOL     OW 6499   1.450   2.456   1.472
 1867SOL    HW1 6500   1.534   2.430   1.521
 1867SOL    HW2 6501   1.371   2.414   1.517
 1868SOL     OW 6502   6.026   3.538   5.925
 1868SOL    HW1 6503   6.048   3.635   5.913
 1868SOL    HW2 6504   5.963   3.509   5.854
 1869SOL     OW 6505   4.231   1.270   3.867
 1869SOL    HW1 6506   4.132   1.265   3.859
 1869SOL    HW2 6507   4.258   1.254   3.962
 1870SOL     OW 6508   0.052   5.628   4.466
 1870SOL    HW1 6509   0.039   5.595   4.372
 1870SOL    HW2 6510   0.129   5.692   4.470
 1871SOL     OW 6511   0.315   6.580   0.417
 1871SOL    HW1 6512   0.366   6.620   0.341
 1871SOL    HW2 6513   0.354   6.611   0.503
 1872SOL     OW 6514   2.881   2.563   1.460
 1872SOL    HW1 6515   2.927   2.514   1.534
 1872SOL    HW2 6516   2.789   2.590   1.489
 1873SOL     OW 6517   0.223   1.501   0.637
 1873SOL    HW1 6518   0.315   1.481   0.605
 1873SOL    HW2 6519   0.185   1.577   0.583
 1874SOL     OW 6520   0.347   6.016   0.147
 1874SOL    HW1 6521   0.336   6.016   0.048
 1874SOL    HW2 6522   0.312   6.102   0.185
 1875SOL     OW 6523   6.701   5.270   6.979
 1875SOL    HW1 6524   6.694   5.201   6.907
 1875SOL    HW2 6525   6.724   5.225   0.043
 1876SOL     OW 6526   6.997   6.046   7.016
 1876SOL    HW1 6527   6.983   6.099   6.932
 1876SOL    HW2 6528   7.020   5.951   6.992
 1877SOL     OW 6529   0.936   1.455   2.545
 1877SOL    HW1 6530   0.871   1.381   2.533
 1877SOL    HW2 6531   0.993   1.463   2.463
 1878SOL     OW 6532   6.545   3.823   3.659
 1878SOL    HW1 6533   6.606   3.794   3.734
 1878SOL    HW2 6534   6.600   3.852   3.581
 1879SOL     OW 6535   4.873   6.174   4.856
 1879SOL    HW1 6536   4.786   6.222   4.859
 1879SOL    HW2 6537   4.887   6.126   4.943
 1880SOL     OW 6538   0.215   1.647   3.953
 1880SOL    HW1 6539   0.233   1.718   3.886
 1880SOL    HW2 6540   0.297   1.629   4.007
 1881SOL     OW 6541   1.507   1.815   4.566
 1881SOL    HW1 6542   1.525   1.913   4.565
 1881SOL    HW2 6543   1.591   1.765   4.546
 1882SOL     OW 6544   1.903   5.624   6.604
 1882SOL    HW1 6545   1.880   5.527   6.598
 1882SOL    HW2 6546   1.854   5.674   6.532
 1883SOL     OW 6547   1.677   2.953   2.245
 1883SOL    HW1 6548   1.743   2.981   2.314
 1883SOL    HW2 6549   1.585   2.978   2.274
 1884SOL     OW 6550   2.704   1.041   0.178
 1884SOL    HW1 6551   2.803   1.047   0.172
 1884SOL    HW2 6552   2.668   1.122   0.226
 1885SOL     OW 6553   0.441   2.244   1.169
 1885SOL    HW1 6554   0.496   2.227   1.250
 1885SOL    HW2 6555   0.417   2.341   1.166
 1886SOL     OW 6556   2.860   2.494   5.983
 1886SOL    HW1 6557   2.910   2.579   6.000
 1886SOL    HW2 6558   2.914   2.416   6.016
 1887SOL     OW 6559   0.173   6.994   5.364
 1887SOL    HW1 6560   0.221   6.918   5.407
 1887SOL    HW2 6561   0.199   6.998   5.267
 1888SOL     OW 6562   2.090   1.724   5.448
 1888SOL    HW1 6563   2.184   1.703   5.423
 1888SOL    HW2 6564   2.060   1.663   5.522
 1889SOL     OW 6565   3.524   3.071   0.261
 1889SOL    HW1 6566   3.561   2.988   0.219
 1889SOL    HW2 6567   3.446   3.047   0.318
 1890SOL     OW 6568   6.345   5.770   6.257
 1890SOL    HW1 6569   6.396   5.786   6.172
 1890SOL    HW2 6570   6.261   5.824   6.256
 1891SOL     OW 6571   5.971   4.257   5.262
 1891SOL    HW1 6572   6.019   4.185   5.212
 1891SOL    HW2 6573   5.877   4.228   5.281
 1892SOL     OW 6574   3.877   6.263   1.270
 1892SOL    HW1 6575   3.932   6.185   1.301
 1892SOL    HW2 6576   3.818   6.235   1.195
 1893SOL     OW 6577   3.639   1.793   4.777
 1893SOL    HW1 6578   3.582   1.844   4.842
 1893SOL    HW2 6579   3.734   1.796   4.807
 1894SOL     OW 6580   3.982   3.897   0.789
 1894SOL    HW1 6581   4.068   3.934   0.756
 1894SOL    HW2 6582   3.994   3.801   0.814
 1895SOL     OW 6583   5.333   0.462   3.028
 1895SOL    HW1 6584   5.399   0.528   2.991
 1895SOL    HW2 6585   5.382   0.392   3.079
 1896SOL     OW 6586   6.592   1.161   5.761
 1896SOL    HW1 6587   6.635   1.248   5.735
 1896SOL    HW2 6588   6.614   1.141   5.857
 1897SOL     OW 6589   5.775   5.212   3.448
 1897SOL    HW1 6590   5.841   5.240   3.517
 1897SOL    HW2 6591   5.705   5.283   3.438
 1898SOL     OW 6592   5.757   5.427   6.892
 1898SOL    HW1 6593   5.758   5.331   6.918
 1898SOL    HW2 6594   5.851   5.463   6.893
 1899SOL     OW 6595   1.143   3.038   3.434
 1899SOL    HW1 6596   1.234   3.078   3.444
 1899SOL    HW2 6597   1.099   3.075   3.352
 1900SOL     OW 6598   2.619   5.812   0.450
 1900SOL    HW1 6599   2.686   5.823   0.377
 1900SOL    HW2 6600   2.530   5.849   0.421
 1901SOL     OW 6601   1.298   1.536   6.974
 1901SOL    HW1 6602   1.252   1.462   0.000
 1901SOL    HW2 6603   1.392   1.509   6.955
 1902SOL     OW 6604   1.301   2.769   5.028
 1902SOL    HW1 6605   1.202   2.753   5.032
 1902SOL    HW2 6606   1.324   2.850   5.081
 1903SOL     OW 6607   6.167   3.510   4.076
 1903SOL    HW1 6608   6.090   3.499   4.013
 1903SOL    HW2 6609   6.140   3.570   4.151
 1904SOL     OW 6610   6.829   0.127   3.854
 1904SOL    HW1 6611   6.799   0.031   3.858
 1904SOL    HW2 6612   6.805   0.166   3.766
 1905SOL     OW 6613   6.631   2.855   3.824
 1905SOL    HW1 6614   6.537   2.871   3.853
 1905SOL    HW2 6615   6.634   2.837   3.726
 1906SOL     OW 6616   2.612   6.644   0.545
 1906SOL    HW1 6617   2.599   6.553   0.583
 1906SOL    HW2 6618   2.539   6.705   0.577
 1907SOL     OW 6619   3.304   6.190   3.496
 1907SOL    HW1 6620   3.376   6.131   3.533
 1907SOL    HW2 6621   3.249   6.226   3.571
 1908SOL     OW 6622   5.026   1.295   6.736
 1908SOL    HW1 6623   5.022   1.204   6.693
 1908SOL    HW2 6624   4.935   1.336   6.735
 1909SOL     OW 6625   3.253   4.966   4.513
 1909SOL    HW1 6626   3.253   5.060   4.547
 1909SOL    HW2 6627   3.197   4.909   4.573
 1910SOL     OW 6628   4.789   1.713   5.590
 1910SOL    HW1 6629   4.885   1.705   5.560
 1910SOL    HW2 6630   4.771   1.807   5.619
 1911SOL     OW 6631   6.382   3.899   6.004
 1911SOL    HW1 6632   6.462   3.959   6.000
 1911SOL    HW2 6633   6.299   3.954   5.996
 1912SOL     OW 6634   3.776   6.935   3.585
 1912SOL    HW1 6635   3.782   6.880   3.669
 1912SOL    HW2 6636   3.697   6.905   3.531
 1913SOL     OW 6637   1.023   4.235   5.552
 1913SOL    HW1 6638   1.096   4.190   5.603
 1913SOL    HW2 6639   1.048   4.329   5.531
 1914SOL     OW 6640   3.886   1.820   5.663
 1914SOL    HW1 6641   3.953   1.858   5.727
 1914SOL    HW2 6642   3.889   1.872   5.578
 1915SOL     OW 6643   3.171   0.039   5.349
 1915SOL    HW1 6644   3.134   6.970   5.336
 1915SOL    HW2 6645   3.160   0.067   5.445
 1916SOL     OW 6646   3.596   6.439   1.134
 1916SOL    HW1 6647   3.661   6.504   1.173
 1916SOL    HW2 6648   3.624   6.417   1.040
 1917SOL     OW 6649   3.155   2.973   3.936
 1917SOL    HW1 6650   3.086   2.901   3.928
 1917SOL    HW2 6651   3.135   3.031   4.015
 1918SOL     OW 6652   5.811   0.023   4.106
 1918SOL    HW1 6653   5.864   6.971   4.066
 1918SOL    HW2 6654   5.742   7.007   4.168
 1919SOL     OW 6655   6.453   6.891   1.319
 1919SOL    HW1 6656   6.509   6.823   1.271
 1919SOL    HW2 6657   6.406   6.846   1.395
 1920SOL     OW 6658   6.593   5.746   4.339
 1920SOL    HW1 6659   6.650   5.689   4.280
 1920SOL    HW2 6660   6.645   5.826   4.368
 1921SOL     OW 6661   1.236   6.905   6.868
 1921SOL    HW1 6662   1.142   6.871   6.870
 1921SOL    HW2 6663   1.281   6.884   6.955
 1922SOL     OW 6664   3.401   4.329   0.343
 1922SOL    HW1 6665   3.498   4.350   0.330
 1922SOL    HW2 6666   3.346   4.386   0.281
 1923SOL     OW 6667   1.715   1.809   0.783
 1923SOL    HW1 6668   1.789   1.780   0.844
 1923SOL    HW2 6669   1.656   1.873   0.830
 1924SOL     OW 6670   0.391   4.817   1.440
 1924SOL    HW1 6671   0.401   4.818   1.340
 1924SOL    HW2 6672   0.449   4.888   1.480
 1925SOL     OW 6673   2.821   4.331   0.950
 1925SOL    HW1 6674   2.768   4.416   0.958
 1925SOL    HW2 6675   2.759   4.256   0.926
 1926SOL     OW 6676   1.063   0.246   3.602
 1926SOL    HW1 6677   0.985   0.308   3.590
 1926SOL    HW2 6678   1.117   0.275   3.681
 1927SOL     OW 6679   4.052   3.217   6.777
 1927SOL    HW1 6680   4.077   3.297   6.831
 1927SOL    HW2 6681   4.101   3.219   6.689
 1928SOL     OW 6682   6.041   4.708   5.728
 1928SOL    HW1 6683   5.967   4.667   5.782
 1928SOL    HW2 6684   6.116   4.643   5.719
 1929SOL     OW 6685   1.245   6.907   2.219
 1929SOL    HW1 6686   1.242   6.812   2.249
 1929SOL    HW2 6687   1.338   6.931   2.192
 1930SOL     OW 6688   5.642   3.902   6.375
 1930SOL    HW1 6689   5.733   3.917   6.336
 1930SOL    HW2 6690   5.614   3.807   6.360
 1931SOL     OW 6691   0.392   2.312   4.649
 1931SOL    HW1 6692   0.328   2.389   4.646
 1931SOL    HW2 6693   0.373   2.256   4.729
 1932SOL     OW 6694   5.896   3.694   1.473
 1932SOL    HW1 6695   5.900   3.595   1.488
 1932SOL    HW2 6696   5.938   3.741   1.551
 1933SOL     OW 6697   3.075   4.026   1.409
 1933SOL    HW1 6698   3.104   3.964   1.337
 1933SOL    HW2 6699   3.025   4.103   1.369
 1934SOL     OW 6700   0.729   5.814   5.303
 1934SOL    HW1 6701   0.796   5.782   5.369
 1934SOL    HW2 6702   0.649   5.753   5.305
 1935SOL     OW 6703   2.111   1.069   3.641
 1935SOL    HW1 6704   2.129   1.145   3.704
 1935SOL    HW2 6705   2.069   1.104   3.558
 1936SOL     OW 6706   6.430   5.289   5.304
 1936SOL    HW1 6707   6.495   5.218   5.333
 1936SOL    HW2 6708   6.470   5.379   5.321
 1937SOL     OW 6709   3.862   6.563   1.817
 1937SOL    HW1 6710   3.847   6.595   1.910
 1937SOL    HW2 6711   3.885   6.466   1.818
 1938SOL     OW 6712   4.581   0.787   3.319
 1938SOL    HW1 6713   4.586   0.885   3.301
 1938SOL    HW2 6714   4.555   0.772   3.415
 1939SOL     OW 6715   1.938   0.656   3.654
 1939SOL    HW1 6716   1.910   0.750   3.675
 1939SOL    HW2 6717   2.034   0.655   3.627
 1940SOL     OW 6718   7.009   5.464   6.849
 1940SOL    HW1 6719   6.952   5.428   6.923
 1940SOL    HW2 6720   6.976   5.429   6.761
 1941SOL     OW 6721   4.915   4.086   2.837
 1941SOL    HW1 6722   4.865   4.063   2.920
 1941SOL    HW2 6723   4.860   4.065   2.757
 1942SOL     OW 6724   6.058   5.015   2.764
 1942SOL    HW1 6725   5.978   5.071   2.742
 1942SOL    HW2 6726   6.036   4.952   2.839
 1943SOL     OW 6727   2.555   5.038   2.543
 1943SOL    HW1 6728   2.519   5.109   2.483
 1943SOL    HW2 6729   2.641   5.068   2.583
 1944SOL     OW 6730   6.854   1.341   1.086
 1944SOL    HW1 6731   6.781   1.301   1.030
 1944SOL    HW2 6732   6.931   1.278   1.091
 1945SOL     OW 6733   3.207   4.953   4.248
 1945SOL    HW1 6734   3.261   5.020   4.199
 1945SOL    HW2 6735   3.244   4.941   4.340
 1946SOL     OW 6736   1.427   0.692   7.003
 1946SOL    HW1 6737   1.432   0.722   6.907
 1946SOL    HW2 6738   1.518   0.696   0.021
 1947SOL     OW 6739   5.843   5.557   3.819
 1947SOL    HW1 6740   5.925   5.543   3.875
 1947SOL    HW2 6741   5.782   5.479   3.829
 1948SOL     OW 6742   6.099   5.120   4.661
 1948SOL    HW1 6743   6.122   5.151   4.753
 1948SOL    HW2 6744   6.176   5.069   4.622
 1949SOL     OW 6745   4.480   3.973   6.452
 1949SOL    HW1 6746   4.546   4.047   6.462
 1949SOL    HW2 6747   4.406   4.002   6.391
 1950SOL     OW 6748   3.009   3.568   6.610
 1950SOL    HW1 6749   2.935   3.634   6.623
 1950SOL    HW2 6750   3.091   3.599   6.658
 1951SOL     OW 6751   5.957   1.936   6.756
 1951SOL    HW1 6752   5.864   1.970   6.745
 1951SOL    HW2 6753   5.954   1.845   6.797
 1952SOL     OW 6754   3.634   2.062   6.712
 1952SOL    HW1 6755   3.634   2.037   6.616
 1952SOL    HW2 6756   3.646   2.161   6.721
 1953SOL     OW 6757   0.232   2.948   6.323
 1953SOL    HW1 6758   0.288   2.924   6.403
 1953SOL    HW2 6759   0.144   2.983   6.355
 1954SOL     OW 6760   3.362   2.126   3.994
 1954SOL    HW1 6761   3.305   2.180   4.056
 1954SOL    HW2 6762   3.317   2.039   3.975
 1955SOL     OW 6763   0.310   6.898   3.139
 1955SOL    HW1 6764   0.280   6.965   3.207
 1955SOL    HW2 6765   0.334   6.812   3.185
 1956SOL     OW 6766   5.741   5.615   2.564
 1956SOL    HW1 6767   5.798   5.678   2.512
 1956SOL    HW2 6768   5.743   5.524   2.521
 1957SOL     OW 6769   0.267   6.542   5.408
 1957SOL    HW1 6770   0.214   6.495   5.478
 1957SOL    HW2 6771   0.275   6.484   5.327
 1958SOL     OW 6772   5.383   3.298   5.964
 1958SOL    HW1 6773   5.453   3.257   6.023
 1958SOL    HW2 6774   5.297   3.246   5.973
 1959SOL     OW 6775   1.445   1.824   6.438
 1959SOL    HW1 6776   1.494   1.747   6.479
 1959SOL    HW2 6777   1.506   1.876   6.379
 1960SOL     OW 6778   5.690   5.612   0.654
 1960SOL    HW1 6779   5.679   5.711   0.668
 1960SOL    HW2 6780   5.667   5.564   0.739
 1961SOL     OW 6781   5.529   4.258   3.853
 1961SOL    HW1 6782   5.446   4.274   3.906
 1961SOL    HW2 6783   5.559   4.163   3.866
 1962SOL     OW 6784   0.976   6.475   3.430
 1962SOL    HW1 6785   0.937   6.567   3.433
 1962SOL    HW2 6786   0.960   6.428   3.517
 1963SOL     OW 6787   0.972   0.613   3.283
 1963SOL    HW1 6788   0.874   0.629   3.291
 1963SOL    HW2 6789   1.014   0.686   3.230
 1964SOL     OW 6790   5.153   3.621   2.903
 1964SOL    HW1 6791   5.187   3.714   2.889
 1964SOL    HW2 6792   5.158   3.571   2.816
 1965SOL     OW 6793   1.407   3.973   3.320
 1965SOL    HW1 6794   1.397   3.909   3.243
 1965SOL    HW2 6795   1.499   4.012   3.319
 1966SOL     OW 6796   6.599   5.124   5.440
 1966SOL    HW1 6797   6.588   5.060   5.515
 1966SOL    HW2 6798   6.677   5.185   5.458
 1967SOL     OW 6799   4.786   3.030   5.406
 1967SOL    HW1 6800   4.753   2.969   5.334
 1967SOL    HW2 6801   4.723   3.027   5.484
 1968SOL     OW 6802   3.552   5.831   6.090
 1968SOL    HW1 6803   3.466   5.833   6.040
 1968SOL    HW2 6804   3.583   5.736   6.100
 1969SOL     OW 6805   0.130   2.385   1.098
 1969SOL    HW1 6806   0.174   2.415   1.013
 1969SOL    HW2 6807   0.064   2.454   1.127
 1970SOL     OW 6808   1.652   1.067   4.369
 1970SOL    HW1 6809   1.669   1.119   4.453
 1970SOL    HW2 6810   1.643   1.130   4.293
 1971SOL     OW 6811   0.440   6.771   6.857
 1971SOL    HW1 6812   0.476   6.700   6.917
 1971SOL    HW2 6813   0.489   6.768   6.769
 1972SOL     OW 6814   0.726   4.748   3.970
 1972SOL    HW1 6815   0.755   4.816   4.037
 1972SOL    HW2 6816   0.771   4.765   3.883
 1973SOL     OW 6817   3.351   3.201   1.532
 1973SOL    HW1 6818   3.358   3.137   1.608
 1973SOL    HW2 6819   3.343   3.294   1.568
 1974SOL     OW 6820   5.084   0.767   3.896
 1974SOL    HW1 6821   5.079   0.867   3.899
 1974SOL    HW2 6822   5.178   0.738   3.914
 1975SOL     OW 6823   3.338   0.278   3.945
 1975SOL    HW1 6824   3.267   0.318   4.002
 1975SOL    HW2 6825   3.307   0.274   3.850
 1976SOL     OW 6826   0.402   5.596   0.661
 1976SOL    HW1 6827   0.332   5.575   0.729
 1976SOL    HW2 6828   0.357   5.620   0.574
 1977SOL     OW 6829   0.748   2.528   5.043
 1977SOL    HW1 6830   0.780   2.487   5.129
 1977SOL    HW2 6831   0.659   2.490   5.019
 1978SOL     OW 6832   6.362   1.933   4.190
 1978SOL    HW1 6833   6.285   1.997   4.190
 1978SOL    HW2 6834   6.402   1.929   4.281
 1979SOL     OW 6835   5.988   4.745   3.997
 1979SOL    HW1 6836   5.966   4.701   3.911
 1979SOL    HW2 6837   5.903   4.765   4.047
 1980SOL     OW 6838   4.303   0.428   1.417
 1980SOL    HW1 6839   4.238   0.354   1.399
 1980SOL    HW2 6840   4.368   0.434   1.341
 1981SOL     OW 6841   4.974   2.869   2.049
 1981SOL    HW1 6842   4.959   2.782   2.095
 1981SOL    HW2 6843   4.896   2.929   2.066
 1982SOL     OW 6844   5.441   6.235   4.654
 1982SOL    HW1 6845   5.359   6.253   4.599
 1982SOL    HW2 6846   5.413   6.189   4.739
 1983SOL     OW 6847   1.047   3.386   3.603
 1983SOL    HW1 6848   0.960   3.375   3.555
 1983SOL    HW2 6849   1.109   3.442   3.548
 1984SOL     OW 6850   3.994   1.522   6.671
 1984SOL    HW1 6851   3.948   1.521   6.760
 1984SOL    HW2 6852   3.956   1.450   6.613
 1985SOL     OW 6853   1.186   0.525   1.737
 1985SOL    HW1 6854   1.250   0.459   1.697
 1985SOL    HW2 6855   1.130   0.564   1.664
 1986SOL     OW 6856   1.831   1.502   6.477
 1986SOL    HW1 6857   1.887   1.429   6.516
 1986SOL    HW2 6858   1.872   1.591   6.497
 1987SOL     OW 6859   2.561   3.211   0.843
 1987SOL    HW1 6860   2.499   3.213   0.765
 1987SOL    HW2 6861   2.650   3.174   0.814
 1988SOL     OW 6862   4.386   3.802   0.437
 1988SOL    HW1 6863   4.440   3.813   0.520
 1988SOL    HW2 6864   4.436   3.839   0.359
 1989SOL     OW 6865   2.275   0.047   4.062
 1989SOL    HW1 6866   2.263   0.104   4.144
 1989SOL    HW2 6867   2.203   0.068   3.996
 1990SOL     OW 6868   3.203   0.856   1.616
 1990SOL    HW1 6869   3.270   0.819   1.680
 1990SOL    HW2 6870   3.202   0.956   1.622
 1991SOL     OW 6871   2.992   5.641   4.097
 1991SOL    HW1 6872   2.989   5.656   3.999
 1991SOL    HW2 6873   3.014   5.545   4.115
 1992SOL     OW 6874   2.320   6.345   5.592
 1992SOL    HW1 6875   2.302   6.271   5.657
 1992SOL    HW2 6876   2.285   6.431   5.629
 1993SOL     OW 6877   3.883   3.584   5.555
 1993SOL    HW1 6878   3.886   3.531   5.640
 1993SOL    HW2 6879   3.821   3.540   5.490
 1994SOL     OW 6880   6.583   2.545   2.091
 1994SOL    HW1 6881   6.563   2.526   1.995
 1994SOL    HW2 6882   6.501   2.581   2.135
 1995SOL     OW 6883   5.806   2.010   1.667
 1995SOL    HW1 6884   5.708   2.012   1.686
 1995SOL    HW2 6885   5.857   2.006   1.753
 1996SOL     OW 6886   3.529   4.139   0.159
 1996SOL    HW1 6887   3.479   4.171   0.239
 1996SOL    HW2 6888   3.497   4.188   0.078
 1997SOL     OW 6889   4.941   0.820   3.650
 1997SOL    HW1 6890   4.975   0.910   3.622
 1997SOL    HW2 6891   4.983   0.794   3.737
 1998SOL     OW 6892   2.874   4.464   5.538
 1998SOL    HW1 6893   2.845   4.524   5.612
 1998SOL    HW2 6894   2.834   4.495   5.452
 1999SOL     OW 6895   2.335   0.275   2.421
 1999SOL    HW1 6896   2.298   0.230   2.339
 1999SOL    HW2 6897   2.359   0.205   2.488
 2000SOL     OW 6898   4.206   1.482   4.703
 2000SOL    HW1 6899   4.180   1.419   4.629
 2000SOL    HW2 6900   4.136   1.479   4.775
 2001SOL     OW 6901   3.077   1.254   0.949
 2001SOL    HW1 6902   3.092   1.161   0.980
 2001SOL    HW2 6903   3.023   1.253   0.865
 2002SOL     OW 6904   1.662   5.180   5.541
 2002SOL    HW1 6905   1.657   5.240   5.621
 2002SOL    HW2 6906   1.672   5.085   5.571
 2003SOL     OW 6907   5.823   5.988   3.505
 2003SOL    HW1 6908   5.914   6.001   3.544
 2003SOL    HW2 6909   5.831   5.941   3.417
 2004SOL     OW 6910   2.924   0.867   5.793
 2004SOL    HW1 6911   2.927   0.967   5.786
 2004SOL    HW2 6912   2.987   0.837   5.865
 2005SOL     OW 6913   2.237   5.656   5.511
 2005SOL    HW1 6914   2.213   5.560   5.528
 2005SOL    HW2 6915   2.156   5.713   5.522
 2006SOL     OW 6916   4.429   5.057   4.345
 2006SOL    HW1 6917   4.356   5.079   4.281
 2006SOL    HW2 6918   4.419   5.113   4.428
 2007SOL     OW 6919   5.171   5.471   0.827
 2007SOL    HW1 6920   5.232   5.413   0.881
 2007SOL    HW2 6921   5.183   5.451   0.730
 2008SOL     OW 6922   0.103   6.198   3.792
 2008SOL    HW1 6923   0.031   6.153   3.846
 2008SOL    HW2 6924   0.083   6.186   3.694
 2009SOL     OW 6925   6.901   0.155   1.746
 2009SOL    HW1 6926   6.827   0.158   1.679
 2009SOL    HW2 6927   6.895   0.071   1.799
 2010SOL     OW 6928   0.877   0.541   0.704
 2010SOL    HW1 6929   0.788   0.544   0.659
 2010SOL    HW2 6930   0.901   0.447   0.725
 2011SOL     OW 6931   0.099   1.522   4.401
 2011SOL    HW1 6932   0.173   1.547   4.463
 2011SOL    HW2 6933   0.014   1.563   4.432
 2012SOL     OW 6934   1.705   3.975   0.749
 2012SOL    HW1 6935   1.713   3.914   0.828
 2012SOL    HW2 6936   1.768   3.945   0.678
 2013SOL     OW 6937   5.707   1.628   2.455
 2013SOL    HW1 6938   5.748   1.577   2.380
 2013SOL    HW2 6939   5.741   1.592   2.542
 2014SOL     OW 6940   2.124   5.327   3.560
 2014SOL    HW1 6941   2.151   5.404   3.501
 2014SOL    HW2 6942   2.129   5.355   3.656
 2015SOL     OW 6943   3.029   0.402   0.215
 2015SOL    HW1 6944   3.028   0.428   0.119
 2015SOL    HW2 6945   3.105   0.448   0.261
 2016SOL     OW 6946   0.661   5.443   4.418
 2016SOL    HW1 6947   0.651   5.374   4.347
 2016SOL    HW2 6948   0.758   5.458   4.436
 2017SOL     OW 6949   2.759   5.893   3.130
 2017SOL    HW1 6950   2.790   5.964   3.067
 2017SOL    HW2 6951   2.708   5.934   3.205
 2018SOL     OW 6952   0.233   5.274   6.157
 2018SOL    HW1 6953   0.271   5.363   6.130
 2018SOL    HW2 6954   0.294   5.231   6.224
 2019SOL     OW 6955   6.071   2.314   2.031
 2019SOL    HW1 6956   6.117   2.243   2.085
 2019SOL    HW2 6957   5.981   2.333   2.072
 2020SOL     OW 6958   2.464   5.188   2.958
 2020SOL    HW1 6959   2.383   5.176   2.901
 2020SOL    HW2 6960   2.529   5.247   2.911
 2021SOL     OW 6961   1.775   0.810   2.243
 2021SOL    HW1 6962   1.751   0.907   2.246
 2021SOL    HW2 6963   1.832   0.793   2.163
 2022SOL     OW 6964   2.397   3.900   1.695
 2022SOL    HW1 6965   2.406   3.996   1.719
 2022SOL    HW2 6966   2.304   3.868   1.717
 2023SOL     OW 6967   6.634   1.066   6.018
 2023SOL    HW1 6968   6.707   1.057   6.085
 2023SOL    HW2 6969   6.583   0.980   6.013
 2024SOL     OW 6970   5.878   0.961   3.383
 2024SOL    HW1 6971   5.860   0.944   3.480
 2024SOL    HW2 6972   5.928   1.047   3.373
 2025SOL     OW 6973   0.053   1.519   1.874
 2025SOL    HW1 6974   0.121   1.590   1.857
 2025SOL    HW2 6975   0.039   1.466   1.790
 2026SOL     OW 6976   2.314   1.575   5.365
 2026SOL    HW1 6977   2.359   1.612   5.284
 2026SOL    HW2 6978   2.249   1.504   5.337
 2027SOL     OW 6979   1.162   1.453   2.353
 2027SOL    HW1 6980   1.183   1.549   2.368
 2027SOL    HW2 6981   1.169   1.432   2.255
 2028SOL     OW 6982   3.726   2.673   0.328
 2028SOL    HW1 6983   3.771   2.608   0.267
 2028SOL    HW2 6984   3.684   2.624   0.404
 2029SOL     OW 6985   0.945   1.401   6.923
 2029SOL    HW1 6986   0.915   1.305   6.923
 2029SOL    HW2 6987   0.938   1.438   7.015
 2030SOL     OW 6988   1.779   1.858   3.462
 2030SOL    HW1 6989   1.766   1.782   3.398
 2030SOL    HW2 6990   1.872   1.894   3.452
 2031SOL     OW 6991   5.643   6.784   1.896
 2031SOL    HW1 6992   5.663   6.710   1.832
 2031SOL    HW2 6993   5.726   6.838   1.910
 2032SOL     OW 6994   4.574   6.394   1.224
 2032SOL    HW1 6995   4.609   6.306   1.190
 2032SOL    HW2 6996   4.483   6.381   1.262
 2033SOL     OW 6997   5.381   4.679   6.481
 2033SOL    HW1 6998   5.306   4.744   6.490
 2033SOL    HW2 6999   5.344   4.588   6.465
 2034SOL     OW 7000   2.043   6.957   3.162
 2034SOL    HW1 7001   1.961   6.979   3.215
 2034SOL    HW2 7002   2.111   0.007   3.173
 2035SOL     OW 7003   0.578   2.128   2.673
 2035SOL    HW1 7004   0.526   2.064   2.729
 2035SOL    HW2 7005   0.620   2.198   2.731
 2036SOL     OW 7006   1.078   5.133   0.343
 2036SOL    HW1 7007   1.049   5.038   0.354
 2036SOL    HW2 7008   1.015   5.193   0.393
 2037SOL     OW 7009   6.911   1.817   5.617
 2037SOL    HW1 7010   6.890   1.733   5.667
 2037SOL    HW2 7011   6.881   1.808   5.522
 2038SOL     OW 7012   0.077   1.225   4.518
 2038SOL    HW1 7013   0.159   1.182   4.481
 2038SOL    HW2 7014   0.080   1.323   4.498
 2039SOL     OW 7015   7.008   5.900   3.068
 2039SOL    HW1 7016   6.924   5.950   3.048
 2039SOL    HW2 7017   7.017   5.822   3.006
 2040SOL     OW 7018   4.130   3.675   4.759
 2040SOL    HW1 7019   4.056   3.742   4.756
 2040SOL    HW2 7020   4.137   3.628   4.672
 2041SOL     OW 7021   5.865   4.586   5.391
 2041SOL    HW1 7022   5.880   4.680   5.419
 2041SOL    HW2 7023   5.866   4.580   5.291
 2042SOL     OW 7024   4.689   5.390   0.265
 2042SOL    HW1 7025   4.746   5.467   0.237
 2042SOL    HW2 7026   4.605   5.390   0.210
 2043SOL     OW 7027   5.625   4.605   2.240
 2043SOL    HW1 7028   5.654   4.528   2.183
 2043SOL    HW2 7029   5.704   4.664   2.259
 2044SOL     OW 7030   5.991   6.952   1.619
 2044SOL    HW1 7031   5.936   6.962   1.702
 2044SOL    HW2 7032   5.932   6.962   1.539
 2045SOL     OW 7033   2.378   4.697   5.756
 2045SOL    HW1 7034   2.287   4.678   5.719
 2045SOL    HW2 7035   2.431   4.613   5.761
 2046SOL     OW 7036   6.218   0.087   4.314
 2046SOL    HW1 7037   6.139   0.138   4.281
 2046SOL    HW2 7038   6.188   0.000   4.353
 2047SOL     OW 7039   5.117   2.453   0.625
 2047SOL    HW1 7040   5.103   2.480   0.530
 2047SOL    HW2 7041   5.066   2.369   0.643
 2048SOL     OW 7042   4.886   0.558   6.454
 2048SOL    HW1 7043   4.826   0.635   6.432
 2048SOL    HW2 7044   4.907   0.558   6.552
 2049SOL     OW 7045   4.139   1.178   0.102
 2049SOL    HW1 7046   4.148   1.078   0.111
 2049SOL    HW2 7047   4.191   1.209   0.022
 2050SOL     OW 7048   6.211   2.975   4.225
 2050SOL    HW1 7049   6.157   3.060   4.230
 2050SOL    HW2 7050   6.264   2.964   4.309
 2051SOL     OW 7051   1.359   6.062   0.403
 2051SOL    HW1 7052   1.329   6.116   0.324
 2051SOL    HW2 7053   1.289   6.064   0.474
 2052SOL     OW 7054   1.232   2.725   6.518
 2052SOL    HW1 7055   1.143   2.740   6.561
 2052SOL    HW2 7056   1.287   2.664   6.575
 2053SOL     OW 7057   6.336   0.617   0.053
 2053SOL    HW1 7058   6.243   0.647   0.073
 2053SOL    HW2 7059   6.336   0.523   0.022
 2054SOL     OW 7060   5.587   2.640   0.308
 2054SOL    HW1 7061   5.607   2.580   0.385
 2054SOL    HW2 7062   5.672   2.668   0.264
 2055SOL     OW 7063   5.263   2.622   3.657
 2055SOL    HW1 7064   5.201   2.612   3.734
 2055SOL    HW2 7065   5.303   2.714   3.659
 2056SOL     OW 7066   2.229   1.008   2.990
 2056SOL    HW1 7067   2.288   0.971   3.062
 2056SOL    HW2 7068   2.155   0.943   2.972
 2057SOL     OW 7069   6.631   2.902   4.207
 2057SOL    HW1 7070   6.650   2.820   4.153
 2057SOL    HW2 7071   6.647   2.983   4.151
 2058SOL     OW 7072   6.687   2.022   2.605
 2058SOL    HW1 7073   6.687   1.922   2.597
 2058SOL    HW2 7074   6.779   2.056   2.586
 2059SOL     OW 7075   1.932   1.225   0.091
 2059SOL    HW1 7076   2.000   1.155   0.072
 2059SOL    HW2 7077   1.958   1.275   0.174
 2060SOL     OW 7078   0.097   4.487   1.951
 2060SOL    HW1 7079   0.011   4.442   1.975
 2060SOL    HW2 7080   0.081   4.551   1.876
 2061SOL     OW 7081   6.770   1.520   2.225
 2061SOL    HW1 7082   6.720   1.441   2.189
 2061SOL    HW2 7083   6.861   1.524   2.184
 2062SOL     OW 7084   4.696   0.283   2.665
 2062SOL    HW1 7085   4.660   0.300   2.573
 2062SOL    HW2 7086   4.660   0.351   2.729
 2063SOL     OW 7087   1.654   3.022   6.397
 2063SOL    HW1 7088   1.679   3.119   6.394
 2063SOL    HW2 7089   1.574   3.006   6.340
 2064SOL     OW 7090   0.980   2.285   6.166
 2064SOL    HW1 7091   0.909   2.286   6.236
 2064SOL    HW2 7092   1.057   2.341   6.196
 2065SOL     OW 7093   6.183   3.812   2.128
 2065SOL    HW1 7094   6.160   3.872   2.205
 2065SOL    HW2 7095   6.268   3.763   2.149
 2066SOL     OW 7096   6.878   6.908   4.985
 2066SOL    HW1 7097   6.956   6.899   4.923
 2066SOL    HW2 7098   6.874   7.001   5.020
 2067SOL     OW 7099   6.519   6.629   0.954
 2067SOL    HW1 7100   6.477   6.590   0.872
 2067SOL    HW2 7101   6.540   6.725   0.938
 2068SOL     OW 7102   2.052   1.477   5.569
 2068SOL    HW1 7103   2.053   1.440   5.476
 2068SOL    HW2 7104   2.144   1.469   5.609
 2069SOL     OW 7105   0.975   2.555   2.265
 2069SOL    HW1 7106   0.904   2.544   2.335
 2069SOL    HW2 7107   1.064   2.567   2.309
 2070SOL     OW 7108   1.324   1.641   2.737
 2070SOL    HW1 7109   1.251   1.574   2.750
 2070SOL    HW2 7110   1.410   1.603   2.771
 2071SOL     OW 7111   0.620   0.071   4.183
 2071SOL    HW1 7112   0.542   0.040   4.130
 2071SOL    HW2 7113   0.702   0.074   4.125
 2072SOL     OW 7114   4.645   6.254   1.722
 2072SOL    HW1 7115   4.645   6.156   1.704
 2072SOL    HW2 7116   4.555   6.293   1.700
 2073SOL     OW 7117   3.311   6.930   5.611
 2073SOL    HW1 7118   3.378   6.912   5.683
 2073SOL    HW2 7119   3.305   6.851   5.551
 2074SOL     OW 7120   6.982   1.575   1.022
 2074SOL    HW1 7121   0.030   1.582   1.092
 2074SOL    HW2 7122   6.937   1.485   1.028
 2075SOL     OW 7123   4.241   3.004   0.289
 2075SOL    HW1 7124   4.296   3.068   0.236
 2075SOL    HW2 7125   4.200   3.052   0.367
 2076SOL     OW 7126   5.085   5.924   0.612
 2076SOL    HW1 7127   5.083   6.021   0.589
 2076SOL    HW2 7128   4.992   5.888   0.614
 2077SOL     OW 7129   6.049   1.660   2.628
 2077SOL    HW1 7130   6.059   1.722   2.706
 2077SOL    HW2 7131   5.967   1.605   2.641
 2078SOL     OW 7132   3.266   5.018   6.743
 2078SOL    HW1 7133   3.189   4.992   6.685
 2078SOL    HW2 7134   3.283   4.946   6.810
 2079SOL     OW 7135   6.025   1.198   3.399
 2079SOL    HW1 7136   6.049   1.295   3.387
 2079SOL    HW2 7137   6.075   1.161   3.477
 2080SOL     OW 7138   2.769   2.280   4.849
 2080SOL    HW1 7139   2.710   2.350   4.889
 2080SOL    HW2 7140   2.744   2.266   4.753
 2081SOL     OW 7141   1.338   6.261   4.882
 2081SOL    HW1 7142   1.313   6.258   4.979
 2081SOL    HW2 7143   1.269   6.213   4.829
 2082SOL     OW 7144   5.603   1.105   0.731
 2082SOL    HW1 7145   5.554   1.152   0.805
 2082SOL    HW2 7146   5.685   1.061   0.767
 2083SOL     OW 7147   3.650   4.831   6.565
 2083SOL    HW1 7148   3.614   4.923   6.555
 2083SOL    HW2 7149   3.718   4.814   6.494
 2084SOL     OW 7150   6.961   2.279   3.193
 2084SOL    HW1 7151   6.913   2.252   3.109
 2084SOL    HW2 7152   0.034   2.250   3.188
 2085SOL     OW 7153   4.606   0.580   5.749
 2085SOL    HW1 7154   4.532   0.591   5.683
 2085SOL    HW2 7155   4.635   0.670   5.781
 2086SOL     OW 7156   3.208   4.732   0.341
 2086SOL    HW1 7157   3.268   4.723   0.262
 2086SOL    HW2 7158   3.179   4.828   0.350
 2087SOL     OW 7159   5.741   0.111   2.547
 2087SOL    HW1 7160   5.799   0.073   2.619
 2087SOL    HW2 7161   5.671   0.169   2.588
 2088SOL     OW 7162   3.394   6.491   0.766
 2088SOL    HW1 7163   3.321   6.475   0.833
 2088SOL    HW2 7164   3.361   6.555   0.696
 2089SOL     OW 7165   5.204   1.598   0.049
 2089SOL    HW1 7166   5.209   1.572   0.145
 2089SOL    HW2 7167   5.185   1.696   0.041
 2090SOL     OW 7168   3.852   3.646   4.887
 2090SOL    HW1 7169   3.816   3.603   4.804
 2090SOL    HW2 7170   3.874   3.575   4.954
 2091SOL     OW 7171   0.674   5.559   0.836
 2091SOL    HW1 7172   0.621   5.480   0.805
 2091SOL    HW2 7173   0.617   5.615   0.896
 2092SOL     OW 7174   6.497   6.128   1.132
 2092SOL    HW1 7175   6.520   6.198   1.201
 2092SOL    HW2 7176   6.411   6.152   1.088
 2093SOL     OW 7177   1.180   2.884   1.591
 2093SOL    HW1 7178   1.113   2.941   1.639
 2093SOL    HW2 7179   1.200   2.924   1.502
 2094SOL     OW 7180   5.902   6.960   2.222
 2094SOL    HW1 7181   5.953   6.980   2.306
 2094SOL    HW2 7182   5.810   6.929   2.245
 2095SOL     OW 7183   5.882   6.223   4.325
 2095SOL    HW1 7184   5.812   6.231   4.396
 2095SOL    HW2 7185   5.962   6.174   4.362
 2096SOL     OW 7186   4.783   4.059   2.568
 2096SOL    HW1 7187   4.720   4.137   2.568
 2096SOL    HW2 7188   4.776   4.010   2.481
 2097SOL     OW 7189   6.956   2.528   0.043
 2097SOL    HW1 7190   6.948   2.441   7.017
 2097SOL    HW2 7191   6.893   2.594   0.003
 2098SOL     OW 7192   4.198   6.834   3.899
 2098SOL    HW1 7193   4.177   6.737   3.888
 2098SOL    HW2 7194   4.280   6.857   3.848
 2099SOL     OW 7195   2.433   0.859   4.767
 2099SOL    HW1 7196   2.364   0.832   4.834
 2099SOL    HW2 7197   2.499   0.921   4.811
 2100SOL     OW 7198   4.343   4.330   6.830
 2100SOL    HW1 7199   4.422   4.292   6.880
 2100SOL    HW2 7200   4.375   4.372   6.745
 2101SOL     OW 7201   0.404   0.457   2.995
 2101SOL    HW1 7202   0.374   0.398   2.920
 2101SOL    HW2 7203   0.503   0.465   2.994
 2102SOL     OW 7204   0.106   5.586   2.717
 2102SOL    HW1 7205   0.195   5.590   2.670
 2102SOL    HW2 7206   0.033   5.591   2.650
 2103SOL     OW 7207   3.204   3.256   6.907
 2103SOL    HW1 7208   3.219   3.190   6.980
 2103SOL    HW2 7209   3.160   3.211   6.829
 2104SOL     OW 7210   1.706   3.373   5.702
 2104SOL    HW1 7211   1.805   3.385   5.716
 2104SOL    HW2 7212   1.686   3.275   5.693
 2105SOL     OW 7213   5.436   5.111   3.008
 2105SOL    HW1 7214   5.529   5.108   2.971
 2105SOL    HW2 7215   5.371   5.110   2.932
 2106SOL     OW 7216   4.691   5.804   6.493
 2106SOL    HW1 7217   4.733   5.797   6.403
 2106SOL    HW2 7218   4.592   5.808   6.484
 2107SOL     OW 7219   4.056   4.252   5.475
 2107SOL    HW1 7220   3.970   4.274   5.429
 2107SOL    HW2 7221   4.121   4.215   5.408
 2108SOL     OW 7222   6.075   5.393   5.924
 2108SOL    HW1 7223   6.052   5.337   5.845
 2108SOL    HW2 7224   6.015   5.473   5.928
 2109SOL     OW 7225   5.728   5.906   2.867
 2109SOL    HW1 7226   5.690   5.910   2.960
 2109SOL    HW2 7227   5.814   5.957   2.864
 2110SOL     OW 7228   2.812   4.353   6.363
 2110SOL    HW1 7229   2.796   4.339   6.265
 2110SOL    HW2 7230   2.910   4.354   6.381
 2111SOL     OW 7231   1.224   2.647   6.047
 2111SOL    HW1 7232   1.284   2.690   5.980
 2111SOL    HW2 7233   1.238   2.689   6.137
 2112SOL     OW 7234   4.518   2.482   1.544
 2112SOL    HW1 7235   4.452   2.491   1.469
 2112SOL    HW2 7236   4.585   2.412   1.521
 2113SOL     OW 7237   1.283   0.786   2.597
 2113SOL    HW1 7238   1.269   0.811   2.693
 2113SOL    HW2 7239   1.380   0.768   2.581
 2114SOL     OW 7240   1.431   4.349   0.139
 2114SOL    HW1 7241   1.387   4.275   0.191
 2114SOL    HW2 7242   1.529   4.350   0.159
 2115SOL     OW 7243   2.026   4.866   2.289
 2115SOL    HW1 7244   1.977   4.835   2.207
 2115SOL    HW2 7245   2.121   4.835   2.285
 2116SOL     OW 7246   0.220   3.449   2.729
 2116SOL    HW1 7247   0.120   3.446   2.740
 2116SOL    HW2 7248   0.250   3.545   2.725
 2117SOL     OW 7249   0.290   4.519   1.493
 2117SOL    HW1 7250   0.361   4.456   1.462
 2117SOL    HW2 7251   0.328   4.611   1.501
 2118SOL     OW 7252   6.961   3.766   2.639
 2118SOL    HW1 7253   6.875   3.776   2.590
 2118SOL    HW2 7254   6.971   3.672   2.672
 2119SOL     OW 7255   2.326   5.873   1.065
 2119SOL    HW1 7256   2.331   5.873   0.965
 2119SOL    HW2 7257   2.270   5.950   1.096
 2120SOL     OW 7258   6.453   4.622   1.617
 2120SOL    HW1 7259   6.410   4.539   1.582
 2120SOL    HW2 7260   6.526   4.650   1.555
 2121SOL     OW 7261   0.334   5.260   5.128
 2121SOL    HW1 7262   0.404   5.209   5.078
 2121SOL    HW2 7263   0.336   5.356   5.100
 2122SOL     OW 7264   5.386   4.767   4.881
 2122SOL    HW1 7265   5.440   4.685   4.860
 2122SOL    HW2 7266   5.380   4.778   4.980
 2123SOL     OW 7267   6.866   4.713   2.556
 2123SOL    HW1 7268   6.916   4.765   2.625
 2123SOL    HW2 7269   6.931   4.671   2.492
 2124SOL     OW 7270   2.161   1.743   1.509
 2124SOL    HW1 7271   2.079   1.743   1.452
 2124SOL    HW2 7272   2.234   1.694   1.463
 2125SOL     OW 7273   2.791   0.785   0.229
 2125SOL    HW1 7274   2.735   0.866   0.245
 2125SOL    HW2 7275   2.806   0.737   0.316
 2126SOL     OW 7276   2.763   0.968   6.777
 2126SOL    HW1 7277   2.822   0.900   6.732
 2126SOL    HW2 7278   2.812   1.054   6.786
 2127SOL     OW 7279   5.818   2.884   4.468
 2127SOL    HW1 7280   5.848   2.886   4.564
 2127SOL    HW2 7281   5.886   2.836   4.413
 2128SOL     OW 7282   0.747   4.390   4.885
 2128SOL    HW1 7283   0.669   4.441   4.923
 2128SOL    HW2 7284   0.730   4.292   4.894
 2129SOL     OW 7285   4.826   3.245   5.246
 2129SOL    HW1 7286   4.821   3.152   5.284
 2129SOL    HW2 7287   4.764   3.305   5.296
 2130SOL     OW 7288   4.781   6.774   2.603
 2130SOL    HW1 7289   4.709   6.773   2.534
 2130SOL    HW2 7290   4.815   6.867   2.615
 2131SOL     OW 7291   0.218   0.693   0.647
 2131SOL    HW1 7292   0.136   0.748   0.640
 2131SOL    HW2 7293   0.265   0.715   0.733
 2132SOL     OW 7294   2.919   2.846   1.046
 2132SOL    HW1 7295   2.874   2.758   1.061
 2132SOL    HW2 7296   2.999   2.854   1.104
 2133SOL     OW 7297   3.201   2.318   6.265
 2133SOL    HW1 7298   3.178   2.345   6.359
 2133SOL    HW2 7299   3.264   2.386   6.226
 2134SOL     OW 7300   0.204   1.445   1.289
 2134SOL    HW1 7301   0.210   1.365   1.230
 2134SOL    HW2 7302   0.281   1.446   1.352
 2135SOL     OW 7303   0.945   3.982   4.457
 2135SOL    HW1 7304   0.867   4.011   4.401
 2135SOL    HW2 7305   0.923   3.896   4.502
 2136SOL     OW 7306   2.175   5.307   1.736
 2136SOL    HW1 7307   2.144   5.220   1.774
 2136SOL    HW2 7308   2.255   5.291   1.678
 2137SOL     OW 7309   3.342   5.614   4.729
 2137SOL    HW1 7310   3.323   5.704   4.770
 2137SOL    HW2 7311   3.258   5.578   4.688
 2138SOL     OW 7312   5.994   1.267   2.676
 2138SOL    HW1 7313   6.088   1.257   2.642
 2138SOL    HW2 7314   5.930   1.267   2.599
 2139SOL     OW 7315   3.478   0.818   5.441
 2139SOL    HW1 7316   3.392   0.871   5.442
 2139SOL    HW2 7317   3.492   0.779   5.351
 2140SOL     OW 7318   2.838   0.915   4.759
 2140SOL    HW1 7319   2.810   0.970   4.680
 2140SOL    HW2 7320   2.921   0.954   4.799
 2141SOL     OW 7321   6.129   4.574   2.084
 2141SOL    HW1 7322   6.123   4.642   2.011
 2141SOL    HW2 7323   6.125   4.620   2.173
 2142SOL     OW 7324   1.887   2.641   3.520
 2142SOL    HW1 7325   1.967   2.630   3.579
 2142SOL    HW2 7326   1.908   2.609   3.428
 2143SOL     OW 7327   2.617   4.787   0.966
 2143SOL    HW1 7328   2.545   4.819   0.903
 2143SOL    HW2 7329   2.626   4.852   1.041
 2144SOL     OW 7330   6.609   5.674   3.959
 2144SOL    HW1 7331   6.563   5.761   3.940
 2144SOL    HW2 7332   6.632   5.670   4.056
 2145SOL     OW 7333   4.228   6.708   4.202
 2145SOL    HW1 7334   4.222   6.807   4.212
 2145SOL    HW2 7335   4.193   6.664   4.285
 2146SOL     OW 7336   2.509   2.864   1.141
 2146SOL    HW1 7337   2.459   2.899   1.220
 2146SOL    HW2 7338   2.594   2.916   1.129
 2147SOL     OW 7339   6.738   1.112   5.488
 2147SOL    HW1 7340   6.718   1.098   5.585
 2147SOL    HW2 7341   6.828   1.156   5.479
 2148SOL     OW 7342   0.116   3.237   6.661
 2148SOL    HW1 7343   0.029   3.284   6.650
 2148SOL    HW2 7344   0.170   3.245   6.577
 2149SOL     OW 7345   1.130   0.158   6.884
 2149SOL    HW1 7346   1.178   0.237   6.845
 2149SOL    HW2 7347   1.182   0.075   6.864
 2150SOL     OW 7348   2.490   2.817   1.772
 2150SOL    HW1 7349   2.413   2.881   1.768
 2150SOL    HW2 7350   2.473   2.749   1.843
 2151SOL     OW 7351   0.886   6.460   6.976
 2151SOL    HW1 7352   0.848   6.391   6.915
 2151SOL    HW2 7353   0.975   6.491   6.941
 2152SOL     OW 7354   4.005   6.153   2.376
 2152SOL    HW1 7355   4.070   6.218   2.338
 2152SOL    HW2 7356   4.043   6.061   2.371
 2153SOL     OW 7357   4.678   1.219   2.741
 2153SOL    HW1 7358   4.630   1.303   2.766
 2153SOL    HW2 7359   4.710   1.226   2.647
 2154SOL     OW 7360   3.268   6.426   3.781
 2154SOL    HW1 7361   3.207   6.505   3.779
 2154SOL    HW2 7362   3.217   6.343   3.762
 2155SOL     OW 7363   4.367   6.552   0.372
 2155SOL    HW1 7364   4.388   6.508   0.285
 2155SOL    HW2 7365   4.298   6.623   0.358
 2156SOL     OW 7366   5.443   1.683   4.263
 2156SOL    HW1 7367   5.347   1.683   4.234
 2156SOL    HW2 7368   5.449   1.702   4.361
 2157SOL     OW 7369   4.084   4.956   3.989
 2157SOL    HW1 7370   4.087   4.984   4.085
 2157SOL    HW2 7371   4.164   4.992   3.941
 2158SOL     OW 7372   3.179   0.335   0.645
 2158SOL    HW1 7373   3.236   0.270   0.594
 2158SOL    HW2 7374   3.132   0.287   0.720
 2159SOL     OW 7375   1.337   0.231   5.898
 2159SOL    HW1 7376   1.256   0.227   5.957
 2159SOL    HW2 7377   1.322   0.300   5.827
 2160SOL     OW 7378   5.028   6.061   0.234
 2160SOL    HW1 7379   5.048   6.110   0.319
 2160SOL    HW2 7380   5.085   6.098   0.161
 2161SOL     OW 7381   1.329   3.951   2.576
 2161SOL    HW1 7382   1.375   3.910   2.655
 2161SOL    HW2 7383   1.376   4.035   2.549
 2162SOL     OW 7384   1.809   6.792   3.022
 2162SOL    HW1 7385   1.740   6.746   2.967
 2162SOL    HW2 7386   1.817   6.746   3.110
 2163SOL     OW 7387   1.353   3.020   0.998
 2163SOL    HW1 7388   1.385   3.113   0.983
 2163SOL    HW2 7389   1.256   3.013   0.975
 2164SOL     OW 7390   2.071   2.880   1.561
 2164SOL    HW1 7391   2.129   2.799   1.552
 2164SOL    HW2 7392   2.128   2.962   1.563
 2165SOL     OW 7393   0.154   2.024   3.806
 2165SOL    HW1 7394   0.145   2.106   3.862
 2165SOL    HW2 7395   0.179   2.050   3.713
 2166SOL     OW 7396   0.862   4.491   3.484
 2166SOL    HW1 7397   0.779   4.459   3.439
 2166SOL    HW2 7398   0.882   4.432   3.562
 2167SOL     OW 7399   1.775   2.551   4.064
 2167SOL    HW1 7400   1.828   2.551   4.148
 2167SOL    HW2 7401   1.720   2.467   4.059
 2168SOL     OW 7402   1.634   1.951   3.172
 2168SOL    HW1 7403   1.571   1.981   3.243
 2168SOL    HW2 7404   1.721   2.000   3.180
 2169SOL     OW 7405   0.410   0.778   1.311
 2169SOL    HW1 7406   0.378   0.703   1.369
 2169SOL    HW2 7407   0.460   0.740   1.233
 2170SOL     OW 7408   0.896   3.940   5.775
 2170SOL    HW1 7409   0.839   3.950   5.693
 2170SOL    HW2 7410   0.838   3.927   5.855
 2171SOL     OW 7411   0.401   5.270   1.463
 2171SOL    HW1 7412   0.451   5.263   1.550
 2171SOL    HW2 7413   0.304   5.286   1.483
 2172SOL     OW 7414   0.048   1.658   4.771
 2172SOL    HW1 7415   7.015   1.728   4.728
 2172SOL    HW2 7416   7.014   1.601   4.831
 2173SOL     OW 7417   5.856   0.606   4.950
 2173SOL    HW1 7418   5.955   0.613   4.964
 2173SOL    HW2 7419   5.828   0.511   4.961
 2174SOL     OW 7420   0.038   6.024   4.724
 2174SOL    HW1 7421   0.106   6.004   4.795
 2174SOL    HW2 7422   0.059   5.970   4.642
 2175SOL     OW 7423   3.211   2.881   5.592
 2175SOL    HW1 7424   3.307   2.908   5.595
 2175SOL    HW2 7425   3.206   2.781   5.593
 2176SOL     OW 7426   5.577   2.584   0.812
 2176SOL    HW1 7427   5.515   2.507   0.829
 2176SOL    HW2 7428   5.547   2.663   0.866
 2177SOL     OW 7429   6.872   0.978   3.367
 2177SOL    HW1 7430   6.903   0.940   3.455
 2177SOL    HW2 7431   6.772   0.980   3.366
 2178SOL     OW 7432   0.874   1.580   2.137
 2178SOL    HW1 7433   0.866   1.647   2.211
 2178SOL    HW2 7434   0.968   1.579   2.103
 2179SOL     OW 7435   2.006   4.456   6.728
 2179SOL    HW1 7436   1.951   4.494   6.802
 2179SOL    HW2 7437   2.098   4.495   6.733
 2180SOL     OW 7438   0.999   4.810   1.959
 2180SOL    HW1 7439   1.081   4.816   1.902
 2180SOL    HW2 7440   0.992   4.719   1.999
 2181SOL     OW 7441   4.897   4.692   4.264
 2181SOL    HW1 7442   4.862   4.726   4.351
 2181SOL    HW2 7443   4.944   4.605   4.278
 2182SOL     OW 7444   0.690   5.244   3.412
 2182SOL    HW1 7445   0.679   5.165   3.473
 2182SOL    HW2 7446   0.778   5.238   3.366
 2183SOL     OW 7447   3.380   3.355   0.475
 2183SOL    HW1 7448   3.429   3.277   0.514
 2183SOL    HW2 7449   3.428   3.388   0.394
 2184SOL     OW 7450   6.612   6.874   0.235
 2184SOL    HW1 7451   6.634   6.781   0.265
 2184SOL    HW2 7452   6.618   6.936   0.313
 2185SOL     OW 7453   0.571   1.745   6.683
 2185SOL    HW1 7454   0.650   1.718   6.739
 2185SOL    HW2 7455   0.559   1.844   6.687
 2186SOL     OW 7456   6.862   5.500   4.633
 2186SOL    HW1 7457   6.869   5.420   4.574
 2186SOL    HW2 7458   6.911   5.577   4.591
 2187SOL     OW 7459   0.763   5.390   3.016
 2187SOL    HW1 7460   0.686   5.445   2.983
 2187SOL    HW2 7461   0.746   5.293   2.995
 2188SOL     OW 7462   1.868   6.805   0.247
 2188SOL    HW1 7463   1.853   6.832   0.152
 2188SOL    HW2 7464   1.951   6.750   0.253
 2189SOL     OW 7465   2.007   1.649   2.025
 2189SOL    HW1 7466   2.031   1.698   2.109
 2189SOL    HW2 7467   1.939   1.701   1.974
 2190SOL     OW 7468   6.673   4.547   2.620
 2190SOL    HW1 7469   6.591   4.599   2.642
 2190SOL    HW2 7470   6.752   4.608   2.619
 2191SOL     OW 7471   2.082   0.815   5.883
 2191SOL    HW1 7472   2.150   0.751   5.919
 2191SOL    HW2 7473   2.011   0.765   5.835
 2192SOL     OW 7474   5.037   0.885   2.013
 2192SOL    HW1 7475   5.012   0.829   2.092
 2192SOL    HW2 7476   5.059   0.978   2.045
 2193SOL     OW 7477   0.014   6.798   6.322
 2193SOL    HW1 7478   0.113   6.788   6.337
 2193SOL    HW2 7479   7.021   6.861   6.246
 2194SOL     OW 7480   0.844   4.768   5.504
 2194SOL    HW1 7481   0.778   4.701   5.471
 2194SOL    HW2 7482   0.809   4.860   5.487
 2195SOL     OW 7483   0.847   4.580   6.703
 2195SOL    HW1 7484   0.881   4.616   6.790
 2195SOL    HW2 7485   0.807   4.654   6.649
 2196SOL     OW 7486   2.658   5.996   5.511
 2196SOL    HW1 7487   2.651   5.906   5.466
 2196SOL    HW2 7488   2.744   6.039   5.486
 2197SOL     OW 7489   3.199   3.587   5.440
 2197SOL    HW1 7490   3.278   3.647   5.429
 2197SOL    HW2 7491   3.180   3.540   5.354
 2198SOL     OW 7492   0.690   0.019   6.635
 2198SOL    HW1 7493   0.709   0.110   6.601
 2198SOL    HW2 7494   0.776   6.994   6.655
 2199SOL     OW 7495   4.838   6.899   4.006
 2199SOL    HW1 7496   4.774   6.926   3.934
 2199SOL    HW2 7497   4.897   6.976   4.030
 2200SOL     OW 7498   2.865   0.706   4.455
 2200SOL    HW1 7499   2.767   0.728   4.456
 2200SOL    HW2 7500   2.884   0.639   4.527
 2201SOL     OW 7501   6.815   2.642   3.391
 2201SOL    HW1 7502   6.863   2.606   3.311
 2201SOL    HW2 7503   6.869   2.716   3.431
 2202SOL     OW 7504   3.445   5.069   2.485
 2202SOL    HW1 7505   3.430   5.110   2.575
 2202SOL    HW2 7506   3.525   5.010   2.488
 2203SOL     OW 7507   2.364   3.785   0.885
 2203SOL    HW1 7508   2.366   3.720   0.960
 2203SOL    HW2 7509   2.311   3.747   0.809
 2204SOL     OW 7510   4.544   2.939   0.994
 2204SOL    HW1 7511   4.606   2.887   1.052
 2204SOL    HW2 7512   4.459   2.958   1.044
 2205SOL     OW 7513   1.511   6.445   0.545
 2205SOL    HW1 7514   1.504   6.451   0.645
 2205SOL    HW2 7515   1.464   6.523   0.504
 2206SOL     OW 7516   2.460   3.372   6.380
 2206SOL    HW1 7517   2.422   3.378   6.472
 2206SOL    HW2 7518   2.413   3.300   6.329
 2207SOL     OW 7519   4.361   5.697   0.813
 2207SOL    HW1 7520   4.290   5.663   0.751
 2207SOL    HW2 7521   4.382   5.626   0.880
 2208SOL     OW 7522   0.965   5.594   3.826
 2208SOL    HW1 7523   1.047   5.543   3.800
 2208SOL    HW2 7524   0.963   5.681   3.776
 2209SOL     OW 7525   2.983   5.398   5.318
 2209SOL    HW1 7526   3.010   5.425   5.225
 2209SOL    HW2 7527   3.036   5.318   5.346
 2210SOL     OW 7528   5.894   6.033   1.343
 2210SOL    HW1 7529   5.991   6.022   1.324
 2210SOL    HW2 7530   5.868   5.973   1.419
 2211SOL     OW 7531   5.972   0.372   1.045
 2211SOL    HW1 7532   6.045   0.362   0.977
 2211SOL    HW2 7533   5.883   0.367   0.999
 2212SOL     OW 7534   2.574   6.215   6.688
 2212SOL    HW1 7535   2.598   6.171   6.774
 2212SOL    HW2 7536   2.493   6.272   6.701
 2213SOL     OW 7537   4.368   2.411   4.210
 2213SOL    HW1 7538   4.418   2.391   4.294
 2213SOL    HW2 7539   4.423   2.471   4.152
 2214SOL     OW 7540   4.276   2.928   5.929
 2214SOL    HW1 7541   4.214   3.006   5.927
 2214SOL    HW2 7542   4.264   2.874   5.845
 2215SOL     OW 7543   5.387   1.352   6.442
 2215SOL    HW1 7544   5.349   1.336   6.533
 2215SOL    HW2 7545   5.485   1.373   6.451
 2216SOL     OW 7546   0.716   5.547   6.621
 2216SOL    HW1 7547   0.652   5.542   6.544
 2216SOL    HW2 7548   0.713   5.462   6.673
 2217SOL     OW 7549   4.306   0.984   2.906
 2217SOL    HW1 7550   4.396   1.019   2.932
 2217SOL    HW2 7551   4.242   1.060   2.898
 2218SOL     OW 7552   0.755   5.297   6.735
 2218SOL    HW1 7553   0.721   5.207   6.707
 2218SOL    HW2 7554   0.796   5.290   6.826
 2219SOL     OW 7555   5.786   1.270   0.578
 2219SOL    HW1 7556   5.816   1.326   0.655
 2219SOL    HW2 7557   5.717   1.205   0.610
 2220SOL     OW 7558   1.689   6.088   5.248
 2220SOL    HW1 7559   1.775   6.114   5.204
 2220SOL    HW2 7560   1.707   6.018   5.317
 2221SOL     OW 7561   6.522   1.246   4.585
 2221SOL    HW1 7562   6.595   1.226   4.519
 2221SOL    HW2 7563   6.438   1.200   4.558
 2222SOL     OW 7564   6.116   6.825   0.472
 2222SOL    HW1 7565   6.110   6.906   0.413
 2222SOL    HW2 7566   6.210   6.789   0.469
 2223SOL     OW 7567   6.730   0.669   5.605
 2223SOL    HW1 7568   6.705   0.596   5.668
 2223SOL    HW2 7569   6.703   0.757   5.643
 2224SOL     OW 7570   5.801   4.197   1.897
 2224SOL    HW1 7571   5.900   4.192   1.889
 2224SOL    HW2 7572   5.760   4.181   1.807
 2225SOL     OW 7573   0.534   6.393   3.821
 2225SOL    HW1 7574   0.539   6.362   3.727
 2225SOL    HW2 7575   0.513   6.491   3.824
 2226SOL     OW 7576   3.386   5.173   0.902
 2226SOL    HW1 7577   3.464   5.234   0.913
 2226SOL    HW2 7578   3.408   5.104   0.832
 2227SOL     OW 7579   4.210   2.486   1.466
 2227SOL    HW1 7580   4.244   2.394   1.487
 2227SOL    HW2 7581   4.263   2.525   1.391
 2228SOL     OW 7582   4.468   5.516   0.158
 2228SOL    HW1 7583   4.456   5.463   0.074
 2228SOL    HW2 7584   4.382   5.518   0.208
 2229SOL     OW 7585   3.275   3.667   4.773
 2229SOL    HW1 7586   3.354   3.630   4.724
 2229SOL    HW2 7587   3.225   3.729   4.713
 2230SOL     OW 7588   5.203   6.163   1.222
 2230SOL    HW1 7589   5.269   6.096   1.191
 2230SOL    HW2 7590   5.236   6.255   1.201
 2231SOL     OW 7591   0.355   1.159   6.638
 2231SOL    HW1 7592   0.439   1.145   6.690
 2231SOL    HW2 7593   0.367   1.237   6.576
 2232SOL     OW 7594   1.156   0.637   5.377
 2232SOL    HW1 7595   1.112   0.634   5.287
 2232SOL    HW2 7596   1.119   0.713   5.430
 2233SOL     OW 7597   3.265   3.500   0.999
 2233SOL    HW1 7598   3.287   3.403   1.013
 2233SOL    HW2 7599   3.210   3.510   0.916
 2234SOL     OW 7600   3.774   1.764   0.697
 2234SOL    HW1 7601   3.803   1.670   0.713
 2234SOL    HW2 7602   3.844   1.813   0.645
 2235SOL     OW 7603   2.672   0.342   2.698
 2235SOL    HW1 7604   2.615   0.410   2.652
 2235SOL    HW2 7605   2.644   0.333   2.794
 2236SOL     OW 7606   2.058   3.954   6.108
 2236SOL    HW1 7607   2.122   3.929   6.036
 2236SOL    HW2 7608   2.014   3.872   6.144
 2237SOL     OW 7609   6.330   5.247   5.036
 2237SOL    HW1 7610   6.417   5.222   4.993
 2237SOL    HW2 7611   6.348   5.294   5.122
 2238SOL     OW 7612   4.501   4.816   2.716
 2238SOL    HW1 7613   4.419   4.772   2.680
 2238SOL    HW2 7614   4.487   4.842   2.811
 2239SOL     OW 7615   3.494   5.862   4.037
 2239SOL    HW1 7616   3.433   5.939   4.059
 2239SOL    HW2 7617   3.455   5.809   3.962
 2240SOL     OW 7618   3.601   5.611   2.697
 2240SOL    HW1 7619   3.564   5.667   2.623
 2240SOL    HW2 7620   3.658   5.538   2.658
 2241SOL     OW 7621   6.619   6.629   1.797
 2241SOL    HW1 7622   6.605   6.544   1.746
 2241SOL    HW2 7623   6.638   6.704   1.733
 2242SOL     OW 7624   5.508   3.297   2.835
 2242SOL    HW1 7625   5.446   3.299   2.914
 2242SOL    HW2 7626   5.454   3.286   2.751
 2243SOL     OW 7627   2.593   6.192   0.237
 2243SOL    HW1 7628   2.520   6.141   0.281
 2243SOL    HW2 7629   2.649   6.130   0.183
 2244SOL     OW 7630   3.079   0.427   1.489
 2244SOL    HW1 7631   3.172   0.418   1.527
 2244SOL    HW2 7632   3.084   0.426   1.389
 2245SOL     OW 7633   0.601   1.422   0.743
 2245SOL    HW1 7634   0.559   1.479   0.672
 2245SOL    HW2 7635   0.576   1.457   0.833
 2246SOL     OW 7636   2.204   0.564   4.145
 2246SOL    HW1 7637   2.249   0.611   4.221
 2246SOL    HW2 7638   2.123   0.617   4.117
 2247SOL     OW 7639   3.361   4.115   2.487
 2247SOL    HW1 7640   3.273   4.137   2.530
 2247SOL    HW2 7641   3.357   4.138   2.389
 2248SOL     OW 7642   6.018   4.369   4.049
 2248SOL    HW1 7643   5.927   4.385   4.087
 2248SOL    HW2 7644   6.065   4.300   4.103
 2249SOL     OW 7645   3.093   6.685   3.816
 2249SOL    HW1 7646   3.122   6.778   3.794
 2249SOL    HW2 7647   3.023   6.687   3.888
 2250SOL     OW 7648   3.587   3.964   5.728
 2250SOL    HW1 7649   3.586   4.001   5.635
 2250SOL    HW2 7650   3.676   3.982   5.770
 2251SOL     OW 7651   5.261   6.613   6.218
 2251SOL    HW1 7652   5.254   6.586   6.122
 2251SOL    HW2 7653   5.173   6.603   6.263
 2252SOL     OW 7654   5.702   1.717   2.913
 2252SOL    HW1 7655   5.729   1.800   2.961
 2252SOL    HW2 7656   5.632   1.737   2.845
 2253SOL     OW 7657   0.569   3.262   0.281
 2253SOL    HW1 7658   0.634   3.299   0.348
 2253SOL    HW2 7659   0.620   3.228   0.201
 2254SOL     OW 7660   3.593   4.123   2.922
 2254SOL    HW1 7661   3.596   4.104   2.824
 2254SOL    HW2 7662   3.684   4.151   2.953
 2255SOL     OW 7663   3.044   3.976   5.563
 2255SOL    HW1 7664   2.989   3.954   5.482
 2255SOL    HW2 7665   3.079   3.891   5.604
 2256SOL     OW 7666   4.539   6.350   2.251
 2256SOL    HW1 7667   4.529   6.430   2.193
 2256SOL    HW2 7668   4.619   6.361   2.310
 2257SOL     OW 7669   0.585   1.641   4.530
 2257SOL    HW1 7670   0.526   1.563   4.547
 2257SOL    HW2 7671   0.562   1.714   4.595
 2258SOL     OW 7672   1.998   6.343   4.514
 2258SOL    HW1 7673   2.092   6.333   4.483
 2258SOL    HW2 7674   1.977   6.440   4.526
 2259SOL     OW 7675   5.991   2.610   4.782
 2259SOL    HW1 7676   6.085   2.594   4.750
 2259SOL    HW2 7677   5.991   2.614   4.882
 2260SOL     OW 7678   0.920   3.295   1.408
 2260SOL    HW1 7679   0.910   3.392   1.431
 2260SOL    HW2 7680   0.912   3.240   1.491
 2261SOL     OW 7681   6.454   3.929   0.829
 2261SOL    HW1 7682   6.400   3.853   0.793
 2261SOL    HW2 7683   6.424   4.014   0.787
 2262SOL     OW 7684   6.467   0.647   3.573
 2262SOL    HW1 7685   6.472   0.745   3.557
 2262SOL    HW2 7686   6.464   0.629   3.671
 2263SOL     OW 7687   1.213   5.523   0.663
 2263SOL    HW1 7688   1.247   5.558   0.576
 2263SOL    HW2 7689   1.288   5.483   0.715
 2264SOL     OW 7690   2.735   6.776   6.856
 2264SOL    HW1 7691   2.834   6.766   6.864
 2264SOL    HW2 7692   2.714   6.832   6.776
 2265SOL     OW 7693   1.629   0.479   4.076
 2265SOL    HW1 7694   1.582   0.567   4.074
 2265SOL    HW2 7695   1.693   0.474   3.999
 2266SOL     OW 7696   5.677   1.186   5.902
 2266SOL    HW1 7697   5.598   1.144   5.947
 2266SOL    HW2 7698   5.702   1.131   5.822
 2267SOL     OW 7699   4.598   2.633   4.881
 2267SOL    HW1 7700   4.625   2.723   4.847
 2267SOL    HW2 7701   4.568   2.640   4.976
 2268SOL     OW 7702   6.002   3.987   6.832
 2268SOL    HW1 7703   5.985   3.920   6.905
 2268SOL    HW2 7704   6.071   3.950   6.770
 2269SOL     OW 7705   0.469   3.351   5.522
 2269SOL    HW1 7706   0.437   3.337   5.615
 2269SOL    HW2 7707   0.552   3.297   5.507
 2270SOL     OW 7708   4.446   3.105   6.221
 2270SOL    HW1 7709   4.422   3.040   6.293
 2270SOL    HW2 7710   4.364   3.154   6.191
 2271SOL     OW 7711   5.846   4.476   6.932
 2271SOL    HW1 7712   5.824   4.553   6.873
 2271SOL    HW2 7713   5.818   4.391   6.888
 2272SOL     OW 7714   6.840   1.364   6.497
 2272SOL    HW1 7715   6.922   1.315   6.526
 2272SOL    HW2 7716   6.786   1.306   6.436
 2273SOL     OW 7717   2.067   2.250   1.743
 2273SOL    HW1 7718   2.084   2.152   1.738
 2273SOL    HW2 7719   2.005   2.270   1.819
 2274SOL     OW 7720   0.222   2.027   6.676
 2274SOL    HW1 7721   0.227   1.958   6.748
 2274SOL    HW2 7722   0.128   2.061   6.669
 2275SOL     OW 7723   5.921   5.333   2.102
 2275SOL    HW1 7724   5.927   5.363   2.007
 2275SOL    HW2 7725   6.011   5.343   2.145
 2276SOL     OW 7726   1.588   6.672   1.320
 2276SOL    HW1 7727   1.491   6.696   1.323
 2276SOL    HW2 7728   1.598   6.581   1.279
 2277SOL     OW 7729   3.622   3.735   4.157
 2277SOL    HW1 7730   3.673   3.766   4.077
 2277SOL    HW2 7731   3.623   3.635   4.160
 2278SOL     OW 7732   6.898   2.989   4.250
 2278SOL    HW1 7733   6.868   3.068   4.197
 2278SOL    HW2 7734   6.820   2.928   4.266
 2279SOL     OW 7735   6.574   5.818   5.545
 2279SOL    HW1 7736   6.536   5.868   5.467
 2279SOL    HW2 7737   6.649   5.871   5.584
 2280SOL     OW 7738   6.405   0.450   5.272
 2280SOL    HW1 7739   6.379   0.501   5.190
 2280SOL    HW2 7740   6.464   0.507   5.330
 2281SOL     OW 7741   4.083   0.350   2.546
 2281SOL    HW1 7742   4.036   0.402   2.617
 2281SOL    HW2 7743   4.107   0.260   2.581
 2282SOL     OW 7744   4.703   5.787   5.180
 2282SOL    HW1 7745   4.696   5.879   5.217
 2282SOL    HW2 7746   4.778   5.738   5.225
 2283SOL     OW 7747   1.531   0.663   2.637
 2283SOL    HW1 7748   1.556   0.574   2.600
 2283SOL    HW2 7749   1.578   0.676   2.725
 2284SOL     OW 7750   0.732   3.262   5.539
 2284SOL    HW1 7751   0.765   3.268   5.634
 2284SOL    HW2 7752   0.801   3.301   5.478
 2285SOL     OW 7753   1.398   3.640   6.544
 2285SOL    HW1 7754   1.317   3.686   6.580
 2285SOL    HW2 7755   1.379   3.606   6.452
 2286SOL     OW 7756   5.324   6.987   2.793
 2286SOL    HW1 7757   5.318   6.915   2.724
 2286SOL    HW2 7758   5.287   0.050   2.756
 2287SOL     OW 7759   2.821   1.445   3.464
 2287SOL    HW1 7760   2.833   1.507   3.542
 2287SOL    HW2 7761   2.751   1.482   3.403
 2288SOL     OW 7762   0.625   5.138   4.181
 2288SOL    HW1 7763   0.538   5.118   4.137
 2288SOL    HW2 7764   0.623   5.107   4.276
 2289SOL     OW 7765   6.911   4.423   1.253
 2289SOL    HW1 7766   7.008   4.408   1.234
 2289SOL    HW2 7767   6.895   4.419   1.352
 2290SOL     OW 7768   1.088   3.714   0.773
 2290SOL    HW1 7769   1.068   3.808   0.744
 2290SOL    HW2 7770   1.026   3.688   0.846
 2291SOL     OW 7771   3.108   1.918   5.922
 2291SOL    HW1 7772   3.129   1.975   6.002
 2291SOL    HW2 7773   3.083   1.976   5.845
 2292SOL     OW 7774   1.461   1.463   4.536
 2292SOL    HW1 7775   1.435   1.535   4.599
 2292SOL    HW2 7776   1.561   1.456   4.532
 2293SOL     OW 7777   5.585   5.819   1.444
 2293SOL    HW1 7778   5.497   5.782   1.475
 2293SOL    HW2 7779   5.569   5.902   1.391
 2294SOL     OW 7780   3.591   6.879   0.743
 2294SOL    HW1 7781   3.549   6.843   0.660
 2294SOL    HW2 7782   3.657   6.813   0.778
 2295SOL     OW 7783   0.265   1.969   2.553
 2295SOL    HW1 7784   0.341   2.001   2.497
 2295SOL    HW2 7785   0.299   1.910   2.626
 2296SOL     OW 7786   3.079   0.259   0.881
 2296SOL    HW1 7787   3.153   0.197   0.908
 2296SOL    HW2 7788   2.991   0.214   0.893
 2297SOL     OW 7789   4.277   4.136   5.667
 2297SOL    HW1 7790   4.204   4.079   5.706
 2297SOL    HW2 7791   4.236   4.211   5.614
 2298SOL     OW 7792   3.921   2.193   1.033
 2298SOL    HW1 7793   3.840   2.134   1.032
 2298SOL    HW2 7794   4.001   2.141   1.063
 2299SOL     OW 7795   5.236   6.934   6.862
 2299SOL    HW1 7796   5.308   6.886   6.913
 2299SOL    HW2 7797   5.274   6.970   6.777
 2300SOL     OW 7798   1.404   5.368   1.233
 2300SOL    HW1 7799   1.457   5.313   1.170
 2300SOL    HW2 7800   1.360   5.309   1.301
 2301SOL     OW 7801   2.933   3.257   2.999
 2301SOL    HW1 7802   2.980   3.310   3.070
 2301SOL    HW2 7803   2.871   3.317   2.949
 2302SOL     OW 7804   4.144   6.461   2.646
 2302SOL    HW1 7805   4.077   6.411   2.701
 2302SOL    HW2 7806   4.202   6.396   2.598
 2303SOL     OW 7807   1.298   3.395   5.400
 2303SOL    HW1 7808   1.274   3.420   5.306
 2303SOL    HW2 7809   1.352   3.311   5.400
 2304SOL     OW 7810   2.622   0.196   3.811
 2304SOL    HW1 7811   2.652   0.289   3.791
 2304SOL    HW2 7812   2.682   0.131   3.763
 2305SOL     OW 7813   3.808   5.524   2.904
 2305SOL    HW1 7814   3.781   5.452   2.968
 2305SOL    HW2 7815   3.741   5.529   2.830
 2306SOL     OW 7816   1.952   5.067   1.486
 2306SOL    HW1 7817   1.900   5.119   1.554
 2306SOL    HW2 7818   2.005   5.131   1.429
 2307SOL     OW 7819   2.294   4.212   2.798
 2307SOL    HW1 7820   2.342   4.240   2.715
 2307SOL    HW2 7821   2.291   4.112   2.803
 2308SOL     OW 7822   0.698   0.560   6.567
 2308SOL    HW1 7823   0.616   0.596   6.522
 2308SOL    HW2 7824   0.720   0.616   6.647
 2309SOL     OW 7825   2.942   6.026   6.527
 2309SOL    HW1 7826   2.983   6.088   6.594
 2309SOL    HW2 7827   2.868   6.072   6.480
 2310SOL     OW 7828   6.640   6.499   1.165
 2310SOL    HW1 7829   6.594   6.491   1.077
 2310SOL    HW2 7830   6.608   6.581   1.212
 2311SOL     OW 7831   2.499   0.010   2.848
 2311SOL    HW1 7832   2.403   0.011   2.822
 2311SOL    HW2 7833   2.523   6.941   2.881
 2312SOL     OW 7834   3.034   6.868   3.351
 2312SOL    HW1 7835   3.079   6.788   3.313
 2312SOL    HW2 7836   2.956   6.893   3.293
 2313SOL     OW 7837   4.712   5.050   1.890
 2313SOL    HW1 7838   4.762   4.990   1.954
 2313SOL    HW2 7839   4.766   5.062   1.807
 2314SOL     OW 7840   6.168   0.665   3.228
 2314SOL    HW1 7841   6.091   0.610   3.263
 2314SOL    HW2 7842   6.233   0.605   3.182
 2315SOL     OW 7843   5.143   3.384   5.492
 2315SOL    HW1 7844   5.062   3.430   5.528
 2315SOL    HW2 7845   5.190   3.444   5.427
 2316SOL     OW 7846   2.388   1.190   5.854
 2316SOL    HW1 7847   2.401   1.128   5.776
 2316SOL    HW2 7848   2.476   1.208   5.897
 2317SOL     OW 7849   6.880   6.818   3.876
 2317SOL    HW1 7850   6.848   6.753   3.808
 2317SOL    HW2 7851   6.929   6.768   3.949
 2318SOL     OW 7852   2.124   3.554   4.587
 2318SOL    HW1 7853   2.162   3.548   4.494
 2318SOL    HW2 7854   2.040   3.608   4.585
 2319SOL     OW 7855   3.550   5.190   4.868
 2319SOL    HW1 7856   3.586   5.150   4.952
 2319SOL    HW2 7857   3.544   5.119   4.798
 2320SOL     OW 7858   1.050   2.462   5.710
 2320SOL    HW1 7859   1.092   2.521   5.641
 2320SOL    HW2 7860   1.105   2.380   5.721
 2321SOL     OW 7861   2.619   5.230   6.037
 2321SOL    HW1 7862   2.655   5.180   6.116
 2321SOL    HW2 7863   2.677   5.310   6.019
 2322SOL     OW 7864   1.724   4.553   2.179
 2322SOL    HW1 7865   1.778   4.498   2.242
 2322SOL    HW2 7866   1.722   4.510   2.089
 2323SOL     OW 7867   3.367   5.006   1.989
 2323SOL    HW1 7868   3.420   4.941   1.935
 2323SOL    HW2 7869   3.275   4.970   2.005
 2324SOL     OW 7870   0.040   5.905   1.185
 2324SOL    HW1 7871   0.129   5.906   1.231
 2324SOL    HW2 7872   0.024   5.994   1.141
 2325SOL     OW 7873   6.946   4.832   1.523
 2325SOL    HW1 7874   6.928   4.780   1.606
 2325SOL    HW2 7875   6.885   4.911   1.518
 2326SOL     OW 7876   1.840   6.250   6.534
 2326SOL    HW1 7877   1.752   6.296   6.539
 2326SOL    HW2 7878   1.845   6.193   6.452
 2327SOL     OW 7879   0.436   1.064   2.999
 2327SOL    HW1 7880   0.393   1.028   3.081
 2327SOL    HW2 7881   0.508   1.002   2.968
 2328SOL     OW 7882   1.399   2.105   2.761
 2328SOL    HW1 7883   1.368   2.194   2.728
 2328SOL    HW2 7884   1.412   2.110   2.860
 2329SOL     OW 7885   1.162   4.134   4.534
 2329SOL    HW1 7886   1.146   4.201   4.608
 2329SOL    HW2 7887   1.086   4.069   4.532
 2330SOL     OW 7888   0.135   2.700   0.355
 2330SOL    HW1 7889   0.196   2.731   0.282
 2330SOL    HW2 7890   0.091   2.615   0.326
 2331SOL     OW 7891   3.047   5.177   6.864
 2331SOL    HW1 7892   3.039   5.155   6.961
 2331SOL    HW2 7893   3.127   5.131   6.825
 2332SOL     OW 7894   6.653   6.886   5.964
 2332SOL    HW1 7895   6.742   6.841   5.954
 2332SOL    HW2 7896   6.623   6.920   5.875
 2333SOL     OW 7897   0.195   4.965   3.215
 2333SOL    HW1 7898   0.202   4.872   3.253
 2333SOL    HW2 7899   0.203   5.032   3.289
 2334SOL     OW 7900   1.229   1.858   6.624
 2334SOL    HW1 7901   1.310   1.842   6.566
 2334SOL    HW2 7902   1.254   1.843   6.719
 2335SOL     OW 7903   5.896   0.547   3.935
 2335SOL    HW1 7904   5.851   0.530   3.847
 2335SOL    HW2 7905   5.994   0.562   3.920
 2336SOL     OW 7906   3.227   1.480   3.856
 2336SOL    HW1 7907   3.225   1.383   3.830
 2336SOL    HW2 7908   3.247   1.488   3.954
 2337SOL     OW 7909   4.214   1.117   1.773
 2337SOL    HW1 7910   4.159   1.140   1.853
 2337SOL    HW2 7911   4.299   1.073   1.803
 2338SOL     OW 7912   0.793   3.000   4.244
 2338SOL    HW1 7913   0.837   3.066   4.304
 2338SOL    HW2 7914   0.803   3.030   4.149
 2339SOL     OW 7915   2.904   3.462   3.416
 2339SOL    HW1 7916   2.857   3.491   3.332
 2339SOL    HW2 7917   2.909   3.363   3.419
 2340SOL     OW 7918   0.289   4.631   0.012
 2340SOL    HW1 7919   0.230   4.559   0.049
 2340SOL    HW2 7920   0.378   4.594   7.011
 2341SOL     OW 7921   2.864   4.831   1.998
 2341SOL    HW1 7922   2.836   4.736   1.985
 2341SOL    HW2 7923   2.832   4.887   1.922
 2342SOL     OW 7924   1.839   0.098   4.934
 2342SOL    HW1 7925   1.887   0.185   4.923
 2342SOL    HW2 7926   1.875   0.031   4.869
 2343SOL     OW 7927   2.114   5.440   2.886
 2343SOL    HW1 7928   2.119   5.404   2.793
 2343SOL    HW2 7929   2.028   5.489   2.898
 2344SOL     OW 7930   0.163   6.022   6.697
 2344SOL    HW1 7931   0.229   6.025   6.771
 2344SOL    HW2 7932   0.109   5.938   6.703
 2345SOL     OW 7933   2.569   5.334   4.789
 2345SOL    HW1 7934   2.518   5.269   4.845
 2345SOL    HW2 7935   2.541   5.428   4.813
 2346SOL     OW 7936   4.113   3.170   5.987
 2346SOL    HW1 7937   4.126   3.233   5.910
 2346SOL    HW2 7938   4.149   3.212   6.070
 2347SOL     OW 7939   2.603   1.743   1.362
 2347SOL    HW1 7940   2.623   1.811   1.291
 2347SOL    HW2 7941   2.508   1.714   1.355
 2348SOL     OW 7942   1.745   6.238   3.992
 2348SOL    HW1 7943   1.777   6.286   4.073
 2348SOL    HW2 7944   1.818   6.232   3.924
 2349SOL     OW 7945   0.937   4.620   6.327
 2349SOL    HW1 7946   0.980   4.692   6.382
 2349SOL    HW2 7947   0.840   4.615   6.350
 2350SOL     OW 7948   5.794   5.125   6.123
 2350SOL    HW1 7949   5.763   5.066   6.049
 2350SOL    HW2 7950   5.892   5.112   6.137
 2351SOL     OW 7951   3.525   5.029   4.410
 2351SOL    HW1 7952   3.541   5.116   4.458
 2351SOL    HW2 7953   3.429   5.002   4.422
 2352SOL     OW 7954   0.259   2.976   2.651
 2352SOL    HW1 7955   0.270   3.050   2.717
 2352SOL    HW2 7956   0.311   2.896   2.681
 2353SOL     OW 7957   3.566   4.956   4.748
 2353SOL    HW1 7958   3.664   4.936   4.755
 2353SOL    HW2 7959   3.527   4.903   4.673
 2354SOL     OW 7960   2.075   2.094   4.530
 2354SOL    HW1 7961   2.029   2.058   4.448
 2354SOL    HW2 7962   2.172   2.074   4.526
 2355SOL     OW 7963   2.088   6.573   5.929
 2355SOL    HW1 7964   2.030   6.654   5.933
 2355SOL    HW2 7965   2.129   6.566   5.838
 2356SOL     OW 7966   1.445   3.037   6.223
 2356SOL    HW1 7967   1.392   2.953   6.211
 2356SOL    HW2 7968   1.388   3.116   6.204
 2357SOL     OW 7969   4.446   1.139   2.197
 2357SOL    HW1 7970   4.384   1.213   2.174
 2357SOL    HW2 7971   4.398   1.071   2.252
 2358SOL     OW 7972   3.141   5.417   5.666
 2358SOL    HW1 7973   3.048   5.455   5.663
 2358SOL    HW2 7974   3.165   5.381   5.576
 2359SOL     OW 7975   0.149   0.543   5.773
 2359SOL    HW1 7976   0.179   0.623   5.721
 2359SOL    HW2 7977   0.076   0.570   5.837
 2360SOL     OW 7978   6.139   3.405   0.258
 2360SOL    HW1 7979   6.146   3.502   0.236
 2360SOL    HW2 7980   6.043   3.379   0.262
 2361SOL     OW 7981   2.644   0.689   6.899
 2361SOL    HW1 7982   2.580   0.678   6.975
 2361SOL    HW2 7983   2.659   0.787   6.883
 2362SOL     OW 7984   2.712   5.706   4.461
 2362SOL    HW1 7985   2.786   5.767   4.489
 2362SOL    HW2 7986   2.677   5.734   4.372
 2363SOL     OW 7987   3.665   2.137   4.517
 2363SOL    HW1 7988   3.700   2.226   4.486
 2363SOL    HW2 7989   3.708   2.113   4.604
 2364SOL     OW 7990   1.185   2.677   2.398
 2364SOL    HW1 7991   1.251   2.746   2.369
 2364SOL    HW2 7992   1.157   2.695   2.492
 2365SOL     OW 7993   6.548   2.523   6.639
 2365SOL    HW1 7994   6.477   2.473   6.589
 2365SOL    HW2 7995   6.564   2.478   6.727
 2366SOL     OW 7996   2.187   5.947   6.611
 2366SOL    HW1 7997   2.276   5.986   6.587
 2366SOL    HW2 7998   2.175   5.951   6.710
 2367SOL     OW 7999   2.209   3.345   0.889
 2367SOL    HW1 8000   2.114   3.371   0.903
 2367SOL    HW2 8001   2.213   3.252   0.852
 2368SOL     OW 8002   5.521   6.509   4.740
 2368SOL    HW1 8003   5.485   6.529   4.831
 2368SOL    HW2 8004   5.512   6.412   4.720
 2369SOL     OW 8005   1.545   0.448   4.612
 2369SOL    HW1 8006   1.603   0.502   4.551
 2369SOL    HW2 8007   1.466   0.503   4.640
 2370SOL     OW 8008   5.631   3.248   0.274
 2370SOL    HW1 8009   5.567   3.318   0.307
 2370SOL    HW2 8010   5.592   3.157   0.291
 2371SOL     OW 8011   1.776   0.008   1.617
 2371SOL    HW1 8012   1.738   0.075   1.554
 2371SOL    HW2 8013   1.802   6.948   1.567
 2372SOL     OW 8014   6.636   2.796   2.300
 2372SOL    HW1 8015   6.710   2.825   2.239
 2372SOL    HW2 8016   6.560   2.860   2.294
 2373SOL     OW 8017   0.541   3.238   5.838
 2373SOL    HW1 8018   0.577   3.157   5.886
 2373SOL    HW2 8019   0.456   3.213   5.792
 2374SOL     OW 8020   5.898   1.765   4.561
 2374SOL    HW1 8021   5.895   1.744   4.464
 2374SOL    HW2 8022   5.980   1.818   4.581
 2375SOL     OW 8023   3.261   5.889   5.391
 2375SOL    HW1 8024   3.206   5.938   5.459
 2375SOL    HW2 8025   3.259   5.791   5.411
 2376SOL     OW 8026   6.443   3.226   4.435
 2376SOL    HW1 8027   6.381   3.239   4.358
 2376SOL    HW2 8028   6.537   3.236   4.404
 2377SOL     OW 8029   3.464   4.135   3.697
 2377SOL    HW1 8030   3.479   4.167   3.603
 2377SOL    HW2 8031   3.538   4.073   3.724
 2378SOL     OW 8032   5.068   2.155   6.946
 2378SOL    HW1 8033   5.041   2.180   0.016
 2378SOL    HW2 8034   5.113   2.232   6.902
 2379SOL     OW 8035   6.987   0.861   0.657
 2379SOL    HW1 8036   7.005   0.938   0.720
 2379SOL    HW2 8037   6.902   0.878   0.607
 2380SOL     OW 8038   0.412   2.316   6.556
 2380SOL    HW1 8039   0.437   2.286   6.648
 2380SOL    HW2 8040   0.321   2.282   6.534
 2381SOL     OW 8041   2.342   5.462   4.127
 2381SOL    HW1 8042   2.324   5.559   4.147
 2381SOL    HW2 8043   2.362   5.452   4.030
 2382SOL     OW 8044   1.722   3.503   4.677
 2382SOL    HW1 8045   1.666   3.421   4.663
 2382SOL    HW2 8046   1.721   3.559   4.595
 2383SOL     OW 8047   5.514   6.711   1.027
 2383SOL    HW1 8048   5.488   6.636   0.967
 2383SOL    HW2 8049   5.613   6.707   1.045
 2384SOL     OW 8050   5.796   1.081   2.782
 2384SOL    HW1 8051   5.865   1.153   2.780
 2384SOL    HW2 8052   5.749   1.082   2.870
 2385SOL     OW 8053   0.554   0.686   0.680
 2385SOL    HW1 8054   0.521   0.771   0.638
 2385SOL    HW2 8055   0.582   0.622   0.609
 2386SOL     OW 8056   5.358   6.093   4.878
 2386SOL    HW1 8057   5.290   6.020   4.884
 2386SOL    HW2 8058   5.448   6.056   4.898
 2387SOL     OW 8059   1.545   1.754   4.221
 2387SOL    HW1 8060   1.477   1.699   4.269
 2387SOL    HW2 8061   1.620   1.776   4.283
 2388SOL     OW 8062   7.013   1.922   4.227
 2388SOL    HW1 8063   6.940   1.966   4.175
 2388SOL    HW2 8064   0.015   1.836   4.183
 2389SOL     OW 8065   4.572   4.391   3.388
 2389SOL    HW1 8066   4.667   4.378   3.417
 2389SOL    HW2 8067   4.517   4.314   3.419
 2390SOL     OW 8068   3.769   3.392   3.685
 2390SOL    HW1 8069   3.779   3.325   3.759
 2390SOL    HW2 8070   3.857   3.409   3.643
 2391SOL     OW 8071   5.494   3.986   5.720
 2391SOL    HW1 8072   5.522   3.943   5.635
 2391SOL    HW2 8073   5.466   3.916   5.786
 2392SOL     OW 8074   3.540   6.382   5.814
 2392SOL    HW1 8075   3.460   6.435   5.840
 2392SOL    HW2 8076   3.546   6.301   5.872
 2393SOL     OW 8077   5.343   3.789   5.929
 2393SOL    HW1 8078   5.305   3.881   5.941
 2393SOL    HW2 8079   5.349   3.744   6.018
 2394SOL     OW 8080   0.946   4.030   4.962
 2394SOL    HW1 8081   1.020   4.047   5.027
 2394SOL    HW2 8082   0.947   3.934   4.934
 2395SOL     OW 8083   5.029   0.512   5.889
 2395SOL    HW1 8084   5.128   0.525   5.880
 2395SOL    HW2 8085   4.993   0.577   5.956
 2396SOL     OW 8086   3.680   4.874   1.063
 2396SOL    HW1 8087   3.685   4.878   1.162
 2396SOL    HW2 8088   3.586   4.890   1.034
 2397SOL     OW 8089   6.993   3.764   5.616
 2397SOL    HW1 8090   0.068   3.771   5.594
 2397SOL    HW2 8091   6.967   3.841   5.675
 2398SOL     OW 8092   4.362   4.258   6.405
 2398SOL    HW1 8093   4.346   4.300   6.315
 2398SOL    HW2 8094   4.278   4.215   6.437
 2399SOL     OW 8095   4.428   0.741   1.017
 2399SOL    HW1 8096   4.390   0.723   0.926
 2399SOL    HW2 8097   4.364   0.799   1.068
 2400SOL     OW 8098   2.739   4.294   1.342
 2400SOL    HW1 8099   2.645   4.264   1.326
 2400SOL    HW2 8100   2.802   4.234   1.294
 2401SOL     OW 8101   5.196   6.164   0.046
 2401SOL    HW1 8102   5.265   6.212   0.101
 2401SOL    HW2 8103   5.210   6.186   6.972
 2402SOL     OW 8104   0.349   0.306   3.939
 2402SOL    HW1 8105   0.326   0.295   4.036
 2402SOL    HW2 8106   0.266   0.297   3.884
 2403SOL     OW 8107   1.744   2.246   6.515
 2403SOL    HW1 8108   1.653   2.252   6.474
 2403SOL    HW2 8109   1.737   2.261   6.614
 2404SOL     OW 8110   2.671   0.499   0.946
 2404SOL    HW1 8111   2.677   0.595   0.919
 2404SOL    HW2 8112   2.635   0.445   0.871
 2405SOL     OW 8113   3.200   3.755   2.142
 2405SOL    HW1 8114   3.247   3.769   2.055
 2405SOL    HW2 8115   3.264   3.769   2.217
 2406SOL     OW 8116   3.276   0.089   1.625
 2406SOL    HW1 8117   3.361   0.084   1.573
 2406SOL    HW2 8118   3.221   0.008   1.607
 2407SOL     OW 8119   5.846   1.936   3.019
 2407SOL    HW1 8120   5.828   2.022   3.068
 2407SOL    HW2 8121   5.870   1.865   3.085
 2408SOL     OW 8122   4.502   4.580   3.030
 2408SOL    HW1 8123   4.529   4.525   2.951
 2408SOL    HW2 8124   4.525   4.532   3.114
 2409SOL     OW 8125   2.302   4.481   1.943
 2409SOL    HW1 8126   2.392   4.520   1.962
 2409SOL    HW2 8127   2.307   4.381   1.948
 2410SOL     OW 8128   4.003   3.053   5.330
 2410SOL    HW1 8129   3.996   2.954   5.320
 2410SOL    HW2 8130   4.052   3.075   5.414
 2411SOL     OW 8131   5.009   6.129   4.464
 2411SOL    HW1 8132   5.014   6.131   4.364
 2411SOL    HW2 8133   4.914   6.142   4.492
 2412SOL     OW 8134   5.866   4.034   1.556
 2412SOL    HW1 8135   5.896   3.963   1.620
 2412SOL    HW2 8136   5.798   4.092   1.601
 2413SOL     OW 8137   6.636   0.680   0.970
 2413SOL    HW1 8138   6.728   0.720   0.971
 2413SOL    HW2 8139   6.605   0.666   1.064
 2414SOL     OW 8140   4.780   3.961   3.452
 2414SOL    HW1 8141   4.837   3.879   3.456
 2414SOL    HW2 8142   4.831   4.039   3.487
 2415SOL     OW 8143   6.379   1.790   3.312
 2415SOL    HW1 8144   6.330   1.765   3.229
 2415SOL    HW2 8145   6.435   1.713   3.343
 2416SOL     OW 8146   4.682   2.349   4.932
 2416SOL    HW1 8147   4.620   2.281   4.892
 2416SOL    HW2 8148   4.642   2.440   4.924
 2417SOL     OW 8149   3.631   3.818   4.879
 2417SOL    HW1 8150   3.719   3.785   4.846
 2417SOL    HW2 8151   3.575   3.848   4.801
 2418SOL     OW 8152   4.107   3.243   4.458
 2418SOL    HW1 8153   4.074   3.181   4.529
 2418SOL    HW2 8154   4.068   3.215   4.370
 2419SOL     OW 8155   0.182   6.865   3.987
 2419SOL    HW1 8156   0.212   6.769   3.982
 2419SOL    HW2 8157   0.172   6.902   3.894
 2420SOL     OW 8158   3.291   0.840   3.197
 2420SOL    HW1 8159   3.259   0.880   3.282
 2420SOL    HW2 8160   3.354   0.765   3.217
 2421SOL     OW 8161   2.268   2.585   4.931
 2421SOL    HW1 8162   2.176   2.548   4.941
 2421SOL    HW2 8163   2.272   2.640   4.848
 2422SOL     OW 8164   4.929   1.867   0.601
 2422SOL    HW1 8165   4.899   1.789   0.546
 2422SOL    HW2 8166   5.019   1.897   0.569
 2423SOL     OW 8167   1.887   6.000   2.187
 2423SOL    HW1 8168   1.857   6.095   2.175
 2423SOL    HW2 8169   1.955   5.978   2.117
 2424SOL     OW 8170   6.458   6.748   7.014
 2424SOL    HW1 8171   6.542   6.795   0.017
 2424SOL    HW2 8172   6.395   6.748   0.069
 2425SOL     OW 8173   5.734   0.429   3.746
 2425SOL    HW1 8174   5.799   0.353   3.737
 2425SOL    HW2 8175   5.684   0.421   3.832
 2426SOL     OW 8176   1.504   5.539   5.338
 2426SOL    HW1 8177   1.408   5.517   5.356
 2426SOL    HW2 8178   1.558   5.455   5.336
 2427SOL     OW 8179   5.822   5.744   5.788
 2427SOL    HW1 8180   5.860   5.719   5.877
 2427SOL    HW2 8181   5.817   5.843   5.780
 2428SOL     OW 8182   0.221   0.638   1.939
 2428SOL    HW1 8183   0.319   0.657   1.935
 2428SOL    HW2 8184   0.189   0.643   2.033
 2429SOL     OW 8185   5.754   5.611   1.655
 2429SOL    HW1 8186   5.688   5.562   1.598
 2429SOL    HW2 8187   5.766   5.703   1.618
 2430SOL     OW 8188   6.101   1.337   1.973
 2430SOL    HW1 8189   6.010   1.302   1.994
 2430SOL    HW2 8190   6.163   1.319   2.049
 2431SOL     OW 8191   4.344   0.989   2.439
 2431SOL    HW1 8192   4.355   0.897   2.477
 2431SOL    HW2 8193   4.395   1.054   2.495
 2432SOL     OW 8194   4.218   6.759   2.275
 2432SOL    HW1 8195   4.296   6.723   2.326
 2432SOL    HW2 8196   4.205   6.856   2.296
 2433SOL     OW 8197   4.506   1.618   0.590
 2433SOL    HW1 8198   4.480   1.534   0.637
 2433SOL    HW2 8199   4.497   1.606   0.491
 2434SOL     OW 8200   4.031   1.481   6.349
 2434SOL    HW1 8201   4.115   1.513   6.303
 2434SOL    HW2 8202   4.030   1.381   6.350
 2435SOL     OW 8203   4.907   5.636   5.269
 2435SOL    HW1 8204   4.948   5.557   5.223
 2435SOL    HW2 8205   4.978   5.705   5.285
 2436SOL     OW 8206   1.857   6.098   5.955
 2436SOL    HW1 8207   1.927   6.102   6.026
 2436SOL    HW2 8208   1.886   6.151   5.876
 2437SOL     OW 8209   5.592   6.737   6.267
 2437SOL    HW1 8210   5.682   6.725   6.224
 2437SOL    HW2 8211   5.524   6.758   6.197
 2438SOL     OW 8212   3.334   2.242   0.757
 2438SOL    HW1 8213   3.276   2.236   0.838
 2438SOL    HW2 8214   3.430   2.247   0.785
 2439SOL     OW 8215   0.636   4.376   6.516
 2439SOL    HW1 8216   0.665   4.359   6.611
 2439SOL    HW2 8217   0.546   4.334   6.502
 2440SOL     OW 8218   4.943   5.487   5.783
 2440SOL    HW1 8219   4.981   5.396   5.803
 2440SOL    HW2 8220   4.863   5.478   5.724
 2441SOL     OW 8221   6.894   2.524   1.046
 2441SOL    HW1 8222   6.812   2.580   1.057
 2441SOL    HW2 8223   6.893   2.480   0.956
 2442SOL     OW 8224   1.119   3.845   5.509
 2442SOL    HW1 8225   1.065   3.912   5.458
 2442SOL    HW2 8226   1.085   3.840   5.603
 2443SOL     OW 8227   2.818   3.928   6.379
 2443SOL    HW1 8228   2.746   3.997   6.380
 2443SOL    HW2 8229   2.839   3.903   6.284
 2444SOL     OW 8230   2.512   4.469   5.699
 2444SOL    HW1 8231   2.541   4.437   5.610
 2444SOL    HW2 8232   2.449   4.403   5.740
 2445SOL     OW 8233   0.396   0.865   0.889
 2445SOL    HW1 8234   0.485   0.903   0.913
 2445SOL    HW2 8235   0.336   0.939   0.856
 2446SOL     OW 8236   5.873   4.297   4.448
 2446SOL    HW1 8237   5.854   4.351   4.366
 2446SOL    HW2 8238   5.967   4.314   4.477
 2447SOL     OW 8239   1.855   2.067   6.927
 2447SOL    HW1 8240   1.905   2.132   6.869
 2447SOL    HW2 8241   1.759   2.093   6.930
 2448SOL     OW 8242   0.350   0.077   4.640
 2448SOL    HW1 8243   0.445   0.081   4.672
 2448SOL    HW2 8244   0.330   7.007   4.608
 2449SOL     OW 8245   0.166   3.782   7.003
 2449SOL    HW1 8246   0.132   3.859   0.035
 2449SOL    HW2 8247   0.185   3.704   0.041
 2450SOL     OW 8248   2.557   4.708   2.781
 2450SOL    HW1 8249   2.495   4.678   2.708
 2450SOL    HW2 8250   2.521   4.790   2.824
 2451SOL     OW 8251   1.701   6.697   3.870
 2451SOL    HW1 8252   1.773   6.653   3.815
 2451SOL    HW2 8253   1.725   6.792   3.887
 2452SOL     OW 8254   0.756   3.440   2.776
 2452SOL    HW1 8255   0.668   3.410   2.737
 2452SOL    HW2 8256   0.740   3.477   2.867
 2453SOL     OW 8257   6.671   4.543   1.783
 2453SOL    HW1 8258   6.643   4.465   1.840
 2453SOL    HW2 8259   6.601   4.614   1.788
 2454SOL     OW 8260   3.270   0.450   1.846
 2454SOL    HW1 8261   3.307   0.436   1.938
 2454SOL    HW2 8262   3.174   0.480   1.853
 2455SOL     OW 8263   5.394   5.317   0.912
 2455SOL    HW1 8264   5.345   5.303   0.999
 2455SOL    HW2 8265   5.467   5.384   0.926
 2456SOL     OW 8266   4.815   6.347   1.913
 2456SOL    HW1 8267   4.908   6.313   1.904
 2456SOL    HW2 8268   4.755   6.295   1.852
 2457SOL     OW 8269   5.267   0.189   1.553
 2457SOL    HW1 8270   5.327   0.255   1.508
 2457SOL    HW2 8271   5.281   0.098   1.513
 2458SOL     OW 8272   2.306   5.851   2.891
 2458SOL    HW1 8273   2.361   5.792   2.833
 2458SOL    HW2 8274   2.360   5.931   2.918
 2459SOL     OW 8275   2.337   0.463   0.882
 2459SOL    HW1 8276   2.423   0.424   0.850
 2459SOL    HW2 8277   2.279   0.486   0.804
 2460SOL     OW 8278   3.150   5.953   1.983
 2460SOL    HW1 8279   3.246   5.961   2.008
 2460SOL    HW2 8280   3.141   5.893   1.903
 2461SOL     OW 8281   5.834   0.562   2.001
 2461SOL    HW1 8282   5.794   0.599   1.917
 2461SOL    HW2 8283   5.911   0.620   2.030
 2462SOL     OW 8284   2.626   5.330   6.682
 2462SOL    HW1 8285   2.629   5.352   6.585
 2462SOL    HW2 8286   2.713   5.357   6.725
 2463SOL     OW 8287   6.586   1.953   3.406
 2463SOL    HW1 8288   6.496   1.917   3.380
 2463SOL    HW2 8289   6.645   1.878   3.437
 2464SOL     OW 8290   1.194   3.580   1.121
 2464SOL    HW1 8291   1.108   3.624   1.095
 2464SOL    HW2 8292   1.196   3.487   1.085
 2465SOL     OW 8293   6.931   6.177   2.603
 2465SOL    HW1 8294   6.919   6.173   2.504
 2465SOL    HW2 8295   6.842   6.190   2.647
 2466SOL     OW 8296   3.899   1.790   2.649
 2466SOL    HW1 8297   3.952   1.814   2.567
 2466SOL    HW2 8298   3.803   1.815   2.635
 2467SOL     OW 8299   6.716   0.686   5.951
 2467SOL    HW1 8300   6.671   0.614   5.898
 2467SOL    HW2 8301   6.659   0.768   5.952
 2468SOL     OW 8302   6.706   5.726   1.135
 2468SOL    HW1 8303   6.765   5.666   1.081
 2468SOL    HW2 8304   6.637   5.671   1.182
 2469SOL     OW 8305   2.373   3.093   5.628
 2469SOL    HW1 8306   2.316   3.167   5.665
 2469SOL    HW2 8307   2.408   3.119   5.538
 2470SOL     OW 8308   4.744   3.225   6.980
 2470SOL    HW1 8309   4.760   3.227   0.056
 2470SOL    HW2 8310   4.831   3.216   6.932
 2471SOL     OW 8311   0.737   6.462   2.836
 2471SOL    HW1 8312   0.763   6.540   2.894
 2471SOL    HW2 8313   0.645   6.478   2.800
 2472SOL     OW 8314   5.610   2.267   4.421
 2472SOL    HW1 8315   5.538   2.197   4.411
 2472SOL    HW2 8316   5.656   2.280   4.333
 2473SOL     OW 8317   1.099   6.144   4.791
 2473SOL    HW1 8318   1.020   6.205   4.782
 2473SOL    HW2 8319   1.087   6.085   4.871
 2474SOL     OW 8320   6.811   4.418   5.398
 2474SOL    HW1 8321   6.861   4.388   5.479
 2474SOL    HW2 8322   6.874   4.461   5.333
 2475SOL     OW 8323   4.251   2.525   0.285
 2475SOL    HW1 8324   4.233   2.564   0.194
 2475SOL    HW2 8325   4.282   2.596   0.347
 2476SOL     OW 8326   0.892   2.050   4.049
 2476SOL    HW1 8327   0.832   2.059   3.969
 2476SOL    HW2 8328   0.877   2.128   4.110
 2477SOL     OW 8329   5.055   4.849   1.011
 2477SOL    HW1 8330   5.120   4.911   0.967
 2477SOL    HW2 8331   5.052   4.868   1.109
 2478SOL     OW 8332   6.077   6.873   2.901
 2478SOL    HW1 8333   6.010   6.798   2.898
 2478SOL    HW2 8334   6.166   6.837   2.931
 2479SOL     OW 8335   0.697   2.782   0.599
 2479SOL    HW1 8336   0.603   2.809   0.622
 2479SOL    HW2 8337   0.729   2.835   0.521
 2480SOL     OW 8338   0.570   3.539   1.096
 2480SOL    HW1 8339   0.514   3.580   1.023
 2480SOL    HW2 8340   0.622   3.611   1.142
 2481SOL     OW 8341   4.285   5.065   1.906
 2481SOL    HW1 8342   4.366   5.115   1.936
 2481SOL    HW2 8343   4.220   5.129   1.865
 2482SOL     OW 8344   4.731   2.842   5.187
 2482SOL    HW1 8345   4.651   2.783   5.200
 2482SOL    HW2 8346   4.752   2.848   5.089
 2483SOL     OW 8347   1.042   2.121   6.675
 2483SOL    HW1 8348   1.017   2.054   6.604
 2483SOL    HW2 8349   1.026   2.081   6.765
 2484SOL     OW 8350   3.122   1.742   6.998
 2484SOL    HW1 8351   3.031   1.774   6.974
 2484SOL    HW2 8352   3.166   1.809   0.035
 2485SOL     OW 8353   0.252   5.403   2.419
 2485SOL    HW1 8354   0.248   5.483   2.479
 2485SOL    HW2 8355   0.264   5.321   2.474
 2486SOL     OW 8356   1.525   5.321   3.049
 2486SOL    HW1 8357   1.581   5.398   3.080
 2486SOL    HW2 8358   1.530   5.314   2.949
 2487SOL     OW 8359   3.829   0.635   1.130
 2487SOL    HW1 8360   3.767   0.565   1.093
 2487SOL    HW2 8361   3.809   0.647   1.227
 2488SOL     OW 8362   3.227   5.737   1.227
 2488SOL    HW1 8363   3.217   5.661   1.291
 2488SOL    HW2 8364   3.218   5.704   1.133
 2489SOL     OW 8365   0.943   5.461   4.401
 2489SOL    HW1 8366   0.992   5.510   4.329
 2489SOL    HW2 8367   0.951   5.362   4.386
 2490SOL     OW 8368   5.460   3.278   1.276
 2490SOL    HW1 8369   5.522   3.304   1.202
 2490SOL    HW2 8370   5.374   3.329   1.266
 2491SOL     OW 8371   2.601   5.177   2.150
 2491SOL    HW1 8372   2.547   5.209   2.227
 2491SOL    HW2 8373   2.666   5.107   2.181
 2492SOL     OW 8374   4.664   3.338   6.546
 2492SOL    HW1 8375   4.620   3.255   6.581
 2492SOL    HW2 8376   4.627   3.360   6.456
 2493SOL     OW 8377   6.231   1.746   3.534
 2493SOL    HW1 8378   6.298   1.740   3.461
 2493SOL    HW2 8379   6.265   1.807   3.606
 2494SOL     OW 8380   4.864   3.424   2.400
 2494SOL    HW1 8381   4.851   3.331   2.365
 2494SOL    HW2 8382   4.805   3.487   2.350
 2495SOL     OW 8383   5.448   0.962   4.941
 2495SOL    HW1 8384   5.457   1.051   4.985
 2495SOL    HW2 8385   5.416   0.974   4.847
 2496SOL     OW 8386   1.340   6.674   0.506
 2496SOL    HW1 8387   1.280   6.595   0.521
 2496SOL    HW2 8388   1.305   6.727   0.428
 2497SOL     OW 8389   5.926   1.730   6.395
 2497SOL    HW1 8390   5.904   1.783   6.313
 2497SOL    HW2 8391   6.000   1.666   6.375
 2498SOL     OW 8392   1.895   3.489   4.886
 2498SOL    HW1 8393   1.986   3.496   4.847
 2498SOL    HW2 8394   1.827   3.502   4.814
 2499SOL     OW 8395   6.110   0.540   5.064
 2499SOL    HW1 8396   6.087   0.442   5.061
 2499SOL    HW2 8397   6.202   0.554   5.028
 2500SOL     OW 8398   4.380   3.384   6.783
 2500SOL    HW1 8399   4.443   3.328   6.836
 2500SOL    HW2 8400   4.314   3.325   6.736
 2501SOL     OW 8401   0.088   4.037   0.143
 2501SOL    HW1 8402   0.026   4.109   0.110
 2501SOL    HW2 8403   0.142   4.073   0.219
 2502SOL     OW 8404   1.852   6.333   3.437
 2502SOL    HW1 8405   1.940   6.310   3.396
 2502SOL    HW2 8406   1.781   6.334   3.366
 2503SOL     OW 8407   4.427   5.032   5.149
 2503SOL    HW1 8408   4.501   5.000   5.209
 2503SOL    HW2 8409   4.465   5.056   5.060
 2504SOL     OW 8410   1.206   4.324   4.031
 2504SOL    HW1 8411   1.201   4.229   4.061
 2504SOL    HW2 8412   1.134   4.377   4.076
 2505SOL     OW 8413   4.571   5.717   4.227
 2505SOL    HW1 8414   4.657   5.768   4.229
 2505SOL    HW2 8415   4.572   5.653   4.150
 2506SOL     OW 8416   0.130   2.485   6.562
 2506SOL    HW1 8417   0.143   2.582   6.582
 2506SOL    HW2 8418   0.102   2.473   6.467
 2507SOL     OW 8419   6.720   5.967   0.063
 2507SOL    HW1 8420   6.805   5.992   0.017
 2507SOL    HW2 8421   6.670   5.901   0.008
 2508SOL     OW 8422   2.269   2.698   2.545
 2508SOL    HW1 8423   2.281   2.792   2.513
 2508SOL    HW2 8424   2.267   2.636   2.467
 2509SOL     OW 8425   4.978   2.851   3.824
 2509SOL    HW1 8426   5.062   2.847   3.878
 2509SOL    HW2 8427   4.899   2.831   3.883
 2510SOL     OW 8428   4.138   5.655   0.665
 2510SOL    HW1 8429   4.126   5.732   0.602
 2510SOL    HW2 8430   4.108   5.571   0.620
 2511SOL     OW 8431   1.638   0.306   4.808
 2511SOL    HW1 8432   1.607   0.213   4.786
 2511SOL    HW2 8433   1.597   0.371   4.744
 2512SOL     OW 8434   5.223   3.429   4.977
 2512SOL    HW1 8435   5.142   3.433   5.036
 2512SOL    HW2 8436   5.205   3.477   4.892
 2513SOL     OW 8437   0.755   3.312   0.465
 2513SOL    HW1 8438   0.744   3.407   0.492
 2513SOL    HW2 8439   0.843   3.299   0.420
 2514SOL     OW 8440   1.380   0.924   3.822
 2514SOL    HW1 8441   1.407   0.864   3.746
 2514SOL    HW2 8442   1.281   0.924   3.830
 2515SOL     OW 8443   0.775   5.829   0.361
 2515SOL    HW1 8444   0.745   5.900   0.296
 2515SOL    HW2 8445   0.696   5.775   0.389
 2516SOL     OW 8446   5.304   6.449   3.984
 2516SOL    HW1 8447   5.220   6.421   3.936
 2516SOL    HW2 8448   5.305   6.549   3.994
 2517SOL     OW 8449   2.244   4.752   0.096
 2517SOL    HW1 8450   2.269   4.789   0.006
 2517SOL    HW2 8451   2.279   4.658   0.104
 2518SOL     OW 8452   2.265   2.389   6.622
 2518SOL    HW1 8453   2.338   2.443   6.579
 2518SOL    HW2 8454   2.262   2.298   6.581
 2519SOL     OW 8455   4.868   4.160   4.663
 2519SOL    HW1 8456   4.798   4.203   4.719
 2519SOL    HW2 8457   4.912   4.086   4.714
 2520SOL     OW 8458   2.062   4.167   2.286
 2520SOL    HW1 8459   2.143   4.223   2.306
 2520SOL    HW2 8460   2.048   4.164   2.187
 2521SOL     OW 8461   5.458   6.469   5.485
 2521SOL    HW1 8462   5.402   6.548   5.510
 2521SOL    HW2 8463   5.421   6.427   5.402
 2522SOL     OW 8464   1.209   2.949   4.645
 2522SOL    HW1 8465   1.290   2.895   4.668
 2522SOL    HW2 8466   1.177   2.924   4.554
 2523SOL     OW 8467   0.454   3.026   6.845
 2523SOL    HW1 8468   0.482   3.113   6.885
 2523SOL    HW2 8469   0.533   2.982   6.801
 2524SOL     OW 8470   1.155   0.183   4.696
 2524SOL    HW1 8471   1.215   0.128   4.638
 2524SOL    HW2 8472   1.168   0.280   4.673
 2525SOL     OW 8473   1.221   3.542   3.378
 2525SOL    HW1 8474   1.196   3.638   3.394
 2525SOL    HW2 8475   1.316   3.528   3.408
 2526SOL     OW 8476   6.774   1.113   5.057
 2526SOL    HW1 8477   6.762   1.047   4.982
 2526SOL    HW2 8478   6.696   1.107   5.119
 2527SOL     OW 8479   5.564   6.505   3.865
 2527SOL    HW1 8480   5.485   6.447   3.886
 2527SOL    HW2 8481   5.590   6.556   3.946
 2528SOL     OW 8482   6.421   5.803   0.232
 2528SOL    HW1 8483   6.371   5.721   0.259
 2528SOL    HW2 8484   6.399   5.878   0.294
 2529SOL     OW 8485   4.843   3.768   4.529
 2529SOL    HW1 8486   4.934   3.784   4.568
 2529SOL    HW2 8487   4.785   3.724   4.599
 2530SOL     OW 8488   0.135   0.640   4.453
 2530SOL    HW1 8489   0.144   0.726   4.403
 2530SOL    HW2 8490   0.211   0.580   4.429
 2531SOL     OW 8491   3.944   1.841   6.342
 2531SOL    HW1 8492   4.025   1.786   6.360
 2531SOL    HW2 8493   3.907   1.876   6.428
 2532SOL     OW 8494   1.780   5.007   6.792
 2532SOL    HW1 8495   1.680   5.006   6.781
 2532SOL    HW2 8496   1.812   4.916   6.815
 2533SOL     OW 8497   6.127   6.820   5.826
 2533SOL    HW1 8498   6.222   6.811   5.796
 2533SOL    HW2 8499   6.067   6.781   5.756
 2534SOL     OW 8500   0.975   2.355   3.930
 2534SOL    HW1 8501   0.919   2.338   4.011
 2534SOL    HW2 8502   0.921   2.338   3.848
 2535SOL     OW 8503   1.907   1.041   2.882
 2535SOL    HW1 8504   1.893   1.123   2.937
 2535SOL    HW2 8505   1.820   1.013   2.841
 2536SOL     OW 8506   5.916   1.095   4.077
 2536SOL    HW1 8507   5.830   1.130   4.114
 2536SOL    HW2 8508   5.986   1.167   4.082
 2537SOL     OW 8509   4.585   5.533   1.273
 2537SOL    HW1 8510   4.533   5.605   1.318
 2537SOL    HW2 8511   4.680   5.562   1.263
 2538SOL     OW 8512   2.485   4.671   4.821
 2538SOL    HW1 8513   2.497   4.572   4.831
 2538SOL    HW2 8514   2.387   4.691   4.815
 2539SOL     OW 8515   2.913   0.155   5.333
 2539SOL    HW1 8516   2.873   0.083   5.276
 2539SOL    HW2 8517   3.012   0.141   5.339
 2540SOL     OW 8518   5.451   1.927   2.267
 2540SOL    HW1 8519   5.439   2.027   2.267
 2540SOL    HW2 8520   5.531   1.903   2.322
 2541SOL     OW 8521   0.841   6.336   5.693
 2541SOL    HW1 8522   0.789   6.331   5.608
 2541SOL    HW2 8523   0.781   6.364   5.767
 2542SOL     OW 8524   3.634   2.055   4.047
 2542SOL    HW1 8525   3.564   2.113   4.090
 2542SOL    HW2 8526   3.598   2.018   3.961
 2543SOL     OW 8527   0.377   1.874   3.820
 2543SOL    HW1 8528   0.412   1.885   3.913
 2543SOL    HW2 8529   0.293   1.927   3.810
 2544SOL     OW 8530   6.183   5.480   1.852
 2544SOL    HW1 8531   6.194   5.447   1.758
 2544SOL    HW2 8532   6.235   5.422   1.914
 2545SOL     OW 8533   0.117   1.807   1.558
 2545SOL    HW1 8534   0.076   1.730   1.508
 2545SOL    HW2 8535   0.201   1.834   1.512
 2546SOL     OW 8536   6.974   4.439   2.799
 2546SOL    HW1 8537   6.903   4.480   2.743
 2546SOL    HW2 8538   6.991   4.496   2.880
 2547SOL     OW 8539   5.755   3.558   1.083
 2547SOL    HW1 8540   5.789   3.639   1.131
 2547SOL    HW2 8541   5.830   3.493   1.069
 2548SOL     OW 8542   6.851   6.772   5.595
 2548SOL    HW1 8543   6.928   6.808   5.647
 2548SOL    HW2 8544   6.881   6.696   5.538
 2549SOL     OW 8545   2.585   2.503   0.899
 2549SOL    HW1 8546   2.504   2.561   0.902
 2549SOL    HW2 8547   2.558   2.409   0.877
 2550SOL     OW 8548   4.519   6.905   6.348
 2550SOL    HW1 8549   4.477   6.820   6.316
 2550SOL    HW2 8550   4.563   6.952   6.272
 2551SOL     OW 8551   3.303   5.205   0.367
 2551SOL    HW1 8552   3.391   5.230   0.326
 2551SOL    HW2 8553   3.247   5.287   0.378
 2552SOL     OW 8554   2.581   6.018   0.906
 2552SOL    HW1 8555   2.564   6.067   0.992
 2552SOL    HW2 8556   2.494   5.995   0.863
 2553SOL     OW 8557   4.692   1.153   6.597
 2553SOL    HW1 8558   4.697   1.203   6.511
 2553SOL    HW2 8559   4.701   1.055   6.580
 2554SOL     OW 8560   1.535   6.041   1.513
 2554SOL    HW1 8561   1.503   5.976   1.582
 2554SOL    HW2 8562   1.510   6.134   1.541
 2555SOL     OW 8563   5.524   6.237   5.217
 2555SOL    HW1 8564   5.438   6.284   5.233
 2555SOL    HW2 8565   5.518   6.144   5.252
 2556SOL     OW 8566   3.999   0.534   0.903
 2556SOL    HW1 8567   4.095   0.551   0.925
 2556SOL    HW2 8568   3.941   0.599   0.951
 2557SOL     OW 8569   3.244   0.222   0.082
 2557SOL    HW1 8570   3.148   0.219   0.111
 2557SOL    HW2 8571   3.252   0.183   7.013
 2558SOL     OW 8572   6.041   3.628   6.252
 2558SOL    HW1 8573   5.999   3.632   6.162
 2558SOL    HW2 8574   6.139   3.642   6.245
 2559SOL     OW 8575   0.878   4.550   4.660
 2559SOL    HW1 8576   0.955   4.490   4.636
 2559SOL    HW2 8577   0.832   4.513   4.741
 2560SOL     OW 8578   5.057   2.375   3.274
 2560SOL    HW1 8579   5.153   2.364   3.250
 2560SOL    HW2 8580   5.036   2.318   3.354
 2561SOL     OW 8581   3.399   0.624   4.697
 2561SOL    HW1 8582   3.444   0.710   4.719
 2561SOL    HW2 8583   3.457   0.571   4.635
 2562SOL     OW 8584   3.444   6.913   3.170
 2562SOL    HW1 8585   3.502   6.845   3.125
 2562SOL    HW2 8586   3.453   7.001   3.123
 2563SOL     OW 8587   3.673   1.174   0.022
 2563SOL    HW1 8588   3.699   1.253   0.078
 2563SOL    HW2 8589   3.756   1.127   7.014
 2564SOL     OW 8590   2.132   1.497   0.947
 2564SOL    HW1 8591   2.172   1.495   1.038
 2564SOL    HW2 8592   2.040   1.459   0.950
 2565SOL     OW 8593   1.572   2.164   6.995
 2565SOL    HW1 8594   1.489   2.209   6.962
 2565SOL    HW2 8595   1.553   2.121   0.061
 2566SOL     OW 8596   2.633   0.691   1.263
 2566SOL    HW1 8597   2.603   0.598   1.285
 2566SOL    HW2 8598   2.578   0.727   1.188
 2567SOL     OW 8599   1.768   0.484   0.297
 2567SOL    HW1 8600   1.828   0.411   0.262
 2567SOL    HW2 8601   1.784   0.497   0.394
 2568SOL     OW 8602   2.928   6.617   1.045
 2568SOL    HW1 8603   2.889   6.545   0.988
 2568SOL    HW2 8604   2.989   6.674   0.990
 2569SOL     OW 8605   0.794   0.284   1.348
 2569SOL    HW1 8606   0.874   0.267   1.405
 2569SOL    HW2 8607   0.726   0.336   1.400
 2570SOL     OW 8608   6.063   6.770   6.097
 2570SOL    HW1 8609   6.131   6.732   6.159
 2570SOL    HW2 8610   6.105   6.789   6.008
 2571SOL     OW 8611   3.520   3.449   4.294
 2571SOL    HW1 8612   3.491   3.459   4.199
 2571SOL    HW2 8613   3.610   3.406   4.298
 2572SOL     OW 8614   1.869   6.596   1.898
 2572SOL    HW1 8615   1.878   6.496   1.901
 2572SOL    HW2 8616   1.927   6.632   1.824
 2573SOL     OW 8617   0.065   2.176   4.650
 2573SOL    HW1 8618   0.126   2.143   4.722
 2573SOL    HW2 8619   0.082   2.126   4.566
 2574SOL     OW 8620   0.782   3.894   1.879
 2574SOL    HW1 8621   0.858   3.959   1.876
 2574SOL    HW2 8622   0.698   3.942   1.903
 2575SOL     OW 8623   6.551   3.840   0.330
 2575SOL    HW1 8624   6.573   3.915   0.268
 2575SOL    HW2 8625   6.573   3.753   0.285
 2576SOL     OW 8626   1.626   7.002   3.577
 2576SOL    HW1 8627   1.671   0.025   3.655
 2576SOL    HW2 8628   1.528   6.997   3.594
 2577SOL     OW 8629   2.322   5.930   2.475
 2577SOL    HW1 8630   2.338   5.980   2.560
 2577SOL    HW2 8631   2.313   5.994   2.399
 2578SOL     OW 8632   4.986   2.588   4.415
 2578SOL    HW1 8633   5.066   2.628   4.461
 2578SOL    HW2 8634   5.012   2.500   4.375
 2579SOL     OW 8635   6.751   2.549   6.409
 2579SOL    HW1 8636   6.793   2.460   6.388
 2579SOL    HW2 8637   6.659   2.534   6.446
 2580SOL     OW 8638   1.514   2.526   6.291
 2580SOL    HW1 8639   1.558   2.528   6.201
 2580SOL    HW2 8640   1.480   2.433   6.310
 2581SOL     OW 8641   6.523   6.778   3.767
 2581SOL    HW1 8642   6.476   6.743   3.686
 2581SOL    HW2 8643   6.546   6.874   3.753
 2582SOL     OW 8644   0.674   5.309   2.402
 2582SOL    HW1 8645   0.748   5.272   2.458
 2582SOL    HW2 8646   0.696   5.402   2.374
 2583SOL     OW 8647   1.725   0.227   0.501
 2583SOL    HW1 8648   1.773   0.314   0.514
 2583SOL    HW2 8649   1.738   0.170   0.582
 2584SOL     OW 8650   4.304   6.740   2.030
 2584SOL    HW1 8651   4.256   6.674   1.971
 2584SOL    HW2 8652   4.256   6.747   2.118
 2585SOL     OW 8653   4.028   0.388   1.316
 2585SOL    HW1 8654   3.980   0.392   1.403
 2585SOL    HW2 8655   4.010   0.472   1.264
 2586SOL     OW 8656   6.535   2.308   3.976
 2586SOL    HW1 8657   6.527   2.227   3.918
 2586SOL    HW2 8658   6.511   2.390   3.923
 2587SOL     OW 8659   5.697   6.226   3.170
 2587SOL    HW1 8660   5.685   6.225   3.269
 2587SOL    HW2 8661   5.767   6.293   3.146
 2588SOL     OW 8662   5.469   1.050   1.078
 2588SOL    HW1 8663   5.566   1.066   1.093
 2588SOL    HW2 8664   5.425   1.136   1.050
 2589SOL     OW 8665   6.643   6.492   6.672
 2589SOL    HW1 8666   6.711   6.565   6.669
 2589SOL    HW2 8667   6.593   6.489   6.585
 2590SOL     OW 8668   4.364   0.073   2.583
 2590SOL    HW1 8669   4.391   0.122   2.500
 2590SOL    HW2 8670   4.352   0.137   2.658
 2591SOL     OW 8671   5.261   6.562   1.479
 2591SOL    HW1 8672   5.270   6.474   1.525
 2591SOL    HW2 8673   5.168   6.572   1.444
 2592SOL     OW 8674   3.806   5.396   1.859
 2592SOL    HW1 8675   3.752   5.391   1.943
 2592SOL    HW2 8676   3.745   5.412   1.781
 2593SOL     OW 8677   3.058   6.293   2.419
 2593SOL    HW1 8678   3.144   6.245   2.433
 2593SOL    HW2 8679   3.018   6.317   2.507
 2594SOL     OW 8680   0.815   6.372   6.260
 2594SOL    HW1 8681   0.847   6.345   6.351
 2594SOL    HW2 8682   0.727   6.328   6.241
 2595SOL     OW 8683   6.043   3.668   4.264
 2595SOL    HW1 8684   6.045   3.762   4.232
 2595SOL    HW2 8685   5.948   3.636   4.269
 2596SOL     OW 8686   3.929   2.140   2.083
 2596SOL    HW1 8687   3.971   2.153   1.993
 2596SOL    HW2 8688   3.831   2.158   2.076
 2597SOL     OW 8689   2.134   2.995   0.220
 2597SOL    HW1 8690   2.168   2.902   0.206
 2597SOL    HW2 8691   2.035   2.997   0.211
 2598SOL     OW 8692   6.561   3.315   3.552
 2598SOL    HW1 8693   6.474   3.267   3.540
 2598SOL    HW2 8694   6.599   3.293   3.642
 2599SOL     OW 8695   3.652   5.517   0.145
 2599SOL    HW1 8696   3.677   5.509   0.048
 2599SOL    HW2 8697   3.575   5.580   0.155
 2600SOL     OW 8698   5.975   3.865   3.330
 2600SOL    HW1 8699   6.032   3.844   3.250
 2600SOL    HW2 8700   5.936   3.956   3.319
 2601SOL     OW 8701   4.176   3.257   6.547
 2601SOL    HW1 8702   4.234   3.334   6.521
 2601SOL    HW2 8703   4.207   3.174   6.500
 2602SOL     OW 8704   6.306   5.206   3.726
 2602SOL    HW1 8705   6.332   5.169   3.637
 2602SOL    HW2 8706   6.248   5.287   3.713
 2603SOL     OW 8707   3.203   2.001   1.211
 2603SOL    HW1 8708   3.189   1.953   1.125
 2603SOL    HW2 8709   3.158   2.091   1.207
 2604SOL     OW 8710   6.160   0.218   1.171
 2604SOL    HW1 8711   6.251   0.211   1.129
 2604SOL    HW2 8712   6.118   0.305   1.145
 2605SOL     OW 8713   4.738   4.975   4.265
 2605SOL    HW1 8714   4.665   5.016   4.210
 2605SOL    HW2 8715   4.826   5.004   4.229
 2606SOL     OW 8716   0.200   4.741   0.323
 2606SOL    HW1 8717   0.122   4.770   0.267
 2606SOL    HW2 8718   0.171   4.732   0.418
 2607SOL     OW 8719   0.398   0.965   3.889
 2607SOL    HW1 8720   0.473   1.029   3.906
 2607SOL    HW2 8721   0.319   1.015   3.853
 2608SOL     OW 8722   5.048   0.575   1.509
 2608SOL    HW1 8723   5.141   0.603   1.530
 2608SOL    HW2 8724   4.985   0.650   1.530
 2609SOL     OW 8725   0.970   2.286   2.473
 2609SOL    HW1 8726   1.068   2.271   2.460
 2609SOL    HW2 8727   0.929   2.203   2.510
 2610SOL     OW 8728   5.917   6.358   4.754
 2610SOL    HW1 8729   5.869   6.412   4.823
 2610SOL    HW2 8730   5.997   6.314   4.795
 2611SOL     OW 8731   4.579   6.811   1.369
 2611SOL    HW1 8732   4.524   6.737   1.408
 2611SOL    HW2 8733   4.558   6.820   1.271
 2612SOL     OW 8734   5.905   6.397   3.135
 2612SOL    HW1 8735   5.892   6.438   3.225
 2612SOL    HW2 8736   5.926   6.468   3.068
 2613SOL     OW 8737   3.867   0.446   1.520
 2613SOL    HW1 8738   3.796   0.414   1.582
 2613SOL    HW2 8739   3.922   0.516   1.566
 2614SOL     OW 8740   0.186   6.359   6.151
 2614SOL    HW1 8741   0.225   6.388   6.238
 2614SOL    HW2 8742   0.145   6.268   6.161
 2615SOL     OW 8743   5.353   5.603   2.753
 2615SOL    HW1 8744   5.371   5.677   2.817
 2615SOL    HW2 8745   5.398   5.519   2.786
 2616SOL     OW 8746   3.708   2.956   3.096
 2616SOL    HW1 8747   3.663   2.899   3.166
 2616SOL    HW2 8748   3.683   2.921   3.005
 2617SOL     OW 8749   4.019   6.730   1.625
 2617SOL    HW1 8750   3.943   6.687   1.674
 2617SOL    HW2 8751   4.008   6.715   1.527
 2618SOL     OW 8752   1.076   0.565   0.508
 2618SOL    HW1 8753   1.135   0.646   0.513
 2618SOL    HW2 8754   1.000   0.575   0.573
 2619SOL     OW 8755   4.409   2.139   1.822
 2619SOL    HW1 8756   4.378   2.233   1.807
 2619SOL    HW2 8757   4.477   2.137   1.895
 2620SOL     OW 8758   1.008   4.438   4.192
 2620SOL    HW1 8759   0.918   4.402   4.169
 2620SOL    HW2 8760   1.023   4.432   4.291
 2621SOL     OW 8761   0.721   5.031   3.592
 2621SOL    HW1 8762   0.753   5.041   3.686
 2621SOL    HW2 8763   0.711   4.934   3.569
 2622SOL     OW 8764   2.583   2.656   6.753
 2622SOL    HW1 8765   2.512   2.607   6.804
 2622SOL    HW2 8766   2.542   2.703   6.675
 2623SOL     OW 8767   2.829   1.154   5.728
 2623SOL    HW1 8768   2.859   1.240   5.687
 2623SOL    HW2 8769   2.770   1.106   5.664
 2624SOL     OW 8770   5.755   2.405   3.832
 2624SOL    HW1 8771   5.802   2.326   3.872
 2624SOL    HW2 8772   5.732   2.470   3.905
 2625SOL     OW 8773   3.021   2.154   5.810
 2625SOL    HW1 8774   3.106   2.186   5.767
 2625SOL    HW2 8775   3.002   2.209   5.891
 2626SOL     OW 8776   2.046   6.694   3.265
 2626SOL    HW1 8777   2.048   6.775   3.207
 2626SOL    HW2 8778   1.954   6.655   3.266
 2627SOL     OW 8779   6.536   0.437   4.214
 2627SOL    HW1 8780   6.565   0.371   4.145
 2627SOL    HW2 8781   6.478   0.390   4.281
 2628SOL     OW 8782   4.101   6.170   6.645
 2628SOL    HW1 8783   4.133   6.229   6.719
 2628SOL    HW2 8784   4.052   6.226   6.577
 2629SOL     OW 8785   3.394   4.236   1.373
 2629SOL    HW1 8786   3.405   4.138   1.387
 2629SOL    HW2 8787   3.297   4.260   1.377
 2630SOL     OW 8788   2.829   2.288   2.427
 2630SOL    HW1 8789   2.873   2.332   2.349
 2630SOL    HW2 8790   2.827   2.189   2.414
 2631SOL     OW 8791   4.337   6.279   3.831
 2631SOL    HW1 8792   4.261   6.317   3.885
 2631SOL    HW2 8793   4.352   6.337   3.751
 2632SOL     OW 8794   3.818   2.198   0.187
 2632SOL    HW1 8795   3.741   2.165   0.242
 2632SOL    HW2 8796   3.786   2.219   0.094
 2633SOL     OW 8797   5.680   2.378   6.678
 2633SOL    HW1 8798   5.725   2.293   6.705
 2633SOL    HW2 8799   5.654   2.429   6.760
 2634SOL     OW 8800   1.896   4.298   1.399
 2634SOL    HW1 8801   1.811   4.251   1.422
 2634SOL    HW2 8802   1.917   4.365   1.470
 2635SOL     OW 8803   5.722   4.838   5.050
 2635SOL    HW1 8804   5.807   4.833   5.101
 2635SOL    HW2 8805   5.741   4.840   4.952
 2636SOL     OW 8806   4.593   0.183   5.745
 2636SOL    HW1 8807   4.611   0.091   5.778
 2636SOL    HW2 8808   4.651   0.248   5.793
 2637SOL     OW 8809   5.513   6.640   2.683
 2637SOL    HW1 8810   5.461   6.621   2.599
 2637SOL    HW2 8811   5.504   6.562   2.746
 2638SOL     OW 8812   5.521   5.997   1.036
 2638SOL    HW1 8813   5.498   6.065   0.966
 2638SOL    HW2 8814   5.620   5.995   1.049
 2639SOL     OW 8815   6.207   5.870   0.912
 2639SOL    HW1 8816   6.279   5.809   0.945
 2639SOL    HW2 8817   6.130   5.815   0.878
 2640SOL     OW 8818   6.932   6.268   5.275
 2640SOL    HW1 8819   6.906   6.172   5.289
 2640SOL    HW2 8820   6.853   6.320   5.246
 2641SOL     OW 8821   5.171   4.339   0.039
 2641SOL    HW1 8822   5.219   4.423   0.014
 2641SOL    HW2 8823   5.238   4.265   0.051
 2642SOL     OW 8824   4.986   0.562   3.559
 2642SOL    HW1 8825   4.932   0.554   3.476
 2642SOL    HW2 8826   4.997   0.659   3.583
 2643SOL     OW 8827   0.354   0.306   2.772
 2643SOL    HW1 8828   0.301   0.225   2.747
 2643SOL    HW2 8829   0.399   0.344   2.692
 2644SOL     OW 8830   0.420   4.462   6.133
 2644SOL    HW1 8831   0.496   4.416   6.089
 2644SOL    HW2 8832   0.349   4.395   6.157
 2645SOL     OW 8833   5.239   5.661   6.484
 2645SOL    HW1 8834   5.330   5.623   6.501
 2645SOL    HW2 8835   5.220   5.658   6.386
 2646SOL     OW 8836   6.681   6.860   6.485
 2646SOL    HW1 8837   6.709   6.773   6.445
 2646SOL    HW2 8838   6.710   6.863   6.581
 2647SOL     OW 8839   4.339   2.190   1.367
 2647SOL    HW1 8840   4.384   2.157   1.450
 2647SOL    HW2 8841   4.240   2.186   1.379
 2648SOL     OW 8842   5.555   0.096   2.171
 2648SOL    HW1 8843   5.471   0.146   2.148
 2648SOL    HW2 8844   5.633   0.158   2.165
 2649SOL     OW 8845   3.268   1.691   6.514
 2649SOL    HW1 8846   3.259   1.591   6.517
 2649SOL    HW2 8847   3.335   1.721   6.582
 2650SOL     OW 8848   7.003   6.146   2.868
 2650SOL    HW1 8849   6.958   6.182   2.786
 2650SOL    HW2 8850   6.935   6.135   2.940
 2651SOL     OW 8851   6.632   1.307   2.151
 2651SOL    HW1 8852   6.568   1.335   2.080
 2651SOL    HW2 8853   6.693   1.236   2.115
 2652SOL     OW 8854   3.336   3.201   3.029
 2652SOL    HW1 8855   3.286   3.231   2.948
 2652SOL    HW2 8856   3.430   3.234   3.025
 2653SOL     OW 8857   6.799   6.546   6.129
 2653SOL    HW1 8858   6.890   6.558   6.089
 2653SOL    HW2 8859   6.749   6.475   6.079
 2654SOL     OW 8860   5.177   2.473   5.682
 2654SOL    HW1 8861   5.236   2.412   5.735
 2654SOL    HW2 8862   5.142   2.546   5.741
 2655SOL     OW 8863   4.749   6.138   4.465
 2655SOL    HW1 8864   4.708   6.061   4.513
 2655SOL    HW2 8865   4.693   6.220   4.477
 2656SOL     OW 8866   5.518   3.772   3.525
 2656SOL    HW1 8867   5.565   3.705   3.582
 2656SOL    HW2 8868   5.493   3.852   3.580
 2657SOL     OW 8869   1.826   3.749   6.663
 2657SOL    HW1 8870   1.747   3.687   6.670
 2657SOL    HW2 8871   1.873   3.753   6.751
 2658SOL     OW 8872   6.454   4.267   5.642
 2658SOL    HW1 8873   6.466   4.328   5.720
 2658SOL    HW2 8874   6.375   4.207   5.659
 2659SOL     OW 8875   6.918   2.352   4.379
 2659SOL    HW1 8876   6.932   2.428   4.443
 2659SOL    HW2 8877   6.942   2.381   4.286
 2660SOL     OW 8878   5.967   2.234   2.545
 2660SOL    HW1 8879   5.934   2.228   2.640
 2660SOL    HW2 8880   5.971   2.142   2.505
 2661SOL     OW 8881   3.831   6.005   1.066
 2661SOL    HW1 8882   3.832   5.905   1.069
 2661SOL    HW2 8883   3.751   6.038   1.117
 2662SOL     OW 8884   4.038   6.701   4.684
 2662SOL    HW1 8885   3.952   6.672   4.726
 2662SOL    HW2 8886   4.065   6.636   4.613
 2663SOL     OW 8887   1.801   4.310   2.323
 2663SOL    HW1 8888   1.891   4.278   2.294
 2663SOL    HW2 8889   1.733   4.239   2.306
 2664SOL     OW 8890   3.823   3.412   2.704
 2664SOL    HW1 8891   3.829   3.372   2.612
 2664SOL    HW2 8892   3.915   3.436   2.735
 2665SOL     OW 8893   3.581   1.267   4.680
 2665SOL    HW1 8894   3.486   1.298   4.676
 2665SOL    HW2 8895   3.640   1.334   4.634
 2666SOL     OW 8896   5.435   4.343   0.959
 2666SOL    HW1 8897   5.347   4.346   1.007
 2666SOL    HW2 8898   5.460   4.436   0.931
 2667SOL     OW 8899   2.523   5.639   4.706
 2667SOL    HW1 8900   2.598   5.661   4.643
 2667SOL    HW2 8901   2.560   5.629   4.799
 2668SOL     OW 8902   6.990   3.017   5.551
 2668SOL    HW1 8903   6.956   2.999   5.644
 2668SOL    HW2 8904   6.912   3.034   5.490
 2669SOL     OW 8905   4.300   4.725   5.449
 2669SOL    HW1 8906   4.265   4.641   5.406
 2669SOL    HW2 8907   4.302   4.713   5.548
 2670SOL     OW 8908   0.974   1.520   0.152
 2670SOL    HW1 8909   1.041   1.593   0.164
 2670SOL    HW2 8910   0.997   1.443   0.211
 2671SOL     OW 8911   2.316   3.425   6.138
 2671SOL    HW1 8912   2.386   3.377   6.085
 2671SOL    HW2 8913   2.356   3.461   6.222
 2672SOL     OW 8914   1.911   5.616   0.700
 2672SOL    HW1 8915   1.891   5.571   0.613
 2672SOL    HW2 8916   1.848   5.693   0.713
 2673SOL     OW 8917   3.958   2.151   3.169
 2673SOL    HW1 8918   3.934   2.068   3.118
 2673SOL    HW2 8919   3.878   2.182   3.221
 2674SOL     OW 8920   6.809   4.912   4.967
 2674SOL    HW1 8921   6.821   4.932   5.064
 2674SOL    HW2 8922   6.856   4.982   4.913
 2675SOL     OW 8923   0.206   4.660   5.830
 2675SOL    HW1 8924   0.172   4.573   5.868
 2675SOL    HW2 8925   0.299   4.646   5.795
 2676SOL     OW 8926   4.585   1.815   1.498
 2676SOL    HW1 8927   4.651   1.760   1.548
 2676SOL    HW2 8928   4.519   1.755   1.452
 2677SOL     OW 8929   2.151   4.602   1.449
 2677SOL    HW1 8930   2.146   4.702   1.444
 2677SOL    HW2 8931   2.135   4.573   1.543
 2678SOL     OW 8932   0.856   5.059   6.602
 2678SOL    HW1 8933   0.921   5.135   6.601
 2678SOL    HW2 8934   0.796   5.065   6.523
 2679SOL     OW 8935   3.100   5.200   0.960
 2679SOL    HW1 8936   3.191   5.192   0.919
 2679SOL    HW2 8937   3.089   5.291   1.001
 2680SOL     OW 8938   2.004   1.248   1.441
 2680SOL    HW1 8939   2.068   1.171   1.437
 2680SOL    HW2 8940   1.912   1.215   1.458
 2681SOL     OW 8941   1.442   2.741   3.179
 2681SOL    HW1 8942   1.430   2.653   3.133
 2681SOL    HW2 8943   1.406   2.736   3.272
 2682SOL     OW 8944   5.435   3.005   2.648
 2682SOL    HW1 8945   5.460   3.065   2.572
 2682SOL    HW2 8946   5.347   2.961   2.628
 2683SOL     OW 8947   0.912   5.729   0.923
 2683SOL    HW1 8948   0.904   5.665   0.999
 2683SOL    HW2 8949   0.827   5.728   0.870
 2684SOL     OW 8950   2.426   6.293   3.357
 2684SOL    HW1 8951   2.448   6.287   3.260
 2684SOL    HW2 8952   2.365   6.371   3.373
 2685SOL     OW 8953   4.963   6.165   5.171
 2685SOL    HW1 8954   5.031   6.157   5.244
 2685SOL    HW2 8955   4.999   6.221   5.097
 2686SOL     OW 8956   2.130   2.974   4.093
 2686SOL    HW1 8957   2.073   3.014   4.165
 2686SOL    HW2 8958   2.124   3.029   4.010
 2687SOL     OW 8959   3.707   5.377   2.154
 2687SOL    HW1 8960   3.629   5.422   2.197
 2687SOL    HW2 8961   3.675   5.298   2.101
 2688SOL     OW 8962   4.400   4.720   6.517
 2688SOL    HW1 8963   4.490   4.681   6.495
 2688SOL    HW2 8964   4.398   4.748   6.612
 2689SOL     OW 8965   0.328   2.854   3.761
 2689SOL    HW1 8966   0.334   2.937   3.817
 2689SOL    HW2 8967   0.398   2.857   3.689
 2690SOL     OW 8968   4.030   3.626   3.826
 2690SOL    HW1 8969   4.087   3.566   3.770
 2690SOL    HW2 8970   3.942   3.582   3.843
 2691SOL     OW 8971   1.630   5.808   2.179
 2691SOL    HW1 8972   1.716   5.812   2.129
 2691SOL    HW2 8973   1.565   5.750   2.130
 2692SOL     OW 8974   6.953   6.729   3.257
 2692SOL    HW1 8975   6.888   6.718   3.332
 2692SOL    HW2 8976   0.019   6.690   3.284
 2693SOL     OW 8977   1.894   3.702   3.445
 2693SOL    HW1 8978   1.983   3.725   3.405
 2693SOL    HW2 8979   1.859   3.781   3.495
 2694SOL     OW 8980   1.680   6.737   3.543
 2694SOL    HW1 8981   1.584   6.710   3.548
 2694SOL    HW2 8982   1.687   6.837   3.546
 2695SOL     OW 8983   4.449   2.394   2.747
 2695SOL    HW1 8984   4.422   2.389   2.651
 2695SOL    HW2 8985   4.388   2.338   2.802
 2696SOL     OW 8986   3.872   3.974   5.418
 2696SOL    HW1 8987   3.891   4.000   5.512
 2696SOL    HW2 8988   3.951   3.927   5.379
 2697SOL     OW 8989   3.119   1.939   4.259
 2697SOL    HW1 8990   3.052   1.928   4.186
 2697SOL    HW2 8991   3.103   2.026   4.306
 2698SOL     OW 8992   1.585   4.335   0.647
 2698SOL    HW1 8993   1.634   4.401   0.590
 2698SOL    HW2 8994   1.564   4.377   0.735
 2699SOL     OW 8995   3.649   6.319   1.438
 2699SOL    HW1 8996   3.735   6.299   1.391
 2699SOL    HW2 8997   3.613   6.406   1.406
 2700SOL     OW 8998   1.612   3.446   2.766
 2700SOL    HW1 8999   1.530   3.504   2.772
 2700SOL    HW2 9000   1.587   3.358   2.726
 2701SOL     OW 9001   3.598   0.213   6.792
 2701SOL    HW1 9002   3.620   0.304   6.829
 2701SOL    HW2 9003   3.675   0.180   6.738
 2702SOL     OW 9004   7.012   1.286   3.711
 2702SOL    HW1 9005   6.986   1.309   3.805
 2702SOL    HW2 9006   6.950   1.215   3.676
 2703SOL     OW 9007   1.907   1.899   2.407
 2703SOL    HW1 9008   1.829   1.837   2.395
 2703SOL    HW2 9009   1.922   1.950   2.322
 2704SOL     OW 9010   2.560   5.246   1.432
 2704SOL    HW1 9011   2.567   5.147   1.437
 2704SOL    HW2 9012   2.514   5.272   1.347
 2705SOL     OW 9013   6.405   5.696   3.336
 2705SOL    HW1 9014   6.397   5.621   3.401
 2705SOL    HW2 9015   6.358   5.777   3.372
 2706SOL     OW 9016   6.461   1.610   1.505
 2706SOL    HW1 9017   6.425   1.672   1.574
 2706SOL    HW2 9018   6.537   1.654   1.457
 2707SOL     OW 9019   2.131   1.755   6.406
 2707SOL    HW1 9020   2.186   1.704   6.340
 2707SOL    HW2 9021   2.059   1.805   6.357
 2708SOL     OW 9022   1.271   2.409   1.723
 2708SOL    HW1 9023   1.246   2.347   1.798
 2708SOL    HW2 9024   1.336   2.477   1.757
 2709SOL     OW 9025   4.958   5.643   0.886
 2709SOL    HW1 9026   4.991   5.700   0.962
 2709SOL    HW2 9027   5.028   5.575   0.864
 2710SOL     OW 9028   0.106   3.889   2.486
 2710SOL    HW1 9029   0.053   3.871   2.403
 2710SOL    HW2 9030   0.060   3.850   2.565
 2711SOL     OW 9031   0.925   0.290   2.147
 2711SOL    HW1 9032   0.989   0.254   2.079
 2711SOL    HW2 9033   0.926   0.231   2.227
 2712SOL     OW 9034   2.596   4.639   0.604
 2712SOL    HW1 9035   2.694   4.624   0.589
 2712SOL    HW2 9036   2.550   4.551   0.612
 2713SOL     OW 9037   2.443   3.236   5.377
 2713SOL    HW1 9038   2.482   3.161   5.324
 2713SOL    HW2 9039   2.401   3.303   5.315
 2714SOL     OW 9040   4.856   0.632   6.108
 2714SOL    HW1 9041   4.809   0.651   6.194
 2714SOL    HW2 9042   4.876   0.718   6.061
 2715SOL     OW 9043   6.083   1.327   6.814
 2715SOL    HW1 9044   6.148   1.352   6.742
 2715SOL    HW2 9045   6.110   1.240   6.855
 2716SOL     OW 9046   0.485   5.901   2.421
 2716SOL    HW1 9047   0.435   5.886   2.336
 2716SOL    HW2 9048   0.493   5.999   2.440
 2717SOL     OW 9049   0.871   0.291   3.054
 2717SOL    HW1 9050   0.789   0.331   3.013
 2717SOL    HW2 9051   0.872   0.192   3.038
 2718SOL     OW 9052   2.013   4.262   4.248
 2718SOL    HW1 9053   1.955   4.184   4.225
 2718SOL    HW2 9054   2.079   4.234   4.318
 2719SOL     OW 9055   4.182   5.416   1.888
 2719SOL    HW1 9056   4.159   5.364   1.970
 2719SOL    HW2 9057   4.280   5.410   1.870
 2720SOL     OW 9058   1.736   7.013   3.839
 2720SOL    HW1 9059   1.803   0.039   3.895
 2720SOL    HW2 9060   1.645   0.001   3.879
 2721SOL     OW 9061   3.662   0.001   4.167
 2721SOL    HW1 9062   3.681   6.969   4.248
 2721SOL    HW2 9063   3.584   0.061   4.184
 2722SOL     OW 9064   1.291   6.083   2.626
 2722SOL    HW1 9065   1.272   5.997   2.673
 2722SOL    HW2 9066   1.210   6.112   2.575
 2723SOL     OW 9067   1.941   1.040   5.730
 2723SOL    HW1 9068   1.979   0.963   5.783
 2723SOL    HW2 9069   1.925   1.117   5.791
 2724SOL     OW 9070   4.137   5.731   6.261
 2724SOL    HW1 9071   4.176   5.641   6.278
 2724SOL    HW2 9072   4.119   5.777   6.348
 2725SOL     OW 9073   4.175   4.738   4.180
 2725SOL    HW1 9074   4.215   4.674   4.114
 2725SOL    HW2 9075   4.107   4.795   4.134
 2726SOL     OW 9076   4.976   5.704   2.377
 2726SOL    HW1 9077   5.008   5.798   2.391
 2726SOL    HW2 9078   4.933   5.697   2.286
 2727SOL     OW 9079   0.849   5.375   2.648
 2727SOL    HW1 9080   0.908   5.438   2.699
 2727SOL    HW2 9081   0.839   5.290   2.700
 2728SOL     OW 9082   2.462   6.541   5.295
 2728SOL    HW1 9083   2.506   6.472   5.353
 2728SOL    HW2 9084   2.467   6.512   5.200
 2729SOL     OW 9085   5.704   5.093   2.890
 2729SOL    HW1 9086   5.761   5.086   2.971
 2729SOL    HW2 9087   5.759   5.126   2.813
 2730SOL     OW 9088   1.697   0.139   1.038
 2730SOL    HW1 9089   1.781   0.111   0.991
 2730SOL    HW2 9090   1.717   0.158   1.134
 2731SOL     OW 9091   2.873   3.779   1.857
 2731SOL    HW1 9092   2.925   3.860   1.886
 2731SOL    HW2 9093   2.936   3.711   1.820
 2732SOL     OW 9094   5.654   2.204   2.717
 2732SOL    HW1 9095   5.709   2.122   2.705
 2732SOL    HW2 9096   5.572   2.197   2.660
 2733SOL     OW 9097   0.978   6.868   5.649
 2733SOL    HW1 9098   0.933   6.780   5.661
 2733SOL    HW2 9099   1.046   6.881   5.721
 2734SOL     OW 9100   1.800   6.380   4.227
 2734SOL    HW1 9101   1.843   6.468   4.249
 2734SOL    HW2 9102   1.819   6.314   4.300
 2735SOL     OW 9103   1.710   5.100   2.459
 2735SOL    HW1 9104   1.647   5.108   2.536
 2735SOL    HW2 9105   1.772   5.023   2.474
 2736SOL     OW 9106   4.112   0.456   4.889
 2736SOL    HW1 9107   4.167   0.510   4.953
 2736SOL    HW2 9108   4.145   0.362   4.888
 2737SOL     OW 9109   4.634   3.788   6.076
 2737SOL    HW1 9110   4.574   3.866   6.095
 2737SOL    HW2 9111   4.684   3.763   6.159
 2738SOL     OW 9112   5.740   5.214   4.740
 2738SOL    HW1 9113   5.803   5.242   4.667
 2738SOL    HW2 9114   5.647   5.244   4.718
 2739SOL     OW 9115   5.228   3.411   1.231
 2739SOL    HW1 9116   5.171   3.430   1.311
 2739SOL    HW2 9117   5.206   3.476   1.158
 2740SOL     OW 9118   5.870   2.632   3.618
 2740SOL    HW1 9119   5.770   2.640   3.613
 2740SOL    HW2 9120   5.894   2.564   3.686
 2741SOL     OW 9121   0.778   2.383   5.696
 2741SOL    HW1 9122   0.753   2.355   5.788
 2741SOL    HW2 9123   0.876   2.405   5.693
 2742SOL     OW 9124   2.046   6.720   6.746
 2742SOL    HW1 9125   2.008   6.813   6.738
 2742SOL    HW2 9126   1.994   6.658   6.689
 2743SOL     OW 9127   5.130   4.783   1.407
 2743SOL    HW1 9128   5.136   4.875   1.369
 2743SOL    HW2 9129   5.103   4.788   1.503
 2744SOL     OW 9130   3.908   2.503   5.992
 2744SOL    HW1 9131   3.991   2.464   5.953
 2744SOL    HW2 9132   3.901   2.477   6.088
 2745SOL     OW 9133   2.622   6.216   1.115
 2745SOL    HW1 9134   2.630   6.152   1.191
 2745SOL    HW2 9135   2.674   6.299   1.136
 2746SOL     OW 9136   2.082   2.048   6.143
 2746SOL    HW1 9137   2.148   1.979   6.116
 2746SOL    HW2 9138   2.021   2.068   6.067
 2747SOL     OW 9139   5.316   6.736   4.028
 2747SOL    HW1 9140   5.249   6.803   3.996
 2747SOL    HW2 9141   5.323   6.741   4.128
 2748SOL     OW 9142   3.804   1.353   2.809
 2748SOL    HW1 9143   3.729   1.329   2.748
 2748SOL    HW2 9144   3.874   1.403   2.758
 2749SOL     OW 9145   4.537   5.069   3.924
 2749SOL    HW1 9146   4.488   5.122   3.994
 2749SOL    HW2 9147   4.592   5.131   3.868
 2750SOL     OW 9148   0.728   5.727   2.757
 2750SOL    HW1 9149   0.774   5.659   2.814
 2750SOL    HW2 9150   0.681   5.682   2.681
 2751SOL     OW 9151   1.776   0.163   6.761
 2751SOL    HW1 9152   1.681   0.190   6.772
 2751SOL    HW2 9153   1.816   0.144   6.851
 2752SOL     OW 9154   5.727   6.045   5.475
 2752SOL    HW1 9155   5.731   6.050   5.575
 2752SOL    HW2 9156   5.800   6.102   5.437
 2753SOL     OW 9157   3.695   5.582   6.015
 2753SOL    HW1 9158   3.610   5.530   6.014
 2753SOL    HW2 9159   3.754   5.549   6.089
 2754SOL     OW 9160   0.634   0.933   4.474
 2754SOL    HW1 9161   0.657   1.030   4.485
 2754SOL    HW2 9162   0.552   0.912   4.527
 2755SOL     OW 9163   2.916   6.585   2.094
 2755SOL    HW1 9164   2.923   6.490   2.124
 2755SOL    HW2 9165   2.844   6.631   2.147
 2756SOL     OW 9166   6.944   2.696   5.905
 2756SOL    HW1 9167   0.001   2.754   5.886
 2756SOL    HW2 9168   6.882   2.698   5.827
 2757SOL     OW 9169   4.517   3.123   6.606
 2757SOL    HW1 9170   4.516   3.103   6.704
 2757SOL    HW2 9171   4.433   3.089   6.564
 2758SOL     OW 9172   5.805   5.782   2.297
 2758SOL    HW1 9173   5.758   5.858   2.343
 2758SOL    HW2 9174   5.895   5.813   2.266
 2759SOL     OW 9175   3.299   4.358   6.276
 2759SOL    HW1 9176   3.339   4.421   6.209
 2759SOL    HW2 9177   3.259   4.280   6.227
 2760SOL     OW 9178   5.260   6.007   3.415
 2760SOL    HW1 9179   5.253   6.069   3.337
 2760SOL    HW2 9180   5.180   6.018   3.474
 2761SOL     OW 9181   1.894   3.207   2.637
 2761SOL    HW1 9182   1.802   3.246   2.628
 2761SOL    HW2 9183   1.899   3.153   2.721
 2762SOL     OW 9184   2.616   2.233   0.793
 2762SOL    HW1 9185   2.530   2.188   0.771
 2762SOL    HW2 9186   2.688   2.164   0.802
 2763SOL     OW 9187   4.792   2.037   5.156
 2763SOL    HW1 9188   4.851   1.971   5.108
 2763SOL    HW2 9189   4.828   2.129   5.142
 2764SOL     OW 9190   1.100   4.007   2.220
 2764SOL    HW1 9191   1.158   4.061   2.158
 2764SOL    HW2 9192   1.005   4.011   2.187
 2765SOL     OW 9193   0.230   6.785   6.669
 2765SOL    HW1 9194   0.288   6.742   6.738
 2765SOL    HW2 9195   0.245   6.884   6.670
 2766SOL     OW 9196   5.643   1.131   6.639
 2766SOL    HW1 9197   5.699   1.154   6.719
 2766SOL    HW2 9198   5.697   1.144   6.556
 2767SOL     OW 9199   6.873   4.872   6.240
 2767SOL    HW1 9200   6.778   4.897   6.218
 2767SOL    HW2 9201   6.918   4.838   6.158
 2768SOL     OW 9202   4.619   0.346   0.973
 2768SOL    HW1 9203   4.540   0.343   0.911
 2768SOL    HW2 9204   4.589   0.367   1.066
 2769SOL     OW 9205   1.500   4.153   5.549
 2769SOL    HW1 9206   1.552   4.231   5.515
 2769SOL    HW2 9207   1.543   4.118   5.632
 2770SOL     OW 9208   2.861   6.422   0.855
 2770SOL    HW1 9209   2.928   6.447   0.785
 2770SOL    HW2 9210   2.837   6.325   0.847
 2771SOL     OW 9211   4.742   0.195   4.656
 2771SOL    HW1 9212   4.832   0.169   4.691
 2771SOL    HW2 9213   4.690   0.240   4.729
 2772SOL     OW 9214   3.817   0.170   3.374
 2772SOL    HW1 9215   3.743   0.179   3.441
 2772SOL    HW2 9216   3.880   0.097   3.402
 2773SOL     OW 9217   6.010   2.795   4.301
 2773SOL    HW1 9218   5.948   2.783   4.224
 2773SOL    HW2 9219   6.078   2.864   4.278
 2774SOL     OW 9220   5.085   1.449   3.942
 2774SOL    HW1 9221   5.065   1.456   4.040
 2774SOL    HW2 9222   5.171   1.495   3.922
 2775SOL     OW 9223   0.504   4.326   4.343
 2775SOL    HW1 9224   0.578   4.327   4.411
 2775SOL    HW2 9225   0.483   4.419   4.314
 2776SOL     OW 9226   5.137   4.137   5.848
 2776SOL    HW1 9227   5.066   4.202   5.875
 2776SOL    HW2 9228   5.205   4.131   5.921
 2777SOL     OW 9229   3.139   2.016   6.229
 2777SOL    HW1 9230   3.218   1.957   6.243
 2777SOL    HW2 9231   3.140   2.090   6.296
 2778SOL     OW 9232   2.855   6.378   6.266
 2778SOL    HW1 9233   2.872   6.306   6.198
 2778SOL    HW2 9234   2.777   6.433   6.238
 2779SOL     OW 9235   5.902   0.042   1.187
 2779SOL    HW1 9236   5.948   0.129   1.205
 2779SOL    HW2 9237   5.894   0.028   1.089
 2780SOL     OW 9238   0.416   1.666   5.283
 2780SOL    HW1 9239   0.473   1.723   5.223
 2780SOL    HW2 9240   0.336   1.633   5.232
 2781SOL     OW 9241   6.252   0.389   2.821
 2781SOL    HW1 9242   6.207   0.312   2.776
 2781SOL    HW2 9243   6.220   0.395   2.916
 2782SOL     OW 9244   4.675   0.877   6.596
 2782SOL    HW1 9245   4.717   0.807   6.654
 2782SOL    HW2 9246   4.576   0.872   6.603
 2783SOL     OW 9247   5.673   4.198   1.658
 2783SOL    HW1 9248   5.587   4.147   1.669
 2783SOL    HW2 9249   5.654   4.287   1.616
 2784SOL     OW 9250   1.668   1.713   1.125
 2784SOL    HW1 9251   1.661   1.809   1.098
 2784SOL    HW2 9252   1.687   1.707   1.223
 2785SOL     OW 9253   5.582   2.748   1.402
 2785SOL    HW1 9254   5.487   2.778   1.401
 2785SOL    HW2 9255   5.585   2.649   1.391
 2786SOL     OW 9256   0.143   6.611   0.059
 2786SOL    HW1 9257   0.072   6.670   0.022
 2786SOL    HW2 9258   0.120   6.585   0.153
 2787SOL     OW 9259   6.478   4.952   6.356
 2787SOL    HW1 9260   6.397   4.997   6.393
 2787SOL    HW2 9261   6.452   4.861   6.322
 2788SOL     OW 9262   3.078   6.503   5.648
 2788SOL    HW1 9263   2.979   6.488   5.639
 2788SOL    HW2 9264   3.122   6.417   5.673
 2789SOL     OW 9265   0.839   2.397   5.273
 2789SOL    HW1 9266   0.818   2.316   5.329
 2789SOL    HW2 9267   0.831   2.479   5.330
 2790SOL     OW 9268   1.767   5.642   1.541
 2790SOL    HW1 9269   1.702   5.600   1.605
 2790SOL    HW2 9270   1.835   5.575   1.514
 2791SOL     OW 9271   0.345   3.669   3.096
 2791SOL    HW1 9272   0.245   3.665   3.090
 2791SOL    HW2 9273   0.378   3.753   3.054
 2792SOL     OW 9274   3.228   1.536   5.389
 2792SOL    HW1 9275   3.210   1.466   5.319
 2792SOL    HW2 9276   3.158   1.607   5.384
 2793SOL     OW 9277   3.236   4.368   0.997
 2793SOL    HW1 9278   3.192   4.429   1.062
 2793SOL    HW2 9279   3.203   4.275   1.012
 2794SOL     OW 9280   0.966   2.738   6.570
 2794SOL    HW1 9281   0.929   2.712   6.481
 2794SOL    HW2 9282   0.904   2.708   6.642
 2795SOL     OW 9283   0.944   4.822   1.210
 2795SOL    HW1 9284   0.994   4.864   1.135
 2795SOL    HW2 9285   0.975   4.860   1.297
 2796SOL     OW 9286   1.427   6.150   5.813
 2796SOL    HW1 9287   1.334   6.158   5.779
 2796SOL    HW2 9288   1.430   6.079   5.884
 2797SOL     OW 9289   5.707   6.964   3.464
 2797SOL    HW1 9290   5.628   6.917   3.425
 2797SOL    HW2 9291   5.771   6.989   3.391
 2798SOL     OW 9292   5.704   0.327   2.039
 2798SOL    HW1 9293   5.744   0.418   2.025
 2798SOL    HW2 9294   5.767   0.272   2.095
 2799SOL     OW 9295   3.370   5.627   5.461
 2799SOL    HW1 9296   3.350   5.541   5.414
 2799SOL    HW2 9297   3.461   5.658   5.436
 2800SOL     OW 9298   5.865   6.842   6.447
 2800SOL    HW1 9299   5.952   6.891   6.443
 2800SOL    HW2 9300   5.839   6.814   6.354
 2801SOL     OW 9301   0.593   4.894   5.304
 2801SOL    HW1 9302   0.575   4.884   5.402
 2801SOL    HW2 9303   0.604   4.804   5.263
 2802SOL     OW 9304   0.140   5.340   5.790
 2802SOL    HW1 9305   0.127   5.262   5.851
 2802SOL    HW2 9306   0.114   5.424   5.838
 2803SOL     OW 9307   4.063   2.478   6.917
 2803SOL    HW1 9308   4.103   2.389   6.895
 2803SOL    HW2 9309   3.994   2.467   6.989
 2804SOL     OW 9310   0.530   2.793   3.951
 2804SOL    HW1 9311   0.448   2.785   3.895
 2804SOL    HW2 9312   0.509   2.848   4.032
 2805SOL     OW 9313   4.787   3.493   1.496
 2805SOL    HW1 9314   4.871   3.521   1.541
 2805SOL    HW2 9315   4.720   3.466   1.565
 2806SOL     OW 9316   0.233   3.982   5.787
 2806SOL    HW1 9317   0.295   3.929   5.729
 2806SOL    HW2 9318   0.226   3.940   5.877
 2807SOL     OW 9319   3.380   0.533   3.626
 2807SOL    HW1 9320   3.388   0.618   3.573
 2807SOL    HW2 9321   3.309   0.476   3.586
 2808SOL     OW 9322   6.714   5.147   6.733
 2808SOL    HW1 9323   6.684   5.130   6.639
 2808SOL    HW2 9324   6.811   5.169   6.733
 2809SOL     OW 9325   6.632   4.901   2.033
 2809SOL    HW1 9326   6.721   4.871   2.067
 2809SOL    HW2 9327   6.574   4.821   2.017
 2810SOL     OW 9328   2.802   5.638   3.033
 2810SOL    HW1 9329   2.747   5.573   3.086
 2810SOL    HW2 9330   2.758   5.728   3.035
 2811SOL     OW 9331   0.607   0.404   1.806
 2811SOL    HW1 9332   0.634   0.367   1.896
 2811SOL    HW2 9333   0.515   0.373   1.784
 2812SOL     OW 9334   0.696   2.572   1.312
 2812SOL    HW1 9335   0.733   2.596   1.222
 2812SOL    HW2 9336   0.597   2.586   1.312
 2813SOL     OW 9337   0.543   2.245   1.826
 2813SOL    HW1 9338   0.641   2.240   1.845
 2813SOL    HW2 9339   0.492   2.219   1.908
 2814SOL     OW 9340   2.349   4.419   0.163
 2814SOL    HW1 9341   2.383   4.454   0.250
 2814SOL    HW2 9342   2.421   4.367   0.117
 2815SOL     OW 9343   0.215   5.272   5.363
 2815SOL    HW1 9344   0.261   5.236   5.282
 2815SOL    HW2 9345   0.232   5.212   5.441
 2816SOL     OW 9346   0.711   5.728   6.269
 2816SOL    HW1 9347   0.758   5.760   6.186
 2816SOL    HW2 9348   0.612   5.740   6.257
 2817SOL     OW 9349   4.333   0.906   1.931
 2817SOL    HW1 9350   4.291   0.833   1.877
 2817SOL    HW2 9351   4.360   0.869   2.020
 2818SOL     OW 9352   1.503   0.607   0.695
 2818SOL    HW1 9353   1.518   0.705   0.712
 2818SOL    HW2 9354   1.424   0.595   0.635
 2819SOL     OW 9355   0.697   1.051   0.435
 2819SOL    HW1 9356   0.621   1.005   0.480
 2819SOL    HW2 9357   0.775   1.057   0.497
 2820SOL     OW 9358   1.113   2.486   1.209
 2820SOL    HW1 9359   1.102   2.503   1.307
 2820SOL    HW2 9360   1.083   2.393   1.188
 2821SOL     OW 9361   3.118   3.602   6.125
 2821SOL    HW1 9362   3.099   3.556   6.038
 2821SOL    HW2 9363   3.051   3.574   6.193
 2822SOL     OW 9364   4.597   2.528   0.854
 2822SOL    HW1 9365   4.587   2.428   0.847
 2822SOL    HW2 9366   4.663   2.559   0.786
 2823SOL     OW 9367   5.832   1.882   1.351
 2823SOL    HW1 9368   5.836   1.865   1.252
 2823SOL    HW2 9369   5.883   1.966   1.372
 2824SOL     OW 9370   1.262   3.891   5.029
 2824SOL    HW1 9371   1.288   3.814   5.087
 2824SOL    HW2 9372   1.226   3.857   4.942
 2825SOL     OW 9373   5.021   1.644   6.301
 2825SOL    HW1 9374   5.088   1.677   6.235
 2825SOL    HW2 9375   5.061   1.648   6.393
 2826SOL     OW 9376   2.229   2.854   6.898
 2826SOL    HW1 9377   2.185   2.899   6.976
 2826SOL    HW2 9378   2.324   2.887   6.891
 2827SOL     OW 9379   6.667   0.571   6.208
 2827SOL    HW1 9380   6.578   0.554   6.251
 2827SOL    HW2 9381   6.655   0.638   6.135
 2828SOL     OW 9382   1.720   3.697   0.415
 2828SOL    HW1 9383   1.779   3.711   0.495
 2828SOL    HW2 9384   1.651   3.770   0.411
 2829SOL     OW 9385   3.261   3.969   2.931
 2829SOL    HW1 9386   3.347   3.919   2.925
 2829SOL    HW2 9387   3.264   4.048   2.870
 2830SOL     OW 9388   3.088   4.885   5.587
 2830SOL    HW1 9389   3.183   4.881   5.616
 2830SOL    HW2 9390   3.028   4.863   5.665
 2831SOL     OW 9391   5.803   1.747   1.616
 2831SOL    HW1 9392   5.825   1.720   1.709
 2831SOL    HW2 9393   5.784   1.846   1.614
 2832SOL     OW 9394   0.684   3.715   1.307
 2832SOL    HW1 9395   0.744   3.673   1.374
 2832SOL    HW2 9396   0.590   3.717   1.342
 2833SOL     OW 9397   1.882   2.341   1.970
 2833SOL    HW1 9398   1.920   2.352   2.062
 2833SOL    HW2 9399   1.829   2.256   1.966
 2834SOL     OW 9400   3.107   6.041   5.871
 2834SOL    HW1 9401   3.008   6.049   5.883
 2834SOL    HW2 9402   3.139   6.112   5.808
 2835SOL     OW 9403   0.280   7.002   0.581
 2835SOL    HW1 9404   0.234   0.052   0.631
 2835SOL    HW2 9405   0.252   7.004   0.485
 2836SOL     OW 9406   3.526   6.167   2.769
 2836SOL    HW1 9407   3.549   6.165   2.671
 2836SOL    HW2 9408   3.593   6.222   2.818
 2837SOL     OW 9409   4.973   4.373   2.164
 2837SOL    HW1 9410   4.908   4.444   2.192
 2837SOL    HW2 9411   4.923   4.290   2.139
 2838SOL     OW 9412   5.304   4.446   5.686
 2838SOL    HW1 9413   5.300   4.448   5.786
 2838SOL    HW2 9414   5.364   4.371   5.657
 2839SOL     OW 9415   5.800   2.865   5.003
 2839SOL    HW1 9416   5.715   2.854   5.054
 2839SOL    HW2 9417   5.862   2.926   5.054
 2840SOL     OW 9418   0.123   6.291   4.123
 2840SOL    HW1 9419   0.130   6.223   4.195
 2840SOL    HW2 9420   0.213   6.303   4.080
 2841SOL     OW 9421   6.415   3.208   2.225
 2841SOL    HW1 9422   6.332   3.242   2.180
 2841SOL    HW2 9423   6.452   3.280   2.284
 2842SOL     OW 9424   1.218   0.163   2.908
 2842SOL    HW1 9425   1.306   0.143   2.951
 2842SOL    HW2 9426   1.205   0.262   2.903
 2843SOL     OW 9427   2.131   2.768   3.324
 2843SOL    HW1 9428   2.068   2.691   3.333
 2843SOL    HW2 9429   2.168   2.771   3.231
 2844SOL     OW 9430   4.753   4.571   0.568
 2844SOL    HW1 9431   4.845   4.558   0.530
 2844SOL    HW2 9432   4.691   4.602   0.496
 2845SOL     OW 9433   3.333   1.886   3.356
 2845SOL    HW1 9434   3.238   1.865   3.378
 2845SOL    HW2 9435   3.351   1.865   3.260
 2846SOL     OW 9436   5.716   0.028   0.301
 2846SOL    HW1 9437   5.652   6.989   0.348
 2846SOL    HW2 9438   5.727   7.021   0.206
 2847SOL     OW 9439   4.368   5.238   2.293
 2847SOL    HW1 9440   4.414   5.224   2.205
 2847SOL    HW2 9441   4.352   5.150   2.337
 2848SOL     OW 9442   0.456   3.855   5.678
 2848SOL    HW1 9443   0.536   3.910   5.655
 2848SOL    HW2 9444   0.483   3.760   5.693
 2849SOL     OW 9445   4.846   0.457   2.399
 2849SOL    HW1 9446   4.801   0.487   2.315
 2849SOL    HW2 9447   4.778   0.451   2.472
 2850SOL     OW 9448   1.924   6.713   2.772
 2850SOL    HW1 9449   1.900   6.754   2.860
 2850SOL    HW2 9450   1.869   6.754   2.699
 2851SOL     OW 9451   4.186   3.372   0.466
 2851SOL    HW1 9452   4.122   3.302   0.497
 2851SOL    HW2 9453   4.259   3.383   0.534
 2852SOL     OW 9454   6.376   4.270   6.208
 2852SOL    HW1 9455   6.286   4.302   6.236
 2852SOL    HW2 9456   6.369   4.176   6.174
 2853SOL     OW 9457   0.407   3.686   6.593
 2853SOL    HW1 9458   0.442   3.627   6.520
 2853SOL    HW2 9459   0.483   3.739   6.632
 2854SOL     OW 9460   3.629   1.442   5.920
 2854SOL    HW1 9461   3.545   1.494   5.914
 2854SOL    HW2 9462   3.705   1.497   5.886
 2855SOL     OW 9463   2.124   1.092   5.540
 2855SOL    HW1 9464   2.088   1.154   5.471
 2855SOL    HW2 9465   2.054   1.075   5.609
 2856SOL     OW 9466   1.356   5.292   3.360
 2856SOL    HW1 9467   1.413   5.279   3.441
 2856SOL    HW2 9468   1.325   5.203   3.326
 2857SOL     OW 9469   0.254   3.625   0.238
 2857SOL    HW1 9470   0.299   3.538   0.258
 2857SOL    HW2 9471   0.173   3.635   0.295
 2858SOL     OW 9472   4.646   5.115   2.977
 2858SOL    HW1 9473   4.619   5.185   3.043
 2858SOL    HW2 9474   4.590   5.033   2.990
 2859SOL     OW 9475   4.950   4.409   0.899
 2859SOL    HW1 9476   4.978   4.403   0.995
 2859SOL    HW2 9477   4.868   4.466   0.891
 2860SOL     OW 9478   0.395   6.830   2.106
 2860SOL    HW1 9479   0.321   6.805   2.042
 2860SOL    HW2 9480   0.447   6.748   2.130
 2861SOL     OW 9481   4.553   5.389   6.812
 2861SOL    HW1 9482   4.601   5.467   6.771
 2861SOL    HW2 9483   4.473   5.422   6.862
 2862SOL     OW 9484   4.351   2.774   0.380
 2862SOL    HW1 9485   4.331   2.758   0.477
 2862SOL    HW2 9486   4.313   2.862   0.352
 2863SOL     OW 9487   5.306   6.878   5.588
 2863SOL    HW1 9488   5.394   6.875   5.541
 2863SOL    HW2 9489   5.316   6.923   5.676
 2864SOL     OW 9490   3.742   3.949   0.196
 2864SOL    HW1 9491   3.721   3.858   0.161
 2864SOL    HW2 9492   3.666   4.011   0.175
 2865SOL     OW 9493   5.325   5.819   4.262
 2865SOL    HW1 9494   5.274   5.831   4.176
 2865SOL    HW2 9495   5.273   5.860   4.337
 2866SOL     OW 9496   4.686   4.593   0.325
 2866SOL    HW1 9497   4.605   4.641   0.293
 2866SOL    HW2 9498   4.688   4.501   0.286
 2867SOL     OW 9499   5.022   6.182   1.940
 2867SOL    HW1 9500   4.947   6.121   1.967
 2867SOL    HW2 9501   5.105   6.157   1.991
 2868SOL     OW 9502   1.060   1.710   5.873
 2868SOL    HW1 9503   1.117   1.791   5.861
 2868SOL    HW2 9504   1.067   1.678   5.968
 2869SOL     OW 9505   5.864   5.513   4.566
 2869SOL    HW1 9506   5.764   5.519   4.557
 2869SOL    HW2 9507   5.900   5.447   4.501
 2870SOL     OW 9508   6.629   1.769   1.375
 2870SOL    HW1 9509   6.700   1.751   1.306
 2870SOL    HW2 9510   6.642   1.860   1.412
 2871SOL     OW 9511   5.494   1.643   1.137
 2871SOL    HW1 9512   5.498   1.714   1.067
 2871SOL    HW2 9513   5.464   1.683   1.224
 2872SOL     OW 9514   2.666   2.370   2.206
 2872SOL    HW1 9515   2.655   2.394   2.302
 2872SOL    HW2 9516   2.756   2.330   2.191
 2873SOL     OW 9517   1.040   5.973   0.933
 2873SOL    HW1 9518   1.135   5.953   0.908
 2873SOL    HW2 9519   0.988   5.888   0.935
 2874SOL     OW 9520   2.514   0.570   2.636
 2874SOL    HW1 9521   2.423   0.587   2.672
 2874SOL    HW2 9522   2.535   0.637   2.565
 2875SOL     OW 9523   2.913   6.806   2.945
 2875SOL    HW1 9524   2.832   6.845   2.903
 2875SOL    HW2 9525   2.924   6.842   3.038
 2876SOL     OW 9526   1.515   6.381   1.880
 2876SOL    HW1 9527   1.417   6.363   1.865
 2876SOL    HW2 9528   1.562   6.294   1.892
 2877SOL     OW 9529   1.000   2.027   6.256
 2877SOL    HW1 9530   1.079   1.982   6.214
 2877SOL    HW2 9531   1.003   2.125   6.237
 2878SOL     OW 9532   3.895   3.503   4.124
 2878SOL    HW1 9533   3.804   3.475   4.093
 2878SOL    HW2 9534   3.916   3.595   4.089
 2879SOL     OW 9535   4.189   3.981   0.360
 2879SOL    HW1 9536   4.238   4.025   0.284
 2879SOL    HW2 9537   4.238   3.899   0.388
 2880SOL     OW 9538   1.826   1.517   4.206
 2880SOL    HW1 9539   1.733   1.481   4.197
 2880SOL    HW2 9540   1.878   1.462   4.271
 2881SOL     OW 9541   4.847   6.468   6.592
 2881SOL    HW1 9542   4.929   6.519   6.565
 2881SOL    HW2 9543   4.787   6.456   6.512
 2882SOL     OW 9544   4.652   6.355   0.429
 2882SOL    HW1 9545   4.644   6.291   0.506
 2882SOL    HW2 9546   4.646   6.305   0.343
 2883SOL     OW 9547   6.206   6.113   3.792
 2883SOL    HW1 9548   6.181   6.037   3.853
 2883SOL    HW2 9549   6.213   6.197   3.845
 2884SOL     OW 9550   6.580   4.978   3.271
 2884SOL    HW1 9551   6.560   4.883   3.245
 2884SOL    HW2 9552   6.675   4.985   3.301
 2885SOL     OW 9553   1.165   2.808   2.902
 2885SOL    HW1 9554   1.238   2.874   2.887
 2885SOL    HW2 9555   1.120   2.828   2.990
 2886SOL     OW 9556   2.036   4.783   6.386
 2886SOL    HW1 9557   2.052   4.882   6.379
 2886SOL    HW2 9558   1.955   4.766   6.443
 2887SOL     OW 9559   1.196   5.300   3.642
 2887SOL    HW1 9560   1.135   5.331   3.569
 2887SOL    HW2 9561   1.290   5.296   3.607
 2888SOL     OW 9562   6.738   6.586   0.312
 2888SOL    HW1 9563   6.788   6.624   0.390
 2888SOL    HW2 9564   6.647   6.557   0.342
 2889SOL     OW 9565   3.138   6.410   3.072
 2889SOL    HW1 9566   3.196   6.339   3.031
 2889SOL    HW2 9567   3.191   6.494   3.082
 2890SOL     OW 9568   2.816   0.463   1.483
 2890SOL    HW1 9569   2.915   0.459   1.469
 2890SOL    HW2 9570   2.773   0.380   1.448
 2891SOL     OW 9571   0.429   1.925   4.092
 2891SOL    HW1 9572   0.346   1.975   4.118
 2891SOL    HW2 9573   0.508   1.966   4.139
 2892SOL     OW 9574   6.892   4.206   2.681
 2892SOL    HW1 9575   6.927   4.278   2.742
 2892SOL    HW2 9576   6.890   4.119   2.730
 2893SOL     OW 9577   6.639   5.291   4.387
 2893SOL    HW1 9578   6.579   5.367   4.414
 2893SOL    HW2 9579   6.590   5.205   4.399
 2894SOL     OW 9580   1.556   5.466   2.590
 2894SOL    HW1 9581   1.498   5.546   2.571
 2894SOL    HW2 9582   1.499   5.392   2.627
 2895SOL     OW 9583   4.175   6.970   6.341
 2895SOL    HW1 9584   4.269   6.958   6.307
 2895SOL    HW2 9585   4.176   0.010   6.419
 2896SOL     OW 9586   5.193   6.248   5.025
 2896SOL    HW1 9587   5.258   6.186   4.982
 2896SOL    HW2 9588   5.167   6.319   4.959
 2897SOL     OW 9589   3.840   4.906   3.489
 2897SOL    HW1 9590   3.920   4.931   3.434
 2897SOL    HW2 9591   3.867   4.837   3.556
 2898SOL     OW 9592   5.448   3.621   2.766
 2898SOL    HW1 9593   5.354   3.616   2.732
 2898SOL    HW2 9594   5.479   3.530   2.793
 2899SOL     OW 9595   6.983   3.495   1.208
 2899SOL    HW1 9596   6.970   3.589   1.179
 2899SOL    HW2 9597   6.968   3.489   1.307
 2900SOL     OW 9598   2.626   3.602   6.371
 2900SOL    HW1 9599   2.540   3.653   6.367
 2900SOL    HW2 9600   2.607   3.504   6.366
 2901SOL     OW 9601   0.878   3.915   3.688
 2901SOL    HW1 9602   0.951   3.981   3.703
 2901SOL    HW2 9603   0.792   3.950   3.726
 2902SOL     OW 9604   0.402   6.192   3.634
 2902SOL    HW1 9605   0.306   6.167   3.629
 2902SOL    HW2 9606   0.445   6.144   3.710
 2903SOL     OW 9607   4.448   5.477   0.587
 2903SOL    HW1 9608   4.540   5.504   0.615
 2903SOL    HW2 9609   4.409   5.546   0.526
 2904SOL     OW 9610   2.555   4.108   5.409
 2904SOL    HW1 9611   2.648   4.140   5.395
 2904SOL    HW2 9612   2.527   4.050   5.333
 2905SOL     OW 9613   0.581   5.243   1.678
 2905SOL    HW1 9614   0.585   5.235   1.778
 2905SOL    HW2 9615   0.639   5.320   1.649
 2906SOL     OW 9616   5.967   6.326   2.413
 2906SOL    HW1 9617   5.894   6.260   2.397
 2906SOL    HW2 9618   6.056   6.282   2.398
 2907SOL     OW 9619   0.338   0.787   4.097
 2907SOL    HW1 9620   0.383   0.846   4.030
 2907SOL    HW2 9621   0.343   0.692   4.067
 2908SOL     OW 9622   4.359   6.676   2.506
 2908SOL    HW1 9623   4.296   6.731   2.560
 2908SOL    HW2 9624   4.374   6.588   2.552
 2909SOL     OW 9625   0.982   5.774   2.631
 2909SOL    HW1 9626   0.884   5.766   2.648
 2909SOL    HW2 9627   1.002   5.863   2.591
 2910SOL     OW 9628   6.762   0.636   4.296
 2910SOL    HW1 9629   6.699   0.561   4.315
 2910SOL    HW2 9630   6.755   0.704   4.370
 2911SOL     OW 9631   6.523   4.328   4.785
 2911SOL    HW1 9632   6.547   4.357   4.878
 2911SOL    HW2 9633   6.470   4.243   4.789
 2912SOL     OW 9634   0.575   0.109   1.799
 2912SOL    HW1 9635   0.578   0.171   1.878
 2912SOL    HW2 9636   0.666   0.069   1.785
 2913SOL     OW 9637   2.770   6.415   1.558
 2913SOL    HW1 9638   2.742   6.321   1.538
 2913SOL    HW2 9639   2.825   6.450   1.482
 2914SOL     OW 9640   4.702   5.515   0.655
 2914SOL    HW1 9641   4.752   5.434   0.626
 2914SOL    HW2 9642   4.704   5.522   0.755
 2915SOL     OW 9643   2.478   0.067   2.551
 2915SOL    HW1 9644   2.483   0.060   2.651
 2915SOL    HW2 9645   2.568   0.051   2.512
 2916SOL     OW 9646   1.446   5.819   0.292
 2916SOL    HW1 9647   1.396   5.902   0.316
 2916SOL    HW2 9648   1.438   5.752   0.367
 2917SOL     OW 9649   2.319   6.227   4.486
 2917SOL    HW1 9650   2.288   6.169   4.561
 2917SOL    HW2 9651   2.398   6.280   4.515
 2918SOL     OW 9652   5.660   2.920   1.974
 2918SOL    HW1 9653   5.616   2.974   1.902
 2918SOL    HW2 9654   5.594   2.856   2.012
 2919SOL     OW 9655   1.463   5.336   4.299
 2919SOL    HW1 9656   1.367   5.335   4.271
 2919SOL    HW2 9657   1.512   5.264   4.250
 2920SOL     OW 9658   1.344   2.368   2.681
 2920SOL    HW1 9659   1.281   2.412   2.745
 2920SOL    HW2 9660   1.403   2.437   2.639
 2921SOL     OW 9661   1.178   0.402   4.453
 2921SOL    HW1 9662   1.078   0.399   4.444
 2921SOL    HW2 9663   1.211   0.492   4.425
 2922SOL     OW 9664   3.537   0.294   3.551
 2922SOL    HW1 9665   3.466   0.229   3.524
 2922SOL    HW2 9666   3.495   0.371   3.599
 2923SOL     OW 9667   6.292   5.993   4.716
 2923SOL    HW1 9668   6.276   6.081   4.673
 2923SOL    HW2 9669   6.390   5.976   4.723
 2924SOL     OW 9670   5.900   2.502   5.271
 2924SOL    HW1 9671   5.833   2.469   5.337
 2924SOL    HW2 9672   5.898   2.444   5.189
 2925SOL     OW 9673   4.821   0.131   6.064
 2925SOL    HW1 9674   4.883   0.129   5.986
 2925SOL    HW2 9675   4.854   0.198   6.131
 2926SOL     OW 9676   0.108   1.941   4.476
 2926SOL    HW1 9677   0.157   1.861   4.510
 2926SOL    HW2 9678   0.065   1.919   4.389
 2927SOL     OW 9679   0.817   2.295   1.893
 2927SOL    HW1 9680   0.819   2.267   1.989
 2927SOL    HW2 9681   0.863   2.382   1.883
 2928SOL     OW 9682   6.930   3.318   0.394
 2928SOL    HW1 9683   6.950   3.223   0.370
 2928SOL    HW2 9684   6.911   3.325   0.492
 2929SOL     OW 9685   2.595   2.418   5.033
 2929SOL    HW1 9686   2.662   2.420   5.107
 2929SOL    HW2 9687   2.540   2.501   5.036
 2930SOL     OW 9688   6.724   4.619   5.152
 2930SOL    HW1 9689   6.798   4.643   5.089
 2930SOL    HW2 9690   6.672   4.702   5.174
 2931SOL     OW 9691   5.277   4.700   5.349
 2931SOL    HW1 9692   5.229   4.616   5.376
 2931SOL    HW2 9693   5.353   4.677   5.288
 2932SOL     OW 9694   6.398   5.245   0.884
 2932SOL    HW1 9695   6.426   5.334   0.920
 2932SOL    HW2 9696   6.352   5.193   0.956
 2933SOL     OW 9697   1.457   0.371   1.154
 2933SOL    HW1 9698   1.487   0.353   1.060
 2933SOL    HW2 9699   1.433   0.468   1.163
 2934SOL     OW 9700   4.099   5.018   0.392
 2934SOL    HW1 9701   4.163   5.089   0.422
 2934SOL    HW2 9702   4.127   4.986   0.301
 2935SOL     OW 9703   0.187   2.307   5.980
 2935SOL    HW1 9704   0.125   2.320   6.057
 2935SOL    HW2 9705   0.281   2.299   6.014
 2936SOL     OW 9706   4.201   6.088   0.508
 2936SOL    HW1 9707   4.243   6.178   0.512
 2936SOL    HW2 9708   4.172   6.061   0.600
 2937SOL     OW 9709   4.581   4.930   2.261
 2937SOL    HW1 9710   4.526   4.878   2.196
 2937SOL    HW2 9711   4.520   4.991   2.313
 2938SOL     OW 9712   6.086   6.107   6.975
 2938SOL    HW1 9713   6.101   6.062   0.040
 2938SOL    HW2 9714   6.165   6.164   6.952
 2939SOL     OW 9715   0.046   5.761   1.530
 2939SOL    HW1 9716   0.079   5.686   1.587
 2939SOL    HW2 9717   0.123   5.820   1.505
 2940SOL     OW 9718   4.684   6.738   3.608
 2940SOL    HW1 9719   4.741   6.819   3.624
 2940SOL    HW2 9720   4.648   6.706   3.696
 2941SOL     OW 9721   1.374   3.945   3.803
 2941SOL    HW1 9722   1.402   3.905   3.891
 2941SOL    HW2 9723   1.456   3.968   3.750
 2942SOL     OW 9724   3.638   1.671   1.485
 2942SOL    HW1 9725   3.685   1.646   1.569
 2942SOL    HW2 9726   3.612   1.768   1.489
 2943SOL     OW 9727   5.884   4.140   3.252
 2943SOL    HW1 9728   5.897   4.200   3.173
 2943SOL    HW2 9729   5.912   4.187   3.335
 2944SOL     OW 9730   1.875   5.592   2.959
 2944SOL    HW1 9731   1.802   5.588   3.027
 2944SOL    HW2 9732   1.917   5.683   2.961
 2945SOL     OW 9733   5.144   4.526   1.624
 2945SOL    HW1 9734   5.080   4.538   1.699
 2945SOL    HW2 9735   5.237   4.524   1.659
 2946SOL     OW 9736   3.190   3.758   5.665
 2946SOL    HW1 9737   3.246   3.816   5.606
 2946SOL    HW2 9738   3.199   3.663   5.636
 2947SOL     OW 9739   6.207   6.676   0.758
 2947SOL    HW1 9740   6.164   6.668   0.848
 2947SOL    HW2 9741   6.268   6.756   0.757
 2948SOL     OW 9742   6.321   4.140   2.207
 2948SOL    HW1 9743   6.267   4.224   2.217
 2948SOL    HW2 9744   6.324   4.091   2.294
 2949SOL     OW 9745   1.045   0.313   0.871
 2949SOL    HW1 9746   0.987   0.243   0.830
 2949SOL    HW2 9747   1.006   0.342   0.959
 2950SOL     OW 9748   5.480   4.431   3.054
 2950SOL    HW1 9749   5.500   4.525   3.080
 2950SOL    HW2 9750   5.449   4.429   2.958
 2951SOL     OW 9751   6.655   1.290   1.604
 2951SOL    HW1 9752   6.704   1.375   1.586
 2951SOL    HW2 9753   6.589   1.304   1.677
 2952SOL     OW 9754   5.759   1.416   3.930
 2952SOL    HW1 9755   5.781   1.346   3.998
 2952SOL    HW2 9756   5.707   1.489   3.973
 2953SOL     OW 9757   0.830   5.562   4.089
 2953SOL    HW1 9758   0.868   5.586   4.000
 2953SOL    HW2 9759   0.860   5.469   4.115
 2954SOL     OW 9760   6.873   4.506   6.289
 2954SOL    HW1 9761   6.783   4.548   6.275
 2954SOL    HW2 9762   6.931   4.523   6.210
 2955SOL     OW 9763   2.257   4.986   6.571
 2955SOL    HW1 9764   2.218   4.986   6.478
 2955SOL    HW2 9765   2.333   4.921   6.575
 2956SOL     OW 9766   6.148   4.493   3.537
 2956SOL    HW1 9767   6.174   4.453   3.450
 2956SOL    HW2 9768   6.189   4.584   3.546
 2957SOL     OW 9769   2.700   4.998   1.146
 2957SOL    HW1 9770   2.797   4.979   1.162
 2957SOL    HW2 9771   2.655   5.021   1.232
 2958SOL     OW 9772   2.303   5.380   2.208
 2958SOL    HW1 9773   2.302   5.404   2.111
 2958SOL    HW2 9774   2.215   5.338   2.233
 2959SOL     OW 9775   6.962   2.837   2.809
 2959SOL    HW1 9776   6.881   2.791   2.846
 2959SOL    HW2 9777   6.933   2.910   2.748
 2960SOL     OW 9778   4.893   0.739   0.246
 2960SOL    HW1 9779   4.916   0.826   0.204
 2960SOL    HW2 9780   4.849   0.680   0.178
 2961SOL     OW 9781   5.492   4.248   2.171
 2961SOL    HW1 9782   5.502   4.162   2.121
 2961SOL    HW2 9783   5.537   4.322   2.120
 2962SOL     OW 9784   0.291   0.029   2.723
 2962SOL    HW1 9785   0.365   7.008   2.774
 2962SOL    HW2 9786   0.213   6.989   2.716
 2963SOL     OW 9787   2.065   1.008   4.795
 2963SOL    HW1 9788   2.091   0.922   4.838
 2963SOL    HW2 9789   2.026   1.070   4.863
 2964SOL     OW 9790   0.948   1.982   6.904
 2964SOL    HW1 9791   0.932   1.999   7.002
 2964SOL    HW2 9792   0.945   1.884   6.887
 2965SOL     OW 9793   0.989   0.181   4.916
 2965SOL    HW1 9794   1.033   0.198   4.827
 2965SOL    HW2 9795   0.894   0.154   4.902
 2966SOL     OW 9796   3.436   5.957   3.160
 2966SOL    HW1 9797   3.427   5.958   3.060
 2966SOL    HW2 9798   3.350   5.984   3.202
 2967SOL     OW 9799   5.521   0.272   5.385
 2967SOL    HW1 9800   5.447   0.316   5.334
 2967SOL    HW2 9801   5.561   0.199   5.330
 2968SOL     OW 9802   1.848   2.939   1.422
 2968SOL    HW1 9803   1.938   2.899   1.439
 2968SOL    HW2 9804   1.777   2.873   1.446
 2969SOL     OW 9805   5.069   3.335   4.579
 2969SOL    HW1 9806   4.989   3.322   4.637
 2969SOL    HW2 9807   5.145   3.279   4.613
 2970SOL     OW 9808   2.326   2.240   4.434
 2970SOL    HW1 9809   2.370   2.329   4.421
 2970SOL    HW2 9810   2.251   2.231   4.369
 2971SOL     OW 9811   5.456   2.768   6.191
 2971SOL    HW1 9812   5.543   2.809   6.164
 2971SOL    HW2 9813   5.461   2.668   6.180
 2972SOL     OW 9814   5.684   5.154   6.921
 2972SOL    HW1 9815   5.598   5.183   6.880
 2972SOL    HW2 9816   5.667   5.079   6.986
 2973SOL     OW 9817   4.543   1.429   2.338
 2973SOL    HW1 9818   4.488   1.441   2.420
 2973SOL    HW2 9819   4.487   1.385   2.267
 2974SOL     OW 9820   4.815   6.279   3.081
 2974SOL    HW1 9821   4.722   6.303   3.053
 2974SOL    HW2 9822   4.837   6.188   3.047
 2975SOL     OW 9823   4.790   4.158   3.740
 2975SOL    HW1 9824   4.763   4.159   3.643
 2975SOL    HW2 9825   4.857   4.085   3.755
 2976SOL     OW 9826   4.270   2.298   2.139
 2976SOL    HW1 9827   4.177   2.335   2.135
 2976SOL    HW2 9828   4.324   2.332   2.062
 2977SOL     OW 9829   1.268   0.947   1.440
 2977SOL    HW1 9830   1.338   0.904   1.497
 2977SOL    HW2 9831   1.238   0.883   1.369
 2978SOL     OW 9832   4.381   5.212   6.277
 2978SOL    HW1 9833   4.464   5.155   6.276
 2978SOL    HW2 9834   4.345   5.216   6.370
 2979SOL     OW 9835   3.251   0.668   4.347
 2979SOL    HW1 9836   3.311   0.746   4.366
 2979SOL    HW2 9837   3.291   0.612   4.274
 2980SOL     OW 9838   3.690   3.362   5.762
 2980SOL    HW1 9839   3.620   3.434   5.767
 2980SOL    HW2 9840   3.780   3.402   5.778
 2981SOL     OW 9841   1.500   0.838   1.244
 2981SOL    HW1 9842   1.448   0.753   1.255
 2981SOL    HW2 9843   1.446   0.904   1.192
 2982SOL     OW 9844   0.353   0.368   1.560
 2982SOL    HW1 9845   0.381   0.276   1.535
 2982SOL    HW2 9846   0.311   0.368   1.651
 2983SOL     OW 9847   6.156   3.095   5.662
 2983SOL    HW1 9848   6.140   3.046   5.576
 2983SOL    HW2 9849   6.185   3.188   5.642
 2984SOL     OW 9850   0.530   4.689   0.913
 2984SOL    HW1 9851   0.462   4.617   0.912
 2984SOL    HW2 9852   0.501   4.765   0.855
 2985SOL     OW 9853   6.982   6.645   5.365
 2985SOL    HW1 9854   6.953   6.670   5.273
 2985SOL    HW2 9855   0.028   6.572   5.361
 2986SOL     OW 9856   3.998   3.735   2.399
 2986SOL    HW1 9857   4.035   3.703   2.486
 2986SOL    HW2 9858   3.908   3.694   2.383
 2987SOL     OW 9859   1.919   0.517   4.412
 2987SOL    HW1 9860   1.831   0.536   4.454
 2987SOL    HW2 9861   1.932   0.418   4.405
 2988SOL     OW 9862   0.160   1.624   6.744
 2988SOL    HW1 9863   0.254   1.597   6.723
 2988SOL    HW2 9864   0.113   1.650   6.660
 2989SOL     OW 9865   5.248   3.731   4.276
 2989SOL    HW1 9866   5.301   3.769   4.200
 2989SOL    HW2 9867   5.151   3.750   4.262
 2990SOL     OW 9868   5.312   1.365   4.417
 2990SOL    HW1 9869   5.368   1.412   4.349
 2990SOL    HW2 9870   5.278   1.431   4.484
 2991SOL     OW 9871   6.783   4.163   1.222
 2991SOL    HW1 9872   6.690   4.197   1.209
 2991SOL    HW2 9873   6.820   4.199   1.307
 2992SOL     OW 9874   0.359   3.633   5.248
 2992SOL    HW1 9875   0.303   3.616   5.329
 2992SOL    HW2 9876   0.454   3.610   5.269
 2993SOL     OW 9877   1.165   4.292   0.298
 2993SOL    HW1 9878   1.114   4.342   0.227
 2993SOL    HW2 9879   1.113   4.293   0.383
 2994SOL     OW 9880   4.528   6.550   6.357
 2994SOL    HW1 9881   4.548   6.593   6.444
 2994SOL    HW2 9882   4.512   6.452   6.371
 2995SOL     OW 9883   5.563   0.532   1.251
 2995SOL    HW1 9884   5.626   0.567   1.320
 2995SOL    HW2 9885   5.615   0.504   1.170
 2996SOL     OW 9886   0.001   1.257   4.819
 2996SOL    HW1 9887   6.935   1.217   4.844
 2996SOL    HW2 9888   0.004   1.271   4.720
 2997SOL     OW 9889   5.084   0.386   3.735
 2997SOL    HW1 9890   5.063   0.442   3.654
 2997SOL    HW2 9891   5.132   0.304   3.706
 2998SOL     OW 9892   2.612   1.676   2.864
 2998SOL    HW1 9893   2.535   1.639   2.915
 2998SOL    HW2 9894   2.586   1.764   2.824
 2999SOL     OW 9895   2.313   4.614   0.569
 2999SOL    HW1 9896   2.256   4.542   0.608
 2999SOL    HW2 9897   2.354   4.580   0.484
 3000SOL     OW 9898   2.906   3.844   4.645
 3000SOL    HW1 9899   2.933   3.748   4.654
 3000SOL    HW2 9900   2.903   3.887   4.735
 3001SOL     OW 9901   5.819   0.454   5.851
 3001SOL    HW1 9902   5.837   0.552   5.860
 3001SOL    HW2 9903   5.874   0.417   5.775
 3002SOL     OW 9904   1.902   1.861   1.744
 3002SOL    HW1 9905   1.997   1.829   1.748
 3002SOL    HW2 9906   1.842   1.790   1.782
 3003SOL     OW 9907   1.575   6.462   0.224
 3003SOL    HW1 9908   1.568   6.382   0.165
 3003SOL    HW2 9909   1.566   6.434   0.319
 3004SOL     OW 9910   2.156   6.579   3.690
 3004SOL    HW1 9911   2.059   6.556   3.692
 3004SOL    HW2 9912   2.170   6.665   3.739
 3005SOL     OW 9913   0.904   2.040   5.767
 3005SOL    HW1 9914   0.817   1.997   5.794
 3005SOL    HW2 9915   0.901   2.064   5.670
 3006SOL     OW 9916   4.997   1.420   5.699
 3006SOL    HW1 9917   5.062   1.376   5.637
 3006SOL    HW2 9918   4.956   1.499   5.655
 3007SOL     OW 9919   5.412   5.265   6.886
 3007SOL    HW1 9920   5.433   5.357   6.920
 3007SOL    HW2 9921   5.360   5.215   6.955
 3008SOL     OW 9922   5.142   2.683   5.910
 3008SOL    HW1 9923   5.141   2.629   5.995
 3008SOL    HW2 9924   5.058   2.736   5.903
 3009SOL     OW 9925   7.005   3.423   2.335
 3009SOL    HW1 9926   0.046   3.372   2.393
 3009SOL    HW2 9927   0.011   3.415   2.240
 3010SOL     OW 9928   3.791   5.917   6.626
 3010SOL    HW1 9929   3.759   5.860   6.551
 3010SOL    HW2 9930   3.758   6.011   6.614
 3011SOL     OW 9931   6.824   6.986   1.018
 3011SOL    HW1 9932   6.916   7.020   1.034
 3011SOL    HW2 9933   6.758   0.021   1.067
 3012SOL     OW 9934   2.218   2.366   5.539
 3012SOL    HW1 9935   2.190   2.442   5.598
 3012SOL    HW2 9936   2.303   2.390   5.492
 3013SOL     OW 9937   0.960   4.458   5.201
 3013SOL    HW1 9938   0.865   4.487   5.190
 3013SOL    HW2 9939   1.017   4.505   5.133
 3014SOL     OW 9940   4.912   6.964   5.755
 3014SOL    HW1 9941   4.815   6.961   5.776
 3014SOL    HW2 9942   4.943   0.037   5.756
 3015SOL     OW 9943   1.231   1.035   0.045
 3015SOL    HW1 9944   1.161   0.966   0.024
 3015SOL    HW2 9945   1.275   1.012   0.131
 3016SOL     OW 9946   1.574   6.571   4.286
 3016SOL    HW1 9947   1.519   6.488   4.283
 3016SOL    HW2 9948   1.580   6.604   4.381
 3017SOL     OW 9949   0.327   5.137   0.791
 3017SOL    HW1 9950   0.297   5.142   0.887
 3017SOL    HW2 9951   0.247   5.138   0.731
 3018SOL     OW 9952   3.289   6.977   0.562
 3018SOL    HW1 9953   3.271   6.916   0.484
 3018SOL    HW2 9954   3.348   0.030   0.532
 3019SOL     OW 9955   1.867   0.731   5.371
 3019SOL    HW1 9956   1.867   0.829   5.390
 3019SOL    HW2 9957   1.906   0.682   5.449
 3020SOL     OW 9958   6.143   3.683   0.171
 3020SOL    HW1 9959   6.183   3.700   0.080
 3020SOL    HW2 9960   6.197   3.730   0.240
 3021SOL     OW 9961   4.283   6.709   4.770
 3021SOL    HW1 9962   4.187   6.705   4.742
 3021SOL    HW2 9963   4.330   6.780   4.718
 3022SOL     OW 9964   3.819   5.982   3.779
 3022SOL    HW1 9965   3.765   5.938   3.708
 3022SOL    HW2 9966   3.827   5.921   3.858
 3023SOL     OW 9967   5.210   6.397   2.834
 3023SOL    HW1 9968   5.214   6.497   2.835
 3023SOL    HW2 9969   5.118   6.366   2.858
 3024SOL     OW 9970   6.949   6.658   6.674
 3024SOL    HW1 9971   6.955   6.572   6.724
 3024SOL    HW2 9972   0.017   6.703   6.674
 3025SOL     OW 9973   3.073   5.889   0.291
 3025SOL    HW1 9974   2.984   5.849   0.314
 3025SOL    HW2 9975   3.135   5.877   0.369
 3026SOL     OW 9976   6.697   1.091   1.061
 3026SOL    HW1 9977   6.669   1.007   1.015
 3026SOL    HW2 9978   6.688   1.079   1.160
 3027SOL     OW 9979   4.661   1.472   1.501
 3027SOL    HW1 9980   4.690   1.549   1.445
 3027SOL    HW2 9981   4.678   1.386   1.452
 3028SOL     OW 9982   3.318   3.868   5.450
 3028SOL    HW1 9983   3.394   3.847   5.388
 3028SOL    HW2 9984   3.314   3.966   5.466
 3029SOL     OW 9985   0.443   2.839   4.474
 3029SOL    HW1 9986   0.427   2.777   4.551
 3029SOL    HW2 9987   0.538   2.868   4.474
 3030SOL     OW 9988   2.728   3.028   1.101
 3030SOL    HW1 9989   2.808   2.974   1.078
 3030SOL    HW2 9990   2.756   3.121   1.125
 3031SOL     OW 9991   1.144   6.557   1.200
 3031SOL    HW1 9992   1.188   6.497   1.267
 3031SOL    HW2 9993   1.198   6.559   1.116
 3032SOL     OW 9994   1.824   0.417   2.861
 3032SOL    HW1 9995   1.857   0.342   2.918
 3032SOL    HW2 9996   1.845   0.398   2.765
 3033SOL     OW 9997   6.793   2.104   4.451
 3033SOL    HW1 9998   6.793   2.026   4.387
 3033SOL    HW2 9999   6.856   2.174   4.417
 3034SOL     OW10000   6.934   5.615   3.165
 3034SOL    HW110001   6.908   5.663   3.081
 3034SOL    HW210002   6.883   5.653   3.242
 3035SOL     OW10003   1.380   3.035   0.013
 3035SOL    HW110004   1.335   2.997   6.955
 3035SOL    HW210005   1.381   3.135   0.007
 3036SOL     OW10006   3.042   2.270   6.583
 3036SOL    HW110007   3.141   2.275   6.596
 3036SOL    HW210008   3.007   2.187   6.626
 3037SOL     OW10009   0.037   5.445   0.263
 3037SOL    HW110010   0.137   5.445   0.259
 3037SOL    HW210011   0.003   5.356   0.233
 3038SOL     OW10012   5.946   4.609   6.602
 3038SOL    HW110013   5.988   4.693   6.637
 3038SOL    HW210014   5.846   4.618   6.605
 3039SOL     OW10015   0.128   4.102   6.834
 3039SOL    HW110016   0.217   4.082   6.874
 3039SOL    HW210017   0.074   4.156   6.899
 3040SOL     OW10018   5.311   4.145   5.616
 3040SOL    HW110019   5.374   4.070   5.636
 3040SOL    HW210020   5.242   4.151   5.689
 3041SOL     OW10021   1.754   4.136   5.158
 3041SOL    HW110022   1.688   4.200   5.118
 3041SOL    HW210023   1.706   4.056   5.193
 3042SOL     OW10024   6.888   5.195   3.007
 3042SOL    HW110025   6.849   5.286   3.023
 3042SOL    HW210026   6.944   5.197   2.924
 3043SOL     OW10027   2.947   4.662   0.416
 3043SOL    HW110028   3.038   4.671   0.375
 3043SOL    HW210029   2.940   4.724   0.494
 3044SOL     OW10030   3.607   3.671   5.125
 3044SOL    HW110031   3.691   3.627   5.156
 3044SOL    HW210032   3.616   3.695   5.029
 3045SOL     OW10033   4.397   1.859   2.008
 3045SOL    HW110034   4.470   1.917   1.974
 3045SOL    HW210035   4.336   1.912   2.066
 3046SOL     OW10036   5.501   6.034   1.315
 3046SOL    HW110037   5.523   6.012   1.220
 3046SOL    HW210038   5.506   6.133   1.328
 3047SOL     OW10039   5.923   1.171   5.340
 3047SOL    HW110040   6.009   1.181   5.290
 3047SOL    HW210041   5.881   1.261   5.353
 3048SOL     OW10042   3.565   4.203   0.823
 3048SOL    HW110043   3.646   4.172   0.774
 3048SOL    HW210044   3.496   4.130   0.824
 3049SOL     OW10045   1.443   0.802   4.093
 3049SOL    HW110046   1.452   0.804   3.994
 3049SOL    HW210047   1.363   0.856   4.120
 3050SOL     OW10048   2.966   2.165   1.517
 3050SOL    HW110049   2.891   2.193   1.457
 3050SOL    HW210050   2.936   2.168   1.612
 3051SOL     OW10051   2.186   5.005   5.626
 3051SOL    HW110052   2.223   4.997   5.533
 3051SOL    HW210053   2.259   5.033   5.689
 3052SOL     OW10054   6.766   6.686   1.996
 3052SOL    HW110055   6.700   6.651   1.929
 3052SOL    HW210056   6.734   6.664   2.089
 3053SOL     OW10057   1.493   4.235   6.872
 3053SOL    HW110058   1.429   4.214   6.945
 3053SOL    HW210059   1.459   4.200   6.785
 3054SOL     OW10060   5.734   1.254   2.583
 3054SOL    HW110061   5.728   1.181   2.652
 3054SOL    HW210062   5.648   1.305   2.580
 3055SOL     OW10063   5.891   6.133   6.764
 3055SOL    HW110064   5.928   6.219   6.799
 3055SOL    HW210065   5.823   6.099   6.829
 3056SOL     OW10066   4.619   1.521   5.687
 3056SOL    HW110067   4.691   1.590   5.675
 3056SOL    HW210068   4.646   1.458   5.760
 3057SOL     OW10069   5.765   4.942   3.454
 3057SOL    HW110070   5.761   5.042   3.457
 3057SOL    HW210071   5.720   4.904   3.535
 3058SOL     OW10072   0.564   4.594   6.876
 3058SOL    HW110073   0.617   4.512   6.854
 3058SOL    HW210074   0.582   4.621   6.970
 3059SOL     OW10075   1.965   2.106   4.236
 3059SOL    HW110076   1.884   2.165   4.240
 3059SOL    HW210077   2.013   2.122   4.150
 3060SOL     OW10078   5.224   5.302   5.007
 3060SOL    HW110079   5.318   5.280   5.033
 3060SOL    HW210080   5.223   5.388   4.956
 3061SOL     OW10081   5.219   5.687   5.380
 3061SOL    HW110082   5.229   5.596   5.419
 3061SOL    HW210083   5.216   5.755   5.454
 3062SOL     OW10084   4.584   4.577   1.423
 3062SOL    HW110085   4.657   4.511   1.437
 3062SOL    HW210086   4.566   4.627   1.508
 3063SOL     OW10087   0.070   4.465   1.675
 3063SOL    HW110088   0.114   4.421   1.753
 3063SOL    HW210089   0.136   4.479   1.602
 3064SOL     OW10090   4.844   1.916   6.399
 3064SOL    HW110091   4.864   1.892   6.494
 3064SOL    HW210092   4.904   1.864   6.338
 3065SOL     OW10093   6.937   1.085   6.533
 3065SOL    HW110094   7.013   1.030   6.569
 3065SOL    HW210095   6.922   1.062   6.437
 3066SOL     OW10096   5.169   6.120   5.942
 3066SOL    HW110097   5.241   6.153   6.003
 3066SOL    HW210098   5.210   6.071   5.865
 3067SOL     OW10099   1.612   1.962   6.290
 3067SOL    HW110100   1.599   2.012   6.204
 3067SOL    HW210101   1.710   1.951   6.307
 3068SOL     OW10102   0.924   0.974   0.621
 3068SOL    HW110103   0.877   0.931   0.698
 3068SOL    HW210104   0.945   0.905   0.552
 3069SOL     OW10105   5.257   0.193   2.606
 3069SOL    HW110106   5.349   0.195   2.565
 3069SOL    HW210107   5.250   0.266   2.673
 3070SOL     OW10108   2.311   0.514   1.161
 3070SOL    HW110109   2.339   0.477   1.073
 3070SOL    HW210110   2.285   0.610   1.150
 3071SOL     OW10111   0.140   4.081   4.564
 3071SOL    HW110112   0.166   4.066   4.660
 3071SOL    HW210113   0.080   4.161   4.558
 3072SOL     OW10114   2.115   0.085   6.382
 3072SOL    HW110115   2.037   0.114   6.326
 3072SOL    HW210116   2.153   0.001   6.344
 3073SOL     OW10117   6.041   5.016   0.899
 3073SOL    HW110118   6.117   4.953   0.886
 3073SOL    HW210119   5.967   4.993   0.835
 3074SOL     OW10120   1.448   3.276   1.639
 3074SOL    HW110121   1.409   3.195   1.683
 3074SOL    HW210122   1.541   3.290   1.673
 3075SOL     OW10123   3.461   5.748   2.252
 3075SOL    HW110124   3.436   5.819   2.186
 3075SOL    HW210125   3.477   5.662   2.204
 3076SOL     OW10126   0.620   0.455   5.258
 3076SOL    HW110127   0.623   0.503   5.346
 3076SOL    HW210128   0.628   0.357   5.273
 3077SOL     OW10129   6.664   3.911   2.885
 3077SOL    HW110130   6.756   3.939   2.862
 3077SOL    HW210131   6.645   3.932   2.981
 3078SOL     OW10132   6.563   2.977   2.017
 3078SOL    HW110133   6.497   2.965   2.092
 3078SOL    HW210134   6.655   2.961   2.051
 3079SOL     OW10135   1.988   3.357   5.403
 3079SOL    HW110136   2.021   3.263   5.396
 3079SOL    HW210137   2.005   3.405   5.317
 3080SOL     OW10138   4.428   5.011   0.674
 3080SOL    HW110139   4.435   5.001   0.773
 3080SOL    HW210140   4.448   4.923   0.630
 3081SOL     OW10141   1.630   3.952   0.198
 3081SOL    HW110142   1.689   3.910   0.129
 3081SOL    HW210143   1.538   3.913   0.190
 3082SOL     OW10144   4.694   5.210   4.620
 3082SOL    HW110145   4.765   5.226   4.552
 3082SOL    HW210146   4.610   5.181   4.575
 3083SOL     OW10147   3.361   5.997   1.715
 3083SOL    HW110148   3.408   5.947   1.643
 3083SOL    HW210149   3.334   6.087   1.681
 3084SOL     OW10150   0.478   3.540   4.286
 3084SOL    HW110151   0.487   3.540   4.186
 3084SOL    HW210152   0.524   3.460   4.323
 3085SOL     OW10153   5.210   4.215   0.520
 3085SOL    HW110154   5.198   4.172   0.430
 3085SOL    HW210155   5.298   4.188   0.558
 3086SOL     OW10156   5.970   6.682   6.664
 3086SOL    HW110157   5.956   6.739   6.584
 3086SOL    HW210158   6.040   6.613   6.644
 3087SOL     OW10159   2.766   6.953   2.080
 3087SOL    HW110160   2.844   7.015   2.093
 3087SOL    HW210161   2.759   6.929   1.984
 3088SOL     OW10162   1.579   2.607   5.720
 3088SOL    HW110163   1.503   2.649   5.671
 3088SOL    HW210164   1.636   2.556   5.656
 3089SOL     OW10165   4.143   6.311   5.090
 3089SOL    HW110166   4.056   6.357   5.076
 3089SOL    HW210167   4.132   6.213   5.073
 3090SOL     OW10168   1.481   1.987   2.498
 3090SOL    HW110169   1.452   2.010   2.591
 3090SOL    HW210170   1.573   1.949   2.501
 3091SOL     OW10171   0.885   2.191   1.423
 3091SOL    HW110172   0.859   2.151   1.512
 3091SOL    HW210173   0.984   2.187   1.412
 3092SOL     OW10174   6.400   1.044   2.452
 3092SOL    HW110175   6.393   1.136   2.414
 3092SOL    HW210176   6.461   0.989   2.396
 3093SOL     OW10177   5.471   5.000   6.742
 3093SOL    HW110178   5.380   4.967   6.768
 3093SOL    HW210179   5.470   5.100   6.737
 3094SOL     OW10180   2.915   1.870   6.314
 3094SOL    HW110181   2.998   1.896   6.264
 3094SOL    HW210182   2.856   1.950   6.325
 3095SOL     OW10183   1.716   3.511   5.085
 3095SOL    HW110184   1.730   3.428   5.139
 3095SOL    HW210185   1.779   3.510   5.007
 3096SOL     OW10186   0.595   3.892   4.569
 3096SOL    HW110187   0.558   3.907   4.477
 3096SOL    HW210188   0.687   3.853   4.562
 3097SOL     OW10189   5.231   2.260   5.502
 3097SOL    HW110190   5.216   2.335   5.567
 3097SOL    HW210191   5.190   2.284   5.414
 3098SOL     OW10192   2.060   2.738   1.972
 3098SOL    HW110193   2.096   2.692   1.891
 3098SOL    HW210194   1.974   2.695   1.999
 3099SOL     OW10195   0.783   5.989   4.737
 3099SOL    HW110196   0.805   6.078   4.779
 3099SOL    HW210197   0.730   5.934   4.802
 3100SOL     OW10198   6.455   5.403   2.261
 3100SOL    HW110199   6.469   5.338   2.186
 3100SOL    HW210200   6.525   5.390   2.331
 3101SOL     OW10201   3.658   6.265   5.564
 3101SOL    HW110202   3.595   6.286   5.489
 3101SOL    HW210203   3.622   6.302   5.650
 3102SOL     OW10204   0.037   4.758   0.828
 3102SOL    HW110205   0.032   4.683   0.762
 3102SOL    HW210206   0.100   4.828   0.794
 3103SOL     OW10207   3.365   1.103   1.380
 3103SOL    HW110208   3.374   1.124   1.477
 3103SOL    HW210209   3.394   1.009   1.363
 3104SOL     OW10210   4.567   0.843   5.853
 3104SOL    HW110211   4.531   0.894   5.775
 3104SOL    HW210212   4.513   0.865   5.934
 3105SOL     OW10213   6.343   3.867   0.494
 3105SOL    HW110214   6.326   3.796   0.562
 3105SOL    HW210215   6.431   3.851   0.451
 3106SOL     OW10216   6.323   0.083   5.475
 3106SOL    HW110217   6.293   0.153   5.411
 3106SOL    HW210218   6.411   0.110   5.515
 3107SOL     OW10219   3.824   1.278   6.028
 3107SOL    HW110220   3.749   1.338   5.999
 3107SOL    HW210221   3.787   1.206   6.088
 3108SOL     OW10222   2.292   4.116   3.690
 3108SOL    HW110223   2.278   4.078   3.781
 3108SOL    HW210224   2.269   4.213   3.690
 3109SOL     OW10225   6.455   5.902   3.960
 3109SOL    HW110226   6.495   5.956   3.886
 3109SOL    HW210227   6.356   5.914   3.960
 3110SOL     OW10228   1.057   4.411   3.152
 3110SOL    HW110229   1.129   4.343   3.168
 3110SOL    HW210230   0.970   4.378   3.189
 3111SOL     OW10231   5.695   4.790   4.115
 3111SOL    HW110232   5.668   4.873   4.067
 3111SOL    HW210233   5.628   4.717   4.098
 3112SOL     OW10234   3.639   1.964   6.974
 3112SOL    HW110235   3.547   1.929   6.990
 3112SOL    HW210236   3.648   1.994   6.879
 3113SOL     OW10237   2.485   5.785   3.207
 3113SOL    HW110238   2.413   5.759   3.272
 3113SOL    HW210239   2.555   5.838   3.254
 3114SOL     OW10240   4.766   0.795   6.299
 3114SOL    HW110241   4.731   0.824   6.388
 3114SOL    HW210242   4.833   0.861   6.265
 3115SOL     OW10243   5.012   5.388   5.175
 3115SOL    HW110244   5.093   5.332   5.157
 3115SOL    HW210245   4.943   5.332   5.221
 3116SOL     OW10246   0.970   1.496   1.064
 3116SOL    HW110247   0.902   1.460   0.999
 3116SOL    HW210248   1.056   1.447   1.051
 3117SOL     OW10249   4.771   1.302   5.800
 3117SOL    HW110250   4.736   1.233   5.736
 3117SOL    HW210251   4.855   1.342   5.763
 3118SOL     OW10252   1.445   0.649   3.633
 3118SOL    HW110253   1.417   0.697   3.550
 3118SOL    HW210254   1.513   0.579   3.609
 3119SOL     OW10255   4.178   4.718   5.726
 3119SOL    HW110256   4.156   4.805   5.769
 3119SOL    HW210257   4.094   4.673   5.697
 3120SOL     OW10258   1.615   6.232   4.805
 3120SOL    HW110259   1.661   6.278   4.882
 3120SOL    HW210260   1.518   6.222   4.826
 3121SOL     OW10261   4.732   1.260   4.589
 3121SOL    HW110262   4.641   1.300   4.599
 3121SOL    HW210263   4.794   1.302   4.656
 3122SOL     OW10264   4.026   5.571   4.278
 3122SOL    HW110265   4.094   5.531   4.339
 3122SOL    HW210266   4.068   5.645   4.225
 3123SOL     OW10267   1.818   1.654   3.872
 3123SOL    HW110268   1.863   1.565   3.870
 3123SOL    HW210269   1.884   1.725   3.847
 3124SOL     OW10270   5.110   6.989   3.687
 3124SOL    HW110271   5.157   0.049   3.656
 3124SOL    HW210272   5.011   7.000   3.674
 3125SOL     OW10273   1.401   1.439   5.459
 3125SOL    HW110274   1.311   1.397   5.469
 3125SOL    HW210275   1.460   1.412   5.534
 3126SOL     OW10276   5.802   5.567   5.092
 3126SOL    HW110277   5.800   5.534   4.997
 3126SOL    HW210278   5.891   5.547   5.133
 3127SOL     OW10279   0.595   1.009   5.159
 3127SOL    HW110280   0.598   0.968   5.068
 3127SOL    HW210281   0.503   1.000   5.196
 3128SOL     OW10282   4.409   0.659   0.225
 3128SOL    HW110283   4.358   0.596   0.166
 3128SOL    HW210284   4.434   0.612   0.310
 3129SOL     OW10285   4.298   3.591   0.284
 3129SOL    HW110286   4.347   3.661   0.337
 3129SOL    HW210287   4.245   3.534   0.347
 3130SOL     OW10288   0.985   4.565   2.143
 3130SOL    HW110289   1.071   4.552   2.193
 3130SOL    HW210290   0.930   4.483   2.151
 3131SOL     OW10291   6.921   4.662   3.021
 3131SOL    HW110292   6.842   4.721   3.004
 3131SOL    HW210293   6.889   4.573   3.054
 3132SOL     OW10294   4.262   4.752   6.931
 3132SOL    HW110295   4.343   4.766   6.873
 3132SOL    HW210296   4.225   4.661   6.916
 3133SOL     OW10297   3.778   0.767   4.515
 3133SOL    HW110298   3.747   0.792   4.607
 3133SOL    HW210299   3.710   0.707   4.472
 3134SOL     OW10300   4.516   5.541   2.921
 3134SOL    HW110301   4.463   5.625   2.927
 3134SOL    HW210302   4.485   5.488   2.842
 3135SOL     OW10303   4.867   6.268   6.286
 3135SOL    HW110304   4.795   6.260   6.355
 3135SOL    HW210305   4.839   6.221   6.202
 3136SOL     OW10306   6.260   2.042   2.830
 3136SOL    HW110307   6.292   1.970   2.769
 3136SOL    HW210308   6.313   2.126   2.813
 3137SOL     OW10309   6.175   0.026   6.669
 3137SOL    HW110310   6.188   6.963   6.619
 3137SOL    HW210311   6.240   0.029   6.746
 3138SOL     OW10312   5.701   5.737   3.964
 3138SOL    HW110313   5.747   5.689   3.889
 3138SOL    HW210314   5.741   5.828   3.974
 3139SOL     OW10315   2.206   4.668   1.140
 3139SOL    HW110316   2.207   4.765   1.164
 3139SOL    HW210317   2.222   4.613   1.222
 3140SOL     OW10318   6.929   0.360   6.121
 3140SOL    HW110319   6.906   0.281   6.063
 3140SOL    HW210320   6.875   0.356   6.205
 3141SOL     OW10321   6.847   2.467   6.005
 3141SOL    HW110322   6.841   2.445   6.103
 3141SOL    HW210323   6.852   2.566   5.994
 3142SOL     OW10324   4.986   1.285   2.856
 3142SOL    HW110325   4.908   1.333   2.815
 3142SOL    HW210326   4.955   1.200   2.897
 3143SOL     OW10327   6.715   0.868   0.592
 3143SOL    HW110328   6.665   0.870   0.678
 3143SOL    HW210329   6.669   0.927   0.525
 3144SOL     OW10330   4.097   3.503   6.358
 3144SOL    HW110331   4.010   3.552   6.363
 3144SOL    HW210332   4.144   3.510   6.447
 3145SOL     OW10333   0.790   6.111   1.024
 3145SOL    HW110334   0.759   6.021   1.056
 3145SOL    HW210335   0.890   6.113   1.022
 3146SOL     OW10336   0.545   0.048   4.967
 3146SOL    HW110337   0.526   6.980   4.930
 3146SOL    HW210338   0.603   0.099   4.903
 3147SOL     OW10339   4.038   4.996   6.848
 3147SOL    HW110340   4.044   4.929   6.923
 3147SOL    HW210341   4.043   4.948   6.761
 3148SOL     OW10342   6.769   5.087   2.608
 3148SOL    HW110343   6.694   5.150   2.629
 3148SOL    HW210344   6.853   5.139   2.592
 3149SOL     OW10345   3.170   1.043   0.657
 3149SOL    HW110346   3.215   0.954   0.657
 3149SOL    HW210347   3.221   1.107   0.715
 3150SOL     OW10348   6.674   5.709   4.795
 3150SOL    HW110349   6.716   5.647   4.729
 3150SOL    HW210350   6.574   5.707   4.784
 3151SOL     OW10351   6.336   1.595   5.716
 3151SOL    HW110352   6.423   1.643   5.700
 3151SOL    HW210353   6.349   1.497   5.702
 3152SOL     OW10354   0.859   3.085   6.008
 3152SOL    HW110355   0.947   3.072   6.054
 3152SOL    HW210356   0.815   3.168   6.044
 3153SOL     OW10357   6.181   5.158   1.057
 3153SOL    HW110358   6.121   5.207   1.121
 3153SOL    HW210359   6.125   5.113   0.987
 3154SOL     OW10360   4.853   1.696   0.416
 3154SOL    HW110361   4.767   1.664   0.378
 3154SOL    HW210362   4.912   1.618   0.436
 3155SOL     OW10363   0.253   5.120   1.064
 3155SOL    HW110364   0.220   5.026   1.059
 3155SOL    HW210365   0.328   5.126   1.130
 3156SOL     OW10366   3.654   4.193   1.865
 3156SOL    HW110367   3.658   4.290   1.841
 3156SOL    HW210368   3.744   4.164   1.899
 3157SOL     OW10369   0.934   1.869   5.446
 3157SOL    HW110370   0.965   1.822   5.364
 3157SOL    HW210371   0.931   1.805   5.523
 3158SOL     OW10372   2.205   1.040   5.998
 3158SOL    HW110373   2.179   0.955   5.952
 3158SOL    HW210374   2.273   1.088   5.943
 3159SOL     OW10375   6.400   6.781   0.450
 3159SOL    HW110376   6.472   6.819   0.508
 3159SOL    HW210377   6.437   6.707   0.394
 3160SOL     OW10378   1.813   0.760   6.596
 3160SOL    HW110379   1.905   0.749   6.633
 3160SOL    HW210380   1.765   0.673   6.601
 3161SOL     OW10381   2.107   2.624   2.974
 3161SOL    HW110382   2.020   2.584   3.002
 3161SOL    HW210383   2.158   2.558   2.918
 3162SOL     OW10384   1.711   5.304   0.834
 3162SOL    HW110385   1.722   5.332   0.929
 3162SOL    HW210386   1.778   5.233   0.812
 3163SOL     OW10387   3.958   3.843   0.326
 3163SOL    HW110388   3.888   3.904   0.291
 3163SOL    HW210389   4.042   3.895   0.345
 3164SOL     OW10390   2.618   5.950   3.367
 3164SOL    HW110391   2.572   6.036   3.391
 3164SOL    HW210392   2.685   5.928   3.437
 3165SOL     OW10393   0.971   6.558   0.194
 3165SOL    HW110394   0.889   6.564   0.252
 3165SOL    HW210395   0.944   6.527   0.103
 3166SOL     OW10396   3.844   0.976   5.429
 3166SOL    HW110397   3.932   0.930   5.419
 3166SOL    HW210398   3.801   0.949   5.515
 3167SOL     OW10399   5.245   3.632   0.522
 3167SOL    HW110400   5.325   3.620   0.580
 3167SOL    HW210401   5.175   3.683   0.572
 3168SOL     OW10402   4.813   1.722   0.844
 3168SOL    HW110403   4.858   1.800   0.887
 3168SOL    HW210404   4.789   1.745   0.749
 3169SOL     OW10405   1.680   4.292   1.954
 3169SOL    HW110406   1.683   4.216   2.020
 3169SOL    HW210407   1.594   4.340   1.963
 3170SOL     OW10408   3.389   5.445   3.702
 3170SOL    HW110409   3.394   5.396   3.789
 3170SOL    HW210410   3.412   5.384   3.627
 3171SOL     OW10411   5.250   2.805   3.273
 3171SOL    HW110412   5.180   2.738   3.248
 3171SOL    HW210413   5.275   2.859   3.192
 3172SOL     OW10414   0.213   4.611   1.197
 3172SOL    HW110415   0.152   4.689   1.213
 3172SOL    HW210416   0.241   4.572   1.285
 3173SOL     OW10417   3.796   2.137   0.504
 3173SOL    HW110418   3.789   2.038   0.487
 3173SOL    HW210419   3.834   2.182   0.423
 3174SOL     OW10420   2.906   3.651   5.490
 3174SOL    HW110421   2.868   3.672   5.400
 3174SOL    HW210422   3.004   3.671   5.490
 3175SOL     OW10423   0.053   0.352   4.344
 3175SOL    HW110424   6.992   0.309   4.310
 3175SOL    HW210425   0.029   0.415   4.418
 3176SOL     OW10426   1.333   4.594   5.340
 3176SOL    HW110427   1.334   4.656   5.261
 3176SOL    HW210428   1.402   4.622   5.406
 3177SOL     OW10429   5.797   3.414   3.677
 3177SOL    HW110430   5.832   3.329   3.639
 3177SOL    HW210431   5.833   3.492   3.625
 3178SOL     OW10432   6.969   0.540   1.561
 3178SOL    HW110433   6.999   0.481   1.487
 3178SOL    HW210434   6.878   0.512   1.591
 3179SOL     OW10435   0.988   1.766   1.885
 3179SOL    HW110436   1.027   1.709   1.957
 3179SOL    HW210437   0.917   1.715   1.836
 3180SOL     OW10438   6.430   6.066   0.166
 3180SOL    HW110439   6.419   6.062   0.265
 3180SOL    HW210440   6.501   6.131   0.142
 3181SOL     OW10441   0.641   0.873   4.921
 3181SOL    HW110442   0.673   0.786   4.959
 3181SOL    HW210443   0.674   0.883   4.827
 3182SOL     OW10444   2.798   0.264   0.680
 3182SOL    HW110445   2.761   0.192   0.739
 3182SOL    HW210446   2.851   0.222   0.606
 3183SOL     OW10447   4.379   4.572   1.853
 3183SOL    HW110448   4.384   4.488   1.907
 3183SOL    HW210449   4.362   4.550   1.757
 3184SOL     OW10450   0.585   2.190   4.969
 3184SOL    HW110451   0.634   2.143   5.042
 3184SOL    HW210452   0.598   2.141   4.883
 3185SOL     OW10453   0.445   5.468   6.157
 3185SOL    HW110454   0.436   5.554   6.208
 3185SOL    HW210455   0.444   5.486   6.059
 3186SOL     OW10456   0.192   1.577   6.471
 3186SOL    HW110457   0.239   1.665   6.463
 3186SOL    HW210458   0.190   1.532   6.383
 3187SOL     OW10459   4.155   5.896   2.393
 3187SOL    HW110460   4.100   5.817   2.366
 3187SOL    HW210461   4.244   5.893   2.348
 3188SOL     OW10462   2.089   4.385   5.710
 3188SOL    HW110463   2.070   4.311   5.645
 3188SOL    HW210464   2.177   4.367   5.755
 3189SOL     OW10465   3.200   1.240   6.839
 3189SOL    HW110466   3.176   1.337   6.841
 3189SOL    HW210467   3.253   1.217   6.921
 3190SOL     OW10468   6.636   5.372   3.895
 3190SOL    HW110469   6.728   5.354   3.928
 3190SOL    HW210470   6.617   5.470   3.899
 3191SOL     OW10471   4.237   5.574   2.197
 3191SOL    HW110472   4.247   5.670   2.170
 3191SOL    HW210473   4.143   5.545   2.179
 3192SOL     OW10474   5.914   1.993   2.435
 3192SOL    HW110475   5.829   2.036   2.405
 3192SOL    HW210476   5.964   1.960   2.355
 3193SOL     OW10477   3.927   0.196   5.446
 3193SOL    HW110478   3.848   0.255   5.463
 3193SOL    HW210479   4.005   0.228   5.500
 3194SOL     OW10480   1.078   1.232   6.206
 3194SOL    HW110481   1.074   1.183   6.293
 3194SOL    HW210482   1.154   1.297   6.208
 3195SOL     OW10483   6.910   1.946   2.135
 3195SOL    HW110484   7.000   1.968   2.172
 3195SOL    HW210485   6.917   1.921   2.039
 3196SOL     OW10486   6.384   0.087   4.685
 3196SOL    HW110487   6.482   0.101   4.699
 3196SOL    HW210488   6.342   0.173   4.658
 3197SOL     OW10489   2.261   1.215   6.436
 3197SOL    HW110490   2.234   1.223   6.340
 3197SOL    HW210491   2.234   1.126   6.471
 3198SOL     OW10492   6.882   2.928   3.891
 3198SOL    HW110493   6.886   3.017   3.935
 3198SOL    HW210494   6.787   2.908   3.864
 3199SOL     OW10495   5.307   4.407   3.260
 3199SOL    HW110496   5.382   4.408   3.193
 3199SOL    HW210497   5.294   4.314   3.293
 3200SOL     OW10498   5.633   3.367   4.166
 3200SOL    HW110499   5.554   3.351   4.108
 3200SOL    HW210500   5.662   3.281   4.208
 3201SOL     OW10501   5.885   4.357   2.396
 3201SOL    HW110502   5.790   4.333   2.418
 3201SOL    HW210503   5.916   4.429   2.458
 3202SOL     OW10504   1.448   5.016   0.328
 3202SOL    HW110505   1.451   4.955   0.408
 3202SOL    HW210506   1.395   5.097   0.350
 3203SOL     OW10507   4.327   6.431   0.971
 3203SOL    HW110508   4.403   6.487   0.936
 3203SOL    HW210509   4.311   6.453   1.067
 3204SOL     OW10510   2.604   1.604   3.595
 3204SOL    HW110511   2.527   1.547   3.624
 3204SOL    HW210512   2.644   1.650   3.675
 3205SOL     OW10513   5.426   3.112   5.260
 3205SOL    HW110514   5.499   3.164   5.216
 3205SOL    HW210515   5.338   3.158   5.246
 3206SOL     OW10516   3.080   2.910   1.576
 3206SOL    HW110517   3.079   2.819   1.534
 3206SOL    HW210518   2.996   2.959   1.553
 3207SOL     OW10519   1.022   6.525   5.503
 3207SOL    HW110520   0.950   6.591   5.524
 3207SOL    HW210521   0.990   6.462   5.432
 3208SOL     OW10522   6.294   5.477   5.763
 3208SOL    HW110523   6.296   5.443   5.669
 3208SOL    HW210524   6.225   5.428   5.815
 3209SOL     OW10525   5.289   6.040   6.363
 3209SOL    HW110526   5.193   6.055   6.388
 3209SOL    HW210527   5.347   6.058   6.443
 3210SOL     OW10528   6.706   4.974   1.560
 3210SOL    HW110529   6.650   5.026   1.496
 3210SOL    HW210530   6.673   4.988   1.653
 3211SOL     OW10531   1.073   5.624   6.424
 3211SOL    HW110532   1.117   5.601   6.511
 3211SOL    HW210533   1.103   5.714   6.394
 3212SOL     OW10534   2.182   6.975   2.876
 3212SOL    HW110535   2.112   6.993   2.807
 3212SOL    HW210536   2.138   6.960   2.965
 3213SOL     OW10537   1.530   0.510   5.889
 3213SOL    HW110538   1.510   0.461   5.975
 3213SOL    HW210539   1.537   0.608   5.907
 3214SOL     OW10540   3.744   1.248   3.094
 3214SOL    HW110541   3.648   1.243   3.124
 3214SOL    HW210542   3.749   1.295   3.006
 3215SOL     OW10543   1.881   2.646   0.718
 3215SOL    HW110544   1.868   2.676   0.813
 3215SOL    HW210545   1.943   2.568   0.715
 3216SOL     OW10546   5.466   4.229   0.677
 3216SOL    HW110547   5.465   4.244   0.776
 3216SOL    HW210548   5.508   4.308   0.632
 3217SOL     OW10549   1.026   5.208   2.839
 3217SOL    HW110550   0.931   5.178   2.846
 3217SOL    HW210551   1.085   5.147   2.894
 3218SOL     OW10552   6.479   1.419   3.214
 3218SOL    HW110553   6.495   1.451   3.120
 3218SOL    HW210554   6.430   1.331   3.211
 3219SOL     OW10555   5.961   0.402   5.641
 3219SOL    HW110556   6.056   0.385   5.664
 3219SOL    HW210557   5.922   0.320   5.598
 3220SOL     OW10558   6.641   4.877   6.635
 3220SOL    HW110559   6.726   4.866   6.583
 3220SOL    HW210560   6.631   4.973   6.661
 3221SOL     OW10561   3.878   0.449   1.950
 3221SOL    HW110562   3.813   0.493   2.013
 3221SOL    HW210563   3.926   0.519   1.897
 3222SOL     OW10564   2.659   1.483   2.514
 3222SOL    HW110565   2.700   1.399   2.478
 3222SOL    HW210566   2.571   1.461   2.557
 3223SOL     OW10567   1.439   0.175   1.334
 3223SOL    HW110568   1.527   0.167   1.380
 3223SOL    HW210569   1.445   0.243   1.261
 3224SOL     OW10570   4.121   2.284   4.189
 3224SOL    HW110571   4.195   2.351   4.198
 3224SOL    HW210572   4.087   2.259   4.280
 3225SOL     OW10573   3.868   0.478   4.271
 3225SOL    HW110574   3.907   0.551   4.327
 3225SOL    HW210575   3.912   0.476   4.182
 3226SOL     OW10576   0.217   7.011   1.243
 3226SOL    HW110577   0.276   6.938   1.208
 3226SOL    HW210578   0.274   0.058   1.288
 3227SOL     OW10579   4.579   3.039   5.609
 3227SOL    HW110580   4.562   2.983   5.690
 3227SOL    HW210581   4.533   3.128   5.619
 3228SOL     OW10582   1.674   3.828   0.993
 3228SOL    HW110583   1.575   3.813   0.986
 3228SOL    HW210584   1.700   3.831   1.089
 3229SOL     OW10585   1.740   1.601   0.368
 3229SOL    HW110586   1.762   1.565   0.277
 3229SOL    HW210587   1.786   1.689   0.381
 3230SOL     OW10588   1.953   5.612   5.820
 3230SOL    HW110589   1.918   5.693   5.866
 3230SOL    HW210590   1.985   5.546   5.888
 3231SOL     OW10591   2.492   0.915   2.018
 3231SOL    HW110592   2.566   0.941   2.081
 3231SOL    HW210593   2.522   0.840   1.960
 3232SOL     OW10594   4.005   6.135   3.942
 3232SOL    HW110595   3.947   6.209   3.977
 3232SOL    HW210596   3.951   6.079   3.879
 3233SOL     OW10597   0.819   2.478   7.008
 3233SOL    HW110598   0.729   2.464   0.026
 3233SOL    HW210599   0.842   2.575   7.011
 3234SOL     OW10600   3.022   2.601   0.816
 3234SOL    HW110601   3.114   2.640   0.825
 3234SOL    HW210602   2.982   2.590   0.907
 3235SOL     OW10603   6.934   6.395   2.240
 3235SOL    HW110604   6.903   6.447   2.320
 3235SOL    HW210605   7.001   6.448   2.189
 3236SOL     OW10606   3.156   3.531   0.531
 3236SOL    HW110607   3.226   3.460   0.528
 3236SOL    HW210608   3.193   3.616   0.494
 3237SOL     OW10609   6.063   1.023   5.545
 3237SOL    HW110610   6.011   1.062   5.470
 3237SOL    HW210611   6.137   0.966   5.509
 3238SOL     OW10612   6.687   5.444   1.431
 3238SOL    HW110613   6.633   5.430   1.514
 3238SOL    HW210614   6.626   5.450   1.352
 3239SOL     OW10615   6.807   0.553   3.859
 3239SOL    HW110616   6.869   0.497   3.914
 3239SOL    HW210617   6.735   0.591   3.917
 3240SOL     OW10618   0.618   0.740   6.858
 3240SOL    HW110619   0.536   0.789   6.830
 3240SOL    HW210620   0.642   0.765   6.951
 3241SOL     OW10621   5.737   1.768   6.590
 3241SOL    HW110622   5.823   1.770   6.539
 3241SOL    HW210623   5.669   1.716   6.539
 3242SOL     OW10624   4.902   4.607   5.446
 3242SOL    HW110625   4.965   4.682   5.466
 3242SOL    HW210626   4.809   4.643   5.436
 3243SOL     OW10627   4.947   5.214   5.908
 3243SOL    HW110628   4.870   5.159   5.940
 3243SOL    HW210629   5.010   5.231   5.984
 3244SOL     OW10630   5.621   6.025   0.084
 3244SOL    HW110631   5.603   6.108   0.031
 3244SOL    HW210632   5.558   5.952   0.055
 3245SOL     OW10633   3.927   1.511   4.138
 3245SOL    HW110634   3.849   1.449   4.132
 3245SOL    HW210635   3.896   1.605   4.131
 3246SOL     OW10636   0.325   0.873   2.142
 3246SOL    HW110637   0.250   0.939   2.140
 3246SOL    HW210638   0.411   0.919   2.118
 3247SOL     OW10639   0.649   4.158   3.101
 3247SOL    HW110640   0.615   4.145   3.194
 3247SOL    HW210641   0.748   4.147   3.100
 3248SOL     OW10642   5.217   2.215   3.681
 3248SOL    HW110643   5.271   2.214   3.765
 3248SOL    HW210644   5.267   2.264   3.610
 3249SOL     OW10645   3.350   3.829   3.346
 3249SOL    HW110646   3.278   3.891   3.377
 3249SOL    HW210647   3.314   3.736   3.339
 3250SOL     OW10648   5.387   5.722   2.135
 3250SOL    HW110649   5.307   5.662   2.132
 3250SOL    HW210650   5.467   5.669   2.163
 3251SOL     OW10651   2.898   1.256   3.824
 3251SOL    HW110652   2.917   1.258   3.922
 3251SOL    HW210653   2.814   1.206   3.807
 3252SOL     OW10654   2.518   1.336   4.001
 3252SOL    HW110655   2.520   1.274   4.080
 3252SOL    HW210656   2.565   1.421   4.025
 3253SOL     OW10657   6.618   3.548   1.355
 3253SOL    HW110658   6.601   3.453   1.382
 3253SOL    HW210659   6.651   3.550   1.260
 3254SOL     OW10660   5.949   0.477   0.647
 3254SOL    HW110661   5.855   0.460   0.618
 3254SOL    HW210662   5.970   0.575   0.636
 3255SOL     OW10663   5.674   4.794   0.898
 3255SOL    HW110664   5.764   4.750   0.906
 3255SOL    HW210665   5.645   4.826   0.988
 3256SOL     OW10666   4.900   2.260   0.854
 3256SOL    HW110667   4.973   2.260   0.786
 3256SOL    HW210668   4.828   2.196   0.826
 3257SOL     OW10669   2.621   2.147   3.019
 3257SOL    HW110670   2.699   2.105   2.971
 3257SOL    HW210671   2.615   2.244   2.993
 3258SOL     OW10672   2.362   6.076   3.508
 3258SOL    HW110673   2.355   6.116   3.599
 3258SOL    HW210674   2.390   6.146   3.443
 3259SOL     OW10675   4.860   4.093   4.035
 3259SOL    HW110676   4.830   4.132   3.948
 3259SOL    HW210677   4.787   4.101   4.103
 3260SOL     OW10678   1.850   3.863   1.899
 3260SOL    HW110679   1.752   3.876   1.915
 3260SOL    HW210680   1.869   3.869   1.801
 3261SOL     OW10681   4.118   0.437   3.113
 3261SOL    HW110682   4.211   0.474   3.107
 3261SOL    HW210683   4.114   0.352   3.061
 3262SOL     OW10684   3.532   2.117   2.418
 3262SOL    HW110685   3.501   2.088   2.509
 3262SOL    HW210686   3.622   2.160   2.426
 3263SOL     OW10687   1.589   1.344   2.597
 3263SOL    HW110688   1.602   1.411   2.524
 3263SOL    HW210689   1.670   1.343   2.656
 3264SOL     OW10690   2.355   5.772   0.278
 3264SOL    HW110691   2.280   5.765   0.213
 3264SOL    HW210692   2.337   5.713   0.356
 3265SOL     OW10693   6.186   4.918   5.809
 3265SOL    HW110694   6.164   4.963   5.723
 3265SOL    HW210695   6.162   4.821   5.803
 3266SOL     OW10696   3.405   4.572   6.979
 3266SOL    HW110697   3.459   4.567   6.895
 3266SOL    HW210698   3.339   4.496   6.981
 3267SOL     OW10699   4.239   0.172   0.618
 3267SOL    HW110700   4.208   0.165   0.524
 3267SOL    HW210701   4.167   0.142   0.680
 3268SOL     OW10702   6.885   4.736   1.777
 3268SOL    HW110703   6.878   4.825   1.821
 3268SOL    HW210704   6.811   4.677   1.809
 3269SOL     OW10705   1.552   5.083   2.232
 3269SOL    HW110706   1.604   5.114   2.312
 3269SOL    HW210707   1.513   4.993   2.251
 3270SOL     OW10708   0.817   2.637   5.390
 3270SOL    HW110709   0.832   2.662   5.485
 3270SOL    HW210710   0.842   2.713   5.330
 3271SOL     OW10711   0.403   3.555   2.227
 3271SOL    HW110712   0.370   3.620   2.159
 3271SOL    HW210713   0.325   3.514   2.274
 3272SOL     OW10714   4.423   6.385   0.160
 3272SOL    HW110715   4.492   6.457   0.148
 3272SOL    HW210716   4.468   6.302   0.194
 3273SOL     OW10717   5.004   3.255   6.331
 3273SOL    HW110718   4.930   3.202   6.289
 3273SOL    HW210719   5.030   3.212   6.418
 3274SOL     OW10720   5.640   0.866   0.179
 3274SOL    HW110721   5.620   0.883   0.082
 3274SOL    HW210722   5.728   0.906   0.202
 3275SOL     OW10723   4.958   0.452   1.282
 3275SOL    HW110724   4.917   0.367   1.315
 3275SOL    HW210725   4.983   0.509   1.360
 3276SOL     OW10726   4.466   0.034   0.320
 3276SOL    HW110727   4.437   7.015   0.406
 3276SOL    HW210728   4.551   0.084   0.334
 3277SOL     OW10729   3.369   1.856   2.275
 3277SOL    HW110730   3.365   1.776   2.216
 3277SOL    HW210731   3.419   1.930   2.230
 3278SOL     OW10732   6.635   0.319   6.645
 3278SOL    HW110733   6.724   0.315   6.690
 3278SOL    HW210734   6.588   0.232   6.656
 3279SOL     OW10735   4.208   6.663   0.776
 3279SOL    HW110736   4.176   6.757   0.783
 3279SOL    HW210737   4.304   6.658   0.806
 3280SOL     OW10738   5.470   3.743   4.451
 3280SOL    HW110739   5.394   3.774   4.393
 3280SOL    HW210740   5.447   3.656   4.494
 3281SOL     OW10741   6.655   4.271   1.931
 3281SOL    HW110742   6.650   4.221   2.017
 3281SOL    HW210743   6.563   4.286   1.895
 3282SOL     OW10744   0.767   4.293   5.448
 3282SOL    HW110745   0.844   4.312   5.388
 3282SOL    HW210746   0.797   4.297   5.544
 3283SOL     OW10747   3.925   0.852   1.475
 3283SOL    HW110748   4.012   0.808   1.496
 3283SOL    HW210749   3.895   0.906   1.554
 3284SOL     OW10750   1.849   5.607   5.056
 3284SOL    HW110751   1.769   5.610   4.997
 3284SOL    HW210752   1.884   5.700   5.070
 3285SOL     OW10753   5.311   0.979   4.715
 3285SOL    HW110754   5.330   1.005   4.620
 3285SOL    HW210755   5.273   0.886   4.717
 3286SOL     OW10756   3.238   1.666   1.630
 3286SOL    HW110757   3.302   1.698   1.700
 3286SOL    HW210758   3.253   1.716   1.545
 3287SOL     OW10759   2.541   0.129   0.001
 3287SOL    HW110760   2.619   0.141   6.961
 3287SOL    HW210761   2.460   0.104   6.970
 3288SOL     OW10762   1.898   6.302   0.907
 3288SOL    HW110763   1.862   6.234   0.971
 3288SOL    HW210764   1.858   6.288   0.817
 3289SOL     OW10765   3.679   1.358   6.625
 3289SOL    HW110766   3.726   1.292   6.684
 3289SOL    HW210767   3.580   1.349   6.637
 3290SOL     OW10768   6.532   5.465   0.496
 3290SOL    HW110769   6.605   5.449   0.429
 3290SOL    HW210770   6.460   5.520   0.455
 3291SOL     OW10771   4.672   0.256   5.204
 3291SOL    HW110772   4.670   0.284   5.300
 3291SOL    HW210773   4.610   0.315   5.151
 3292SOL     OW10774   0.293   1.854   1.335
 3292SOL    HW110775   0.293   1.943   1.290
 3292SOL    HW210776   0.372   1.801   1.304
 3293SOL     OW10777   6.668   5.414   3.016
 3293SOL    HW110778   6.618   5.327   3.013
 3293SOL    HW210779   6.657   5.462   2.930
 3294SOL     OW10780   5.265   2.893   5.170
 3294SOL    HW110781   5.186   2.920   5.225
 3294SOL    HW210782   5.335   2.965   5.174
 3295SOL     OW10783   1.848   2.958   1.756
 3295SOL    HW110784   1.869   3.050   1.789
 3295SOL    HW210785   1.913   2.933   1.684
 3296SOL     OW10786   0.712   0.201   6.075
 3296SOL    HW110787   0.745   0.156   6.158
 3296SOL    HW210788   0.780   0.192   6.002
 3297SOL     OW10789   3.227   1.791   5.088
 3297SOL    HW110790   3.144   1.803   5.141
 3297SOL    HW210791   3.245   1.694   5.074
 3298SOL     OW10792   5.824   4.393   4.858
 3298SOL    HW110793   5.859   4.421   4.947
 3298SOL    HW210794   5.873   4.441   4.786
 3299SOL     OW10795   3.114   4.869   3.974
 3299SOL    HW110796   3.203   4.847   3.934
 3299SOL    HW210797   3.128   4.906   4.066
 3300SOL     OW10798   1.763   7.010   5.169
 3300SOL    HW110799   1.827   0.018   5.239
 3300SOL    HW210800   1.760   0.053   5.094
 3301SOL     OW10801   1.880   2.838   2.848
 3301SOL    HW110802   1.979   2.837   2.830
 3301SOL    HW210803   1.857   2.763   2.910
 3302SOL     OW10804   2.477   4.943   5.675
 3302SOL    HW110805   2.498   4.963   5.579
 3302SOL    HW210806   2.441   4.851   5.683
 3303SOL     OW10807   3.529   2.989   0.843
 3303SOL    HW110808   3.556   2.894   0.824
 3303SOL    HW210809   3.553   3.012   0.937
 3304SOL     OW10810   2.702   4.952   5.819
 3304SOL    HW110811   2.752   5.028   5.778
 3304SOL    HW210812   2.613   4.942   5.774
 3305SOL     OW10813   3.578   0.872   1.351
 3305SOL    HW110814   3.599   0.939   1.422
 3305SOL    HW210815   3.652   0.805   1.346
 3306SOL     OW10816   2.046   0.760   0.009
 3306SOL    HW110817   1.951   0.772   7.003
 3306SOL    HW210818   2.053   0.680   0.069
 3307SOL     OW10819   0.727   0.067   4.589
 3307SOL    HW110820   0.693   7.000   4.620
 3307SOL    HW210821   0.812   0.054   4.537
 3308SOL     OW10822   3.479   4.597   1.141
 3308SOL    HW110823   3.552   4.587   1.208
 3308SOL    HW210824   3.473   4.693   1.112
 3309SOL     OW10825   5.386   4.023   3.669
 3309SOL    HW110826   5.313   4.033   3.736
 3309SOL    HW210827   5.474   4.035   3.715
 3310SOL     OW10828   0.236   4.995   4.722
 3310SOL    HW110829   0.229   5.038   4.632
 3310SOL    HW210830   0.174   5.041   4.786
 3311SOL     OW10831   3.562   3.565   0.571
 3311SOL    HW110832   3.480   3.513   0.545
 3311SOL    HW210833   3.610   3.595   0.488
 3312SOL     OW10834   5.196   2.575   6.158
 3312SOL    HW110835   5.270   2.517   6.125
 3312SOL    HW210836   5.215   2.601   6.253
 3313SOL     OW10837   0.751   0.990   3.543
 3313SOL    HW110838   0.706   0.911   3.585
 3313SOL    HW210839   0.780   1.054   3.613
 3314SOL     OW10840   1.906   6.009   2.581
 3314SOL    HW110841   1.909   6.096   2.532
 3314SOL    HW210842   1.981   6.005   2.647
 3315SOL     OW10843   0.318   4.897   5.168
 3315SOL    HW110844   0.323   4.816   5.109
 3315SOL    HW210845   0.406   4.945   5.165
 3316SOL     OW10846   2.882   1.466   6.759
 3316SOL    HW110847   2.920   1.443   6.669
 3316SOL    HW210848   2.784   1.447   6.760
 3317SOL     OW10849   5.056   2.536   2.457
 3317SOL    HW110850   5.086   2.499   2.545
 3317SOL    HW210851   4.956   2.536   2.455
 3318SOL     OW10852   2.979   2.208   0.494
 3318SOL    HW110853   3.023   2.278   0.550
 3318SOL    HW210854   2.958   2.245   0.404
 3319SOL     OW10855   6.610   6.611   3.093
 3319SOL    HW110856   6.636   6.699   3.054
 3319SOL    HW210857   6.554   6.561   3.027
 3320SOL     OW10858   5.926   0.040   0.890
 3320SOL    HW110859   5.846   0.057   0.832
 3320SOL    HW210860   6.006   0.084   0.850
 3321SOL     OW10861   5.658   1.827   0.577
 3321SOL    HW110862   5.647   1.826   0.677
 3321SOL    HW210863   5.747   1.866   0.553
 3322SOL     OW10864   6.702   3.572   1.077
 3322SOL    HW110865   6.759   3.496   1.049
 3322SOL    HW210866   6.720   3.651   1.019
 3323SOL     OW10867   1.612   1.373   1.796
 3323SOL    HW110868   1.678   1.438   1.757
 3323SOL    HW210869   1.655   1.324   1.872
 3324SOL     OW10870   5.124   5.092   5.651
 3324SOL    HW110871   5.124   5.143   5.737
 3324SOL    HW210872   5.204   5.032   5.648
 3325SOL     OW10873   1.644   3.366   6.605
 3325SOL    HW110874   1.689   3.356   6.517
 3325SOL    HW210875   1.676   3.294   6.667
 3326SOL     OW10876   5.472   1.324   2.979
 3326SOL    HW110877   5.389   1.353   3.026
 3326SOL    HW210878   5.472   1.360   2.886
 3327SOL     OW10879   1.728   5.858   1.374
 3327SOL    HW110880   1.689   5.944   1.408
 3327SOL    HW210881   1.728   5.790   1.448
 3328SOL     OW10882   4.042   2.079   0.752
 3328SOL    HW110883   3.982   2.128   0.815
 3328SOL    HW210884   4.093   2.145   0.696
 3329SOL     OW10885   5.762   5.479   5.754
 3329SOL    HW110886   5.789   5.575   5.752
 3329SOL    HW210887   5.833   5.423   5.711
 3330SOL     OW10888   6.054   3.236   2.478
 3330SOL    HW110889   6.116   3.163   2.506
 3330SOL    HW210890   6.107   3.314   2.444
 3331SOL     OW10891   1.468   2.122   1.352
 3331SOL    HW110892   1.395   2.166   1.403
 3331SOL    HW210893   1.507   2.187   1.286
 3332SOL     OW10894   5.824   4.247   0.657
 3332SOL    HW110895   5.754   4.318   0.645
 3332SOL    HW210896   5.882   4.244   0.575
 3333SOL     OW10897   4.030   5.046   6.062
 3333SOL    HW110898   4.047   4.962   6.114
 3333SOL    HW210899   3.931   5.056   6.048
 3334SOL     OW10900   3.061   3.599   1.434
 3334SOL    HW110901   3.027   3.665   1.501
 3334SOL    HW210902   2.992   3.586   1.362
 3335SOL     OW10903   4.914   4.986   5.217
 3335SOL    HW110904   4.989   5.017   5.275
 3335SOL    HW210905   4.932   5.013   5.122
 3336SOL     OW10906   3.340   5.198   6.077
 3336SOL    HW110907   3.339   5.108   6.034
 3336SOL    HW210908   3.260   5.207   6.136
 3337SOL     OW10909   3.701   2.771   1.643
 3337SOL    HW110910   3.716   2.675   1.666
 3337SOL    HW210911   3.745   2.829   1.712
 3338SOL     OW10912   0.106   4.106   0.867
 3338SOL    HW110913   0.025   4.063   0.827
 3338SOL    HW210914   0.084   4.136   0.960
 3339SOL     OW10915   6.422   5.905   6.958
 3339SOL    HW110916   6.434   5.943   0.027
 3339SOL    HW210917   6.471   5.818   6.951
 3340SOL     OW10918   3.293   6.397   2.005
 3340SOL    HW110919   3.244   6.480   1.980
 3340SOL    HW210920   3.361   6.418   2.076
 3341SOL     OW10921   0.611   0.536   2.633
 3341SOL    HW110922   0.539   0.591   2.593
 3341SOL    HW210923   0.688   0.595   2.657
 3342SOL     OW10924   1.972   6.830   3.780
 3342SOL    HW110925   1.878   6.846   3.750
 3342SOL    HW210926   2.031   6.822   3.700
 3343SOL     OW10927   5.195   3.170   0.864
 3343SOL    HW110928   5.193   3.188   0.765
 3343SOL    HW210929   5.148   3.083   0.882
 3344SOL     OW10930   5.702   3.293   5.770
 3344SOL    HW110931   5.617   3.342   5.748
 3344SOL    HW210932   5.712   3.216   5.707
 3345SOL     OW10933   3.095   3.522   5.844
 3345SOL    HW110934   3.086   3.613   5.803
 3345SOL    HW210935   3.192   3.497   5.849
 3346SOL     OW10936   6.987   0.391   1.837
 3346SOL    HW110937   6.923   0.317   1.822
 3346SOL    HW210938   0.002   0.421   1.749
 3347SOL     OW10939   5.772   4.115   4.858
 3347SOL    HW110940   5.784   4.212   4.838
 3347SOL    HW210941   5.737   4.105   4.951
 3348SOL     OW10942   3.632   3.095   4.174
 3348SOL    HW110943   3.562   3.146   4.124
 3348SOL    HW210944   3.722   3.130   4.151
 3349SOL     OW10945   6.661   3.857   4.478
 3349SOL    HW110946   6.719   3.931   4.514
 3349SOL    HW210947   6.568   3.867   4.514
 3350SOL     OW10948   1.690   0.959   0.542
 3350SOL    HW110949   1.591   0.973   0.550
 3350SOL    HW210950   1.734   1.045   0.516
 3351SOL     OW10951   5.513   1.947   1.065
 3351SOL    HW110952   5.542   1.961   1.160
 3351SOL    HW210953   5.440   2.011   1.043
 3352SOL     OW10954   0.920   3.619   1.012
 3352SOL    HW110955   0.902   3.632   1.109
 3352SOL    HW210956   0.836   3.592   0.965
 3353SOL     OW10957   1.917   6.967   6.673
 3353SOL    HW110958   1.975   6.999   6.598
 3353SOL    HW210959   1.847   0.014   6.692
 3354SOL     OW10960   6.968   2.437   4.087
 3354SOL    HW110961   6.946   2.511   4.024
 3354SOL    HW210962   6.892   2.372   4.090
 3355SOL     OW10963   6.920   1.332   1.988
 3355SOL    HW110964   6.969   1.407   1.943
 3355SOL    HW210965   6.986   1.271   2.033
 3356SOL     OW10966   2.829   3.496   0.026
 3356SOL    HW110967   2.921   3.511   0.062
 3356SOL    HW210968   2.814   3.555   6.970
 3357SOL     OW10969   3.091   5.106   1.775
 3357SOL    HW110970   3.079   5.203   1.752
 3357SOL    HW210971   3.076   5.093   1.873
 3358SOL     OW10972   4.945   6.235   2.778
 3358SOL    HW110973   4.953   6.148   2.826
 3358SOL    HW210974   4.894   6.222   2.693
 3359SOL     OW10975   1.205   0.139   2.627
 3359SOL    HW110976   1.189   0.126   2.725
 3359SOL    HW210977   1.129   0.189   2.587
 3360SOL     OW10978   0.511   0.630   0.288
 3360SOL    HW110979   0.412   0.628   0.299
 3360SOL    HW210980   0.555   0.591   0.369
 3361SOL     OW10981   6.044   5.692   2.696
 3361SOL    HW110982   5.957   5.693   2.745
 3361SOL    HW210983   6.118   5.672   2.760
 3362SOL     OW10984   2.578   1.399   5.100
 3362SOL    HW110985   2.493   1.404   5.049
 3362SOL    HW210986   2.654   1.382   5.037
 3363SOL     OW10987   0.249   1.848   6.888
 3363SOL    HW110988   0.254   1.812   6.981
 3363SOL    HW210989   0.217   1.777   6.825
 3364SOL     OW10990   2.179   5.316   5.787
 3364SOL    HW110991   2.259   5.264   5.815
 3364SOL    HW210992   2.133   5.353   5.867
 3365SOL     OW10993   6.892   2.848   4.656
 3365SOL    HW110994   6.841   2.910   4.716
 3365SOL    HW210995   6.929   2.899   4.579
 3366SOL     OW10996   5.292   0.427   5.346
 3366SOL    HW110997   5.322   0.520   5.365
 3366SOL    HW210998   5.264   0.383   5.432
 3367SOL     OW10999   1.454   2.159   3.029
 3367SOL    HW111000   1.437   2.254   3.052
 3367SOL    HW211001   1.414   2.100   3.099
 3368SOL     OW11002   6.603   5.504   6.044
 3368SOL    HW111003   6.574   5.598   6.027
 3368SOL    HW211004   6.605   5.488   6.143
 3369SOL     OW11005   3.852   0.219   0.015
 3369SOL    HW111006   3.878   0.168   0.097
 3369SOL    HW211007   3.910   0.190   6.961
 3370SOL     OW11008   5.970   6.736   4.820
 3370SOL    HW111009   6.032   6.814   4.827
 3370SOL    HW211010   5.958   6.712   4.724
 3371SOL     OW11011   0.850   5.253   2.037
 3371SOL    HW111012   0.863   5.268   1.938
 3371SOL    HW211013   0.923   5.301   2.086
 3372SOL     OW11014   0.977   0.991   2.820
 3372SOL    HW111015   1.069   1.023   2.843
 3372SOL    HW211016   0.982   0.936   2.737
 3373SOL     OW11017   6.035   1.588   5.115
 3373SOL    HW111018   6.027   1.517   5.045
 3373SOL    HW211019   6.085   1.552   5.193
 3374SOL     OW11020   2.778   5.796   5.869
 3374SOL    HW111021   2.862   5.746   5.890
 3374SOL    HW211022   2.755   5.782   5.773
 3375SOL     OW11023   4.671   4.370   5.129
 3375SOL    HW111024   4.769   4.372   5.150
 3375SOL    HW211025   4.631   4.285   5.165
 3376SOL     OW11026   3.154   3.033   2.389
 3376SOL    HW111027   3.202   2.968   2.330
 3376SOL    HW211028   3.158   3.124   2.349
 3377SOL     OW11029   1.197   6.778   5.348
 3377SOL    HW111030   1.175   6.767   5.251
 3377SOL    HW211031   1.269   6.714   5.373
 3378SOL     OW11032   6.946   1.415   1.388
 3378SOL    HW111033   0.009   1.427   1.338
 3378SOL    HW211034   6.870   1.448   1.332
 3379SOL     OW11035   0.519   4.683   6.233
 3379SOL    HW111036   0.475   4.605   6.189
 3379SOL    HW211037   0.513   4.763   6.174
 3380SOL     OW11038   0.061   4.611   6.747
 3380SOL    HW111039   7.001   4.580   6.795
 3380SOL    HW211040   0.054   4.588   6.650
 3381SOL     OW11041   3.050   2.524   0.337
 3381SOL    HW111042   2.993   2.606   0.333
 3381SOL    HW211043   3.098   2.521   0.424
 3382SOL     OW11044   0.011   1.877   0.729
 3382SOL    HW111045   6.942   1.915   0.745
 3382SOL    HW211046   0.074   1.910   0.799
 3383SOL     OW11047   6.080   4.820   2.588
 3383SOL    HW111048   6.095   4.889   2.658
 3383SOL    HW211049   6.087   4.861   2.497
 3384SOL     OW11050   3.669   3.095   4.464
 3384SOL    HW111051   3.656   3.094   4.364
 3384SOL    HW211052   3.589   3.054   4.508
 3385SOL     OW11053   6.473   3.577   3.480
 3385SOL    HW111054   6.542   3.506   3.491
 3385SOL    HW211055   6.498   3.657   3.535
 3386SOL     OW11056   6.164   4.485   4.951
 3386SOL    HW111057   6.095   4.454   4.886
 3386SOL    HW211058   6.233   4.413   4.964
 3387SOL     OW11059   2.121   2.304   3.196
 3387SOL    HW111060   2.188   2.297   3.122
 3387SOL    HW211061   2.159   2.264   3.280
 3388SOL     OW11062   5.548   1.877   1.377
 3388SOL    HW111063   5.644   1.868   1.405
 3388SOL    HW211064   5.497   1.797   1.410
 3389SOL     OW11065   4.831   4.505   3.639
 3389SOL    HW111066   4.837   4.604   3.629
 3389SOL    HW211067   4.785   4.482   3.724
 3390SOL     OW11068   5.164   3.139   5.964
 3390SOL    HW111069   5.195   3.053   6.005
 3390SOL    HW211070   5.066   3.132   5.942
 3391SOL     OW11071   3.495   1.775   5.015
 3391SOL    HW111072   3.516   1.686   4.977
 3391SOL    HW211073   3.396   1.784   5.028
 3392SOL     OW11074   2.272   0.853   4.150
 3392SOL    HW111075   2.178   0.826   4.130
 3392SOL    HW211076   2.296   0.828   4.244
 3393SOL     OW11077   6.252   6.273   6.596
 3393SOL    HW111078   6.297   6.251   6.683
 3393SOL    HW211079   6.222   6.188   6.552
 3394SOL     OW11080   6.304   2.924   1.237
 3394SOL    HW111081   6.212   2.937   1.276
 3394SOL    HW211082   6.330   2.828   1.243
 3395SOL     OW11083   0.550   3.182   4.347
 3395SOL    HW111084   0.474   3.185   4.411
 3395SOL    HW211085   0.631   3.146   4.393
 3396SOL     OW11086   0.159   3.431   3.361
 3396SOL    HW111087   0.176   3.507   3.424
 3396SOL    HW211088   0.064   3.401   3.369
 3397SOL     OW11089   3.896   6.933   5.974
 3397SOL    HW111090   3.938   6.890   6.054
 3397SOL    HW211091   3.868   6.862   5.909
 3398SOL     OW11092   1.215   7.021   3.914
 3398SOL    HW111093   1.216   6.992   4.009
 3398SOL    HW211094   1.226   0.098   3.909
 3399SOL     OW11095   5.005   5.094   3.906
 3399SOL    HW111096   4.929   5.126   3.962
 3399SOL    HW211097   5.073   5.167   3.896
 3400SOL     OW11098   4.845   2.099   6.795
 3400SOL    HW111099   4.754   2.135   6.817
 3400SOL    HW211100   4.904   2.106   6.876
 3401SOL     OW11101   6.475   3.501   0.854
 3401SOL    HW111102   6.460   3.566   0.928
 3401SOL    HW211103   6.516   3.418   0.891
 3402SOL     OW11104   5.252   5.878   1.413
 3402SOL    HW111105   5.305   5.963   1.409
 3402SOL    HW211106   5.156   5.898   1.398
 3403SOL     OW11107   3.297   0.323   5.083
 3403SOL    HW111108   3.328   0.374   5.002
 3403SOL    HW211109   3.324   0.371   5.166
 3404SOL     OW11110   4.439   1.487   1.104
 3404SOL    HW111111   4.466   1.544   1.026
 3404SOL    HW211112   4.478   1.395   1.092
 3405SOL     OW11113   6.113   3.867   6.575
 3405SOL    HW111114   6.211   3.864   6.552
 3405SOL    HW211115   6.072   3.950   6.536
 3406SOL     OW11116   1.985   4.102   2.017
 3406SOL    HW111117   1.969   4.004   2.025
 3406SOL    HW211118   1.937   4.137   1.937
 3407SOL     OW11119   1.149   5.744   1.633
 3407SOL    HW111120   1.240   5.709   1.654
 3407SOL    HW211121   1.139   5.755   1.534
 3408SOL     OW11122   5.024   4.293   2.613
 3408SOL    HW111123   5.048   4.257   2.703
 3408SOL    HW211124   4.924   4.297   2.604
 3409SOL     OW11125   3.818   0.151   5.927
 3409SOL    HW111126   3.845   0.055   5.931
 3409SOL    HW211127   3.727   0.159   5.887
 3410SOL     OW11128   5.958   6.076   0.359
 3410SOL    HW111129   5.888   6.013   0.390
 3410SOL    HW211130   6.006   6.036   0.280
 3411SOL     OW11131   4.777   2.263   2.696
 3411SOL    HW111132   4.826   2.334   2.646
 3411SOL    HW211133   4.680   2.288   2.704
 3412SOL     OW11134   3.885   3.802   7.010
 3412SOL    HW111135   3.908   3.897   6.991
 3412SOL    HW211136   3.968   3.752   0.013
 3413SOL     OW11137   3.811   1.918   3.367
 3413SOL    HW111138   3.766   1.997   3.326
 3413SOL    HW211139   3.744   1.863   3.416
 3414SOL     OW11140   2.921   2.132   5.033
 3414SOL    HW111141   2.852   2.181   4.980
 3414SOL    HW211142   3.012   2.153   4.997
 3415SOL     OW11143   0.927   4.837   4.394
 3415SOL    HW111144   0.857   4.771   4.420
 3415SOL    HW211145   1.017   4.794   4.401
 3416SOL     OW11146   0.107   4.400   5.834
 3416SOL    HW111147   0.015   4.371   5.861
 3416SOL    HW211148   0.174   4.335   5.870
 3417SOL     OW11149   6.815   6.514   2.442
 3417SOL    HW111150   6.815   6.474   2.534
 3417SOL    HW211151   6.736   6.479   2.391
 3418SOL     OW11152   2.493   1.143   4.959
 3418SOL    HW111153   2.398   1.134   4.986
 3418SOL    HW211154   2.500   1.201   4.878
 3419SOL     OW11155   4.179   4.721   0.283
 3419SOL    HW111156   4.087   4.682   0.286
 3419SOL    HW211157   4.178   4.803   0.225
 3420SOL     OW11158   4.881   1.856   4.248
 3420SOL    HW111159   4.805   1.909   4.284
 3420SOL    HW211160   4.845   1.778   4.195
 3421SOL     OW11161   6.756   6.470   5.175
 3421SOL    HW111162   6.823   6.526   5.127
 3421SOL    HW211163   6.690   6.528   5.221
 3422SOL     OW11164   3.396   0.321   1.141
 3422SOL    HW111165   3.398   0.225   1.115
 3422SOL    HW211166   3.423   0.377   1.063
 3423SOL     OW11167   2.463   0.504   0.566
 3423SOL    HW111168   2.387   0.552   0.608
 3423SOL    HW211169   2.441   0.407   0.558
 3424SOL     OW11170   4.400   1.180   2.641
 3424SOL    HW111171   4.476   1.183   2.706
 3424SOL    HW211172   4.314   1.175   2.691
 3425SOL     OW11173   4.758   4.195   2.073
 3425SOL    HW111174   4.677   4.235   2.031
 3425SOL    HW211175   4.799   4.128   2.010
 3426SOL     OW11176   3.782   2.982   0.396
 3426SOL    HW111177   3.777   2.883   0.378
 3426SOL    HW211178   3.707   3.027   0.349
 3427SOL     OW11179   6.965   0.520   0.086
 3427SOL    HW111180   0.041   0.508   0.091
 3427SOL    HW211181   6.927   0.528   0.178
 3428SOL     OW11182   4.188   4.775   2.216
 3428SOL    HW111183   4.198   4.688   2.263
 3428SOL    HW211184   4.155   4.759   2.123
 3429SOL     OW11185   1.279   3.021   6.791
 3429SOL    HW111186   1.185   3.055   6.781
 3429SOL    HW211187   1.337   3.062   6.720
 3430SOL     OW11188   1.513   0.026   0.354
 3430SOL    HW111189   1.548   0.120   0.356
 3430SOL    HW211190   1.555   6.995   0.428
 3431SOL     OW11191   1.884   6.150   1.432
 3431SOL    HW111192   1.939   6.160   1.515
 3431SOL    HW211193   1.802   6.206   1.440
 3432SOL     OW11194   2.898   1.870   5.653
 3432SOL    HW111195   2.975   1.896   5.595
 3432SOL    HW211196   2.820   1.844   5.597
 3433SOL     OW11197   3.366   1.227   5.991
 3433SOL    HW111198   3.393   1.258   5.900
 3433SOL    HW211199   3.377   1.128   5.998
 3434SOL     OW11200   4.394   2.495   1.245
 3434SOL    HW111201   4.488   2.486   1.213
 3434SOL    HW211202   4.336   2.526   1.170
 3435SOL     OW11203   6.853   2.632   2.015
 3435SOL    HW111204   6.942   2.603   2.051
 3435SOL    HW211205   6.780   2.589   2.066
 3436SOL     OW11206   4.394   6.980   4.610
 3436SOL    HW111207   4.473   6.922   4.591
 3436SOL    HW211208   4.350   7.008   4.525
 3437SOL     OW11209   4.189   0.132   5.263
 3437SOL    HW111210   4.245   0.213   5.244
 3437SOL    HW211211   4.095   0.150   5.235
 3438SOL     OW11212   1.985   2.635   6.742
 3438SOL    HW111213   1.938   2.689   6.672
 3438SOL    HW211214   2.025   2.554   6.700
 3439SOL     OW11215   2.514   6.522   5.010
 3439SOL    HW111216   2.509   6.622   5.009
 3439SOL    HW211217   2.607   6.493   4.988
 3440SOL     OW11218   4.635   3.745   1.366
 3440SOL    HW111219   4.714   3.743   1.427
 3440SOL    HW211220   4.572   3.671   1.391
 3441SOL     OW11221   3.931   0.116   4.128
 3441SOL    HW111222   3.838   0.082   4.138
 3441SOL    HW211223   3.968   0.086   4.040
 3442SOL     OW11224   2.346   5.391   3.812
 3442SOL    HW111225   2.248   5.386   3.831
 3442SOL    HW211226   2.391   5.307   3.842
 3443SOL     OW11227   5.865   2.033   3.336
 3443SOL    HW111228   5.928   2.077   3.401
 3443SOL    HW211229   5.773   2.033   3.375
 3444SOL     OW11230   4.984   5.681   6.552
 3444SOL    HW111231   5.080   5.694   6.529
 3444SOL    HW211232   4.947   5.764   6.593
 3445SOL     OW11233   6.535   4.153   4.453
 3445SOL    HW111234   6.492   4.063   4.460
 3445SOL    HW211235   6.596   4.167   4.531
 3446SOL     OW11236   4.028   0.335   3.361
 3446SOL    HW111237   3.946   0.280   3.340
 3446SOL    HW211238   4.052   0.389   3.281
 3447SOL     OW11239   5.663   5.509   0.117
 3447SOL    HW111240   5.569   5.478   0.132
 3447SOL    HW211241   5.693   5.482   0.026
 3448SOL     OW11242   3.308   0.617   1.018
 3448SOL    HW111243   3.215   0.621   0.981
 3448SOL    HW211244   3.316   0.682   1.094
 3449SOL     OW11245   6.827   6.911   1.818
 3449SOL    HW111246   6.816   6.839   1.886
 3449SOL    HW211247   6.751   6.909   1.754
 3450SOL     OW11248   1.045   1.613   1.322
 3450SOL    HW111249   0.960   1.560   1.322
 3450SOL    HW211250   1.099   1.590   1.242
 3451SOL     OW11251   0.966   5.612   3.527
 3451SOL    HW111252   1.035   5.684   3.522
 3451SOL    HW211253   0.875   5.651   3.511
 3452SOL     OW11254   6.899   0.848   6.751
 3452SOL    HW111255   6.988   0.840   6.796
 3452SOL    HW211256   6.858   0.936   6.775
 3453SOL     OW11257   5.121   5.651   4.988
 3453SOL    HW111258   5.115   5.675   5.084
 3453SOL    HW211259   5.216   5.631   4.964
 3454SOL     OW11260   1.733   1.419   0.833
 3454SOL    HW111261   1.646   1.455   0.868
 3454SOL    HW211262   1.777   1.489   0.777
 3455SOL     OW11263   1.719   3.252   4.327
 3455SOL    HW111264   1.791   3.317   4.303
 3455SOL    HW211265   1.707   3.186   4.253
 3456SOL     OW11266   5.725   6.566   1.723
 3456SOL    HW111267   5.802   6.503   1.740
 3456SOL    HW211268   5.718   6.585   1.625
 3457SOL     OW11269   2.602   4.933   3.819
 3457SOL    HW111270   2.516   4.886   3.839
 3457SOL    HW211271   2.677   4.866   3.817
 3458SOL     OW11272   5.948   6.674   0.355
 3458SOL    HW111273   6.021   6.613   0.325
 3458SOL    HW211274   5.987   6.746   0.413
 3459SOL     OW11275   0.395   3.911   3.353
 3459SOL    HW111276   0.461   3.855   3.403
 3459SOL    HW211277   0.316   3.856   3.328
 3460SOL     OW11278   2.727   2.800   6.976
 3460SOL    HW111279   2.724   2.749   6.890
 3460SOL    HW211280   2.784   2.881   6.965
 3461SOL     OW11281   3.730   5.214   4.251
 3461SOL    HW111282   3.723   5.118   4.224
 3461SOL    HW211283   3.771   5.220   4.341
 3462SOL     OW11284   5.689   3.020   3.038
 3462SOL    HW111285   5.765   2.990   2.980
 3462SOL    HW211286   5.603   3.004   2.989
 3463SOL     OW11287   1.375   3.040   1.756
 3463SOL    HW111288   1.307   2.997   1.698
 3463SOL    HW211289   1.333   3.068   1.842
 3464SOL     OW11290   5.550   2.899   6.654
 3464SOL    HW111291   5.486   2.960   6.702
 3464SOL    HW211292   5.508   2.809   6.644
 3465SOL     OW11293   2.113   3.573   1.749
 3465SOL    HW111294   2.167   3.508   1.803
 3465SOL    HW211295   2.155   3.663   1.755
 3466SOL     OW11296   5.711   4.279   5.299
 3466SOL    HW111297   5.709   4.337   5.380
 3466SOL    HW211298   5.626   4.226   5.294
 3467SOL     OW11299   3.434   1.761   1.038
 3467SOL    HW111300   3.432   1.663   1.019
 3467SOL    HW211301   3.352   1.804   1.001
 3468SOL     OW11302   4.503   1.625   1.861
 3468SOL    HW111303   4.474   1.695   1.926
 3468SOL    HW211304   4.592   1.589   1.889
 3469SOL     OW11305   4.465   0.326   6.056
 3469SOL    HW111306   4.430   0.233   6.050
 3469SOL    HW211307   4.554   0.332   6.011
 3470SOL     OW11308   7.007   2.791   1.020
 3470SOL    HW111309   6.979   2.695   1.015
 3470SOL    HW211310   0.034   2.807   1.105
 3471SOL     OW11311   4.745   4.420   3.884
 3471SOL    HW111312   4.768   4.427   3.981
 3471SOL    HW211313   4.757   4.326   3.854
 3472SOL     OW11314   4.410   2.431   3.185
 3472SOL    HW111315   4.413   2.380   3.271
 3472SOL    HW211316   4.316   2.432   3.151
 3473SOL     OW11317   0.023   3.461   3.912
 3473SOL    HW111318   0.074   3.389   3.960
 3473SOL    HW211319   0.068   3.480   3.824
 3474SOL     OW11320   0.217   4.293   4.225
 3474SOL    HW111321   0.311   4.323   4.240
 3474SOL    HW211322   0.193   4.222   4.290
 3475SOL     OW11323   6.746   4.964   4.399
 3475SOL    HW111324   6.807   4.992   4.473
 3475SOL    HW211325   6.783   4.994   4.312
 3476SOL     OW11326   1.996   1.832   3.753
 3476SOL    HW111327   2.065   1.797   3.689
 3476SOL    HW211328   2.020   1.926   3.778
 3477SOL     OW11329   0.478   3.452   1.344
 3477SOL    HW111330   0.381   3.426   1.343
 3477SOL    HW211331   0.501   3.501   1.260
 3478SOL     OW11332   2.293   6.815   0.220
 3478SOL    HW111333   2.317   6.735   0.165
 3478SOL    HW211334   2.359   6.888   0.204
 3479SOL     OW11335   0.512   2.952   3.553
 3479SOL    HW111336   0.521   3.043   3.512
 3479SOL    HW211337   0.574   2.889   3.508
 3480SOL     OW11338   0.809   5.792   6.606
 3480SOL    HW111339   0.795   5.696   6.633
 3480SOL    HW211340   0.867   5.796   6.525
 3481SOL     OW11341   5.578   0.426   0.172
 3481SOL    HW111342   5.557   0.498   0.238
 3481SOL    HW211343   5.666   0.385   0.195
 3482SOL     OW11344   6.396   2.895   3.986
 3482SOL    HW111345   6.345   2.972   3.948
 3482SOL    HW211346   6.345   2.855   4.062
 3483SOL     OW11347   5.000   2.467   3.579
 3483SOL    HW111348   5.099   2.482   3.586
 3483SOL    HW211349   4.959   2.474   3.670
 3484SOL     OW11350   1.975   3.489   6.257
 3484SOL    HW111351   1.988   3.585   6.234
 3484SOL    HW211352   1.944   3.439   6.176
 3485SOL     OW11353   6.834   1.735   5.347
 3485SOL    HW111354   6.854   1.795   5.270
 3485SOL    HW211355   6.913   1.676   5.364
 3486SOL     OW11356   1.570   6.979   4.294
 3486SOL    HW111357   1.565   0.054   4.276
 3486SOL    HW211358   1.518   6.957   4.377
 3487SOL     OW11359   6.547   1.381   6.984
 3487SOL    HW111360   6.608   1.413   6.911
 3487SOL    HW211361   6.514   1.460   0.014
 3488SOL     OW11362   5.547   0.612   5.010
 3488SOL    HW111363   5.590   0.527   5.042
 3488SOL    HW211364   5.528   0.604   4.912
 3489SOL     OW11365   3.183   6.823   1.280
 3489SOL    HW111366   3.162   6.873   1.196
 3489SOL    HW211367   3.281   6.801   1.282
 3490SOL     OW11368   3.863   5.035   1.244
 3490SOL    HW111369   3.859   4.991   1.333
 3490SOL    HW211370   3.892   4.969   1.175
 3491SOL     OW11371   5.196   3.919   6.950
 3491SOL    HW111372   5.189   3.823   6.975
 3491SOL    HW211373   5.233   3.971   0.004
 3492SOL     OW11374   6.993   3.829   2.278
 3492SOL    HW111375   0.028   3.819   2.197
 3492SOL    HW211376   6.931   3.750   2.285
 3493SOL     OW11377   6.613   3.897   4.198
 3493SOL    HW111378   6.590   3.800   4.196
 3493SOL    HW211379   6.642   3.923   4.290
 3494SOL     OW11380   3.372   1.938   2.612
 3494SOL    HW111381   3.305   1.901   2.548
 3494SOL    HW211382   3.335   2.018   2.658
 3495SOL     OW11383   0.827   3.991   2.188
 3495SOL    HW111384   0.750   3.974   2.126
 3495SOL    HW211385   0.801   3.964   2.281
 3496SOL     OW11386   5.945   4.709   0.223
 3496SOL    HW111387   5.892   4.759   0.291
 3496SOL    HW211388   5.896   4.625   0.197
 3497SOL     OW11389   3.440   0.840   3.628
 3497SOL    HW111390   3.359   0.802   3.672
 3497SOL    HW211391   3.506   0.868   3.699
 3498SOL     OW11392   2.849   1.780   2.213
 3498SOL    HW111393   2.758   1.748   2.238
 3498SOL    HW211394   2.849   1.807   2.117
 3499SOL     OW11395   6.231   5.790   5.500
 3499SOL    HW111396   6.223   5.789   5.600
 3499SOL    HW211397   6.162   5.850   5.461
 3500SOL     OW11398   1.752   2.106   3.942
 3500SOL    HW111399   1.780   2.118   3.847
 3500SOL    HW211400   1.769   2.012   3.971
 3501SOL     OW11401   2.460   6.716   6.840
 3501SOL    HW111402   2.559   6.703   6.845
 3501SOL    HW211403   2.434   6.800   6.888
 3502SOL     OW11404   5.901   3.395   1.999
 3502SOL    HW111405   5.856   3.440   1.922
 3502SOL    HW211406   5.983   3.446   2.024
 3503SOL     OW11407   6.977   5.970   5.925
 3503SOL    HW111408   7.001   6.026   5.846
 3503SOL    HW211409   6.934   5.885   5.894
 3504SOL     OW11410   2.359   0.604   2.033
 3504SOL    HW111411   2.417   0.651   1.967
 3504SOL    HW211412   2.413   0.536   2.082
 3505SOL     OW11413   5.573   5.727   5.582
 3505SOL    HW111414   5.571   5.724   5.681
 3505SOL    HW211415   5.662   5.695   5.549
 3506SOL     OW11416   6.149   4.620   5.196
 3506SOL    HW111417   6.181   4.587   5.107
 3506SOL    HW211418   6.224   4.617   5.261
 3507SOL     OW11419   2.083   6.593   0.622
 3507SOL    HW111420   2.117   6.646   0.545
 3507SOL    HW211421   2.152   6.525   0.648
 3508SOL     OW11422   3.125   2.714   6.083
 3508SOL    HW111423   3.032   2.717   6.046
 3508SOL    HW211424   3.189   2.689   6.010
 3509SOL     OW11425   5.151   6.771   0.520
 3509SOL    HW111426   5.071   6.816   0.481
 3509SOL    HW211427   5.177   6.693   0.464
 3510SOL     OW11428   2.440   1.087   1.597
 3510SOL    HW111429   2.362   1.093   1.535
 3510SOL    HW211430   2.510   1.028   1.558
 3511SOL     OW11431   1.855   4.521   1.588
 3511SOL    HW111432   1.877   4.453   1.658
 3511SOL    HW211433   1.904   4.606   1.606
 3512SOL     OW11434   1.187   3.619   0.374
 3512SOL    HW111435   1.280   3.585   0.358
 3512SOL    HW211436   1.192   3.705   0.425
 3513SOL     OW11437   6.544   2.335   1.143
 3513SOL    HW111438   6.466   2.274   1.127
 3513SOL    HW211439   6.544   2.366   1.238
 3514SOL     OW11440   5.500   0.626   2.392
 3514SOL    HW111441   5.467   0.587   2.306
 3514SOL    HW211442   5.453   0.712   2.410
 3515SOL     OW11443   5.579   6.138   3.810
 3515SOL    HW111444   5.622   6.054   3.843
 3515SOL    HW211445   5.481   6.136   3.830
 3516SOL     OW11446   5.057   0.038   0.991
 3516SOL    HW111447   5.075   0.058   1.087
 3516SOL    HW211448   5.132   0.073   0.935
 3517SOL     OW11449   0.189   0.943   1.162
 3517SOL    HW111450   0.284   0.962   1.184
 3517SOL    HW211451   0.174   0.844   1.160
 3518SOL     OW11452   5.340   2.288   5.012
 3518SOL    HW111453   5.331   2.200   5.058
 3518SOL    HW211454   5.249   2.326   4.996
 3519SOL     OW11455   2.613   1.416   6.811
 3519SOL    HW111456   2.534   1.362   6.780
 3519SOL    HW211457   2.581   1.498   6.858
 3520SOL     OW11458   3.800   6.280   6.191
 3520SOL    HW111459   3.815   6.185   6.165
 3520SOL    HW211460   3.702   6.301   6.189
 3521SOL     OW11461   3.509   2.825   6.729
 3521SOL    HW111462   3.484   2.749   6.789
 3521SOL    HW211463   3.429   2.854   6.677
 3522SOL     OW11464   6.399   5.364   6.550
 3522SOL    HW111465   6.396   5.358   6.649
 3522SOL    HW211466   6.318   5.411   6.517
 3523SOL     OW11467   1.140   4.540   5.871
 3523SOL    HW111468   1.159   4.443   5.888
 3523SOL    HW211469   1.172   4.565   5.780
 3524SOL     OW11470   5.262   1.880   2.614
 3524SOL    HW111471   5.278   1.817   2.690
 3524SOL    HW211472   5.260   1.828   2.528
 3525SOL     OW11473   6.121   3.774   3.594
 3525SOL    HW111474   6.107   3.800   3.498
 3525SOL    HW211475   6.160   3.682   3.598
 3526SOL     OW11476   1.760   6.104   3.579
 3526SOL    HW111477   1.788   6.182   3.524
 3526SOL    HW211478   1.815   6.024   3.554
 3527SOL     OW11479   6.203   3.070   5.963
 3527SOL    HW111480   6.173   3.085   5.869
 3527SOL    HW211481   6.135   3.014   6.011
 3528SOL     OW11482   2.530   6.153   4.848
 3528SOL    HW111483   2.492   6.169   4.757
 3528SOL    HW211484   2.550   6.055   4.859
 3529SOL     OW11485   4.280   6.765   6.690
 3529SOL    HW111486   4.379   6.747   6.696
 3529SOL    HW211487   4.256   6.839   6.753
 3530SOL     OW11488   6.908   5.005   1.850
 3530SOL    HW111489   6.811   5.029   1.848
 3530SOL    HW211490   6.958   5.063   1.786
 3531SOL     OW11491   5.390   2.080   1.372
 3531SOL    HW111492   5.404   2.122   1.461
 3531SOL    HW211493   5.432   1.989   1.371
 3532SOL     OW11494   2.765   0.528   1.995
 3532SOL    HW111495   2.806   0.613   2.028
 3532SOL    HW211496   2.774   0.523   1.895
 3533SOL     OW11497   0.399   1.998   2.864
 3533SOL    HW111498   0.393   1.904   2.896
 3533SOL    HW211499   0.313   2.025   2.822
 3534SOL     OW11500   0.822   2.238   2.168
 3534SOL    HW111501   0.756   2.311   2.150
 3534SOL    HW211502   0.915   2.276   2.169
 3535SOL     OW11503   2.690   5.297   5.467
 3535SOL    HW111504   2.600   5.318   5.504
 3535SOL    HW211505   2.680   5.264   5.373
 3536SOL     OW11506   3.546   1.861   3.145
 3536SOL    HW111507   3.595   1.822   3.223
 3536SOL    HW211508   3.527   1.789   3.078
 3537SOL     OW11509   1.116   5.830   2.251
 3537SOL    HW111510   1.069   5.780   2.324
 3537SOL    HW211511   1.202   5.784   2.229
 3538SOL     OW11512   3.410   5.322   5.698
 3538SOL    HW111513   3.314   5.337   5.673
 3538SOL    HW211514   3.469   5.349   5.622
 3539SOL     OW11515   3.858   3.441   4.637
 3539SOL    HW111516   3.865   3.388   4.553
 3539SOL    HW211517   3.874   3.538   4.617
 3540SOL     OW11518   2.100   2.352   4.280
 3540SOL    HW111519   2.032   2.279   4.272
 3540SOL    HW211520   2.068   2.421   4.345
 3541SOL     OW11521   2.979   2.828   5.345
 3541SOL    HW111522   2.911   2.899   5.360
 3541SOL    HW211523   2.974   2.760   5.418
 3542SOL     OW11524   1.780   5.135   3.109
 3542SOL    HW111525   1.880   5.132   3.107
 3542SOL    HW211526   1.750   5.196   3.182
 3543SOL     OW11527   5.663   2.878   3.954
 3543SOL    HW111528   5.600   2.851   3.880
 3543SOL    HW211529   5.620   2.949   4.010
 3544SOL     OW11530   1.970   4.157   6.686
 3544SOL    HW111531   1.950   4.110   6.772
 3544SOL    HW211532   2.023   4.240   6.706
 3545SOL     OW11533   4.021   6.422   6.278
 3545SOL    HW111534   4.102   6.408   6.221
 3545SOL    HW211535   3.941   6.381   6.233
 3546SOL     OW11536   0.799   5.623   3.205
 3546SOL    HW111537   0.798   5.558   3.129
 3546SOL    HW211538   0.711   5.672   3.208
 3547SOL     OW11539   4.188   5.287   3.845
 3547SOL    HW111540   4.134   5.253   3.769
 3547SOL    HW211541   4.219   5.210   3.901
 3548SOL     OW11542   5.042   2.329   5.963
 3548SOL    HW111543   5.064   2.319   6.060
 3548SOL    HW211544   5.110   2.280   5.908
 3549SOL     OW11545   6.485   4.692   4.476
 3549SOL    HW111546   6.426   4.615   4.498
 3549SOL    HW211547   6.466   4.723   4.382
 3550SOL     OW11548   5.313   2.342   3.097
 3550SOL    HW111549   5.392   2.300   3.052
 3550SOL    HW211550   5.288   2.426   3.049
 3551SOL     OW11551   3.468   6.302   3.270
 3551SOL    HW111552   3.529   6.225   3.253
 3551SOL    HW211553   3.386   6.270   3.318
 3552SOL     OW11554   4.678   5.665   2.666
 3552SOL    HW111555   4.594   5.627   2.705
 3552SOL    HW211556   4.669   5.668   2.566
 3553SOL     OW11557   5.525   3.094   2.392
 3553SOL    HW111558   5.479   3.166   2.340
 3553SOL    HW211559   5.622   3.093   2.369
 3554SOL     OW11560   4.104   3.675   0.114
 3554SOL    HW111561   4.057   3.724   0.187
 3554SOL    HW211562   4.203   3.680   0.128
 3555SOL     OW11563   0.610   3.258   3.215
 3555SOL    HW111564   0.701   3.299   3.207
 3555SOL    HW211565   0.540   3.327   3.200
 3556SOL     OW11566   3.342   0.308   5.435
 3556SOL    HW111567   3.403   0.232   5.411
 3556SOL    HW211568   3.266   0.273   5.490
 3557SOL     OW11569   0.951   1.155   4.651
 3557SOL    HW111570   0.966   1.056   4.653
 3557SOL    HW211571   0.942   1.190   4.745
 3558SOL     OW11572   0.169   5.587   1.680
 3558SOL    HW111573   0.138   5.502   1.637
 3558SOL    HW211574   0.242   5.566   1.746
 3559SOL     OW11575   0.087   0.170   4.978
 3559SOL    HW111576   0.076   0.136   4.885
 3559SOL    HW211577   0.102   0.269   4.977
 3560SOL     OW11578   1.481   5.826   1.070
 3560SOL    HW111579   1.563   5.870   1.034
 3560SOL    HW211580   1.453   5.873   1.154
 3561SOL     OW11581   5.090   4.654   5.986
 3561SOL    HW111582   5.166   4.590   5.980
 3561SOL    HW211583   5.106   4.717   6.062
 3562SOL     OW11584   4.697   0.801   3.746
 3562SOL    HW111585   4.689   0.764   3.839
 3562SOL    HW211586   4.793   0.799   3.717
 3563SOL     OW11587   5.298   1.357   1.618
 3563SOL    HW111588   5.349   1.272   1.631
 3563SOL    HW211589   5.343   1.431   1.667
 3564SOL     OW11590   0.699   4.728   4.523
 3564SOL    HW111591   0.757   4.673   4.583
 3564SOL    HW211592   0.603   4.713   4.546
 3565SOL     OW11593   2.975   6.287   4.752
 3565SOL    HW111594   3.004   6.257   4.843
 3565SOL    HW211595   2.922   6.214   4.708
 3566SOL     OW11596   6.781   3.250   5.869
 3566SOL    HW111597   6.722   3.295   5.803
 3566SOL    HW211598   6.737   3.252   5.959
 3567SOL     OW11599   0.854   2.242   0.734
 3567SOL    HW111600   0.857   2.307   0.810
 3567SOL    HW211601   0.759   2.228   0.706
 3568SOL     OW11602   4.961   5.026   2.512
 3568SOL    HW111603   5.027   5.043   2.440
 3568SOL    HW211604   4.976   4.935   2.551
 3569SOL     OW11605   3.214   3.256   4.876
 3569SOL    HW111606   3.289   3.321   4.889
 3569SOL    HW211607   3.249   3.175   4.828
 3570SOL     OW11608   5.866   1.436   5.394
 3570SOL    HW111609   5.949   1.452   5.447
 3570SOL    HW211610   5.786   1.439   5.455
 3571SOL     OW11611   1.661   0.851   4.875
 3571SOL    HW111612   1.724   0.851   4.797
 3571SOL    HW211613   1.678   0.771   4.933
 3572SOL     OW11614   5.290   4.282   2.419
 3572SOL    HW111615   5.345   4.200   2.430
 3572SOL    HW211616   5.201   4.269   2.462
 3573SOL     OW11617   6.587   4.464   2.298
 3573SOL    HW111618   6.572   4.455   2.200
 3573SOL    HW211619   6.618   4.376   2.335
 3574SOL     OW11620   2.313   2.933   6.322
 3574SOL    HW111621   2.402   2.957   6.283
 3574SOL    HW211622   2.272   3.014   6.363
 3575SOL     OW11623   4.837   5.735   0.650
 3575SOL    HW111624   4.908   5.712   0.716
 3575SOL    HW211625   4.784   5.653   0.627
 3576SOL     OW11626   0.266   2.768   0.148
 3576SOL    HW111627   0.324   2.690   0.124
 3576SOL    HW211628   0.319   2.834   0.201
 3577SOL     OW11629   2.289   2.733   5.444
 3577SOL    HW111630   2.384   2.765   5.438
 3577SOL    HW211631   2.286   2.644   5.489
 3578SOL     OW11632   3.223   2.673   0.563
 3578SOL    HW111633   3.296   2.615   0.527
 3578SOL    HW211634   3.233   2.681   0.662
 3579SOL     OW11635   0.571   3.565   1.995
 3579SOL    HW111636   0.563   3.600   2.088
 3579SOL    HW211637   0.640   3.492   1.992
 3580SOL     OW11638   0.674   2.913   1.294
 3580SOL    HW111639   0.757   2.869   1.330
 3580SOL    HW211640   0.679   3.011   1.308
 3581SOL     OW11641   0.660   0.081   3.320
 3581SOL    HW111642   0.756   0.061   3.339
 3581SOL    HW211643   0.649   0.179   3.303
 3582SOL     OW11644   3.125   4.331   5.973
 3582SOL    HW111645   3.184   4.391   5.919
 3582SOL    HW211646   3.030   4.347   5.948
 3583SOL     OW11647   0.574   4.446   0.590
 3583SOL    HW111648   0.582   4.536   0.546
 3583SOL    HW211649   0.659   4.425   0.638
 3584SOL     OW11650   5.900   4.402   5.599
 3584SOL    HW111651   5.980   4.345   5.577
 3584SOL    HW211652   5.895   4.478   5.535
 3585SOL     OW11653   2.552   2.510   4.677
 3585SOL    HW111654   2.648   2.481   4.682
 3585SOL    HW211655   2.493   2.430   4.684
 3586SOL     OW11656   6.255   3.115   3.900
 3586SOL    HW111657   6.215   3.105   3.991
 3586SOL    HW211658   6.291   3.208   3.891
 3587SOL     OW11659   3.642   6.533   6.406
 3587SOL    HW111660   3.631   6.630   6.428
 3587SOL    HW211661   3.739   6.512   6.400
 3588SOL     OW11662   6.142   4.390   4.417
 3588SOL    HW111663   6.147   4.482   4.379
 3588SOL    HW211664   6.188   4.326   4.356
 3589SOL     OW11665   0.308   6.800   5.489
 3589SOL    HW111666   0.395   6.788   5.537
 3589SOL    HW211667   0.271   6.711   5.462
 3590SOL     OW11668   0.264   4.125   0.333
 3590SOL    HW111669   0.226   4.129   0.425
 3590SOL    HW211670   0.364   4.121   0.339
 3591SOL     OW11671   5.422   2.660   6.661
 3591SOL    HW111672   5.420   2.608   6.746
 3591SOL    HW211673   5.393   2.602   6.585
 3592SOL     OW11674   1.322   0.579   2.370
 3592SOL    HW111675   1.302   0.484   2.346
 3592SOL    HW211676   1.314   0.591   2.469
 3593SOL     OW11677   6.226   3.626   5.545
 3593SOL    HW111678   6.261   3.719   5.535
 3593SOL    HW211679   6.126   3.627   5.538
 3594SOL     OW11680   4.141   5.568   4.868
 3594SOL    HW111681   4.091   5.559   4.782
 3594SOL    HW211682   4.226   5.514   4.863
 3595SOL     OW11683   5.756   5.785   6.807
 3595SOL    HW111684   5.674   5.729   6.798
 3595SOL    HW211685   5.774   5.833   6.721
 3596SOL     OW11686   4.189   1.461   3.454
 3596SOL    HW111687   4.154   1.371   3.481
 3596SOL    HW211688   4.131   1.532   3.495
 3597SOL     OW11689   1.821   3.131   5.007
 3597SOL    HW111690   1.879   3.059   4.969
 3597SOL    HW211691   1.877   3.200   5.053
 3598SOL     OW11692   1.401   5.862   5.561
 3598SOL    HW111693   1.399   5.951   5.514
 3598SOL    HW211694   1.450   5.871   5.647
 3599SOL     OW11695   4.266   1.752   6.165
 3599SOL    HW111696   4.315   1.735   6.080
 3599SOL    HW211697   4.331   1.754   6.242
 3600SOL     OW11698   2.932   3.459   0.371
 3600SOL    HW111699   3.007   3.467   0.436
 3600SOL    HW211700   2.966   3.472   0.278
 3601SOL     OW11701   5.118   1.270   5.476
 3601SOL    HW111702   5.143   1.325   5.397
 3601SOL    HW211703   5.085   1.181   5.446
 3602SOL     OW11704   1.798   2.586   1.513
 3602SOL    HW111705   1.794   2.644   1.595
 3602SOL    HW211706   1.758   2.497   1.533
 3603SOL     OW11707   3.088   0.783   6.002
 3603SOL    HW111708   3.113   0.690   5.974
 3603SOL    HW211709   3.171   0.839   6.010
 3604SOL     OW11710   0.120   0.822   3.489
 3604SOL    HW111711   0.173   0.738   3.500
 3604SOL    HW211712   0.074   0.844   3.575
 3605SOL     OW11713   1.312   5.036   3.278
 3605SOL    HW111714   1.388   4.980   3.243
 3605SOL    HW211715   1.262   4.985   3.348
 3606SOL     OW11716   1.807   6.366   1.567
 3606SOL    HW111717   1.713   6.399   1.565
 3606SOL    HW211718   1.829   6.333   1.658
 3607SOL     OW11719   5.026   2.858   2.921
 3607SOL    HW111720   4.932   2.885   2.900
 3607SOL    HW211721   5.065   2.810   2.842
 3608SOL     OW11722   4.277   1.936   4.115
 3608SOL    HW111723   4.268   2.012   4.051
 3608SOL    HW211724   4.248   1.965   4.206
 3609SOL     OW11725   2.281   6.634   4.629
 3609SOL    HW111726   2.266   6.621   4.531
 3609SOL    HW211727   2.193   6.633   4.677
 3610SOL     OW11728   1.940   6.929   5.598
 3610SOL    HW111729   1.930   7.003   5.532
 3610SOL    HW211730   1.990   6.962   5.678
 3611SOL     OW11731   4.590   4.346   4.282
 3611SOL    HW111732   4.547   4.258   4.303
 3611SOL    HW211733   4.527   4.402   4.228
 3612SOL     OW11734   6.253   1.481   6.639
 3612SOL    HW111735   6.349   1.463   6.617
 3612SOL    HW211736   6.248   1.561   6.699
 3613SOL     OW11737   3.211   5.431   1.291
 3613SOL    HW111738   3.142   5.392   1.352
 3613SOL    HW211739   3.264   5.358   1.249
 3614SOL     OW11740   3.408   4.129   6.671
 3614SOL    HW111741   3.473   4.093   6.605
 3614SOL    HW211742   3.397   4.228   6.657
 3615SOL     OW11743   6.146   2.930   5.415
 3615SOL    HW111744   6.194   2.843   5.400
 3615SOL    HW211745   6.048   2.912   5.422
 3616SOL     OW11746   2.122   1.768   6.765
 3616SOL    HW111747   2.131   1.716   6.680
 3616SOL    HW211748   2.041   1.737   6.815
 3617SOL     OW11749   4.142   0.075   5.899
 3617SOL    HW111750   4.159   0.032   5.810
 3617SOL    HW211751   4.044   0.081   5.915
 3618SOL     OW11752   1.723   4.008   4.886
 3618SOL    HW111753   1.804   3.951   4.876
 3618SOL    HW211754   1.721   4.049   4.977
 3619SOL     OW11755   6.137   2.801   0.978
 3619SOL    HW111756   6.047   2.835   0.952
 3619SOL    HW211757   6.197   2.878   1.000
 3620SOL     OW11758   6.270   6.505   4.567
 3620SOL    HW111759   6.340   6.549   4.624
 3620SOL    HW211760   6.180   6.539   4.593
 3621SOL     OW11761   3.712   2.909   3.971
 3621SOL    HW111762   3.727   2.812   3.993
 3621SOL    HW211763   3.660   2.952   4.045
 3622SOL     OW11764   1.004   6.623   0.713
 3622SOL    HW111765   0.977   6.697   0.651
 3622SOL    HW211766   0.988   6.652   0.808
 3623SOL     OW11767   1.608   5.296   5.821
 3623SOL    HW111768   1.614   5.197   5.834
 3623SOL    HW211769   1.670   5.342   5.884
 3624SOL     OW11770   3.169   1.046   2.047
 3624SOL    HW111771   3.204   0.964   2.091
 3624SOL    HW211772   3.151   1.116   2.117
 3625SOL     OW11773   6.489   3.233   6.584
 3625SOL    HW111774   6.560   3.289   6.627
 3625SOL    HW211775   6.400   3.260   6.619
 3626SOL     OW11776   0.445   2.687   4.967
 3626SOL    HW111777   0.449   2.589   4.983
 3626SOL    HW211778   0.380   2.729   5.029
 3627SOL     OW11779   4.443   3.139   1.284
 3627SOL    HW111780   4.510   3.188   1.230
 3627SOL    HW211781   4.355   3.138   1.237
 3628SOL     OW11782   0.783   1.133   1.935
 3628SOL    HW111783   0.818   1.132   2.029
 3628SOL    HW211784   0.698   1.186   1.932
 3629SOL     OW11785   0.993   1.482   4.440
 3629SOL    HW111786   1.068   1.547   4.428
 3629SOL    HW211787   0.952   1.494   4.530
 3630SOL     OW11788   0.198   2.660   3.545
 3630SOL    HW111789   0.178   2.747   3.589
 3630SOL    HW211790   0.158   2.585   3.599
 3631SOL     OW11791   1.769   6.519   2.614
 3631SOL    HW111792   1.855   6.562   2.639
 3631SOL    HW211793   1.716   6.499   2.697
 3632SOL     OW11794   4.470   3.663   0.935
 3632SOL    HW111795   4.545   3.690   0.995
 3632SOL    HW211796   4.499   3.588   0.876
 3633SOL     OW11797   3.782   2.764   6.015
 3633SOL    HW111798   3.814   2.856   6.035
 3633SOL    HW211799   3.858   2.700   6.022
 3634SOL     OW11800   2.975   5.645   5.931
 3634SOL    HW111801   3.023   5.680   6.013
 3634SOL    HW211802   3.022   5.679   5.849
 3635SOL     OW11803   3.185   1.105   1.753
 3635SOL    HW111804   3.127   1.172   1.707
 3635SOL    HW211805   3.174   1.113   1.852
 3636SOL     OW11806   1.137   5.914   6.796
 3636SOL    HW111807   1.051   5.876   6.831
 3636SOL    HW211808   1.124   5.946   6.702
 3637SOL     OW11809   0.207   2.997   6.739
 3637SOL    HW111810   0.290   3.009   6.792
 3637SOL    HW211811   0.165   3.086   6.722
 3638SOL     OW11812   5.841   4.756   2.276
 3638SOL    HW111813   5.836   4.816   2.356
 3638SOL    HW211814   5.935   4.755   2.242
 3639SOL     OW11815   3.942   3.937   4.713
 3639SOL    HW111816   3.876   3.983   4.772
 3639SOL    HW211817   4.015   4.000   4.688
 3640SOL     OW11818   5.176   2.754   0.318
 3640SOL    HW111819   5.080   2.782   0.316
 3640SOL    HW211820   5.215   2.765   0.227
 3641SOL     OW11821   6.930   3.808   1.429
 3641SOL    HW111822   6.892   3.839   1.342
 3641SOL    HW211823   6.857   3.770   1.486
 3642SOL     OW11824   5.916   2.480   6.457
 3642SOL    HW111825   5.883   2.389   6.431
 3642SOL    HW211826   5.846   2.529   6.508
 3643SOL     OW11827   3.985   5.730   5.662
 3643SOL    HW111828   4.008   5.828   5.660
 3643SOL    HW211829   3.995   5.692   5.571
 3644SOL     OW11830   3.386   0.749   1.833
 3644SOL    HW111831   3.333   0.726   1.915
 3644SOL    HW211832   3.356   0.691   1.757
 3645SOL     OW11833   1.562   3.908   4.440
 3645SOL    HW111834   1.479   3.964   4.435
 3645SOL    HW211835   1.577   3.881   4.535
 3646SOL     OW11836   2.753   4.711   4.761
 3646SOL    HW111837   2.827   4.655   4.800
 3646SOL    HW211838   2.667   4.689   4.808
 3647SOL     OW11839   2.139   0.098   0.574
 3647SOL    HW111840   2.133   0.106   0.674
 3647SOL    HW211841   2.058   0.050   0.540
 3648SOL     OW11842   4.573   5.612   3.447
 3648SOL    HW111843   4.532   5.702   3.456
 3648SOL    HW211844   4.668   5.622   3.416
 3649SOL     OW11845   5.636   3.614   0.287
 3649SOL    HW111846   5.715   3.556   0.265
 3649SOL    HW211847   5.644   3.701   0.239
 3650SOL     OW11848   4.913   4.752   0.265
 3650SOL    HW111849   4.969   4.747   0.182
 3650SOL    HW211850   4.848   4.676   0.266
 3651SOL     OW11851   1.270   2.331   5.820
 3651SOL    HW111852   1.204   2.280   5.875
 3651SOL    HW211853   1.337   2.373   5.880
 3652SOL     OW11854   5.104   1.584   1.930
 3652SOL    HW111855   5.072   1.629   1.847
 3652SOL    HW211856   5.203   1.598   1.939
 3653SOL     OW11857   0.549   1.308   1.905
 3653SOL    HW111858   0.506   1.263   1.984
 3653SOL    HW211859   0.486   1.306   1.827
 3654SOL     OW11860   5.361   0.273   0.794
 3654SOL    HW111861   5.313   0.337   0.734
 3654SOL    HW211862   5.403   0.322   0.870
 3655SOL     OW11863   1.429   1.980   4.121
 3655SOL    HW111864   1.466   2.006   4.032
 3655SOL    HW211865   1.465   1.891   4.148
 3656SOL     OW11866   0.170   5.583   1.346
 3656SOL    HW111867   0.107   5.649   1.389
 3656SOL    HW211868   0.144   5.571   1.251
 3657SOL     OW11869   4.666   6.385   4.482
 3657SOL    HW111870   4.580   6.393   4.532
 3657SOL    HW211871   4.718   6.470   4.491
 3658SOL     OW11872   1.289   5.348   6.086
 3658SOL    HW111873   1.206   5.312   6.127
 3658SOL    HW211874   1.292   5.323   5.989
 3659SOL     OW11875   6.665   2.210   6.220
 3659SOL    HW111876   6.706   2.233   6.308
 3659SOL    HW211877   6.578   2.259   6.210
 3660SOL     OW11878   6.045   5.585   6.237
 3660SOL    HW111879   6.119   5.575   6.303
 3660SOL    HW211880   6.001   5.496   6.223
 3661SOL     OW11881   6.904   1.613   5.047
 3661SOL    HW111882   6.970   1.550   5.086
 3661SOL    HW211883   6.840   1.563   4.988
 3662SOL     OW11884   3.611   1.219   5.427
 3662SOL    HW111885   3.694   1.167   5.445
 3662SOL    HW211886   3.553   1.220   5.509
 3663SOL     OW11887   2.217   2.682   6.236
 3663SOL    HW111888   2.281   2.759   6.231
 3663SOL    HW211889   2.145   2.703   6.303
 3664SOL     OW11890   3.966   1.893   2.386
 3664SOL    HW111891   3.901   1.969   2.384
 3664SOL    HW211892   3.984   1.862   2.293
 3665SOL     OW11893   0.702   5.874   5.626
 3665SOL    HW111894   0.757   5.957   5.639
 3665SOL    HW211895   0.761   5.799   5.596
 3666SOL     OW11896   2.226   1.793   4.602
 3666SOL    HW111897   2.247   1.788   4.700
 3666SOL    HW211898   2.127   1.791   4.589
 3667SOL     OW11899   2.301   0.913   2.673
 3667SOL    HW111900   2.268   0.939   2.582
 3667SOL    HW211901   2.392   0.951   2.688
 3668SOL     OW11902   0.585   0.456   1.413
 3668SOL    HW111903   0.501   0.437   1.464
 3668SOL    HW211904   0.592   0.555   1.397
 3669SOL     OW11905   6.809   1.656   4.037
 3669SOL    HW111906   6.735   1.712   4.074
 3669SOL    HW211907   6.893   1.675   4.088
 3670SOL     OW11908   3.410   5.286   1.552
 3670SOL    HW111909   3.315   5.290   1.521
 3670SOL    HW211910   3.419   5.334   1.639
 3671SOL     OW11911   0.001   0.447   3.375
 3671SOL    HW111912   0.084   0.495   3.344
 3671SOL    HW211913   6.979   0.501   3.446
 3672SOL     OW11914   4.028   0.687   3.018
 3672SOL    HW111915   4.041   0.603   3.071
 3672SOL    HW211916   3.952   0.739   3.056
 3673SOL     OW11917   5.048   6.119   0.988
 3673SOL    HW111918   5.047   6.162   0.898
 3673SOL    HW211919   5.084   6.183   1.056
 3674SOL     OW11920   1.578   5.019   5.864
 3674SOL    HW111921   1.608   4.964   5.786
 3674SOL    HW211922   1.483   4.997   5.885
 3675SOL     OW11923   6.939   1.381   3.970
 3675SOL    HW111924   6.850   1.336   3.980
 3675SOL    HW211925   6.953   1.445   4.045
 3676SOL     OW11926   4.662   1.570   3.459
 3676SOL    HW111927   4.698   1.656   3.493
 3676SOL    HW211928   4.672   1.566   3.359
 3677SOL     OW11929   2.250   0.625   3.869
 3677SOL    HW111930   2.259   0.588   3.961
 3677SOL    HW211931   2.317   0.699   3.855
 3678SOL     OW11932   1.562   0.402   3.558
 3678SOL    HW111933   1.660   0.418   3.556
 3678SOL    HW211934   1.531   0.374   3.467
 3679SOL     OW11935   4.761   1.256   2.485
 3679SOL    HW111936   4.833   1.323   2.469
 3679SOL    HW211937   4.683   1.275   2.425
 3680SOL     OW11938   3.797   1.246   4.290
 3680SOL    HW111939   3.742   1.186   4.349
 3680SOL    HW211940   3.892   1.217   4.293
 3681SOL     OW11941   1.391   0.142   4.893
 3681SOL    HW111942   1.361   0.237   4.893
 3681SOL    HW211943   1.322   0.085   4.847
 3682SOL     OW11944   5.656   2.384   1.113
 3682SOL    HW111945   5.725   2.311   1.104
 3682SOL    HW211946   5.644   2.406   1.210
 3683SOL     OW11947   0.193   0.804   5.633
 3683SOL    HW111948   0.261   0.819   5.561
 3683SOL    HW211949   0.101   0.818   5.595
 3684SOL     OW11950   1.917   6.653   5.612
 3684SOL    HW111951   1.849   6.616   5.675
 3684SOL    HW211952   1.919   6.753   5.618
 3685SOL     OW11953   2.361   5.886   5.427
 3685SOL    HW111954   2.377   5.929   5.338
 3685SOL    HW211955   2.314   5.799   5.414
 3686SOL     OW11956   6.936   4.264   3.773
 3686SOL    HW111957   7.007   4.263   3.843
 3686SOL    HW211958   6.851   4.300   3.811
 3687SOL     OW11959   4.723   5.963   3.386
 3687SOL    HW111960   4.808   5.999   3.347
 3687SOL    HW211961   4.740   5.873   3.427
 3688SOL     OW11962   5.867   3.418   0.295
 3688SOL    HW111963   5.790   3.359   0.272
 3688SOL    HW211964   5.880   3.419   0.394
 3689SOL     OW11965   1.491   0.190   5.630
 3689SOL    HW111966   1.417   0.230   5.576
 3689SOL    HW211967   1.463   0.184   5.726
 3690SOL     OW11968   4.753   5.016   0.623
 3690SOL    HW111969   4.664   4.997   0.582
 3690SOL    HW211970   4.825   4.973   0.569
 3691SOL     OW11971   2.563   2.225   0.462
 3691SOL    HW111972   2.570   2.203   0.559
 3691SOL    HW211973   2.469   2.251   0.440
 3692SOL     OW11974   0.549   3.528   6.423
 3692SOL    HW111975   0.568   3.484   6.511
 3692SOL    HW211976   0.543   3.459   6.352
 3693SOL     OW11977   0.381   1.750   2.680
 3693SOL    HW111978   0.372   1.737   2.778
 3693SOL    HW211979   0.473   1.723   2.651
 3694SOL     OW11980   0.100   0.096   1.613
 3694SOL    HW111981   0.180   0.100   1.672
 3694SOL    HW211982   0.022   0.136   1.660
 3695SOL     OW11983   6.349   2.304   2.839
 3695SOL    HW111984   6.269   2.315   2.779
 3695SOL    HW211985   6.430   2.291   2.783
 3696SOL     OW11986   5.099   0.796   4.545
 3696SOL    HW111987   5.145   0.784   4.458
 3696SOL    HW211988   5.154   0.757   4.618
 3697SOL     OW11989   6.402   6.627   3.571
 3697SOL    HW111990   6.458   6.546   3.588
 3697SOL    HW211991   6.310   6.611   3.605
 3698SOL     OW11992   2.319   0.706   2.816
 3698SOL    HW111993   2.299   0.793   2.771
 3698SOL    HW211994   2.235   0.654   2.829
 3699SOL     OW11995   2.551   2.192   3.848
 3699SOL    HW111996   2.543   2.235   3.938
 3699SOL    HW211997   2.465   2.145   3.826
 3700SOL     OW11998   0.875   5.107   5.605
 3700SOL    HW111999   0.882   5.043   5.682
 3700SOL    HW212000   0.861   5.055   5.520
 3701SOL     OW12001   1.533   0.421   2.903
 3701SOL    HW112002   1.630   0.444   2.901
 3701SOL    HW212003   1.497   0.423   2.810
 3702SOL     OW12004   4.994   4.824   3.776
 3702SOL    HW112005   4.928   4.755   3.806
 3702SOL    HW212006   4.970   4.913   3.817
 3703SOL     OW12007   1.223   1.582   5.077
 3703SOL    HW112008   1.309   1.595   5.127
 3703SOL    HW212009   1.228   1.630   4.990
 3704SOL     OW12010   0.185   2.101   1.210
 3704SOL    HW112011   0.249   2.161   1.161
 3704SOL    HW212012   0.134   2.155   1.277
 3705SOL     OW12013   5.030   4.651   3.263
 3705SOL    HW112014   4.937   4.674   3.233
 3705SOL    HW212015   5.081   4.735   3.281
 3706SOL     OW12016   1.450   3.729   0.550
 3706SOL    HW112017   1.499   3.643   0.539
 3706SOL    HW212018   1.403   3.729   0.639
 3707SOL     OW12019   1.902   4.877   3.441
 3707SOL    HW112020   1.941   4.964   3.470
 3707SOL    HW212021   1.835   4.846   3.508
 3708SOL     OW12022   3.782   6.697   0.851
 3708SOL    HW112023   3.873   6.679   0.890
 3708SOL    HW212024   3.758   6.623   0.788
 3709SOL     OW12025   1.905   0.572   2.585
 3709SOL    HW112026   1.879   0.666   2.562
 3709SOL    HW212027   2.001   0.569   2.612
 3710SOL     OW12028   0.009   5.323   5.554
 3710SOL    HW112029   0.058   5.333   5.640
 3710SOL    HW212030   0.075   5.304   5.481
 3711SOL     OW12031   1.528   5.847   4.743
 3711SOL    HW112032   1.565   5.891   4.825
 3711SOL    HW212033   1.548   5.905   4.664
 3712SOL     OW12034   1.922   5.098   4.953
 3712SOL    HW112035   1.982   5.097   4.873
 3712SOL    HW212036   1.891   5.191   4.971
 3713SOL     OW12037   6.194   6.532   4.871
 3713SOL    HW112038   6.157   6.441   4.890
 3713SOL    HW212039   6.118   6.595   4.855
 3714SOL     OW12040   0.912   4.741   0.191
 3714SOL    HW112041   1.005   4.773   0.211
 3714SOL    HW212042   0.902   4.731   0.092
 3715SOL     OW12043   6.456   5.775   3.636
 3715SOL    HW112044   6.394   5.826   3.575
 3715SOL    HW212045   6.467   5.682   3.601
 3716SOL     OW12046   5.124   5.805   3.617
 3716SOL    HW112047   5.107   5.842   3.709
 3716SOL    HW212048   5.193   5.861   3.571
 3717SOL     OW12049   4.291   1.192   1.375
 3717SOL    HW112050   4.272   1.251   1.453
 3717SOL    HW212051   4.385   1.159   1.381
 3718SOL     OW12052   0.044   6.569   6.019
 3718SOL    HW112053   0.098   6.649   5.991
 3718SOL    HW212054   0.102   6.505   6.069
 3719SOL     OW12055   4.687   3.755   5.795
 3719SOL    HW112056   4.675   3.737   5.893
 3719SOL    HW212057   4.784   3.772   5.777
 3720SOL     OW12058   6.950   3.006   1.600
 3720SOL    HW112059   6.882   2.985   1.670
 3720SOL    HW212060   7.015   2.930   1.594
 3721SOL     OW12061   6.436   4.737   6.533
 3721SOL    HW112062   6.435   4.641   6.564
 3721SOL    HW212063   6.509   4.786   6.579
 3722SOL     OW12064   4.084   0.097   2.692
 3722SOL    HW112065   4.098   7.020   2.687
 3722SOL    HW212066   4.104   0.129   2.784
 3723SOL     OW12067   4.728   4.729   6.752
 3723SOL    HW112068   4.823   4.761   6.751
 3723SOL    HW212069   4.726   4.630   6.767
 3724SOL     OW12070   1.539   4.605   5.522
 3724SOL    HW112071   1.632   4.573   5.534
 3724SOL    HW212072   1.512   4.660   5.602
 3725SOL     OW12073   0.597   6.731   6.642
 3725SOL    HW112074   0.690   6.750   6.674
 3725SOL    HW212075   0.601   6.666   6.566
 3726SOL     OW12076   5.553   3.543   3.667
 3726SOL    HW112077   5.635   3.487   3.654
 3726SOL    HW212078   5.478   3.506   3.612
 3727SOL     OW12079   0.115   3.285   4.299
 3727SOL    HW112080   0.148   3.307   4.207
 3727SOL    HW212081   0.180   3.224   4.344
 3728SOL     OW12082   3.100   3.499   6.960
 3728SOL    HW112083   3.108   3.553   6.876
 3728SOL    HW212084   3.121   3.403   6.940
 3729SOL     OW12085   0.736   6.992   5.597
 3729SOL    HW112086   0.741   0.060   5.556
 3729SOL    HW212087   0.829   6.957   5.612
 3730SOL     OW12088   3.683   5.607   5.473
 3730SOL    HW112089   3.771   5.647   5.447
 3730SOL    HW212090   3.688   5.574   5.567
 3731SOL     OW12091   0.757   2.331   6.314
 3731SOL    HW112092   0.681   2.266   6.316
 3731SOL    HW212093   0.734   2.411   6.368
 3732SOL     OW12094   2.886   2.136   0.001
 3732SOL    HW112095   2.868   2.039   0.020
 3732SOL    HW212096   2.910   2.183   0.086
 3733SOL     OW12097   1.662   1.868   3.715
 3733SOL    HW112098   1.687   1.853   3.619
 3733SOL    HW212099   1.708   1.800   3.772
 3734SOL     OW12100   4.002   7.018   1.331
 3734SOL    HW112101   3.986   0.038   1.242
 3734SOL    HW212102   4.038   0.064   1.394
 3735SOL     OW12103   4.188   6.888   2.603
 3735SOL    HW112104   4.260   6.956   2.595
 3735SOL    HW212105   4.117   6.907   2.535
 3736SOL     OW12106   0.042   1.182   1.168
 3736SOL    HW112107   0.023   1.191   1.266
 3736SOL    HW212108   0.082   1.092   1.150
 3737SOL     OW12109   0.327   2.230   3.354
 3737SOL    HW112110   0.374   2.149   3.318
 3737SOL    HW212111   0.294   2.211   3.446
 3738SOL     OW12112   6.704   6.585   0.716
 3738SOL    HW112113   6.643   6.509   0.694
 3738SOL    HW212114   6.742   6.571   0.808
 3739SOL     OW12115   2.793   5.167   0.952
 3739SOL    HW112116   2.892   5.178   0.961
 3739SOL    HW212117   2.760   5.107   1.026
 3740SOL     OW12118   5.710   5.422   6.583
 3740SOL    HW112119   5.742   5.338   6.539
 3740SOL    HW212120   5.713   5.412   6.682
 3741SOL     OW12121   5.209   3.102   0.336
 3741SOL    HW112122   5.273   3.093   0.259
 3741SOL    HW212123   5.116   3.084   0.303
 3742SOL     OW12124   3.308   5.962   6.831
 3742SOL    HW112125   3.401   5.981   6.862
 3742SOL    HW212126   3.263   5.901   6.896
 3743SOL     OW12127   4.252   3.639   1.305
 3743SOL    HW112128   4.236   3.706   1.377
 3743SOL    HW212129   4.346   3.605   1.311
 3744SOL     OW12130   0.206   6.561   2.237
 3744SOL    HW112131   0.133   6.592   2.176
 3744SOL    HW212132   0.272   6.506   2.186
 3745SOL     OW12133   4.809   4.039   2.276
 3745SOL    HW112134   4.793   4.065   2.181
 3745SOL    HW212135   4.860   3.952   2.279
 3746SOL     OW12136   6.426   0.707   4.204
 3746SOL    HW112137   6.519   0.728   4.174
 3746SOL    HW212138   6.423   0.614   4.241
 3747SOL     OW12139   4.171   6.651   6.056
 3747SOL    HW112140   4.157   6.556   6.083
 3747SOL    HW212141   4.265   6.679   6.078
 3748SOL     OW12142   5.277   1.570   2.690
 3748SOL    HW112143   5.213   1.612   2.755
 3748SOL    HW212144   5.228   1.541   2.608
 3749SOL     OW12145   0.195   6.213   3.246
 3749SOL    HW112146   0.178   6.311   3.237
 3749SOL    HW212147   0.142   6.164   3.177
 3750SOL     OW12148   6.046   4.185   0.055
 3750SOL    HW112149   6.020   4.131   6.998
 3750SOL    HW212150   6.065   4.279   0.027
 3751SOL     OW12151   1.892   3.316   1.716
 3751SOL    HW112152   1.912   3.276   1.626
 3751SOL    HW212153   1.876   3.414   1.707
 3752SOL     OW12154   0.850   6.775   6.746
 3752SOL    HW112155   0.924   6.711   6.725
 3752SOL    HW212156   0.844   6.789   6.845
 3753SOL     OW12157   0.120   6.000   4.231
 3753SOL    HW112158   0.057   5.999   4.153
 3753SOL    HW212159   0.215   6.005   4.197
 3754SOL     OW12160   6.222   6.239   1.324
 3754SOL    HW112161   6.310   6.279   1.350
 3754SOL    HW212162   6.218   6.145   1.356
 3755SOL     OW12163   4.957   3.943   3.771
 3755SOL    HW112164   5.037   3.970   3.825
 3755SOL    HW212165   4.933   3.848   3.793
 3756SOL     OW12166   2.384   1.948   6.723
 3756SOL    HW112167   2.324   1.875   6.756
 3756SOL    HW212168   2.370   2.030   6.779
 3757SOL     OW12169   3.103   5.710   6.621
 3757SOL    HW112170   3.097   5.766   6.539
 3757SOL    HW212171   3.103   5.613   6.596
 3758SOL     OW12172   2.167   1.105   3.955
 3758SOL    HW112173   2.208   1.066   4.037
 3758SOL    HW212174   2.132   1.032   3.897
 3759SOL     OW12175   5.176   4.468   5.452
 3759SOL    HW112176   5.213   4.458   5.544
 3759SOL    HW212177   5.076   4.460   5.455
 3760SOL     OW12178   1.736   2.371   4.665
 3760SOL    HW112179   1.689   2.459   4.666
 3760SOL    HW212180   1.829   2.383   4.629
 3761SOL     OW12181   0.741   6.532   4.746
 3761SOL    HW112182   0.748   6.577   4.836
 3761SOL    HW212183   0.826   6.546   4.696
 3762SOL     OW12184   0.767   4.207   0.345
 3762SOL    HW112185   0.756   4.305   0.329
 3762SOL    HW212186   0.861   4.187   0.372
 3763SOL     OW12187   6.404   2.974   6.450
 3763SOL    HW112188   6.431   3.068   6.428
 3763SOL    HW212189   6.478   2.929   6.500
 3764SOL     OW12190   2.501   6.961   3.937
 3764SOL    HW112191   2.546   0.010   3.883
 3764SOL    HW212192   2.425   7.001   3.988
 3765SOL     OW12193   5.869   0.857   3.029
 3765SOL    HW112194   5.800   0.913   2.984
 3765SOL    HW212195   5.860   0.762   2.999
 3766SOL     OW12196   0.199   0.869   4.340
 3766SOL    HW112197   0.247   0.830   4.262
 3766SOL    HW212198   0.138   0.942   4.309
 3767SOL     OW12199   1.452   5.240   6.990
 3767SOL    HW112200   1.388   5.180   0.016
 3767SOL    HW212201   1.424   5.335   7.002
 3768SOL     OW12202   4.977   6.539   0.315
 3768SOL    HW112203   4.944   6.632   0.297
 3768SOL    HW212204   5.007   6.497   0.229
 3769SOL     OW12205   5.034   6.500   5.284
 3769SOL    HW112206   5.037   6.426   5.352
 3769SOL    HW212207   5.030   6.588   5.331
 3770SOL     OW12208   1.975   1.268   6.519
 3770SOL    HW112209   1.936   1.209   6.590
 3770SOL    HW212210   2.073   1.249   6.511
 3771SOL     OW12211   5.487   1.963   6.535
 3771SOL    HW112212   5.533   1.924   6.455
 3771SOL    HW212213   5.436   1.891   6.582
 3772SOL     OW12214   5.613   0.965   1.478
 3772SOL    HW112215   5.680   0.906   1.433
 3772SOL    HW212216   5.535   0.911   1.510
 3773SOL     OW12217   6.345   2.578   6.282
 3773SOL    HW112218   6.285   2.577   6.202
 3773SOL    HW212219   6.418   2.644   6.268
 3774SOL     OW12220   0.346   0.787   7.017
 3774SOL    HW112221   0.334   0.746   6.927
 3774SOL    HW212222   0.279   0.860   0.007
 3775SOL     OW12223   5.857   3.614   3.511
 3775SOL    HW112224   5.908   3.642   3.430
 3775SOL    HW212225   5.765   3.584   3.484
 3776SOL     OW12226   2.194   2.646   1.488
 3776SOL    HW112227   2.196   2.594   1.573
 3776SOL    HW212228   2.282   2.640   1.442
 3777SOL     OW12229   2.774   5.172   3.960
 3777SOL    HW112230   2.799   5.134   4.049
 3777SOL    HW212231   2.720   5.105   3.909
 3778SOL     OW12232   2.857   5.547   1.277
 3778SOL    HW112233   2.956   5.553   1.287
 3778SOL    HW212234   2.824   5.462   1.319
 3779SOL     OW12235   2.522   4.624   6.537
 3779SOL    HW112236   2.429   4.626   6.502
 3779SOL    HW212237   2.548   4.530   6.559
 3780SOL     OW12238   3.126   6.226   4.996
 3780SOL    HW112239   3.164   6.147   5.045
 3780SOL    HW212240   3.200   6.274   4.949
 3781SOL     OW12241   3.357   6.219   4.614
 3781SOL    HW112242   3.420   6.230   4.538
 3781SOL    HW212243   3.322   6.126   4.616
 3782SOL     OW12244   2.223   1.631   4.149
 3782SOL    HW112245   2.296   1.649   4.214
 3782SOL    HW212246   2.140   1.680   4.178
 3783SOL     OW12247   5.358   6.569   5.002
 3783SOL    HW112248   5.282   6.634   5.015
 3783SOL    HW212249   5.348   6.493   5.066
 3784SOL     OW12250   5.645   1.098   3.017
 3784SOL    HW112251   5.584   1.177   3.011
 3784SOL    HW212252   5.645   1.063   3.111
 3785SOL     OW12253   2.628   1.979   1.162
 3785SOL    HW112254   2.550   2.038   1.183
 3785SOL    HW212255   2.712   2.033   1.163
 3786SOL     OW12256   3.106   5.161   2.749
 3786SOL    HW112257   3.097   5.227   2.824
 3786SOL    HW212258   3.143   5.207   2.668
 3787SOL     OW12259   4.332   1.180   3.641
 3787SOL    HW112260   4.305   1.206   3.734
 3787SOL    HW212261   4.424   1.216   3.623
 3788SOL     OW12262   5.929   2.945   2.880
 3788SOL    HW112263   5.903   2.956   2.785
 3788SOL    HW212264   5.950   2.848   2.898
 3789SOL     OW12265   1.699   4.713   4.033
 3789SOL    HW112266   1.761   4.748   3.964
 3789SOL    HW212267   1.700   4.613   4.032
 3790SOL     OW12268   1.875   3.344   4.027
 3790SOL    HW112269   1.779   3.362   4.007
 3790SOL    HW212270   1.913   3.285   3.956
 3791SOL     OW12271   5.026   6.662   1.695
 3791SOL    HW112272   5.019   6.727   1.771
 3791SOL    HW212273   5.064   6.576   1.729
 3792SOL     OW12274   5.982   6.710   5.227
 3792SOL    HW112275   6.029   6.772   5.289
 3792SOL    HW212276   5.982   6.618   5.266
 3793SOL     OW12277   2.076   1.626   2.694
 3793SOL    HW112278   2.103   1.706   2.640
 3793SOL    HW212279   2.099   1.641   2.790
 3794SOL     OW12280   4.307   6.335   2.043
 3794SOL    HW112281   4.380   6.391   2.004
 3794SOL    HW212282   4.247   6.303   1.969
 3795SOL     OW12283   5.311   0.564   6.425
 3795SOL    HW112284   5.307   0.466   6.406
 3795SOL    HW212285   5.406   0.590   6.445
 3796SOL     OW12286   1.266   2.105   1.595
 3796SOL    HW112287   1.185   2.063   1.637
 3796SOL    HW212288   1.243   2.133   1.502
 3797SOL     OW12289   1.348   4.948   2.704
 3797SOL    HW112290   1.249   4.948   2.690
 3797SOL    HW212291   1.392   4.890   2.635
 3798SOL     OW12292   2.286   4.993   2.569
 3798SOL    HW112293   2.382   5.019   2.556
 3798SOL    HW212294   2.227   5.053   2.515
 3799SOL     OW12295   1.801   1.317   5.582
 3799SOL    HW112296   1.818   1.293   5.487
 3799SOL    HW212297   1.888   1.332   5.629
 3800SOL     OW12298   4.969   2.443   4.757
 3800SOL    HW112299   4.996   2.539   4.768
 3800SOL    HW212300   4.869   2.437   4.753
 3801SOL     OW12301   6.519   5.791   6.041
 3801SOL    HW112302   6.587   5.861   6.062
 3801SOL    HW212303   6.526   5.766   5.944
 3802SOL     OW12304   0.911   2.280   4.984
 3802SOL    HW112305   0.936   2.250   4.892
 3802SOL    HW212306   0.827   2.334   4.979
 3803SOL     OW12307   3.753   6.947   1.452
 3803SOL    HW112308   3.767   6.864   1.505
 3803SOL    HW212309   3.841   6.991   1.434
 3804SOL     OW12310   4.459   1.985   4.458
 3804SOL    HW112311   4.367   2.006   4.424
 3804SOL    HW212312   4.463   2.004   4.556
 3805SOL     OW12313   2.968   4.206   1.731
 3805SOL    HW112314   2.931   4.289   1.772
 3805SOL    HW212315   2.897   4.159   1.679
 3806SOL     OW12316   2.708   2.374   0.291
 3806SOL    HW112317   2.698   2.474   0.288
 3806SOL    HW212318   2.670   2.340   0.377
 3807SOL     OW12319   0.888   0.072   4.033
 3807SOL    HW112320   0.944   0.154   4.038
 3807SOL    HW212321   0.934   7.019   4.080
 3808SOL     OW12322   3.566   0.036   1.856
 3808SOL    HW112323   3.496   0.009   1.921
 3808SOL    HW212324   3.644   0.076   1.905
 3809SOL     OW12325   5.831   1.492   0.054
 3809SOL    HW112326   5.879   1.442   0.126
 3809SOL    HW212327   5.755   1.543   0.095
 3810SOL     OW12328   3.251   3.152   5.326
 3810SOL    HW112329   3.163   3.167   5.280
 3810SOL    HW212330   3.273   3.231   5.383
 3811SOL     OW12331   0.912   4.794   5.001
 3811SOL    HW112332   0.982   4.727   5.026
 3811SOL    HW212333   0.913   4.808   4.902
 3812SOL     OW12334   6.087   1.458   5.558
 3812SOL    HW112335   6.044   1.381   5.605
 3812SOL    HW212336   6.182   1.466   5.588
 3813SOL     OW12337   2.943   5.605   0.139
 3813SOL    HW112338   3.016   5.559   0.087
 3813SOL    HW212339   2.896   5.539   0.196
 3814SOL     OW12340   6.914   5.943   2.109
 3814SOL    HW112341   6.984   5.904   2.049
 3814SOL    HW212342   6.831   5.887   2.104
 3815SOL     OW12343   5.539   1.985   1.641
 3815SOL    HW112344   5.500   1.907   1.591
 3815SOL    HW212345   5.465   2.048   1.667
 3816SOL     OW12346   0.222   6.830   1.876
 3816SOL    HW112347   0.123   6.823   1.880
 3816SOL    HW212348   0.248   6.917   1.835
 3817SOL     OW12349   4.560   1.710   4.692
 3817SOL    HW112350   4.558   1.808   4.677
 3817SOL    HW212351   4.653   1.675   4.677
 3818SOL     OW12352   4.573   6.486   2.686
 3818SOL    HW112353   4.667   6.517   2.695
 3818SOL    HW212354   4.514   6.538   2.748
 3819SOL     OW12355   5.236   5.135   0.273
 3819SOL    HW112356   5.232   5.040   0.305
 3819SOL    HW212357   5.179   5.193   0.332
 3820SOL     OW12358   4.850   5.700   3.904
 3820SOL    HW112359   4.782   5.756   3.858
 3820SOL    HW212360   4.934   5.754   3.917
 3821SOL     OW12361   1.419   3.650   1.604
 3821SOL    HW112362   1.344   3.585   1.592
 3821SOL    HW212363   1.404   3.729   1.545
 3822SOL     OW12364   2.406   5.042   1.102
 3822SOL    HW112365   2.344   5.004   1.034
 3822SOL    HW212366   2.445   5.128   1.068
 3823SOL     OW12367   3.529   2.673   5.768
 3823SOL    HW112368   3.615   2.723   5.765
 3823SOL    HW212369   3.501   2.648   5.675
 3824SOL     OW12370   6.161   1.892   5.693
 3824SOL    HW112371   6.118   1.922   5.778
 3824SOL    HW212372   6.198   1.800   5.705
 3825SOL     OW12373   0.548   6.261   6.058
 3825SOL    HW112374   0.520   6.261   6.154
 3825SOL    HW212375   0.500   6.189   6.009
 3826SOL     OW12376   6.460   3.352   1.716
 3826SOL    HW112377   6.533   3.284   1.721
 3826SOL    HW212378   6.496   3.441   1.744
 3827SOL     OW12379   4.076   3.129   0.522
 3827SOL    HW112380   4.010   3.068   0.479
 3827SOL    HW212381   4.112   3.086   0.605
 3828SOL     OW12382   5.178   2.194   2.152
 3828SOL    HW112383   5.258   2.219   2.207
 3828SOL    HW212384   5.096   2.193   2.210
 3829SOL     OW12385   2.373   5.659   3.468
 3829SOL    HW112386   2.406   5.571   3.432
 3829SOL    HW212387   2.397   5.666   3.565
 3830SOL     OW12388   2.666   0.533   4.810
 3830SOL    HW112389   2.621   0.460   4.759
 3830SOL    HW212390   2.647   0.522   4.907
 3831SOL     OW12391   4.090   1.805   2.861
 3831SOL    HW112392   4.055   1.809   2.767
 3831SOL    HW212393   4.181   1.764   2.861
 3832SOL     OW12394   6.340   0.730   1.740
 3832SOL    HW112395   6.425   0.751   1.790
 3832SOL    HW212396   6.318   0.634   1.752
 3833SOL     OW12397   0.719   5.056   7.010
 3833SOL    HW112398   0.668   5.077   0.071
 3833SOL    HW212399   0.816   5.050   0.009
 3834SOL     OW12400   3.196   1.632   0.614
 3834SOL    HW112401   3.251   1.602   0.536
 3834SOL    HW212402   3.207   1.567   0.689
 3835SOL     OW12403   3.707   5.501   5.732
 3835SOL    HW112404   3.772   5.429   5.705
 3835SOL    HW212405   3.702   5.506   5.832
 3836SOL     OW12406   1.356   3.512   6.298
 3836SOL    HW112407   1.441   3.523   6.247
 3836SOL    HW212408   1.288   3.577   6.265
 3837SOL     OW12409   3.741   3.654   0.362
 3837SOL    HW112410   3.818   3.713   0.340
 3837SOL    HW212411   3.771   3.559   0.368
 3838SOL     OW12412   6.110   2.336   4.504
 3838SOL    HW112413   6.132   2.404   4.574
 3838SOL    HW212414   6.194   2.294   4.470
 3839SOL     OW12415   5.802   6.027   5.748
 3839SOL    HW112416   5.714   6.047   5.790
 3839SOL    HW212417   5.872   6.086   5.787
 3840SOL     OW12418   1.836   1.389   3.817
 3840SOL    HW112419   1.768   1.351   3.753
 3840SOL    HW212420   1.861   1.318   3.884
 3841SOL     OW12421   0.600   3.607   5.297
 3841SOL    HW112422   0.645   3.518   5.308
 3841SOL    HW212423   0.668   3.680   5.308
 3842SOL     OW12424   0.992   4.882   6.779
 3842SOL    HW112425   1.053   4.955   6.811
 3842SOL    HW212426   0.926   4.920   6.714
 3843SOL     OW12427   5.856   3.354   0.579
 3843SOL    HW112428   5.791   3.410   0.630
 3843SOL    HW212429   5.892   3.283   0.638
 3844SOL     OW12430   2.067   5.058   6.371
 3844SOL    HW112431   2.112   5.114   6.302
 3844SOL    HW212432   1.970   5.082   6.376
 3845SOL     OW12433   3.501   4.046   3.217
 3845SOL    HW112434   3.466   4.083   3.131
 3845SOL    HW212435   3.457   3.959   3.237
 3846SOL     OW12436   0.548   5.059   4.453
 3846SOL    HW112437   0.631   5.068   4.509
 3846SOL    HW212438   0.469   5.090   4.506
 3847SOL     OW12439   0.438   0.204   6.049
 3847SOL    HW112440   0.403   0.293   6.079
 3847SOL    HW212441   0.532   0.192   6.080
 3848SOL     OW12442   2.264   4.388   1.305
 3848SOL    HW112443   2.336   4.333   1.347
 3848SOL    HW212444   2.236   4.460   1.368
 3849SOL     OW12445   1.323   1.841   5.521
 3849SOL    HW112446   1.260   1.788   5.465
 3849SOL    HW212447   1.415   1.805   5.511
 3850SOL     OW12448   3.406   4.131   1.909
 3850SOL    HW112449   3.348   4.169   1.837
 3850SOL    HW212450   3.500   4.163   1.897
 3851SOL     OW12451   2.242   3.027   2.684
 3851SOL    HW112452   2.194   2.949   2.724
 3851SOL    HW212453   2.265   3.093   2.755
 3852SOL     OW12454   4.223   0.936   4.711
 3852SOL    HW112455   4.201   0.991   4.791
 3852SOL    HW212456   4.275   0.855   4.739
 3853SOL     OW12457   1.069   3.538   1.953
 3853SOL    HW112458   1.101   3.482   1.877
 3853SOL    HW212459   1.141   3.602   1.981
 3854SOL     OW12460   1.081   3.594   4.290
 3854SOL    HW112461   1.022   3.625   4.216
 3854SOL    HW212462   1.163   3.551   4.251
 3855SOL     OW12463   6.232   3.341   5.603
 3855SOL    HW112464   6.223   3.355   5.702
 3855SOL    HW212465   6.232   3.429   5.556
 3856SOL     OW12466   0.347   6.077   5.891
 3856SOL    HW112467   0.286   6.004   5.922
 3856SOL    HW212468   0.373   6.060   5.796
 3857SOL     OW12469   0.980   6.566   4.640
 3857SOL    HW112470   0.976   6.651   4.587
 3857SOL    HW212471   1.019   6.493   4.584
 3858SOL     OW12472   2.439   6.039   6.516
 3858SOL    HW112473   2.469   5.945   6.502
 3858SOL    HW212474   2.506   6.087   6.573
 3859SOL     OW12475   0.410   3.159   2.316
 3859SOL    HW112476   0.436   3.072   2.357
 3859SOL    HW212477   0.491   3.217   2.308
 3860SOL     OW12478   2.649   6.936   5.762
 3860SOL    HW112479   2.597   6.859   5.726
 3860SOL    HW212480   2.705   6.976   5.689
 3861SOL     OW12481   4.726   4.556   0.832
 3861SOL    HW112482   4.639   4.507   0.845
 3861SOL    HW212483   4.738   4.578   0.735
 3862SOL     OW12484   1.148   5.850   5.949
 3862SOL    HW112485   1.095   5.874   5.868
 3862SOL    HW212486   1.151   5.750   5.959
 3863SOL     OW12487   3.241   3.808   1.612
 3863SOL    HW112488   3.278   3.804   1.705
 3863SOL    HW212489   3.144   3.784   1.614
 3864SOL     OW12490   2.865   1.880   0.131
 3864SOL    HW112491   2.943   1.829   0.167
 3864SOL    HW212492   2.829   1.833   0.051
 3865SOL     OW12493   4.582   0.358   2.414
 3865SOL    HW112494   4.551   0.294   2.344
 3865SOL    HW212495   4.555   0.451   2.389
 3866SOL     OW12496   3.756   6.905   6.874
 3866SOL    HW112497   3.798   6.996   6.880
 3866SOL    HW212498   3.719   6.891   6.782
 3867SOL     OW12499   2.061   3.253   3.116
 3867SOL    HW112500   2.003   3.288   3.190
 3867SOL    HW212501   2.090   3.328   3.057
 3868SOL     OW12502   2.046   6.084   3.099
 3868SOL    HW112503   2.062   6.160   3.036
 3868SOL    HW212504   2.132   6.059   3.143
 3869SOL     OW12505   1.023   3.155   3.213
 3869SOL    HW112506   1.072   3.100   3.145
 3869SOL    HW212507   1.046   3.251   3.200
 3870SOL     OW12508   2.552   4.773   0.039
 3870SOL    HW112509   2.580   4.688   7.017
 3870SOL    HW212510   2.561   4.848   6.996
 3871SOL     OW12511   2.446   0.279   3.331
 3871SOL    HW112512   2.396   0.215   3.272
 3871SOL    HW212513   2.537   0.294   3.294
 3872SOL     OW12514   3.784   4.072   0.638
 3872SOL    HW112515   3.727   4.008   0.586
 3872SOL    HW212516   3.860   4.022   0.679
 3873SOL     OW12517   5.229   4.779   2.437
 3873SOL    HW112518   5.294   4.757   2.364
 3873SOL    HW212519   5.222   4.701   2.500
 3874SOL     OW12520   4.496   0.802   6.170
 3874SOL    HW112521   4.470   0.706   6.162
 3874SOL    HW212522   4.591   0.809   6.198
 3875SOL     OW12523   1.491   5.211   1.016
 3875SOL    HW112524   1.424   5.168   0.956
 3875SOL    HW212525   1.583   5.185   0.987
 3876SOL     OW12526   5.147   3.715   3.270
 3876SOL    HW112527   5.077   3.657   3.229
 3876SOL    HW212528   5.224   3.658   3.301
 3877SOL     OW12529   6.013   1.024   2.180
 3877SOL    HW112530   5.950   0.975   2.240
 3877SOL    HW212531   6.102   0.979   2.179
 3878SOL     OW12532   3.249   6.410   5.953
 3878SOL    HW112533   3.151   6.405   5.937
 3878SOL    HW212534   3.283   6.500   5.928
 3879SOL     OW12535   3.906   6.000   1.529
 3879SOL    HW112536   3.877   6.010   1.434
 3879SOL    HW212537   3.881   6.083   1.580
 3880SOL     OW12538   5.239   3.224   4.111
 3880SOL    HW112539   5.262   3.253   4.204
 3880SOL    HW212540   5.203   3.131   4.113
 3881SOL     OW12541   1.959   3.335   0.404
 3881SOL    HW112542   1.940   3.237   0.399
 3881SOL    HW212543   1.888   3.385   0.354
 3882SOL     OW12544   0.440   0.401   5.780
 3882SOL    HW112545   0.424   0.306   5.806
 3882SOL    HW212546   0.354   0.452   5.783
 3883SOL     OW12547   3.706   0.557   5.986
 3883SOL    HW112548   3.765   0.481   5.960
 3883SOL    HW212549   3.617   0.548   5.941
 3884SOL     OW12550   1.650   4.675   6.211
 3884SOL    HW112551   1.665   4.771   6.187
 3884SOL    HW212552   1.594   4.632   6.141
 3885SOL     OW12553   6.425   1.148   4.154
 3885SOL    HW112554   6.361   1.090   4.103
 3885SOL    HW212555   6.385   1.238   4.168
 3886SOL     OW12556   7.019   6.140   5.722
 3886SOL    HW112557   0.048   6.216   5.761
 3886SOL    HW212558   0.056   6.088   5.660
 3887SOL     OW12559   4.516   2.402   5.959
 3887SOL    HW112560   4.455   2.458   6.016
 3887SOL    HW212561   4.534   2.450   5.873
 3888SOL     OW12562   6.404   2.151   0.634
 3888SOL    HW112563   6.435   2.174   0.727
 3888SOL    HW212564   6.416   2.231   0.575
 3889SOL     OW12565   0.747   6.030   6.341
 3889SOL    HW112566   0.847   6.032   6.336
 3889SOL    HW212567   0.713   5.950   6.291
 3890SOL     OW12568   5.733   4.025   2.681
 3890SOL    HW112569   5.694   3.941   2.718
 3890SOL    HW212570   5.668   4.100   2.691
 3891SOL     OW12571   5.357   4.717   5.752
 3891SOL    HW112572   5.365   4.801   5.699
 3891SOL    HW212573   5.329   4.642   5.692
 3892SOL     OW12574   5.068   6.380   3.155
 3892SOL    HW112575   5.072   6.480   3.154
 3892SOL    HW212576   4.978   6.350   3.124
 3893SOL     OW12577   2.917   6.127   3.978
 3893SOL    HW112578   2.857   6.135   3.898
 3893SOL    HW212579   2.867   6.083   4.052
 3894SOL     OW12580   5.310   4.117   0.107
 3894SOL    HW112581   5.404   4.125   0.072
 3894SOL    HW212582   5.312   4.075   0.197
 3895SOL     OW12583   2.499   2.021   5.718
 3895SOL    HW112584   2.419   2.035   5.777
 3895SOL    HW212585   2.582   2.034   5.771
 3896SOL     OW12586   6.640   2.473   5.710
 3896SOL    HW112587   6.722   2.527   5.689
 3896SOL    HW212588   6.593   2.515   5.789
 3897SOL     OW12589   3.434   6.530   2.238
 3897SOL    HW112590   3.522   6.484   2.249
 3897SOL    HW212591   3.424   6.601   2.308
 3898SOL     OW12592   3.834   4.058   3.995
 3898SOL    HW112593   3.859   4.153   3.978
 3898SOL    HW212594   3.860   4.033   4.089
 3899SOL     OW12595   4.679   1.665   5.013
 3899SOL    HW112596   4.681   1.665   4.913
 3899SOL    HW212597   4.739   1.737   5.048
 3900SOL     OW12598   6.752   2.572   3.646
 3900SOL    HW112599   6.761   2.605   3.552
 3900SOL    HW212600   6.802   2.486   3.656
 3901SOL     OW12601   2.204   6.006   5.027
 3901SOL    HW112602   2.237   5.912   5.014
 3901SOL    HW212603   2.268   6.057   5.084
 3902SOL     OW12604   4.441   5.136   1.188
 3902SOL    HW112605   4.497   5.078   1.248
 3902SOL    HW212606   4.400   5.080   1.117
 3903SOL     OW12607   3.869   3.062   6.067
 3903SOL    HW112608   3.813   3.129   6.116
 3903SOL    HW212609   3.948   3.108   6.026
 3904SOL     OW12610   2.327   6.201   1.065
 3904SOL    HW112611   2.270   6.191   1.147
 3904SOL    HW212612   2.419   6.231   1.091
 3905SOL     OW12613   0.286   0.411   5.221
 3905SOL    HW112614   0.380   0.417   5.188
 3905SOL    HW212615   0.222   0.429   5.146
 3906SOL     OW12616   0.166   5.714   4.931
 3906SOL    HW112617   0.073   5.749   4.921
 3906SOL    HW212618   0.218   5.732   4.847
 3907SOL     OW12619   0.817   0.766   4.658
 3907SOL    HW112620   0.908   0.803   4.674
 3907SOL    HW212621   0.763   0.831   4.605
 3908SOL     OW12622   1.574   0.189   4.480
 3908SOL    HW112623   1.588   0.203   4.382
 3908SOL    HW212624   1.557   0.277   4.524
 3909SOL     OW12625   5.974   2.163   0.319
 3909SOL    HW112626   5.991   2.122   0.229
 3909SOL    HW212627   5.978   2.262   0.312
 3910SOL     OW12628   3.661   2.764   0.723
 3910SOL    HW112629   3.655   2.772   0.624
 3910SOL    HW212630   3.757   2.770   0.751
 3911SOL     OW12631   0.055   0.996   0.887
 3911SOL    HW112632   0.153   1.014   0.879
 3911SOL    HW212633   0.019   1.040   0.970
 3912SOL     OW12634   3.871   2.491   0.103
 3912SOL    HW112635   3.803   2.520   0.036
 3912SOL    HW212636   3.875   2.391   0.106
 3913SOL     OW12637   4.885   5.586   1.580
 3913SOL    HW112638   4.864   5.579   1.483
 3913SOL    HW212639   4.839   5.513   1.630
 3914SOL     OW12640   6.973   1.133   0.464
 3914SOL    HW112641   6.882   1.155   0.499
 3914SOL    HW212642   0.020   1.177   0.521
 3915SOL     OW12643   4.555   5.707   5.737
 3915SOL    HW112644   4.589   5.613   5.741
 3915SOL    HW212645   4.633   5.771   5.737
 3916SOL     OW12646   2.498   1.887   2.727
 3916SOL    HW112647   2.414   1.934   2.699
 3916SOL    HW212648   2.573   1.915   2.668
 3917SOL     OW12649   3.631   4.429   1.453
 3917SOL    HW112650   3.573   4.352   1.427
 3917SOL    HW212651   3.702   4.441   1.384
 3918SOL     OW12652   5.413   1.186   0.510
 3918SOL    HW112653   5.460   1.131   0.578
 3918SOL    HW212654   5.315   1.165   0.510
 3919SOL     OW12655   3.975   6.610   2.342
 3919SOL    HW112656   3.940   6.648   2.428
 3919SOL    HW212657   4.065   6.648   2.323
 3920SOL     OW12658   2.966   1.587   5.585
 3920SOL    HW112659   2.892   1.594   5.518
 3920SOL    HW212660   2.942   1.641   5.666
 3921SOL     OW12661   6.943   3.190   6.285
 3921SOL    HW112662   6.964   3.099   6.321
 3921SOL    HW212663   6.910   3.248   6.359
 3922SOL     OW12664   4.672   4.292   3.136
 3922SOL    HW112665   4.612   4.304   3.215
 3922SOL    HW212666   4.716   4.203   3.142
 3923SOL     OW12667   5.332   1.084   1.350
 3923SOL    HW112668   5.384   1.021   1.407
 3923SOL    HW212669   5.369   1.085   1.258
 3924SOL     OW12670   5.776   5.427   4.189
 3924SOL    HW112671   5.768   5.526   4.199
 3924SOL    HW212672   5.833   5.391   4.263
 3925SOL     OW12673   5.183   3.843   1.030
 3925SOL    HW112674   5.273   3.852   1.071
 3925SOL    HW212675   5.138   3.932   1.028
 3926SOL     OW12676   0.408   5.544   5.885
 3926SOL    HW112677   0.432   5.639   5.868
 3926SOL    HW212678   0.309   5.533   5.883
 3927SOL     OW12679   5.557   2.064   5.940
 3927SOL    HW112680   5.560   2.005   5.859
 3927SOL    HW212681   5.597   2.153   5.918
 3928SOL     OW12682   3.445   5.976   2.052
 3928SOL    HW112683   3.468   6.073   2.052
 3928SOL    HW212684   3.507   5.927   1.990
 3929SOL     OW12685   0.464   2.411   5.058
 3929SOL    HW112686   0.393   2.399   5.127
 3929SOL    HW212687   0.498   2.321   5.029
 3930SOL     OW12688   1.866   4.456   4.133
 3930SOL    HW112689   1.920   4.382   4.172
 3930SOL    HW212690   1.926   4.515   4.078
 3931SOL     OW12691   2.087   2.286   1.463
 3931SOL    HW112692   2.036   2.369   1.440
 3931SOL    HW212693   2.105   2.284   1.562
 3932SOL     OW12694   2.388   4.794   3.890
 3932SOL    HW112695   2.356   4.845   3.810
 3932SOL    HW212696   2.312   4.775   3.951
 3933SOL     OW12697   2.009   5.876   1.386
 3933SOL    HW112698   1.977   5.968   1.408
 3933SOL    HW212699   1.934   5.823   1.348
 3934SOL     OW12700   0.247   0.802   1.710
 3934SOL    HW112701   0.208   0.736   1.774
 3934SOL    HW212702   0.276   0.755   1.626
 3935SOL     OW12703   6.293   3.725   6.235
 3935SOL    HW112704   6.320   3.764   6.147
 3935SOL    HW212705   6.328   3.782   6.309
 3936SOL     OW12706   6.702   4.417   5.744
 3936SOL    HW112707   6.693   4.323   5.709
 3936SOL    HW212708   6.624   4.439   5.802
 3937SOL     OW12709   0.268   5.912   1.561
 3937SOL    HW112710   0.276   5.967   1.644
 3937SOL    HW212711   0.258   5.973   1.481
 3938SOL     OW12712   1.230   3.213   2.008
 3938SOL    HW112713   1.207   3.130   2.059
 3938SOL    HW212714   1.161   3.228   1.937
 3939SOL     OW12715   0.916   1.223   2.992
 3939SOL    HW112716   1.009   1.252   2.971
 3939SOL    HW212717   0.905   1.126   2.968
 3940SOL     OW12718   3.408   5.897   0.852
 3940SOL    HW112719   3.430   5.987   0.888
 3940SOL    HW212720   3.332   5.858   0.905
 3941SOL     OW12721   5.529   6.189   2.593
 3941SOL    HW112722   5.430   6.174   2.600
 3941SOL    HW212723   5.571   6.113   2.544
 3942SOL     OW12724   0.101   5.954   5.307
 3942SOL    HW112725   0.002   5.961   5.314
 3942SOL    HW212726   0.142   6.043   5.325
 3943SOL     OW12727   1.471   2.833   0.183
 3943SOL    HW112728   1.554   2.814   0.130
 3943SOL    HW212729   1.418   2.904   0.136
 3944SOL     OW12730   5.448   3.169   6.879
 3944SOL    HW112731   5.466   3.264   6.854
 3944SOL    HW212732   5.393   3.126   6.806
 3945SOL     OW12733   5.810   0.685   3.254
 3945SOL    HW112734   5.712   0.691   3.271
 3945SOL    HW212735   5.846   0.776   3.234
 3946SOL     OW12736   0.729   2.924   0.356
 3946SOL    HW112737   0.789   3.003   0.340
 3946SOL    HW212738   0.646   2.934   0.301
 3947SOL     OW12739   5.907   5.447   1.846
 3947SOL    HW112740   5.984   5.510   1.855
 3947SOL    HW212741   5.873   5.450   1.752
 3948SOL     OW12742   1.478   2.828   5.944
 3948SOL    HW112743   1.501   2.810   5.848
 3948SOL    HW212744   1.415   2.905   5.949
 3949SOL     OW12745   6.181   0.106   1.590
 3949SOL    HW112746   6.160   0.203   1.579
 3949SOL    HW212747   6.097   0.055   1.607
 3950SOL     OW12748   3.102   4.587   1.632
 3950SOL    HW112749   3.175   4.642   1.673
 3950SOL    HW212750   3.036   4.561   1.703
 3951SOL     OW12751   0.916   2.466   4.400
 3951SOL    HW112752   0.829   2.477   4.448
 3951SOL    HW212753   0.965   2.387   4.438
 3952SOL     OW12754   5.696   3.911   0.183
 3952SOL    HW112755   5.775   3.879   0.132
 3952SOL    HW212756   5.726   3.974   0.254
 3953SOL     OW12757   3.206   3.699   6.795
 3953SOL    HW112758   3.303   3.696   6.771
 3953SOL    HW212759   3.175   3.794   6.797
 3954SOL     OW12760   0.334   2.621   5.770
 3954SOL    HW112761   0.304   2.638   5.676
 3954SOL    HW212762   0.432   2.639   5.777
 3955SOL     OW12763   0.537   3.819   0.458
 3955SOL    HW112764   0.533   3.892   0.390
 3955SOL    HW212765   0.446   3.804   0.496
 3956SOL     OW12766   6.887   2.999   5.800
 3956SOL    HW112767   6.876   3.098   5.806
 3956SOL    HW212768   6.855   2.957   5.885
 3957SOL     OW12769   0.811   1.679   3.306
 3957SOL    HW112770   0.714   1.703   3.305
 3957SOL    HW212771   0.854   1.709   3.220
 3958SOL     OW12772   5.530   6.263   6.994
 3958SOL    HW112773   5.587   6.324   0.026
 3958SOL    HW212774   5.439   6.302   6.983
 3959SOL     OW12775   2.776   5.485   0.388
 3959SOL    HW112776   2.715   5.415   0.351
 3959SOL    HW212777   2.728   5.536   0.460
 3960SOL     OW12778   5.008   3.292   1.024
 3960SOL    HW112779   5.029   3.390   1.029
 3960SOL    HW212780   5.090   3.241   0.999
 3961SOL     OW12781   5.409   0.662   1.920
 3961SOL    HW112782   5.382   0.602   1.995
 3961SOL    HW212783   5.344   0.738   1.912
 3962SOL     OW12784   0.830   6.625   5.660
 3962SOL    HW112785   0.735   6.640   5.690
 3962SOL    HW212786   0.861   6.536   5.693
 3963SOL     OW12787   4.487   5.852   3.516
 3963SOL    HW112788   4.517   5.937   3.473
 3963SOL    HW212789   4.388   5.842   3.506
 3964SOL     OW12790   5.730   6.306   6.058
 3964SOL    HW112791   5.696   6.214   6.040
 3964SOL    HW212792   5.654   6.364   6.088
 3965SOL     OW12793   4.142   2.925   0.017
 3965SOL    HW112794   4.141   2.953   0.113
 3965SOL    HW212795   4.070   2.974   6.990
 3966SOL     OW12796   6.188   3.588   5.249
 3966SOL    HW112797   6.260   3.580   5.318
 3966SOL    HW212798   6.101   3.559   5.289
 3967SOL     OW12799   1.784   6.119   6.829
 3967SOL    HW112800   1.716   6.064   6.877
 3967SOL    HW212801   1.831   6.063   6.761
 3968SOL     OW12802   5.784   0.329   1.622
 3968SOL    HW112803   5.711   0.371   1.678
 3968SOL    HW212804   5.746   0.252   1.571
 3969SOL     OW12805   0.363   6.102   1.746
 3969SOL    HW112806   0.447   6.071   1.791
 3969SOL    HW212807   0.385   6.178   1.685
 3970SOL     OW12808   5.062   4.585   3.902
 3970SOL    HW112809   4.970   4.604   3.935
 3970SOL    HW212810   5.105   4.669   3.869
 3971SOL     OW12811   1.648   5.996   3.974
 3971SOL    HW112812   1.668   5.956   4.063
 3971SOL    HW212813   1.681   6.090   3.972
 3972SOL     OW12814   1.063   0.349   0.327
 3972SOL    HW112815   1.131   0.340   0.254
 3972SOL    HW212816   1.080   0.434   0.377
 3973SOL     OW12817   3.669   2.940   2.805
 3973SOL    HW112818   3.657   2.922   2.707
 3973SOL    HW212819   3.682   3.038   2.820
 3974SOL     OW12820   5.970   0.382   6.087
 3974SOL    HW112821   5.918   0.401   6.004
 3974SOL    HW212822   5.986   0.468   6.135
 3975SOL     OW12823   6.708   6.476   5.697
 3975SOL    HW112824   6.680   6.385   5.670
 3975SOL    HW212825   6.807   6.478   5.713
 3976SOL     OW12826   1.223   3.020   6.457
 3976SOL    HW112827   1.238   2.945   6.522
 3976SOL    HW212828   1.305   3.075   6.451
 3977SOL     OW12829   4.432   6.699   6.136
 3977SOL    HW112830   4.493   6.724   6.061
 3977SOL    HW212831   4.477   6.631   6.195
 3978SOL     OW12832   6.141   3.525   6.802
 3978SOL    HW112833   6.075   3.476   6.859
 3978SOL    HW212834   6.177   3.603   6.853
 3979SOL     OW12835   1.135   0.070   3.155
 3979SOL    HW112836   1.162   0.126   3.076
 3979SOL    HW212837   1.036   0.075   3.167
 3980SOL     OW12838   4.932   3.569   4.793
 3980SOL    HW112839   5.029   3.596   4.795
 3980SOL    HW212840   4.889   3.591   4.880
 3981SOL     OW12841   6.170   1.842   5.349
 3981SOL    HW112842   6.146   1.759   5.299
 3981SOL    HW212843   6.088   1.882   5.389
 3982SOL     OW12844   3.240   1.898   3.961
 3982SOL    HW112845   3.305   1.844   4.013
 3982SOL    HW212846   3.147   1.869   3.983
 3983SOL     OW12847   3.585   6.798   4.023
 3983SOL    HW112848   3.642   6.837   4.095
 3983SOL    HW212849   3.504   6.755   4.065
 3984SOL     OW12850   1.511   7.008   1.681
 3984SOL    HW112851   1.491   0.045   1.759
 3984SOL    HW212852   1.605   0.001   1.651
 3985SOL     OW12853   1.504   3.599   1.845
 3985SOL    HW112854   1.505   3.507   1.886
 3985SOL    HW212855   1.484   3.591   1.747
 3986SOL     OW12856   1.259   2.880   2.118
 3986SOL    HW112857   1.171   2.836   2.101
 3986SOL    HW212858   1.333   2.818   2.092
 3987SOL     OW12859   2.421   4.558   6.225
 3987SOL    HW112860   2.497   4.616   6.252
 3987SOL    HW212861   2.397   4.575   6.130
 3988SOL     OW12862   4.445   2.039   6.622
 3988SOL    HW112863   4.355   2.082   6.625
 3988SOL    HW212864   4.466   2.012   6.528
 3989SOL     OW12865   4.393   0.831   6.450
 3989SOL    HW112866   4.386   0.930   6.457
 3989SOL    HW212867   4.425   0.806   6.359
 3990SOL     OW12868   1.255   2.749   3.384
 3990SOL    HW112869   1.302   2.727   3.470
 3990SOL    HW212870   1.202   2.834   3.397
 3991SOL     OW12871   6.653   1.332   4.349
 3991SOL    HW112872   6.654   1.405   4.418
 3991SOL    HW212873   6.607   1.364   4.267
 3992SOL     OW12874   5.322   4.114   6.050
 3992SOL    HW112875   5.334   4.106   6.148
 3992SOL    HW212876   5.403   4.158   6.010
 3993SOL     OW12877   1.725   1.296   3.149
 3993SOL    HW112878   1.688   1.208   3.120
 3993SOL    HW212879   1.719   1.361   3.072
 3994SOL     OW12880   2.334   1.986   3.879
 3994SOL    HW112881   2.348   2.014   3.974
 3994SOL    HW212882   2.355   1.889   3.869
 3995SOL     OW12883   1.584   3.820   1.974
 3995SOL    HW112884   1.574   3.743   1.912
 3995SOL    HW212885   1.553   3.793   2.065
 3996SOL     OW12886   5.708   6.810   3.155
 3996SOL    HW112887   5.612   6.793   3.176
 3996SOL    HW212888   5.725   6.791   3.058
 3997SOL     OW12889   5.697   3.742   2.749
 3997SOL    HW112890   5.713   3.714   2.655
 3997SOL    HW212891   5.603   3.723   2.775
 3998SOL     OW12892   5.704   2.574   3.204
 3998SOL    HW112893   5.696   2.475   3.221
 3998SOL    HW212894   5.632   2.602   3.140
 3999SOL     OW12895   4.992   2.618   1.544
 3999SOL    HW112896   4.935   2.577   1.473
 3999SOL    HW212897   5.079   2.569   1.549
 4000SOL     OW12898   3.190   5.307   1.999
 4000SOL    HW112899   3.137   5.223   2.013
 4000SOL    HW212900   3.282   5.283   1.968
 4001SOL     OW12901   2.019   4.437   4.504
 4001SOL    HW112902   2.058   4.521   4.466
 4001SOL    HW212903   2.082   4.361   4.489
 4002SOL     OW12904   3.553   4.191   3.431
 4002SOL    HW112905   3.652   4.201   3.443
 4002SOL    HW212906   3.535   4.144   3.344
 4003SOL     OW12907   2.578   0.901   5.392
 4003SOL    HW112908   2.484   0.934   5.404
 4003SOL    HW212909   2.615   0.938   5.306
 4004SOL     OW12910   0.858   3.620   3.489
 4004SOL    HW112911   0.829   3.525   3.503
 4004SOL    HW212912   0.930   3.643   3.555
 4005SOL     OW12913   5.071   2.914   0.937
 4005SOL    HW112914   5.135   2.876   1.004
 4005SOL    HW212915   5.021   2.840   0.893
 4006SOL     OW12916   4.545   5.153   3.307
 4006SOL    HW112917   4.555   5.230   3.243
 4006SOL    HW212918   4.615   5.084   3.287
 4007SOL     OW12919   6.870   1.265   3.328
 4007SOL    HW112920   6.883   1.166   3.341
 4007SOL    HW212921   6.775   1.289   3.345
 4008SOL     OW12922   3.378   0.411   0.839
 4008SOL    HW112923   3.338   0.483   0.896
 4008SOL    HW212924   3.306   0.365   0.787
 4009SOL     OW12925   4.769   2.048   0.724
 4009SOL    HW112926   4.830   2.008   0.655
 4009SOL    HW212927   4.690   2.088   0.679
 4010SOL     OW12928   2.580   4.878   1.707
 4010SOL    HW112929   2.654   4.940   1.733
 4010SOL    HW212930   2.617   4.787   1.688
 4011SOL     OW12931   5.035   5.829   6.830
 4011SOL    HW112932   5.059   5.910   6.882
 4011SOL    HW212933   5.113   5.766   6.828
 4012SOL     OW12934   4.372   0.484   2.609
 4012SOL    HW112935   4.396   0.428   2.689
 4012SOL    HW212936   4.319   0.429   2.545
 4013SOL     OW12937   0.146   0.944   6.609
 4013SOL    HW112938   0.218   1.013   6.619
 4013SOL    HW212939   0.168   0.864   6.666
 4014SOL     OW12940   2.930   5.228   2.338
 4014SOL    HW112941   2.884   5.300   2.390
 4014SOL    HW212942   2.902   5.138   2.373
 4015SOL     OW12943   4.011   4.386   6.050
 4015SOL    HW112944   4.088   4.406   5.989
 4015SOL    HW212945   3.935   4.448   6.029
 4016SOL     OW12946   4.144   5.394   5.588
 4016SOL    HW112947   4.044   5.396   5.591
 4016SOL    HW212948   4.181   5.460   5.654
 4017SOL     OW12949   0.304   4.876   6.069
 4017SOL    HW112950   0.294   4.884   6.168
 4017SOL    HW212951   0.275   4.785   6.040
 4018SOL     OW12952   4.500   6.514   1.952
 4018SOL    HW112953   4.593   6.487   1.928
 4018SOL    HW212954   4.500   6.560   2.041
 4019SOL     OW12955   5.385   3.575   3.370
 4019SOL    HW112956   5.386   3.486   3.415
 4019SOL    HW212957   5.430   3.642   3.429
 4020SOL     OW12958   6.241   4.809   3.948
 4020SOL    HW112959   6.146   4.793   3.971
 4020SOL    HW212960   6.247   4.868   3.868
 4021SOL     OW12961   3.930   3.436   5.832
 4021SOL    HW112962   4.016   3.486   5.840
 4021SOL    HW212963   3.885   3.434   5.922
 4022SOL     OW12964   2.581   0.890   1.473
 4022SOL    HW112965   2.583   0.819   1.403
 4022SOL    HW212966   2.674   0.912   1.501
 4023SOL     OW12967   0.564   1.790   5.078
 4023SOL    HW112968   0.471   1.826   5.066
 4023SOL    HW212969   0.624   1.829   5.009
 4024SOL     OW12970   0.498   5.494   4.645
 4024SOL    HW112971   0.401   5.474   4.632
 4024SOL    HW212972   0.549   5.472   4.562
 4025SOL     OW12973   0.570   5.766   4.071
 4025SOL    HW112974   0.535   5.695   4.132
 4025SOL    HW212975   0.668   5.777   4.084
 4026SOL     OW12976   6.586   6.438   3.707
 4026SOL    HW112977   6.651   6.368   3.678
 4026SOL    HW212978   6.581   6.440   3.807
 4027SOL     OW12979   2.827   4.114   5.743
 4027SOL    HW112980   2.736   4.098   5.705
 4027SOL    HW212981   2.897   4.091   5.675
 4028SOL     OW12982   4.918   1.741   2.824
 4028SOL    HW112983   4.867   1.800   2.762
 4028SOL    HW212984   4.866   1.728   2.908
 4029SOL     OW12985   2.242   5.507   6.261
 4029SOL    HW112986   2.278   5.417   6.287
 4029SOL    HW212987   2.211   5.555   6.343
 4030SOL     OW12988   0.198   1.126   2.530
 4030SOL    HW112989   0.187   1.224   2.514
 4030SOL    HW212990   0.221   1.110   2.626
 4031SOL     OW12991   5.790   6.682   1.111
 4031SOL    HW112992   5.784   6.758   1.176
 4031SOL    HW212993   5.858   6.704   1.041
 4032SOL     OW12994   5.768   0.577   1.451
 4032SOL    HW112995   5.826   0.501   1.419
 4032SOL    HW212996   5.747   0.564   1.548
 4033SOL     OW12997   2.139   2.813   2.771
 4033SOL    HW112998   2.146   2.751   2.850
 4033SOL    HW212999   2.189   2.774   2.694
 4034SOL     OW13000   0.271   2.785   5.138
 4034SOL    HW113001   0.221   2.701   5.115
 4034SOL    HW213002   0.206   2.862   5.141
 4035SOL     OW13003   5.452   1.614   1.433
 4035SOL    HW113004   5.449   1.591   1.530
 4035SOL    HW213005   5.431   1.533   1.378
 4036SOL     OW13006   2.609   5.432   3.196
 4036SOL    HW113007   2.553   5.409   3.275
 4036SOL    HW213008   2.551   5.469   3.123
 4037SOL     OW13009   2.230   0.671   6.081
 4037SOL    HW113010   2.314   0.715   6.114
 4037SOL    HW213011   2.152   0.704   6.134
 4038SOL     OW13012   3.510   3.886   5.981
 4038SOL    HW113013   3.583   3.819   5.976
 4038SOL    HW213014   3.514   3.947   5.902
 4039SOL     OW13015   6.041   4.994   1.631
 4039SOL    HW113016   5.955   4.943   1.621
 4039SOL    HW213017   6.024   5.076   1.684
 4040SOL     OW13018   3.597   5.111   5.248
 4040SOL    HW113019   3.605   5.049   5.171
 4040SOL    HW213020   3.664   5.086   5.318
 4041SOL     OW13021   2.355   5.963   0.775
 4041SOL    HW113022   2.272   6.015   0.754
 4041SOL    HW213023   2.344   5.868   0.746
 4042SOL     OW13024   6.151   0.616   3.866
 4042SOL    HW113025   6.244   0.653   3.855
 4042SOL    HW213026   6.097   0.641   3.786
 4043SOL     OW13027   5.108   3.714   6.652
 4043SOL    HW113028   5.188   3.696   6.708
 4043SOL    HW213029   5.136   3.752   6.564
 4044SOL     OW13030   3.806   5.157   3.650
 4044SOL    HW113031   3.763   5.068   3.634
 4044SOL    HW213032   3.904   5.150   3.631
 4045SOL     OW13033   5.208   0.267   5.575
 4045SOL    HW113034   5.225   0.202   5.500
 4045SOL    HW213035   5.111   0.294   5.573
 4046SOL     OW13036   6.849   1.942   2.972
 4046SOL    HW113037   6.835   1.908   3.065
 4046SOL    HW213038   6.789   1.892   2.909
 4047SOL     OW13039   2.548   3.169   6.790
 4047SOL    HW113040   2.639   3.177   6.829
 4047SOL    HW213041   2.503   3.087   6.824
 4048SOL     OW13042   4.379   1.346   1.943
 4048SOL    HW113043   4.304   1.382   2.000
 4048SOL    HW213044   4.361   1.369   1.848
 4049SOL     OW13045   4.090   4.865   6.613
 4049SOL    HW113046   4.186   4.886   6.595
 4049SOL    HW213047   4.064   4.782   6.565
 4050SOL     OW13048   0.443   5.266   2.820
 4050SOL    HW113049   0.358   5.318   2.833
 4050SOL    HW213050   0.433   5.204   2.742
 4051SOL     OW13051   5.292   1.211   5.684
 4051SOL    HW113052   5.258   1.140   5.745
 4051SOL    HW213053   5.220   1.235   5.618
 4052SOL     OW13054   6.206   1.909   3.936
 4052SOL    HW113055   6.176   1.926   4.031
 4052SOL    HW213056   6.168   1.980   3.877
 4053SOL     OW13057   1.116   5.638   4.603
 4053SOL    HW113058   1.057   5.608   4.528
 4053SOL    HW213059   1.206   5.663   4.567
 4054SOL     OW13060   5.044   4.187   0.738
 4054SOL    HW113061   5.116   4.211   0.674
 4054SOL    HW213062   5.020   4.267   0.794
 4055SOL     OW13063   1.083   3.688   1.363
 4055SOL    HW113064   1.106   3.618   1.296
 4055SOL    HW213065   1.164   3.743   1.384
 4056SOL     OW13066   4.821   3.332   0.832
 4056SOL    HW113067   4.774   3.243   0.828
 4056SOL    HW213068   4.889   3.330   0.905
 4057SOL     OW13069   6.569   3.791   6.654
 4057SOL    HW113070   6.488   3.733   6.662
 4057SOL    HW213071   6.626   3.757   6.579
 4058SOL     OW13072   2.810   6.317   5.609
 4058SOL    HW113073   2.825   6.286   5.703
 4058SOL    HW213074   2.726   6.276   5.574
 4059SOL     OW13075   1.100   1.887   4.002
 4059SOL    HW113076   1.173   1.937   3.957
 4059SOL    HW213077   1.026   1.950   4.026
 4060SOL     OW13078   6.450   5.934   5.271
 4060SOL    HW113079   6.463   5.857   5.210
 4060SOL    HW213080   6.352   5.953   5.280
 4061SOL     OW13081   2.419   5.159   1.667
 4061SOL    HW113082   2.452   5.066   1.650
 4061SOL    HW213083   2.490   5.224   1.643
 4062SOL     OW13084   2.158   1.796   1.827
 4062SOL    HW113085   2.230   1.817   1.760
 4062SOL    HW213086   2.182   1.712   1.877
 4063SOL     OW13087   5.333   1.753   0.707
 4063SOL    HW113088   5.362   1.686   0.639
 4063SOL    HW213089   5.353   1.845   0.674
 4064SOL     OW13090   2.125   1.849   4.932
 4064SOL    HW113091   2.102   1.870   5.026
 4064SOL    HW213092   2.048   1.870   4.872
 4065SOL     OW13093   1.930   6.978   0.475
 4065SOL    HW113094   1.852   7.005   0.532
 4065SOL    HW213095   1.896   6.932   0.393
 4066SOL     OW13096   0.175   4.189   3.446
 4066SOL    HW113097   0.239   4.266   3.452
 4066SOL    HW213098   0.225   4.103   3.454
 4067SOL     OW13099   5.596   5.039   2.295
 4067SOL    HW113100   5.693   5.045   2.320
 4067SOL    HW213101   5.540   5.082   2.365
 4068SOL     OW13102   1.484   2.653   5.376
 4068SOL    HW113103   1.556   2.585   5.391
 4068SOL    HW213104   1.444   2.680   5.463
 4069SOL     OW13105   4.031   0.036   6.924
 4069SOL    HW113106   4.062   6.985   6.984
 4069SOL    HW213107   4.109   0.075   6.875
 4070SOL     OW13108   1.383   2.996   3.174
 4070SOL    HW113109   1.397   2.991   3.075
 4070SOL    HW213110   1.378   2.904   3.212
 4071SOL     OW13111   0.637   0.315   3.860
 4071SOL    HW113112   0.642   0.223   3.820
 4071SOL    HW213113   0.541   0.340   3.874
 4072SOL     OW13114   1.584   5.783   3.472
 4072SOL    HW113115   1.522   5.759   3.398
 4072SOL    HW213116   1.561   5.874   3.506
 4073SOL     OW13117   2.984   5.086   0.096
 4073SOL    HW113118   2.928   5.010   0.065
 4073SOL    HW213119   3.020   5.067   0.187
 4074SOL     OW13120   1.025   5.533   2.769
 4074SOL    HW113121   1.075   5.509   2.852
 4074SOL    HW213122   1.049   5.626   2.740
 4075SOL     OW13123   5.258   0.025   0.782
 4075SOL    HW113124   5.295   0.118   0.788
 4075SOL    HW213125   5.176   0.026   0.724
 4076SOL     OW13126   2.932   3.977   5.238
 4076SOL    HW113127   2.957   3.989   5.142
 4076SOL    HW213128   2.872   3.898   5.247
 4077SOL     OW13129   3.803   1.922   1.751
 4077SOL    HW113130   3.831   2.013   1.783
 4077SOL    HW213131   3.831   1.910   1.655
 4078SOL     OW13132   2.983   4.823   2.878
 4078SOL    HW113133   2.942   4.894   2.822
 4078SOL    HW213134   3.080   4.843   2.891
 4079SOL     OW13135   1.250   2.639   4.090
 4079SOL    HW113136   1.336   2.645   4.142
 4079SOL    HW213137   1.252   2.706   4.015
 4080SOL     OW13138   5.526   1.190   5.079
 4080SOL    HW113139   5.619   1.153   5.071
 4080SOL    HW213140   5.489   1.166   5.169
 4081SOL     OW13141   1.493   3.467   3.310
 4081SOL    HW113142   1.429   3.485   3.236
 4081SOL    HW213143   1.560   3.541   3.314
 4082SOL     OW13144   1.153   3.331   0.999
 4082SOL    HW113145   1.056   3.313   0.987
 4082SOL    HW213146   1.200   3.326   0.911
 4083SOL     OW13147   5.718   2.627   4.499
 4083SOL    HW113148   5.796   2.588   4.450
 4083SOL    HW213149   5.725   2.727   4.498
 4084SOL     OW13150   6.582   1.605   4.422
 4084SOL    HW113151   6.506   1.660   4.458
 4084SOL    HW213152   6.570   1.593   4.324
 4085SOL     OW13153   3.625   5.957   0.236
 4085SOL    HW113154   3.718   5.970   0.200
 4085SOL    HW213155   3.627   5.887   0.307
 4086SOL     OW13156   1.775   5.382   1.131
 4086SOL    HW113157   1.796   5.324   1.209
 4086SOL    HW213158   1.725   5.463   1.162
 4087SOL     OW13159   2.242   2.117   3.378
 4087SOL    HW113160   2.320   2.134   3.317
 4087SOL    HW213161   2.272   2.063   3.457
 4088SOL     OW13162   6.322   1.806   1.276
 4088SOL    HW113163   6.277   1.807   1.365
 4088SOL    HW213164   6.408   1.756   1.283
 4089SOL     OW13165   0.608   1.139   3.953
 4089SOL    HW113166   0.566   1.225   3.983
 4089SOL    HW213167   0.629   1.083   4.033
 4090SOL     OW13168   2.565   4.094   6.358
 4090SOL    HW113169   2.584   4.167   6.293
 4090SOL    HW213170   2.495   4.033   6.320
 4091SOL     OW13171   4.775   5.948   0.153
 4091SOL    HW113172   4.736   5.879   0.215
 4091SOL    HW213173   4.864   5.976   0.187
 4092SOL     OW13174   0.442   2.949   5.275
 4092SOL    HW113175   0.394   2.874   5.229
 4092SOL    HW213176   0.414   2.952   5.371
 4093SOL     OW13177   5.747   1.250   3.271
 4093SOL    HW113178   5.818   1.212   3.329
 4093SOL    HW213179   5.782   1.261   3.178
 4094SOL     OW13180   1.964   4.255   5.276
 4094SOL    HW113181   2.036   4.186   5.288
 4094SOL    HW213182   1.891   4.217   5.218
 4095SOL     OW13183   0.965   2.948   5.747
 4095SOL    HW113184   0.947   3.037   5.707
 4095SOL    HW213185   1.039   2.957   5.814
 4096SOL     OW13186   4.765   5.079   6.866
 4096SOL    HW113187   4.829   5.059   6.940
 4096SOL    HW213188   4.816   5.098   6.782
 4097SOL     OW13189   3.355   3.441   5.857
 4097SOL    HW113190   3.409   3.505   5.802
 4097SOL    HW213191   3.364   3.349   5.819
 4098SOL     OW13192   0.586   2.704   2.892
 4098SOL    HW113193   0.608   2.771   2.821
 4098SOL    HW213194   0.553   2.752   2.973
 4099SOL     OW13195   3.061   6.223   1.969
 4099SOL    HW113196   3.075   6.135   2.015
 4099SOL    HW213197   3.149   6.270   1.961
 4100SOL     OW13198   4.632   6.218   3.725
 4100SOL    HW113199   4.534   6.208   3.737
 4100SOL    HW213200   4.659   6.178   3.637
 4101SOL     OW13201   5.739   1.584   6.144
 4101SOL    HW113202   5.704   1.585   6.238
 4101SOL    HW213203   5.669   1.546   6.084
 4102SOL     OW13204   5.894   0.738   0.651
 4102SOL    HW113205   5.928   0.828   0.679
 4102SOL    HW213206   5.812   0.716   0.703
 4103SOL     OW13207   0.536   1.022   2.232
 4103SOL    HW113208   0.509   0.997   2.325
 4103SOL    HW213209   0.574   0.942   2.186
 4104SOL     OW13210   1.848   4.498   2.609
 4104SOL    HW113211   1.762   4.533   2.573
 4104SOL    HW213212   1.833   4.405   2.645
 4105SOL     OW13213   4.019   5.423   0.472
 4105SOL    HW113214   3.936   5.470   0.503
 4105SOL    HW213215   4.012   5.405   0.374
 4106SOL     OW13216   0.003   3.735   4.805
 4106SOL    HW113217   0.073   3.806   4.796
 4106SOL    HW213218   7.006   3.721   4.902
 4107SOL     OW13219   0.457   6.463   1.310
 4107SOL    HW113220   0.537   6.518   1.285
 4107SOL    HW213221   0.432   6.403   1.234
 4108SOL     OW13222   6.922   3.924   6.478
 4108SOL    HW113223   6.991   3.852   6.481
 4108SOL    HW213224   6.910   3.962   6.570
 4109SOL     OW13225   3.815   6.831   3.835
 4109SOL    HW113226   3.872   6.909   3.862
 4109SOL    HW213227   3.733   6.830   3.891
 4110SOL     OW13228   4.729   3.252   6.009
 4110SOL    HW113229   4.767   3.338   5.973
 4110SOL    HW213230   4.727   3.256   6.109
 4111SOL     OW13231   4.223   2.654   0.036
 4111SOL    HW113232   4.199   2.751   0.027
 4111SOL    HW213233   4.170   2.601   6.992
 4112SOL     OW13234   4.444   1.508   4.833
 4112SOL    HW113235   4.352   1.506   4.794
 4112SOL    HW213236   4.495   1.585   4.794
 4113SOL     OW13237   3.377   5.176   5.396
 4113SOL    HW113238   3.418   5.107   5.336
 4113SOL    HW213239   3.449   5.220   5.450
 4114SOL     OW13240   3.098   1.616   4.434
 4114SOL    HW113241   3.007   1.585   4.404
 4114SOL    HW213242   3.132   1.684   4.370
 4115SOL     OW13243   4.734   5.563   1.906
 4115SOL    HW113244   4.724   5.501   1.829
 4115SOL    HW213245   4.802   5.633   1.884
 4116SOL     OW13246   3.715   1.929   2.016
 4116SOL    HW113247   3.687   2.023   2.036
 4116SOL    HW213248   3.741   1.921   1.920
 4117SOL     OW13249   1.151   4.909   1.028
 4117SOL    HW113250   1.175   4.990   0.974
 4117SOL    HW213251   1.188   4.919   1.120
 4118SOL     OW13252   1.220   6.917   1.021
 4118SOL    HW113253   1.306   6.949   1.061
 4118SOL    HW213254   1.224   6.817   1.009
 4119SOL     OW13255   3.535   0.917   4.381
 4119SOL    HW113256   3.545   0.950   4.287
 4119SOL    HW213257   3.624   0.917   4.426
 4120SOL     OW13258   4.149   0.013   2.129
 4120SOL    HW113259   4.155   6.957   2.067
 4120SOL    HW213260   4.111   0.091   2.080
 4121SOL     OW13261   6.578   2.382   4.545
 4121SOL    HW113262   6.595   2.469   4.499
 4121SOL    HW213263   6.646   2.315   4.515
 4122SOL     OW13264   0.500   6.686   5.207
 4122SOL    HW113265   0.542   6.740   5.280
 4122SOL    HW213266   0.406   6.662   5.233
 4123SOL     OW13267   5.552   4.192   5.894
 4123SOL    HW113268   5.518   4.112   5.846
 4123SOL    HW213269   5.585   4.259   5.828
 4124SOL     OW13270   5.491   6.862   3.812
 4124SOL    HW113271   5.480   6.789   3.745
 4124SOL    HW213272   5.419   6.856   3.880
 4125SOL     OW13273   4.555   0.999   1.792
 4125SOL    HW113274   4.479   0.945   1.828
 4125SOL    HW213275   4.554   1.090   1.835
 4126SOL     OW13276   1.491   4.244   4.661
 4126SOL    HW113277   1.437   4.164   4.634
 4126SOL    HW213278   1.498   4.306   4.584
 4127SOL     OW13279   5.537   3.400   4.729
 4127SOL    HW113280   5.581   3.487   4.705
 4127SOL    HW213281   5.582   3.325   4.681
 4128SOL     OW13282   1.524   3.571   2.404
 4128SOL    HW113283   1.608   3.595   2.453
 4128SOL    HW213284   1.515   3.471   2.401
 4129SOL     OW13285   5.941   2.172   6.066
 4129SOL    HW113286   5.985   2.211   6.147
 4129SOL    HW213287   6.005   2.112   6.019
 4130SOL     OW13288   6.620   4.043   6.395
 4130SOL    HW113289   6.665   4.070   6.310
 4130SOL    HW213290   6.686   3.998   6.455
 4131SOL     OW13291   0.123   5.797   3.906
 4131SOL    HW113292   0.154   5.892   3.899
 4131SOL    HW213293   0.156   5.757   3.991
 4132SOL     OW13294   5.114   3.236   3.195
 4132SOL    HW113295   5.075   3.262   3.284
 4132SOL    HW213296   5.044   3.247   3.124
 4133SOL     OW13297   2.890   0.901   1.131
 4133SOL    HW113298   2.893   0.855   1.220
 4133SOL    HW213299   2.830   0.980   1.136
 4134SOL     OW13300   2.318   1.926   0.904
 4134SOL    HW113301   2.397   1.890   0.954
 4134SOL    HW213302   2.266   1.850   0.865
 4135SOL     OW13303   1.732   0.692   2.874
 4135SOL    HW113304   1.776   0.611   2.834
 4135SOL    HW213305   1.699   0.670   2.966
 4136SOL     OW13306   0.255   2.363   4.356
 4136SOL    HW113307   0.308   2.437   4.316
 4136SOL    HW213308   0.224   2.301   4.284
 4137SOL     OW13309   3.207   4.006   6.815
 4137SOL    HW113310   3.276   4.025   6.745
 4137SOL    HW213311   3.249   4.008   6.905
 4138SOL     OW13312   4.831   4.722   4.559
 4138SOL    HW113313   4.825   4.769   4.648
 4138SOL    HW213314   4.741   4.690   4.532
 4139SOL     OW13315   1.881   2.091   5.961
 4139SOL    HW113316   1.785   2.113   5.948
 4139SOL    HW213317   1.918   2.049   5.878
 4140SOL     OW13318   3.949   1.474   5.407
 4140SOL    HW113319   4.023   1.447   5.346
 4140SOL    HW213320   3.877   1.519   5.355
 4141SOL     OW13321   5.257   5.003   1.259
 4141SOL    HW113322   5.296   5.039   1.344
 4141SOL    HW213323   5.222   5.079   1.204
 4142SOL     OW13324   0.062   4.407   0.832
 4142SOL    HW113325   6.988   4.395   0.809
 4142SOL    HW213326   0.095   4.326   0.880
 4143SOL     OW13327   6.673   2.701   0.990
 4143SOL    HW113328   6.675   2.772   0.919
 4143SOL    HW213329   6.580   2.670   1.003
 4144SOL     OW13330   5.459   1.564   1.715
 4144SOL    HW113331   5.435   1.587   1.810
 4144SOL    HW213332   5.558   1.553   1.708
 4145SOL     OW13333   0.816   6.939   1.558
 4145SOL    HW113334   0.881   6.864   1.544
 4145SOL    HW213335   0.847   6.996   1.634
 4146SOL     OW13336   5.511   0.121   6.339
 4146SOL    HW113337   5.576   0.081   6.275
 4146SOL    HW213338   5.544   0.105   6.433
 4147SOL     OW13339   3.482   2.110   6.384
 4147SOL    HW113340   3.459   2.103   6.287
 4147SOL    HW213341   3.526   2.025   6.414
 4148SOL     OW13342   0.173   0.501   4.118
 4148SOL    HW113343   0.092   0.447   4.095
 4148SOL    HW213344   0.255   0.455   4.082
 4149SOL     OW13345   6.246   3.059   0.930
 4149SOL    HW113346   6.225   3.148   0.889
 4149SOL    HW213347   6.337   3.061   0.970
 4150SOL     OW13348   5.588   0.390   6.292
 4150SOL    HW113349   5.542   0.429   6.212
 4150SOL    HW213350   5.562   0.294   6.303
 4151SOL     OW13351   6.647   6.140   0.397
 4151SOL    HW113352   6.713   6.066   0.409
 4151SOL    HW213353   6.668   6.190   0.313
 4152SOL     OW13354   4.440   4.839   2.034
 4152SOL    HW113355   4.461   4.926   1.991
 4152SOL    HW213356   4.343   4.818   2.024
 4153SOL     OW13357   5.889   5.341   6.269
 4153SOL    HW113358   5.862   5.320   6.363
 4153SOL    HW213359   5.879   5.259   6.212
 4154SOL     OW13360   6.086   3.647   4.858
 4154SOL    HW113361   5.997   3.693   4.860
 4154SOL    HW213362   6.072   3.548   4.862
 4155SOL     OW13363   0.800   3.910   2.447
 4155SOL    HW113364   0.738   3.893   2.524
 4155SOL    HW213365   0.886   3.948   2.482
 4156SOL     OW13366   5.550   6.873   5.483
 4156SOL    HW113367   5.597   6.795   5.441
 4156SOL    HW213368   5.601   6.904   5.563
 4157SOL     OW13369   4.132   0.770   3.873
 4157SOL    HW113370   4.160   0.674   3.871
 4157SOL    HW213371   4.130   0.802   3.967
 4158SOL     OW13372   1.045   5.132   3.112
 4158SOL    HW113373   1.016   5.195   3.184
 4158SOL    HW213374   1.026   5.038   3.141
 4159SOL     OW13375   1.221   3.042   3.864
 4159SOL    HW113376   1.309   3.013   3.827
 4159SOL    HW213377   1.147   3.005   3.808
 4160SOL     OW13378   6.334   0.381   0.566
 4160SOL    HW113379   6.283   0.381   0.480
 4160SOL    HW213380   6.427   0.349   0.549
 4161SOL     OW13381   1.436   1.092   6.662
 4161SOL    HW113382   1.405   1.188   6.663
 4161SOL    HW213383   1.531   1.088   6.633
 4162SOL     OW13384   6.164   6.850   4.440
 4162SOL    HW113385   6.098   6.910   4.486
 4162SOL    HW213386   6.116   6.771   4.402
 4163SOL     OW13387   5.639   1.367   3.478
 4163SOL    HW113388   5.677   1.315   3.403
 4163SOL    HW213389   5.688   1.454   3.487
 4164SOL     OW13390   1.732   1.016   6.766
 4164SOL    HW113391   1.699   0.974   6.682
 4164SOL    HW213392   1.832   1.022   6.764
 4165SOL     OW13393   4.144   6.486   0.583
 4165SOL    HW113394   4.180   6.564   0.634
 4165SOL    HW213395   4.220   6.433   0.545
 4166SOL     OW13396   4.260   2.723   0.626
 4166SOL    HW113397   4.310   2.715   0.712
 4166SOL    HW213398   4.191   2.651   0.621
 4167SOL     OW13399   2.210   2.545   1.754
 4167SOL    HW113400   2.300   2.543   1.797
 4167SOL    HW213401   2.163   2.459   1.772
 4168SOL     OW13402   0.302   5.341   1.984
 4168SOL    HW113403   0.281   5.261   1.928
 4168SOL    HW213404   0.315   5.313   2.079
 4169SOL     OW13405   5.043   3.674   3.917
 4169SOL    HW113406   5.067   3.711   4.007
 4169SOL    HW213407   5.124   3.631   3.876
 4170SOL     OW13408   3.866   2.722   5.559
 4170SOL    HW113409   3.936   2.665   5.602
 4170SOL    HW213410   3.903   2.764   5.477
 4171SOL     OW13411   5.337   3.848   1.685
 4171SOL    HW113412   5.299   3.822   1.596
 4171SOL    HW213413   5.279   3.812   1.758
 4172SOL     OW13414   0.426   1.989   1.049
 4172SOL    HW113415   0.432   2.086   1.073
 4172SOL    HW213416   0.514   1.958   1.014
 4173SOL     OW13417   5.509   2.817   5.031
 4173SOL    HW113418   5.537   2.733   4.985
 4173SOL    HW213419   5.414   2.810   5.059
 4174SOL     OW13420   4.486   0.795   3.563
 4174SOL    HW113421   4.394   0.811   3.598
 4174SOL    HW213422   4.552   0.805   3.637
 4175SOL     OW13423   3.210   0.309   3.681
 4175SOL    HW113424   3.114   0.305   3.708
 4175SOL    HW213425   3.220   0.265   3.591
 4176SOL     OW13426   4.853   0.041   2.648
 4176SOL    HW113427   4.808   0.128   2.629
 4176SOL    HW213428   4.890   0.042   2.741
 4177SOL     OW13429   0.290   6.007   3.874
 4177SOL    HW113430   0.227   6.069   3.826
 4177SOL    HW213431   0.284   6.024   3.972
 4178SOL     OW13432   3.173   1.705   6.084
 4178SOL    HW113433   3.140   1.790   6.043
 4178SOL    HW213434   3.102   1.665   6.142
 4179SOL     OW13435   5.533   3.462   5.404
 4179SOL    HW113436   5.436   3.469   5.377
 4179SOL    HW213437   5.585   3.423   5.328
 4180SOL     OW13438   4.932   4.451   1.200
 4180SOL    HW113439   4.866   4.523   1.181
 4180SOL    HW213440   4.995   4.481   1.272
 4181SOL     OW13441   0.699   1.695   6.434
 4181SOL    HW113442   0.654   1.686   6.523
 4181SOL    HW213443   0.763   1.772   6.437
 4182SOL     OW13444   6.696   0.534   2.240
 4182SOL    HW113445   6.633   0.567   2.169
 4182SOL    HW213446   6.767   0.479   2.197
 4183SOL     OW13447   2.738   1.656   1.760
 4183SOL    HW113448   2.656   1.695   1.719
 4183SOL    HW213449   2.715   1.571   1.808
 4184SOL     OW13450   3.674   5.406   0.633
 4184SOL    HW113451   3.583   5.431   0.600
 4184SOL    HW213452   3.734   5.486   0.629
 4185SOL     OW13453   0.223   0.132   3.272
 4185SOL    HW113454   0.206   0.170   3.181
 4185SOL    HW213455   0.142   0.082   3.302
 4186SOL     OW13456   2.704   3.718   0.704
 4186SOL    HW113457   2.660   3.635   0.740
 4186SOL    HW213458   2.705   3.715   0.604
 4187SOL     OW13459   3.643   3.510   6.469
 4187SOL    HW113460   3.580   3.583   6.441
 4187SOL    HW213461   3.688   3.472   6.389
 4188SOL     OW13462   4.695   0.508   3.645
 4188SOL    HW113463   4.778   0.467   3.684
 4188SOL    HW213464   4.709   0.607   3.634
 4189SOL     OW13465   2.452   1.647   4.311
 4189SOL    HW113466   2.460   1.737   4.353
 4189SOL    HW213467   2.491   1.650   4.219
 4190SOL     OW13468   3.050   0.912   6.682
 4190SOL    HW113469   2.993   0.842   6.638
 4190SOL    HW213470   3.076   0.981   6.614
 4191SOL     OW13471   6.450   2.781   3.332
 4191SOL    HW113472   6.414   2.794   3.240
 4191SOL    HW213473   6.400   2.708   3.377
 4192SOL     OW13474   5.986   1.344   2.936
 4192SOL    HW113475   5.993   1.333   2.837
 4192SOL    HW213476   5.896   1.382   2.959
 4193SOL     OW13477   2.397   6.869   2.384
 4193SOL    HW113478   2.351   6.929   2.319
 4193SOL    HW213479   2.474   6.917   2.426
 4194SOL     OW13480   0.047   1.644   4.173
 4194SOL    HW113481   0.124   1.628   4.112
 4194SOL    HW213482   0.066   1.603   4.262
 4195SOL     OW13483   5.670   0.168   1.386
 4195SOL    HW113484   5.745   0.198   1.327
 4195SOL    HW213485   5.644   0.075   1.360
 4196SOL     OW13486   5.207   2.998   4.444
 4196SOL    HW113487   5.205   2.985   4.344
 4196SOL    HW213488   5.300   2.985   4.477
 4197SOL     OW13489   5.243   4.504   4.723
 4197SOL    HW113490   5.204   4.441   4.657
 4197SOL    HW213491   5.342   4.510   4.708
 4198SOL     OW13492   5.966   3.878   0.067
 4198SOL    HW113493   6.000   3.953   0.124
 4198SOL    HW213494   5.966   3.793   0.119
 4199SOL     OW13495   3.206   3.781   5.030
 4199SOL    HW113496   3.125   3.837   5.017
 4199SOL    HW213497   3.221   3.724   4.949
 4200SOL     OW13498   2.095   0.416   6.768
 4200SOL    HW113499   2.184   0.406   6.813
 4200SOL    HW213500   2.107   0.407   6.669
 4201SOL     OW13501   5.905   0.195   3.699
 4201SOL    HW113502   6.002   0.197   3.675
 4201SOL    HW213503   5.869   0.103   3.684
 4202SOL     OW13504   5.795   4.969   5.422
 4202SOL    HW113505   5.884   4.925   5.418
 4202SOL    HW213506   5.789   5.040   5.352
 4203SOL     OW13507   4.983   5.490   2.988
 4203SOL    HW113508   4.946   5.477   2.896
 4203SOL    HW213509   5.077   5.523   2.981
 4204SOL     OW13510   3.627   3.085   1.112
 4204SOL    HW113511   3.535   3.078   1.151
 4204SOL    HW213512   3.695   3.064   1.182
 4205SOL     OW13513   3.197   5.195   4.624
 4205SOL    HW113514   3.222   5.264   4.692
 4205SOL    HW213515   3.129   5.233   4.561
 4206SOL     OW13516   4.899   0.344   4.981
 4206SOL    HW113517   4.928   0.273   4.916
 4206SOL    HW213518   4.848   0.415   4.932
 4207SOL     OW13519   1.360   0.967   1.847
 4207SOL    HW113520   1.348   1.034   1.774
 4207SOL    HW213521   1.281   0.906   1.850
 4208SOL     OW13522   1.166   2.457   0.660
 4208SOL    HW113523   1.084   2.500   0.622
 4208SOL    HW213524   1.186   2.372   0.611
 4209SOL     OW13525   2.244   6.954   5.212
 4209SOL    HW113526   2.209   0.023   5.235
 4209SOL    HW213527   2.217   6.931   5.119
 4210SOL     OW13528   4.190   2.978   0.707
 4210SOL    HW113529   4.235   2.892   0.684
 4210SOL    HW213530   4.247   3.030   0.771
 4211SOL     OW13531   4.444   4.552   4.140
 4211SOL    HW113532   4.442   4.587   4.046
 4211SOL    HW213533   4.443   4.629   4.204
 4212SOL     OW13534   6.159   1.090   2.882
 4212SOL    HW113535   6.079   1.147   2.902
 4212SOL    HW213536   6.136   0.994   2.895
 4213SOL     OW13537   1.588   0.987   2.492
 4213SOL    HW113538   1.647   0.907   2.508
 4213SOL    HW213539   1.622   1.037   2.413
 4214SOL     OW13540   0.845   3.587   5.098
 4214SOL    HW113541   0.824   3.499   5.055
 4214SOL    HW213542   0.917   3.574   5.167
 4215SOL     OW13543   0.765   5.309   5.069
 4215SOL    HW113544   0.767   5.338   4.974
 4215SOL    HW213545   0.826   5.230   5.082
 4216SOL     OW13546   0.852   2.702   4.288
 4216SOL    HW113547   0.863   2.799   4.308
 4216SOL    HW213548   0.910   2.648   4.348
 4217SOL     OW13549   0.195   1.097   2.823
 4217SOL    HW113550   0.115   1.043   2.848
 4217SOL    HW213551   0.273   1.068   2.878
 4218SOL     OW13552   4.389   0.130   2.311
 4218SOL    HW113553   4.453   0.192   2.267
 4218SOL    HW213554   4.318   0.103   2.245
 4219SOL     OW13555   4.573   5.688   4.508
 4219SOL    HW113556   4.563   5.674   4.410
 4219SOL    HW213557   4.609   5.605   4.550
 4220SOL     OW13558   6.563   3.633   4.314
 4220SOL    HW113559   6.606   3.704   4.370
 4220SOL    HW213560   6.593   3.543   4.346
 4221SOL     OW13561   5.302   5.373   6.442
 4221SOL    HW113562   5.236   5.314   6.394
 4221SOL    HW213563   5.264   5.400   6.531
 4222SOL     OW13564   5.159   2.641   1.952
 4222SOL    HW113565   5.112   2.593   2.027
 4222SOL    HW213566   5.118   2.731   1.939
 4223SOL     OW13567   3.359   4.123   2.185
 4223SOL    HW113568   3.394   4.131   2.091
 4223SOL    HW213569   3.273   4.072   2.185
 4224SOL     OW13570   4.378   2.424   4.874
 4224SOL    HW113571   4.422   2.512   4.889
 4224SOL    HW213572   4.308   2.409   4.943
 4225SOL     OW13573   5.888   0.265   4.725
 4225SOL    HW113574   5.797   0.301   4.706
 4225SOL    HW213575   5.954   0.341   4.724
 4226SOL     OW13576   0.572   1.746   3.671
 4226SOL    HW113577   0.498   1.798   3.716
 4226SOL    HW213578   0.618   1.689   3.739
 4227SOL     OW13579   4.421   4.478   0.068
 4227SOL    HW113580   4.340   4.485   0.010
 4227SOL    HW213581   4.490   4.424   0.021
 4228SOL     OW13582   6.412   5.519   3.119
 4228SOL    HW113583   6.507   5.521   3.088
 4228SOL    HW213584   6.399   5.587   3.191
 4229SOL     OW13585   4.591   4.872   5.695
 4229SOL    HW113586   4.665   4.923   5.739
 4229SOL    HW213587   4.628   4.821   5.617
 4230SOL     OW13588   3.529   0.679   5.210
 4230SOL    HW113589   3.613   0.718   5.171
 4230SOL    HW213590   3.464   0.661   5.136
 4231SOL     OW13591   4.730   6.677   5.088
 4231SOL    HW113592   4.666   6.751   5.071
 4231SOL    HW213593   4.719   6.644   5.182
 4232SOL     OW13594   2.019   4.904   2.931
 4232SOL    HW113595   2.012   4.846   3.012
 4232SOL    HW213596   2.054   4.994   2.957
 4233SOL     OW13597   6.723   6.672   6.908
 4233SOL    HW113598   6.628   6.698   6.922
 4233SOL    HW213599   6.733   6.573   6.920
 4234SOL     OW13600   3.030   4.833   6.290
 4234SOL    HW113601   3.039   4.735   6.276
 4234SOL    HW213602   2.980   4.873   6.213
 4235SOL     OW13603   6.471   3.503   5.509
 4235SOL    HW113604   6.390   3.549   5.545
 4235SOL    HW213605   6.516   3.563   5.443
 4236SOL     OW13606   1.422   3.071   4.395
 4236SOL    HW113607   1.343   3.122   4.428
 4236SOL    HW213608   1.400   3.028   4.308
 4237SOL     OW13609   5.223   3.626   4.746
 4237SOL    HW113610   5.296   3.688   4.774
 4237SOL    HW213611   5.234   3.602   4.650
 4238SOL     OW13612   3.994   5.658   3.820
 4238SOL    HW113613   3.918   5.688   3.878
 4238SOL    HW213614   3.957   5.624   3.733
 4239SOL     OW13615   4.972   5.934   5.929
 4239SOL    HW113616   5.018   5.854   5.890
 4239SOL    HW213617   5.040   6.001   5.959
 4240SOL     OW13618   2.628   4.897   6.501
 4240SOL    HW113619   2.611   4.918   6.598
 4240SOL    HW213620   2.630   4.798   6.488
 4241SOL     OW13621   4.375   0.366   0.758
 4241SOL    HW113622   4.348   0.291   0.698
 4241SOL    HW213623   4.316   0.445   0.741
 4242SOL     OW13624   2.066   0.552   2.866
 4242SOL    HW113625   1.977   0.509   2.878
 4242SOL    HW213626   2.137   0.494   2.905
 4243SOL     OW13627   1.162   3.736   2.153
 4243SOL    HW113628   1.151   3.830   2.187
 4243SOL    HW213629   1.253   3.702   2.177
 4244SOL     OW13630   4.590   6.737   1.079
 4244SOL    HW113631   4.641   6.690   1.152
 4244SOL    HW213632   4.653   6.794   1.026
 4245SOL     OW13633   6.750   3.206   1.065
 4245SOL    HW113634   6.669   3.265   1.072
 4245SOL    HW213635   6.821   3.252   1.012
 4246SOL     OW13636   5.254   1.966   2.951
 4246SOL    HW113637   5.235   2.002   3.043
 4246SOL    HW213638   5.246   2.040   2.884
 4247SOL     OW13639   1.808   4.541   5.586
 4247SOL    HW113640   1.875   4.615   5.583
 4247SOL    HW213641   1.756   4.547   5.671
 4248SOL     OW13642   1.666   0.824   3.352
 4248SOL    HW113643   1.606   0.890   3.397
 4248SOL    HW213644   1.671   0.740   3.407
 4249SOL     OW13645   6.640   0.247   5.021
 4249SOL    HW113646   6.677   0.183   5.088
 4249SOL    HW213647   6.541   0.253   5.031
 4250SOL     OW13648   0.188   5.862   4.440
 4250SOL    HW113649   0.161   5.933   4.375
 4250SOL    HW213650   0.286   5.843   4.429
 4251SOL     OW13651   6.016   1.924   5.970
 4251SOL    HW113652   5.950   1.905   6.042
 4251SOL    HW213653   6.083   1.850   5.966
 4252SOL     OW13654   6.459   6.486   6.871
 4252SOL    HW113655   6.530   6.502   6.802
 4252SOL    HW213656   6.452   6.566   6.930
 4253SOL     OW13657   4.063   5.557   2.622
 4253SOL    HW113658   3.996   5.486   2.644
 4253SOL    HW213659   4.134   5.518   2.564
 4254SOL     OW13660   1.688   2.885   6.864
 4254SOL    HW113661   1.692   2.978   6.901
 4254SOL    HW213662   1.700   2.888   6.765
 4255SOL     OW13663   0.744   3.633   3.015
 4255SOL    HW113664   0.659   3.637   2.962
 4255SOL    HW213665   0.753   3.717   3.068
 4256SOL     OW13666   0.592   5.234   1.978
 4256SOL    HW113667   0.528   5.293   2.027
 4256SOL    HW213668   0.685   5.252   2.009
 4257SOL     OW13669   6.219   0.403   5.470
 4257SOL    HW113670   6.134   0.441   5.435
 4257SOL    HW213671   6.293   0.422   5.406
 4258SOL     OW13672   3.894   5.630   0.210
 4258SOL    HW113673   3.803   5.589   0.205
 4258SOL    HW213674   3.955   5.585   0.144
 4259SOL     OW13675   0.837   6.877   2.282
 4259SOL    HW113676   0.906   6.851   2.349
 4259SOL    HW213677   0.777   6.948   2.320
 4260SOL     OW13678   4.842   0.202   4.244
 4260SOL    HW113679   4.866   0.299   4.250
 4260SOL    HW213680   4.783   0.188   4.164
 4261SOL     OW13681   2.138   0.057   3.790
 4261SOL    HW113682   2.113   6.983   3.794
 4261SOL    HW213683   2.217   0.069   3.731
 4262SOL     OW13684   1.751   4.010   6.603
 4262SOL    HW113685   1.793   3.919   6.604
 4262SOL    HW213686   1.820   4.079   6.626
 4263SOL     OW13687   2.629   2.437   4.103
 4263SOL    HW113688   2.615   2.417   4.200
 4263SOL    HW213689   2.553   2.492   4.069
 4264SOL     OW13690   5.402   1.122   4.467
 4264SOL    HW113691   5.383   1.220   4.472
 4264SOL    HW213692   5.344   1.081   4.396
 4265SOL     OW13693   3.382   1.121   0.813
 4265SOL    HW113694   3.382   1.172   0.899
 4265SOL    HW213695   3.464   1.063   0.808
 4266SOL     OW13696   1.542   6.523   0.819
 4266SOL    HW113697   1.617   6.570   0.772
 4266SOL    HW213698   1.577   6.479   0.902
 4267SOL     OW13699   1.857   4.179   4.722
 4267SOL    HW113700   1.802   4.256   4.689
 4267SOL    HW213701   1.808   4.133   4.796
 4268SOL     OW13702   1.366   4.357   6.268
 4268SOL    HW113703   1.381   4.391   6.361
 4268SOL    HW213704   1.270   4.368   6.243
 4269SOL     OW13705   2.814   1.616   4.403
 4269SOL    HW113706   2.780   1.682   4.337
 4269SOL    HW213707   2.765   1.530   4.393
 4270SOL     OW13708   3.853   2.374   0.662
 4270SOL    HW113709   3.818   2.288   0.626
 4270SOL    HW213710   3.929   2.405   0.605
 4271SOL     OW13711   6.648   0.729   1.242
 4271SOL    HW113712   6.743   0.761   1.248
 4271SOL    HW213713   6.621   0.688   1.328
 4272SOL     OW13714   6.668   1.243   6.296
 4272SOL    HW113715   6.575   1.220   6.266
 4272SOL    HW213716   6.717   1.288   6.222
 4273SOL     OW13717   3.803   5.569   4.752
 4273SOL    HW113718   3.709   5.536   4.758
 4273SOL    HW213719   3.814   5.621   4.667
 4274SOL     OW13720   6.872   1.183   1.734
 4274SOL    HW113721   6.879   1.198   1.832
 4274SOL    HW213722   6.782   1.214   1.702
 4275SOL     OW13723   0.390   3.008   3.244
 4275SOL    HW113724   0.458   3.080   3.259
 4275SOL    HW213725   0.322   3.012   3.317
 4276SOL     OW13726   2.209   6.122   4.215
 4276SOL    HW113727   2.122   6.079   4.191
 4276SOL    HW213728   2.222   6.119   4.314
 4277SOL     OW13729   6.098   5.753   3.212
 4277SOL    HW113730   6.081   5.682   3.143
 4277SOL    HW213731   6.159   5.823   3.174
 4278SOL     OW13732   1.063   6.882   2.019
 4278SOL    HW113733   0.963   6.888   2.022
 4278SOL    HW213734   1.101   6.928   2.099
 4279SOL     OW13735   2.094   1.928   3.214
 4279SOL    HW113736   2.012   1.968   3.173
 4279SOL    HW213737   2.146   1.999   3.260
 4280SOL     OW13738   0.792   0.089   6.305
 4280SOL    HW113739   0.886   0.105   6.334
 4280SOL    HW213740   0.774   7.013   6.303
 4281SOL     OW13741   4.309   6.290   3.499
 4281SOL    HW113742   4.386   6.252   3.447
 4281SOL    HW213743   4.224   6.251   3.465
 4282SOL     OW13744   3.553   4.243   1.143
 4282SOL    HW113745   3.619   4.169   1.151
 4282SOL    HW213746   3.496   4.247   1.225
 4283SOL     OW13747   4.905   1.256   3.898
 4283SOL    HW113748   4.863   1.308   3.824
 4283SOL    HW213749   4.980   1.309   3.937
 4284SOL     OW13750   4.814   5.872   6.227
 4284SOL    HW113751   4.817   5.953   6.169
 4284SOL    HW213752   4.832   5.790   6.172
 4285SOL     OW13753   3.148   0.227   5.592
 4285SOL    HW113754   3.159   0.206   5.689
 4285SOL    HW213755   3.077   0.297   5.582
 4286SOL     OW13756   5.722   1.182   6.366
 4286SOL    HW113757   5.689   1.092   6.334
 4286SOL    HW213758   5.765   1.230   6.290
 4287SOL     OW13759   4.642   0.674   0.084
 4287SOL    HW113760   4.621   0.743   0.014
 4287SOL    HW213761   4.567   0.672   0.151
 4288SOL     OW13762   6.591   6.735   2.237
 4288SOL    HW113763   6.502   6.742   2.192
 4288SOL    HW213764   6.584   6.770   2.331
 4289SOL     OW13765   0.742   3.624   4.290
 4289SOL    HW113766   0.644   3.643   4.281
 4289SOL    HW213767   0.791   3.673   4.218
 4290SOL     OW13768   0.033   1.109   3.116
 4290SOL    HW113769   0.073   1.027   3.073
 4290SOL    HW213770   7.011   1.083   3.201
 4291SOL     OW13771   5.244   3.265   6.520
 4291SOL    HW113772   5.266   3.255   6.423
 4291SOL    HW213773   5.164   3.324   6.530
 4292SOL     OW13774   5.901   2.075   0.574
 4292SOL    HW113775   5.997   2.081   0.599
 4292SOL    HW213776   5.889   2.102   0.478
 4293SOL     OW13777   3.704   4.348   6.873
 4293SOL    HW113778   3.628   4.374   6.933
 4293SOL    HW213779   3.675   4.276   6.810
 4294SOL     OW13780   2.550   2.032   6.527
 4294SOL    HW113781   2.499   2.056   6.444
 4294SOL    HW213782   2.487   2.004   6.599
 4295SOL     OW13783   3.699   6.474   2.734
 4295SOL    HW113784   3.749   6.538   2.793
 4295SOL    HW213785   3.647   6.526   2.666
 4296SOL     OW13786   2.622   6.091   2.032
 4296SOL    HW113787   2.708   6.097   2.082
 4296SOL    HW213788   2.561   6.166   2.058
 4297SOL     OW13789   6.014   4.564   0.924
 4297SOL    HW113790   6.097   4.615   0.904
 4297SOL    HW213791   5.960   4.613   0.993
 4298SOL     OW13792   3.426   6.540   0.322
 4298SOL    HW113793   3.480   6.547   0.239
 4298SOL    HW213794   3.393   6.446   0.332
 4299SOL     OW13795   1.133   2.840   0.166
 4299SOL    HW113796   1.127   2.851   0.067
 4299SOL    HW213797   1.140   2.743   0.188
 4300SOL     OW13798   3.062   0.943   0.924
 4300SOL    HW113799   3.000   0.923   1.000
 4300SOL    HW213800   3.019   0.917   0.838
 4301SOL     OW13801   3.149   6.871   1.534
 4301SOL    HW113802   3.096   6.797   1.574
 4301SOL    HW213803   3.181   6.844   1.443
 4302SOL     OW13804   1.940   5.540   5.564
 4302SOL    HW113805   2.011   5.475   5.537
 4302SOL    HW213806   1.944   5.555   5.663
 4303SOL     OW13807   6.005   4.244   3.506
 4303SOL    HW113808   5.992   4.343   3.499
 4303SOL    HW213809   6.078   4.225   3.571
 4304SOL     OW13810   3.466   3.635   1.488
 4304SOL    HW113811   3.520   3.695   1.430
 4304SOL    HW213812   3.401   3.689   1.541
 4305SOL     OW13813   1.584   0.304   5.249
 4305SOL    HW113814   1.492   0.268   5.267
 4305SOL    HW213815   1.641   0.291   5.330
 4306SOL     OW13816   5.499   3.474   4.985
 4306SOL    HW113817   5.532   3.461   4.891
 4306SOL    HW213818   5.401   3.452   4.989
 4307SOL     OW13819   6.582   1.953   5.255
 4307SOL    HW113820   6.591   1.884   5.327
 4307SOL    HW213821   6.653   1.940   5.186
 4308SOL     OW13822   4.879   4.957   0.063
 4308SOL    HW113823   4.887   5.038   0.122
 4308SOL    HW213824   4.840   4.881   0.116
 4309SOL     OW13825   1.386   3.205   0.306
 4309SOL    HW113826   1.314   3.147   0.344
 4309SOL    HW213827   1.395   3.186   0.208
 4310SOL     OW13828   0.019   1.574   2.899
 4310SOL    HW113829   7.018   1.616   2.812
 4310SOL    HW213830   6.993   1.486   2.908
 4311SOL     OW13831   0.791   0.243   2.406
 4311SOL    HW113832   0.709   0.300   2.415
 4311SOL    HW213833   0.872   0.300   2.420
 4312SOL     OW13834   0.266   4.568   2.612
 4312SOL    HW113835   0.250   4.480   2.656
 4312SOL    HW213836   0.279   4.638   2.683
 4313SOL     OW13837   6.399   1.863   0.193
 4313SOL    HW113838   6.487   1.899   0.225
 4313SOL    HW213839   6.326   1.894   0.254
 4314SOL     OW13840   6.587   2.234   5.350
 4314SOL    HW113841   6.635   2.200   5.431
 4314SOL    HW213842   6.544   2.157   5.302
 4315SOL     OW13843   2.556   1.643   4.067
 4315SOL    HW113844   2.521   1.701   3.993
 4315SOL    HW213845   2.655   1.645   4.067
 4316SOL     OW13846   5.247   0.013   1.838
 4316SOL    HW113847   5.194   0.071   1.900
 4316SOL    HW213848   5.228   0.040   1.744
 4317SOL     OW13849   4.199   1.251   6.123
 4317SOL    HW113850   4.170   1.289   6.036
 4317SOL    HW213851   4.260   1.174   6.107
 4318SOL     OW13852   0.302   1.215   4.188
 4318SOL    HW113853   0.318   1.240   4.093
 4318SOL    HW213854   0.219   1.160   4.195
 4319SOL     OW13855   1.078   4.968   2.184
 4319SOL    HW113856   1.004   4.952   2.249
 4319SOL    HW213857   1.045   4.951   2.091
 4320SOL     OW13858   3.522   5.801   0.599
 4320SOL    HW113859   3.461   5.841   0.667
 4320SOL    HW213860   3.474   5.792   0.512
 4321SOL     OW13861   6.417   6.884   2.760
 4321SOL    HW113862   6.371   6.970   2.738
 4321SOL    HW213863   6.506   6.904   2.801
 4322SOL     OW13864   0.920   3.348   5.364
 4322SOL    HW113865   0.886   3.321   5.273
 4322SOL    HW213866   1.006   3.397   5.354
 4323SOL     OW13867   4.117   5.470   6.610
 4323SOL    HW113868   4.101   5.566   6.630
 4323SOL    HW213869   4.211   5.457   6.578
 4324SOL     OW13870   0.171   4.401   5.579
 4324SOL    HW113871   0.154   4.410   5.677
 4324SOL    HW213872   0.127   4.317   5.546
 4325SOL     OW13873   2.897   0.191   2.688
 4325SOL    HW113874   2.810   0.239   2.678
 4325SOL    HW213875   2.961   0.249   2.739
 4326SOL     OW13876   4.568   2.544   2.940
 4326SOL    HW113877   4.551   2.487   3.020
 4326SOL    HW213878   4.513   2.510   2.863
 4327SOL     OW13879   3.322   5.915   4.274
 4327SOL    HW113880   3.413   5.955   4.285
 4327SOL    HW213881   3.271   5.967   4.205
 4328SOL     OW13882   5.820   6.278   5.088
 4328SOL    HW113883   5.722   6.273   5.107
 4328SOL    HW213884   5.841   6.364   5.042
 4329SOL     OW13885   6.621   2.142   5.618
 4329SOL    HW113886   6.593   2.229   5.659
 4329SOL    HW213887   6.545   2.077   5.622
 4330SOL     OW13888   2.942   4.877   5.000
 4330SOL    HW113889   2.975   4.899   5.092
 4330SOL    HW213890   2.892   4.791   5.003
 4331SOL     OW13891   6.267   0.994   1.846
 4331SOL    HW113892   6.170   1.014   1.849
 4331SOL    HW213893   6.280   0.898   1.820
 4332SOL     OW13894   0.303   4.703   2.890
 4332SOL    HW113895   0.214   4.744   2.867
 4332SOL    HW213896   0.353   4.764   2.952
 4333SOL     OW13897   3.630   2.054   5.484
 4333SOL    HW113898   3.620   2.030   5.580
 4333SOL    HW213899   3.685   1.985   5.437
 4334SOL     OW13900   0.621   2.608   4.172
 4334SOL    HW113901   0.702   2.616   4.229
 4334SOL    HW213902   0.639   2.646   4.081
 4335SOL     OW13903   2.848   3.635   0.991
 4335SOL    HW113904   2.778   3.585   0.942
 4335SOL    HW213905   2.932   3.637   0.937
 4336SOL     OW13906   2.875   5.405   6.027
 4336SOL    HW113907   2.906   5.479   5.968
 4336SOL    HW213908   2.798   5.436   6.083
 4337SOL     OW13909   1.514   5.292   3.593
 4337SOL    HW113910   1.534   5.223   3.663
 4337SOL    HW213911   1.517   5.383   3.633
 4338SOL     OW13912   4.637   1.154   6.020
 4338SOL    HW113913   4.693   1.186   5.944
 4338SOL    HW213914   4.664   1.201   6.104
 4339SOL     OW13915   4.007   2.888   6.231
 4339SOL    HW113916   3.989   2.952   6.156
 4339SOL    HW213917   3.945   2.908   6.307
 4340SOL     OW13918   0.267   3.367   1.024
 4340SOL    HW113919   0.360   3.344   0.996
 4340SOL    HW213920   0.217   3.283   1.045
 4341SOL     OW13921   6.889   6.782   2.467
 4341SOL    HW113922   6.982   6.794   2.432
 4341SOL    HW213923   6.850   6.697   2.431
 4342SOL     OW13924   5.378   4.013   2.483
 4342SOL    HW113925   5.412   3.990   2.574
 4342SOL    HW213926   5.278   4.003   2.481
 4343SOL     OW13927   4.350   0.626   5.888
 4343SOL    HW113928   4.440   0.627   5.846
 4343SOL    HW213929   4.359   0.627   5.987
 4344SOL     OW13930   0.160   3.237   3.690
 4344SOL    HW113931   0.187   3.175   3.763
 4344SOL    HW213932   0.171   3.332   3.720
 4345SOL     OW13933   2.855   3.500   2.304
 4345SOL    HW113934   2.898   3.581   2.263
 4345SOL    HW213935   2.756   3.514   2.310
 4346SOL     OW13936   1.378   3.876   1.803
 4346SOL    HW113937   1.410   3.814   1.732
 4346SOL    HW213938   1.431   3.861   1.887
 4347SOL     OW13939   5.907   4.976   1.339
 4347SOL    HW113940   5.899   4.952   1.243
 4347SOL    HW213941   5.935   5.071   1.348
 4348SOL     OW13942   5.590   5.955   4.273
 4348SOL    HW113943   5.512   5.896   4.292
 4348SOL    HW213944   5.562   6.051   4.277
 4349SOL     OW13945   6.945   3.354   4.467
 4349SOL    HW113946   7.010   3.306   4.408
 4349SOL    HW213947   6.923   3.296   4.545
 4350SOL     OW13948   4.557   1.092   4.928
 4350SOL    HW113949   4.576   1.025   4.856
 4350SOL    HW213950   4.643   1.134   4.958
 4351SOL     OW13951   0.982   6.317   0.509
 4351SOL    HW113952   0.889   6.337   0.478
 4351SOL    HW213953   0.978   6.251   0.585
 4352SOL     OW13954   3.898   3.859   1.052
 4352SOL    HW113955   3.936   3.868   0.961
 4352SOL    HW213956   3.871   3.949   1.086
 4353SOL     OW13957   3.274   2.730   0.828
 4353SOL    HW113958   3.360   2.709   0.875
 4353SOL    HW213959   3.273   2.827   0.803
 4354SOL     OW13960   5.522   0.093   3.595
 4354SOL    HW113961   5.535   0.090   3.694
 4354SOL    HW213962   5.597   0.045   3.549
 4355SOL     OW13963   1.427   6.257   3.477
 4355SOL    HW113964   1.332   6.239   3.451
 4355SOL    HW213965   1.486   6.246   3.397
 4356SOL     OW13966   5.734   2.289   5.921
 4356SOL    HW113967   5.711   2.381   5.953
 4356SOL    HW213968   5.828   2.267   5.948
 4357SOL     OW13969   6.683   1.114   2.668
 4357SOL    HW113970   6.678   1.046   2.594
 4357SOL    HW213971   6.726   1.073   2.748
 4358SOL     OW13972   1.571   6.984   0.082
 4358SOL    HW113973   1.567   6.891   0.044
 4358SOL    HW213974   1.535   6.983   0.176
 4359SOL     OW13975   1.855   1.546   0.126
 4359SOL    HW113976   1.849   1.460   0.075
 4359SOL    HW213977   1.941   1.548   0.177
 4360SOL     OW13978   1.625   3.253   3.458
 4360SOL    HW113979   1.581   3.165   3.440
 4360SOL    HW213980   1.595   3.319   3.389
 4361SOL     OW13981   0.293   1.106   0.820
 4361SOL    HW113982   0.230   1.147   0.754
 4361SOL    HW213983   0.388   1.123   0.791
 4362SOL     OW13984   0.921   5.893   3.695
 4362SOL    HW113985   0.864   5.968   3.730
 4362SOL    HW213986   1.016   5.909   3.720
 4363SOL     OW13987   4.770   1.573   1.937
 4363SOL    HW113988   4.821   1.504   1.886
 4363SOL    HW213989   4.773   1.551   2.035
 4364SOL     OW13990   4.029   3.671   2.676
 4364SOL    HW113991   4.081   3.605   2.731
 4364SOL    HW213992   4.012   3.753   2.731
 4365SOL     OW13993   2.951   2.143   1.827
 4365SOL    HW113994   2.973   2.230   1.872
 4365SOL    HW213995   3.031   2.082   1.832
 4366SOL     OW13996   4.249   6.063   4.877
 4366SOL    HW113997   4.325   6.089   4.937
 4366SOL    HW213998   4.276   5.987   4.820
 4367SOL     OW13999   2.197   5.853   3.524
 4367SOL    HW114000   2.247   5.939   3.526
 4367SOL    HW214001   2.260   5.777   3.508
 4368SOL     OW14002   4.737   4.449   2.886
 4368SOL    HW114003   4.806   4.515   2.913
 4368SOL    HW214004   4.716   4.388   2.963
 4369SOL     OW14005   4.085   4.802   3.050
 4369SOL    HW114006   4.150   4.756   2.991
 4369SOL    HW214007   4.004   4.829   2.997
 4370SOL     OW14008   4.001   4.504   1.446
 4370SOL    HW114009   3.955   4.438   1.506
 4370SOL    HW214010   4.098   4.507   1.468
 4371SOL     OW14011   3.439   1.197   1.610
 4371SOL    HW114012   3.537   1.181   1.625
 4371SOL    HW214013   3.388   1.167   1.690
 4372SOL     OW14014   2.128   3.209   4.274
 4372SOL    HW114015   2.129   3.247   4.367
 4372SOL    HW214016   2.194   3.133   4.269
 4373SOL     OW14017   4.628   1.253   5.382
 4373SOL    HW114018   4.643   1.346   5.347
 4373SOL    HW214019   4.531   1.241   5.402
 4374SOL     OW14020   2.347   1.371   1.771
 4374SOL    HW114021   2.269   1.385   1.710
 4374SOL    HW214022   2.432   1.373   1.718
 4375SOL     OW14023   4.216   0.706   3.405
 4375SOL    HW114024   4.138   0.769   3.411
 4375SOL    HW214025   4.299   0.754   3.436
 4376SOL     OW14026   0.229   6.585   1.261
 4376SOL    HW114027   0.303   6.525   1.291
 4376SOL    HW214028   0.150   6.575   1.322
 4377SOL     OW14029   5.878   6.479   6.390
 4377SOL    HW114030   5.818   6.421   6.445
 4377SOL    HW214031   5.962   6.497   6.441
 4378SOL     OW14032   2.051   5.283   2.658
 4378SOL    HW114033   1.958   5.314   2.680
 4378SOL    HW214034   2.052   5.245   2.566
 4379SOL     OW14035   1.288   0.524   1.997
 4379SOL    HW114036   1.361   0.592   2.003
 4379SOL    HW214037   1.253   0.520   1.904
 4380SOL     OW14038   1.461   5.981   5.081
 4380SOL    HW114039   1.445   5.887   5.111
 4380SOL    HW214040   1.539   6.019   5.130
 4381SOL     OW14041   3.670   6.402   4.657
 4381SOL    HW114042   3.605   6.351   4.714
 4381SOL    HW214043   3.633   6.409   4.564
 4382SOL     OW14044   5.013   3.870   4.153
 4382SOL    HW114045   4.941   3.815   4.197
 4382SOL    HW214046   4.972   3.948   4.107
 4383SOL     OW14047   0.629   2.963   5.908
 4383SOL    HW114048   0.718   2.994   5.940
 4383SOL    HW214049   0.622   2.864   5.919
 4384SOL     OW14050   3.658   6.008   0.671
 4384SOL    HW114051   3.593   6.071   0.714
 4384SOL    HW214052   3.616   5.917   0.664
 4385SOL     OW14053   0.685   2.388   2.413
 4385SOL    HW114054   0.648   2.418   2.325
 4385SOL    HW214055   0.742   2.307   2.399
 4386SOL     OW14056   0.966   3.047   6.751
 4386SOL    HW114057   0.930   2.987   6.679
 4386SOL    HW214058   0.920   3.026   6.837
 4387SOL     OW14059   0.204   3.272   1.737
 4387SOL    HW114060   0.230   3.192   1.791
 4387SOL    HW214061   0.264   3.348   1.760
 4388SOL     OW14062   3.608   0.977   5.945
 4388SOL    HW114063   3.630   1.047   5.877
 4388SOL    HW214064   3.692   0.931   5.974
 4389SOL     OW14065   5.237   2.608   2.994
 4389SOL    HW114066   5.166   2.599   3.064
 4389SOL    HW214067   5.222   2.691   2.941
 4390SOL     OW14068   4.712   2.818   2.244
 4390SOL    HW114069   4.727   2.727   2.206
 4390SOL    HW214070   4.710   2.885   2.170
 4391SOL     OW14071   1.291   5.584   0.411
 4391SOL    HW114072   1.341   5.509   0.367
 4391SOL    HW214073   1.205   5.599   0.362
 4392SOL     OW14074   4.845   3.046   4.580
 4392SOL    HW114075   4.827   3.141   4.608
 4392SOL    HW214076   4.925   3.012   4.629
 4393SOL     OW14077   4.818   6.648   3.229
 4393SOL    HW114078   4.907   6.663   3.187
 4393SOL    HW214079   4.746   6.684   3.170
 4394SOL     OW14080   5.173   0.363   2.806
 4394SOL    HW114081   5.227   0.399   2.882
 4394SOL    HW214082   5.076   0.371   2.828
 4395SOL     OW14083   5.848   1.970   1.952
 4395SOL    HW114084   5.808   2.049   2.000
 4395SOL    HW214085   5.948   1.980   1.950
 4396SOL     OW14086   1.031   0.676   4.241
 4396SOL    HW114087   1.121   0.720   4.232
 4396SOL    HW214088   0.970   0.736   4.292
 4397SOL     OW14089   6.363   0.238   4.995
 4397SOL    HW114090   6.377   0.140   4.978
 4397SOL    HW214091   6.358   0.286   4.907
 4398SOL     OW14092   0.148   4.828   4.468
 4398SOL    HW114093   0.106   4.777   4.394
 4398SOL    HW214094   0.126   4.785   4.556
 4399SOL     OW14095   2.019   1.119   1.029
 4399SOL    HW114096   2.055   1.109   0.936
 4399SOL    HW214097   1.996   1.215   1.045
 4400SOL     OW14098   3.160   6.431   4.628
 4400SOL    HW114099   3.079   6.381   4.659
 4400SOL    HW214100   3.225   6.368   4.588
 4401SOL     OW14101   5.684   6.284   4.547
 4401SOL    HW114102   5.762   6.252   4.600
 4401SOL    HW214103   5.599   6.257   4.593
 4402SOL     OW14104   0.623   6.223   2.961
 4402SOL    HW114105   0.663   6.282   2.891
 4402SOL    HW214106   0.531   6.196   2.933
 4403SOL     OW14107   0.676   0.363   3.304
 4403SOL    HW114108   0.767   0.362   3.344
 4403SOL    HW214109   0.667   0.441   3.242
 4404SOL     OW14110   0.627   3.844   3.488
 4404SOL    HW114111   0.716   3.800   3.497
 4404SOL    HW214112   0.617   3.914   3.559
 4405SOL     OW14113   3.605   4.324   5.896
 4405SOL    HW114114   3.522   4.275   5.869
 4405SOL    HW214115   3.625   4.395   5.829
 4406SOL     OW14116   5.773   4.079   1.310
 4406SOL    HW114117   5.794   4.072   1.408
 4406SOL    HW214118   5.791   3.991   1.265
 4407SOL     OW14119   5.987   0.230   0.054
 4407SOL    HW114120   5.939   0.163   7.020
 4407SOL    HW214121   6.016   0.307   7.019
 4408SOL     OW14122   4.604   0.037   6.582
 4408SOL    HW114123   4.549   7.009   6.516
 4408SOL    HW214124   4.650   0.114   6.536
 4409SOL     OW14125   3.458   0.306   1.686
 4409SOL    HW114126   3.392   0.364   1.734
 4409SOL    HW214127   3.427   0.211   1.689
 4410SOL     OW14128   2.159   4.911   1.557
 4410SOL    HW114129   2.238   4.933   1.499
 4410SOL    HW214130   2.081   4.966   1.529
 4411SOL     OW14131   3.928   3.061   2.831
 4411SOL    HW114132   3.896   2.977   2.874
 4411SOL    HW214133   4.017   3.086   2.868
 4412SOL     OW14134   3.985   1.221   6.747
 4412SOL    HW114135   3.966   1.301   6.803
 4412SOL    HW214136   3.950   1.139   6.793
 4413SOL     OW14137   4.215   6.072   4.115
 4413SOL    HW114138   4.141   6.095   4.052
 4413SOL    HW214139   4.281   6.012   4.069
 4414SOL     OW14140   3.855   4.820   1.758
 4414SOL    HW114141   3.780   4.764   1.793
 4414SOL    HW214142   3.942   4.773   1.772
 4415SOL     OW14143   5.175   2.802   6.665
 4415SOL    HW114144   5.087   2.762   6.639
 4415SOL    HW214145   5.223   2.739   6.726
 4416SOL     OW14146   3.338   6.906   4.754
 4416SOL    HW114147   3.270   6.903   4.828
 4416SOL    HW214148   3.361   7.001   4.734
 4417SOL     OW14149   6.917   6.136   2.317
 4417SOL    HW114150   6.923   6.226   2.275
 4417SOL    HW214151   6.918   6.066   2.246
 4418SOL     OW14152   3.791   0.232   3.678
 4418SOL    HW114153   3.704   0.219   3.629
 4418SOL    HW214154   3.791   0.177   3.761
 4419SOL     OW14155   0.414   5.184   6.952
 4419SOL    HW114156   0.474   5.144   6.882
 4419SOL    HW214157   0.419   5.283   6.947
 4420SOL     OW14158   5.347   1.731   6.599
 4420SOL    HW114159   5.252   1.706   6.585
 4420SOL    HW214160   5.387   1.674   6.670
 4421SOL     OW14161   1.702   1.662   3.298
 4421SOL    HW114162   1.632   1.679   3.228
 4421SOL    HW214163   1.659   1.626   3.380
 4422SOL     OW14164   1.898   4.175   5.993
 4422SOL    HW114165   1.872   4.146   5.901
 4422SOL    HW214166   1.961   4.108   6.033
 4423SOL     OW14167   1.421   2.262   6.334
 4423SOL    HW114168   1.380   2.173   6.317
 4423SOL    HW214169   1.431   2.276   6.433
 4424SOL     OW14170   6.634   0.050   2.854
 4424SOL    HW114171   6.638   0.102   2.769
 4424SOL    HW214172   6.586   0.102   2.924
 4425SOL     OW14173   4.031   4.639   6.502
 4425SOL    HW114174   3.937   4.613   6.479
 4425SOL    HW214175   4.095   4.583   6.449
 4426SOL     OW14176   0.498   0.457   5.511
 4426SOL    HW114177   0.499   0.472   5.610
 4426SOL    HW214178   0.439   0.379   5.491
 4427SOL     OW14179   1.347   0.395   3.153
 4427SOL    HW114180   1.327   0.371   3.248
 4427SOL    HW214181   1.400   0.322   3.110
 4428SOL     OW14182   2.367   5.780   4.162
 4428SOL    HW114183   2.300   5.826   4.104
 4428SOL    HW214184   2.437   5.845   4.190
 4429SOL     OW14185   3.359   0.102   3.408
 4429SOL    HW114186   3.407   0.048   3.340
 4429SOL    HW214187   3.297   0.042   3.460
 4430SOL     OW14188   2.606   0.788   2.476
 4430SOL    HW114189   2.546   0.803   2.398
 4430SOL    HW214190   2.687   0.737   2.447
 4431SOL     OW14191   2.806   1.917   3.630
 4431SOL    HW114192   2.812   1.926   3.531
 4431SOL    HW214193   2.859   1.989   3.673
 4432SOL     OW14194   2.847   3.507   2.842
 4432SOL    HW114195   2.837   3.520   2.744
 4432SOL    HW214196   2.941   3.529   2.870
 4433SOL     OW14197   6.103   0.246   2.379
 4433SOL    HW114198   6.106   0.147   2.392
 4433SOL    HW214199   6.109   0.268   2.282
 4434SOL     OW14200   6.190   2.629   4.161
 4434SOL    HW114201   6.282   2.606   4.193
 4434SOL    HW214202   6.143   2.684   4.230
 4435SOL     OW14203   3.923   3.020   1.697
 4435SOL    HW114204   3.839   3.008   1.646
 4435SOL    HW214205   3.902   3.046   1.791
 4436SOL     OW14206   4.866   1.846   6.667
 4436SOL    HW114207   4.802   1.782   6.709
 4436SOL    HW214208   4.872   1.929   6.721
 4437SOL     OW14209   3.515   1.036   4.793
 4437SOL    HW114210   3.465   0.984   4.723
 4437SOL    HW214211   3.528   1.130   4.762
 4438SOL     OW14212   4.483   2.840   6.703
 4438SOL    HW114213   4.510   2.744   6.709
 4438SOL    HW214214   4.385   2.848   6.720
 4439SOL     OW14215   1.931   5.818   2.383
 4439SOL    HW114216   1.907   5.878   2.306
 4439SOL    HW214217   1.911   5.865   2.469
 4440SOL     OW14218   1.194   6.906   6.372
 4440SOL    HW114219   1.122   6.935   6.434
 4440SOL    HW214220   1.257   6.982   6.356
 4441SOL     OW14221   5.537   2.639   2.998
 4441SOL    HW114222   5.470   2.583   2.948
 4441SOL    HW214223   5.535   2.732   2.963
 4442SOL     OW14224   3.308   5.956   3.713
 4442SOL    HW114225   3.221   5.941   3.760
 4442SOL    HW214226   3.368   5.878   3.728
 4443SOL     OW14227   2.579   1.798   5.996
 4443SOL    HW114228   2.626   1.855   5.929
 4443SOL    HW214229   2.646   1.749   6.051
 4444SOL     OW14230   5.450   6.976   0.958
 4444SOL    HW114231   5.462   6.878   0.970
 4444SOL    HW214232   5.380   6.994   0.889
 4445SOL     OW14233   1.258   0.958   6.071
 4445SOL    HW114234   1.193   1.035   6.070
 4445SOL    HW214235   1.230   0.892   6.140
 4446SOL     OW14236   6.574   0.271   2.690
 4446SOL    HW114237   6.662   0.289   2.646
 4446SOL    HW214238   6.547   0.351   2.744
 4447SOL     OW14239   5.348   2.069   5.631
 4447SOL    HW114240   5.447   2.077   5.614
 4447SOL    HW214241   5.301   2.145   5.587
 4448SOL     OW14242   2.383   3.628   6.867
 4448SOL    HW114243   2.317   3.556   6.889
 4448SOL    HW214244   2.460   3.623   6.931
 4449SOL     OW14245   1.509   1.666   5.363
 4449SOL    HW114246   1.469   1.584   5.404
 4449SOL    HW214247   1.606   1.651   5.346
 4450SOL     OW14248   3.701   3.220   3.367
 4450SOL    HW114249   3.699   3.133   3.417
 4450SOL    HW214250   3.608   3.245   3.340
 4451SOL     OW14251   6.680   4.773   2.371
 4451SOL    HW114252   6.731   4.767   2.457
 4451SOL    HW214253   6.610   4.702   2.369
 4452SOL     OW14254   6.134   6.497   6.474
 4452SOL    HW114255   6.180   6.581   6.446
 4452SOL    HW214256   6.200   6.437   6.520
 4453SOL     OW14257   5.156   2.444   1.087
 4453SOL    HW114258   5.169   2.370   1.154
 4453SOL    HW214259   5.223   2.435   1.014
 4454SOL     OW14260   5.768   3.094   1.409
 4454SOL    HW114261   5.707   3.026   1.368
 4454SOL    HW214262   5.714   3.167   1.449
 4455SOL     OW14263   3.880   1.243   2.536
 4455SOL    HW114264   3.918   1.275   2.450
 4455SOL    HW214265   3.782   1.265   2.539
 4456SOL     OW14266   1.414   4.882   3.658
 4456SOL    HW114267   1.464   4.969   3.658
 4456SOL    HW214268   1.462   4.817   3.717
 4457SOL     OW14269   5.355   1.826   6.283
 4457SOL    HW114270   5.318   1.750   6.229
 4457SOL    HW214271   5.294   1.844   6.361
 4458SOL     OW14272   3.370   2.290   6.563
 4458SOL    HW114273   3.415   2.226   6.501
 4458SOL    HW214274   3.368   2.381   6.522
 4459SOL     OW14275   4.779   6.630   4.503
 4459SOL    HW114276   4.863   6.625   4.556
 4459SOL    HW214277   4.798   6.666   4.412
 4460SOL     OW14278   3.000   2.276   6.062
 4460SOL    HW114279   2.928   2.249   6.126
 4460SOL    HW214280   3.086   2.287   6.111
 4461SOL     OW14281   2.026   0.100   2.454
 4461SOL    HW114282   2.032   0.015   2.402
 4461SOL    HW214283   2.072   0.174   2.403
 4462SOL     OW14284   6.824   5.062   1.158
 4462SOL    HW114285   6.876   4.980   1.135
 4462SOL    HW214286   6.815   5.120   1.076
 4463SOL     OW14287   1.583   3.544   6.164
 4463SOL    HW114288   1.599   3.446   6.155
 4463SOL    HW214289   1.671   3.592   6.166
 4464SOL     OW14290   5.735   3.512   6.120
 4464SOL    HW114291   5.770   3.484   6.031
 4464SOL    HW214292   5.717   3.431   6.176
 4465SOL     OW14293   1.341   6.127   1.874
 4465SOL    HW114294   1.397   6.055   1.915
 4465SOL    HW214295   1.268   6.085   1.820
 4466SOL     OW14296   1.069   1.953   2.976
 4466SOL    HW114297   0.998   2.015   2.943
 4466SOL    HW214298   1.118   1.913   2.898
 4467SOL     OW14299   1.088   6.785   3.528
 4467SOL    HW114300   1.101   6.870   3.578
 4467SOL    HW214301   1.035   6.721   3.584
 4468SOL     OW14302   1.060   2.656   0.424
 4468SOL    HW114303   1.025   2.707   0.503
 4468SOL    HW214304   0.992   2.658   0.350
 4469SOL     OW14305   3.992   0.062   0.723
 4469SOL    HW114306   3.922   0.030   0.659
 4469SOL    HW214307   3.974   0.157   0.748
 4470SOL     OW14308   4.968   3.798   1.353
 4470SOL    HW114309   4.925   3.841   1.273
 4470SOL    HW214310   4.964   3.862   1.431
 4471SOL     OW14311   6.705   2.751   1.602
 4471SOL    HW114312   6.611   2.736   1.630
 4471SOL    HW214313   6.766   2.690   1.653
 4472SOL     OW14314   1.657   4.092   2.131
 4472SOL    HW114315   1.563   4.067   2.155
 4472SOL    HW214316   1.715   4.010   2.133
 4473SOL     OW14317   6.751   6.941   4.302
 4473SOL    HW114318   6.660   6.964   4.338
 4473SOL    HW214319   6.767   6.994   4.218
 4474SOL     OW14320   4.633   0.488   2.815
 4474SOL    HW114321   4.645   0.578   2.772
 4474SOL    HW214322   4.592   0.501   2.906
 4475SOL     OW14323   2.018   4.445   0.277
 4475SOL    HW114324   1.986   4.357   0.241
 4475SOL    HW214325   2.113   4.437   0.306
 4476SOL     OW14326   4.853   6.493   2.149
 4476SOL    HW114327   4.831   6.445   2.234
 4476SOL    HW214328   4.821   6.439   2.071
 4477SOL     OW14329   1.610   1.278   0.587
 4477SOL    HW114330   1.664   1.262   0.670
 4477SOL    HW214331   1.667   1.259   0.507
 4478SOL     OW14332   2.072   6.544   2.589
 4478SOL    HW114333   2.129   6.601   2.648
 4478SOL    HW214334   2.032   6.600   2.517
 4479SOL     OW14335   1.339   0.419   5.698
 4479SOL    HW114336   1.352   0.469   5.612
 4479SOL    HW214337   1.397   0.459   5.769
 4480SOL     OW14338   1.279   4.762   4.717
 4480SOL    HW114339   1.340   4.684   4.708
 4480SOL    HW214340   1.217   4.765   4.639
 4481SOL     OW14341   1.053   6.274   3.972
 4481SOL    HW114342   1.003   6.196   4.010
 4481SOL    HW214343   0.991   6.333   3.921
 4482SOL     OW14344   0.197   4.923   3.971
 4482SOL    HW114345   0.272   4.862   3.946
 4482SOL    HW214346   0.232   4.996   4.030
 4483SOL     OW14347   5.511   3.083   1.797
 4483SOL    HW114348   5.451   3.066   1.719
 4483SOL    HW214349   5.558   3.170   1.785
 4484SOL     OW14350   3.591   2.377   5.587
 4484SOL    HW114351   3.559   2.468   5.559
 4484SOL    HW214352   3.620   2.379   5.682
 4485SOL     OW14353   5.080   1.630   6.591
 4485SOL    HW114354   5.075   1.539   6.632
 4485SOL    HW214355   5.022   1.693   6.643
 4486SOL     OW14356   6.256   3.314   4.630
 4486SOL    HW114357   6.157   3.316   4.614
 4486SOL    HW214358   6.301   3.269   4.553
 4487SOL     OW14359   2.907   3.148   6.447
 4487SOL    HW114360   2.807   3.153   6.453
 4487SOL    HW214361   2.938   3.188   6.361
 4488SOL     OW14362   6.816   1.454   4.849
 4488SOL    HW114363   6.723   1.462   4.813
 4488SOL    HW214364   6.870   1.393   4.791
 4489SOL     OW14365   5.911   6.581   4.595
 4489SOL    HW114366   5.911   6.493   4.643
 4489SOL    HW214367   5.820   6.623   4.601
 4490SOL     OW14368   6.637   1.769   2.846
 4490SOL    HW114369   6.537   1.767   2.845
 4490SOL    HW214370   6.673   1.754   2.754
 4491SOL     OW14371   0.856   3.618   2.610
 4491SOL    HW114372   0.778   3.678   2.593
 4491SOL    HW214373   0.826   3.538   2.663
 4492SOL     OW14374   4.950   2.972   0.187
 4492SOL    HW114375   4.982   2.960   0.093
 4492SOL    HW214376   4.874   3.036   0.188
 4493SOL     OW14377   5.616   5.991   4.889
 4493SOL    HW114378   5.692   5.993   4.954
 4493SOL    HW214379   5.613   5.902   4.843
 4494SOL     OW14380   0.023   4.210   5.165
 4494SOL    HW114381   0.069   4.141   5.221
 4494SOL    HW214382   6.960   4.173   5.130
 4495SOL     OW14383   4.773   6.610   1.816
 4495SOL    HW114384   4.867   6.641   1.800
 4495SOL    HW214385   4.774   6.513   1.840
 4496SOL     OW14386   5.249   3.563   5.320
 4496SOL    HW114387   5.178   3.573   5.251
 4496SOL    HW214388   5.325   3.625   5.300
 4497SOL     OW14389   6.360   5.073   0.206
 4497SOL    HW114390   6.284   5.064   0.142
 4497SOL    HW214391   6.325   5.086   0.298
 4498SOL     OW14392   0.317   3.183   0.108
 4498SOL    HW114393   0.238   3.151   0.055
 4498SOL    HW214394   0.296   3.272   0.148
 4499SOL     OW14395   7.021   3.276   6.033
 4499SOL    HW114396   6.996   3.242   6.123
 4499SOL    HW214397   6.942   3.269   5.972
 4500SOL     OW14398   2.980   3.777   4.386
 4500SOL    HW114399   2.939   3.800   4.475
 4500SOL    HW214400   2.936   3.695   4.350
 4501SOL     OW14401   6.834   4.787   5.491
 4501SOL    HW114402   6.892   4.723   5.441
 4501SOL    HW214403   6.891   4.863   5.524
 4502SOL     OW14404   1.032   2.331   0.023
 4502SOL    HW114405   1.018   2.244   6.999
 4502SOL    HW214406   0.951   2.389   0.010
 4503SOL     OW14407   1.254   1.647   3.620
 4503SOL    HW114408   1.277   1.586   3.544
 4503SOL    HW214409   1.161   1.626   3.652
 4504SOL     OW14410   5.657   2.633   4.832
 4504SOL    HW114411   5.750   2.668   4.823
 4504SOL    HW214412   5.644   2.554   4.772
 4505SOL     OW14413   1.600   6.353   5.189
 4505SOL    HW114414   1.610   6.255   5.208
 4505SOL    HW214415   1.647   6.375   5.103
 4506SOL     OW14416   3.879   0.525   5.410
 4506SOL    HW114417   3.839   0.568   5.491
 4506SOL    HW214418   3.806   0.500   5.347
 4507SOL     OW14419   5.613   4.438   0.584
 4507SOL    HW114420   5.604   4.536   0.606
 4507SOL    HW214421   5.621   4.427   0.485
 4508SOL     OW14422   1.264   3.750   0.079
 4508SOL    HW114423   1.169   3.772   0.057
 4508SOL    HW214424   1.299   3.816   0.146
 4509SOL     OW14425   3.272   1.630   4.655
 4509SOL    HW114426   3.331   1.694   4.605
 4509SOL    HW214427   3.183   1.625   4.610
 4510SOL     OW14428   5.021   0.321   5.231
 4510SOL    HW114429   4.960   0.342   5.154
 4510SOL    HW214430   5.109   0.365   5.215
 4511SOL     OW14431   6.514   2.494   0.453
 4511SOL    HW114432   6.528   2.503   0.552
 4511SOL    HW214433   6.458   2.413   0.434
 4512SOL     OW14434   2.751   5.856   6.680
 4512SOL    HW114435   2.688   5.838   6.604
 4512SOL    HW214436   2.838   5.888   6.645
 4513SOL     OW14437   4.784   0.641   1.830
 4513SOL    HW114438   4.744   0.620   1.741
 4513SOL    HW214439   4.879   0.668   1.818
 4514SOL     OW14440   2.929   1.133   5.211
 4514SOL    HW114441   2.942   1.170   5.119
 4514SOL    HW214442   2.866   1.193   5.262
 4515SOL     OW14443   0.457   4.907   0.713
 4515SOL    HW114444   0.449   4.990   0.767
 4515SOL    HW214445   0.367   4.884   0.673
 4516SOL     OW14446   1.046   1.318   5.215
 4516SOL    HW114447   0.969   1.330   5.152
 4516SOL    HW214448   1.011   1.302   5.307
 4517SOL     OW14449   3.852   6.754   5.778
 4517SOL    HW114450   3.865   6.773   5.681
 4517SOL    HW214451   3.835   6.656   5.791
 4518SOL     OW14452   0.750   2.385   3.760
 4518SOL    HW114453   0.725   2.475   3.795
 4518SOL    HW214454   0.751   2.386   3.660
 4519SOL     OW14455   0.234   3.146   3.424
 4519SOL    HW114456   0.182   3.171   3.506
 4519SOL    HW214457   0.172   3.138   3.346
 4520SOL     OW14458   6.839   5.079   3.263
 4520SOL    HW114459   6.850   5.149   3.335
 4520SOL    HW214460   6.877   5.114   3.177
 4521SOL     OW14461   5.509   2.938   7.012
 4521SOL    HW114462   5.579   2.898   6.953
 4521SOL    HW214463   5.482   3.027   6.976
 4522SOL     OW14464   6.469   0.071   4.136
 4522SOL    HW114465   6.448   0.141   4.066
 4522SOL    HW214466   6.391   0.062   4.198
 4523SOL     OW14467   3.262   3.979   0.072
 4523SOL    HW114468   3.181   3.922   0.062
 4523SOL    HW214469   3.327   3.934   0.133
 4524SOL     OW14470   5.104   0.665   4.966
 4524SOL    HW114471   5.160   0.712   5.034
 4524SOL    HW214472   5.011   0.701   4.967
 4525SOL     OW14473   5.994   1.386   4.921
 4525SOL    HW114474   5.896   1.374   4.907
 4525SOL    HW214475   6.044   1.338   4.848
 4526SOL     OW14476   5.067   6.607   0.736
 4526SOL    HW114477   5.093   6.648   0.648
 4526SOL    HW214478   4.970   6.583   0.735
 4527SOL     OW14479   5.159   0.511   2.394
 4527SOL    HW114480   5.082   0.448   2.410
 4527SOL    HW214481   5.176   0.563   2.478
 4528SOL     OW14482   5.656   0.059   0.790
 4528SOL    HW114483   5.666   7.005   0.726
 4528SOL    HW214484   5.585   0.037   0.857
 4529SOL     OW14485   3.221   0.255   3.084
 4529SOL    HW114486   3.157   0.243   3.159
 4529SOL    HW214487   3.204   0.343   3.040
 4530SOL     OW14488   0.300   3.205   5.691
 4530SOL    HW114489   0.233   3.209   5.765
 4530SOL    HW214490   0.279   3.128   5.630
 4531SOL     OW14491   0.237   3.330   4.057
 4531SOL    HW114492   0.273   3.247   4.014
 4531SOL    HW214493   0.303   3.404   4.049
 4532SOL     OW14494   6.318   1.223   0.859
 4532SOL    HW114495   6.336   1.226   0.761
 4532SOL    HW214496   6.400   1.251   0.909
 4533SOL     OW14497   2.046   5.794   3.031
 4533SOL    HW114498   2.024   5.888   3.058
 4533SOL    HW214499   2.117   5.796   2.961
 4534SOL     OW14500   6.166   3.828   5.080
 4534SOL    HW114501   6.140   3.766   5.005
 4534SOL    HW214502   6.178   3.775   5.164
 4535SOL     OW14503   4.854   3.158   2.315
 4535SOL    HW114504   4.818   3.100   2.388
 4535SOL    HW214505   4.826   3.122   2.226
 4536SOL     OW14506   5.858   1.105   4.715
 4536SOL    HW114507   5.769   1.085   4.675
 4536SOL    HW214508   5.846   1.164   4.795
 4537SOL     OW14509   4.020   2.747   6.777
 4537SOL    HW114510   4.024   2.670   6.840
 4537SOL    HW214511   3.925   2.776   6.766
 4538SOL     OW14512   3.136   1.702   3.146
 4538SOL    HW114513   3.081   1.677   3.067
 4538SOL    HW214514   3.183   1.621   3.181
 4539SOL     OW14515   2.450   1.966   2.984
 4539SOL    HW114516   2.533   2.021   3.001
 4539SOL    HW214517   2.453   1.930   2.891
 4540SOL     OW14518   3.741   3.299   4.836
 4540SOL    HW114519   3.790   3.373   4.791
 4540SOL    HW214520   3.755   3.306   4.935
 4541SOL     OW14521   5.137   1.939   1.247
 4541SOL    HW114522   5.046   1.926   1.287
 4541SOL    HW214523   5.198   1.980   1.315
 4542SOL     OW14524   5.934   6.809   2.531
 4542SOL    HW114525   5.882   6.807   2.616
 4542SOL    HW214526   5.888   6.752   2.462
 4543SOL     OW14527   5.728   1.551   1.127
 4543SOL    HW114528   5.762   1.601   1.048
 4543SOL    HW214529   5.630   1.568   1.138
 4544SOL     OW14530   3.494   5.551   6.733
 4544SOL    HW114531   3.458   5.593   6.816
 4544SOL    HW214532   3.424   5.493   6.691
 4545SOL     OW14533   3.961   2.243   5.568
 4545SOL    HW114534   4.011   2.275   5.649
 4545SOL    HW214535   3.917   2.321   5.524
 4546SOL     OW14536   0.654   6.567   6.420
 4546SOL    HW114537   0.580   6.504   6.448
 4546SOL    HW214538   0.724   6.516   6.371
 4547SOL     OW14539   5.271   2.537   1.686
 4547SOL    HW114540   5.220   2.572   1.765
 4547SOL    HW214541   5.346   2.599   1.665
 4548SOL     OW14542   0.332   3.869   3.709
 4548SOL    HW114543   0.275   3.883   3.627
 4548SOL    HW214544   0.274   3.837   3.784
 4549SOL     OW14545   6.666   3.157   3.002
 4549SOL    HW114546   6.643   3.192   3.094
 4549SOL    HW214547   6.746   3.098   3.009
 4550SOL     OW14548   0.803   5.395   3.749
 4550SOL    HW114549   0.880   5.456   3.769
 4550SOL    HW214550   0.732   5.446   3.700
 4551SOL     OW14551   0.940   2.978   5.161
 4551SOL    HW114552   1.018   2.996   5.220
 4551SOL    HW214553   0.855   2.981   5.215
 4552SOL     OW14554   0.464   3.174   4.627
 4552SOL    HW114555   0.451   3.270   4.650
 4552SOL    HW214556   0.400   3.118   4.680
 4553SOL     OW14557   4.518   5.230   0.432
 4553SOL    HW114558   4.493   5.143   0.391
 4553SOL    HW214559   4.585   5.276   0.375
 4554SOL     OW14560   4.533   6.996   2.850
 4554SOL    HW114561   4.545   0.065   2.811
 4554SOL    HW214562   4.592   6.931   2.801
 4555SOL     OW14563   5.183   2.455   6.484
 4555SOL    HW114564   5.218   2.549   6.478
 4555SOL    HW214565   5.095   2.456   6.532
 4556SOL     OW14566   4.240   0.905   3.617
 4556SOL    HW114567   4.168   0.870   3.676
 4556SOL    HW214568   4.250   1.004   3.632
 4557SOL     OW14569   5.657   0.246   5.920
 4557SOL    HW114570   5.704   0.331   5.898
 4557SOL    HW214571   5.719   0.187   5.972
 4558SOL     OW14572   6.649   3.447   6.728
 4558SOL    HW114573   6.654   3.419   6.823
 4558SOL    HW214574   6.611   3.540   6.722
 4559SOL     OW14575   1.966   6.490   1.401
 4559SOL    HW114576   1.914   6.527   1.324
 4559SOL    HW214577   1.905   6.434   1.458
 4560SOL     OW14578   5.335   3.348   3.031
 4560SOL    HW114579   5.237   3.330   3.035
 4560SOL    HW214580   5.357   3.429   3.085
 4561SOL     OW14581   3.406   0.453   6.961
 4561SOL    HW114582   3.395   0.501   6.874
 4561SOL    HW214583   3.330   0.390   6.975
 4562SOL     OW14584   2.882   5.404   6.801
 4562SOL    HW114585   2.958   5.339   6.803
 4562SOL    HW214586   2.916   5.496   6.816
 4563SOL     OW14587   5.538   1.907   0.007
 4563SOL    HW114588   5.601   1.983   7.016
 4563SOL    HW214589   5.458   1.919   6.971
 4564SOL     OW14590   1.558   6.216   0.075
 4564SOL    HW114591   1.640   6.254   0.033
 4564SOL    HW214592   1.577   6.125   0.112
 4565SOL     OW14593   1.022   0.876   5.503
 4565SOL    HW114594   0.960   0.912   5.433
 4565SOL    HW214595   1.076   0.951   5.541
 4566SOL     OW14596   0.076   0.893   6.931
 4566SOL    HW114597   0.010   0.891   7.006
 4566SOL    HW214598   0.098   0.988   6.910
 4567SOL     OW14599   6.574   1.400   0.743
 4567SOL    HW114600   6.581   1.363   0.835
 4567SOL    HW214601   6.513   1.480   0.743
 4568SOL     OW14602   3.321   4.370   5.771
 4568SOL    HW114603   3.395   4.388   5.707
 4568SOL    HW214604   3.237   4.349   5.721
 4569SOL     OW14605   0.840   1.644   4.228
 4569SOL    HW114606   0.834   1.727   4.282
 4569SOL    HW214607   0.852   1.565   4.289
 4570SOL     OW14608   6.934   5.890   3.757
 4570SOL    HW114609   6.871   5.814   3.742
 4570SOL    HW214610   7.019   5.855   3.796
 4571SOL     OW14611   3.458   3.333   4.698
 4571SOL    HW114612   3.456   3.332   4.798
 4571SOL    HW214613   3.548   3.363   4.666
 4572SOL     OW14614   1.456   0.014   1.090
 4572SOL    HW114615   1.418   0.063   1.169
 4572SOL    HW214616   1.554   0.034   1.084
 4573SOL     OW14617   5.537   5.548   0.928
 4573SOL    HW114618   5.516   5.645   0.925
 4573SOL    HW214619   5.599   5.529   1.005
 4574SOL     OW14620   7.005   4.133   2.091
 4574SOL    HW114621   6.940   4.207   2.109
 4574SOL    HW214622   0.059   4.139   2.155
 4575SOL     OW14623   6.591   0.996   1.820
 4575SOL    HW114624   6.497   1.028   1.816
 4575SOL    HW214625   6.628   0.988   1.728
 4576SOL     OW14626   3.305   5.383   6.601
 4576SOL    HW114627   3.340   5.369   6.508
 4576SOL    HW214628   3.207   5.367   6.602
 4577SOL     OW14629   1.097   3.416   3.174
 4577SOL    HW114630   1.121   3.473   3.252
 4577SOL    HW214631   1.177   3.365   3.143
 4578SOL     OW14632   6.931   3.879   4.145
 4578SOL    HW114633   6.854   3.933   4.179
 4578SOL    HW214634   7.007   3.884   4.211
 4579SOL     OW14635   5.299   2.092   3.300
 4579SOL    HW114636   5.360   2.139   3.237
 4579SOL    HW214637   5.287   2.147   3.382
 4580SOL     OW14638   6.000   6.112   0.771
 4580SOL    HW114639   5.952   6.065   0.845
 4580SOL    HW214640   6.048   6.192   0.807
 4581SOL     OW14641   3.164   5.584   3.641
 4581SOL    HW114642   3.257   5.547   3.654
 4581SOL    HW214643   3.140   5.580   3.544
 4582SOL     OW14644   5.213   6.113   3.170
 4582SOL    HW114645   5.205   6.212   3.158
 4582SOL    HW214646   5.266   6.074   3.094
 4583SOL     OW14647   3.160   1.888   5.512
 4583SOL    HW114648   3.190   1.819   5.578
 4583SOL    HW214649   3.234   1.955   5.497
 4584SOL     OW14650   0.644   5.262   5.560
 4584SOL    HW114651   0.725   5.215   5.595
 4584SOL    HW214652   0.614   5.332   5.625
 4585SOL     OW14653   3.189   5.970   3.265
 4585SOL    HW114654   3.112   6.032   3.247
 4585SOL    HW214655   3.169   5.915   3.346
 4586SOL     OW14656   3.615   5.819   1.901
 4586SOL    HW114657   3.701   5.772   1.924
 4586SOL    HW214658   3.619   5.849   1.806
 4587SOL     OW14659   2.814   3.222   1.517
 4587SOL    HW114660   2.900   3.225   1.568
 4587SOL    HW214661   2.808   3.136   1.467
 4588SOL     OW14662   3.883   3.342   5.392
 4588SOL    HW114663   3.971   3.354   5.347
 4588SOL    HW214664   3.873   3.246   5.420
 4589SOL     OW14665   6.159   2.328   3.975
 4589SOL    HW114666   6.127   2.419   3.950
 4589SOL    HW214667   6.208   2.332   4.062
 4590SOL     OW14668   4.596   5.069   2.706
 4590SOL    HW114669   4.653   5.103   2.781
 4590SOL    HW214670   4.593   4.969   2.710
 4591SOL     OW14671   5.678   5.491   5.347
 4591SOL    HW114672   5.740   5.543   5.405
 4591SOL    HW214673   5.711   5.494   5.252
 4592SOL     OW14674   4.073   2.225   0.069
 4592SOL    HW114675   3.999   2.203   0.132
 4592SOL    HW214676   4.056   2.182   7.003
 4593SOL     OW14677   3.826   6.347   2.437
 4593SOL    HW114678   3.880   6.429   2.458
 4593SOL    HW214679   3.886   6.267   2.436
 4594SOL     OW14680   2.255   1.563   1.933
 4594SOL    HW114681   2.270   1.490   1.866
 4594SOL    HW214682   2.173   1.541   1.987
 4595SOL     OW14683   4.275   3.001   6.485
 4595SOL    HW114684   4.200   2.955   6.437
 4595SOL    HW214685   4.291   2.956   6.573
 4596SOL     OW14686   5.890   6.949   1.912
 4596SOL    HW114687   5.893   6.936   2.011
 4596SOL    HW214688   5.878   0.023   1.891
 4597SOL     OW14689   5.355   3.986   6.310
 4597SOL    HW114690   5.438   3.930   6.308
 4597SOL    HW214691   5.355   4.043   6.392
 4598SOL     OW14692   2.432   5.591   6.643
 4598SOL    HW114693   2.335   5.603   6.622
 4598SOL    HW214694   2.457   5.495   6.632
 4599SOL     OW14695   1.294   4.780   1.389
 4599SOL    HW114696   1.349   4.712   1.339
 4599SOL    HW214697   1.307   4.766   1.487
 4600SOL     OW14698   2.966   5.737   0.850
 4600SOL    HW114699   2.876   5.694   0.846
 4600SOL    HW214700   2.997   5.758   0.758
 4601SOL     OW14701   2.052   0.678   5.150
 4601SOL    HW114702   2.011   0.687   5.241
 4601SOL    HW214703   2.114   0.599   5.149
 4602SOL     OW14704   1.463   0.182   2.422
 4602SOL    HW114705   1.496   0.154   2.332
 4602SOL    HW214706   1.452   0.102   2.480
 4603SOL     OW14707   3.435   6.735   1.268
 4603SOL    HW114708   3.459   6.670   1.340
 4603SOL    HW214709   3.508   6.804   1.260
 4604SOL     OW14710   3.374   0.391   2.100
 4604SOL    HW114711   3.305   0.416   2.169
 4604SOL    HW214712   3.415   0.304   2.125
 4605SOL     OW14713   5.174   0.376   4.884
 4605SOL    HW114714   5.141   0.470   4.889
 4605SOL    HW214715   5.102   0.316   4.848
 4606SOL     OW14716   6.241   6.612   5.298
 4606SOL    HW114717   6.252   6.711   5.294
 4606SOL    HW214718   6.216   6.577   5.208
 4607SOL     OW14719   3.423   1.463   1.626
 4607SOL    HW114720   3.348   1.514   1.584
 4607SOL    HW214721   3.416   1.367   1.602
 4608SOL     OW14722   1.793   4.052   5.475
 4608SOL    HW114723   1.773   4.097   5.388
 4608SOL    HW214724   1.735   3.971   5.484
 4609SOL     OW14725   4.929   6.817   0.168
 4609SOL    HW114726   4.990   6.892   0.143
 4609SOL    HW214727   4.887   6.779   0.085
 4610SOL     OW14728   0.378   2.889   6.538
 4610SOL    HW114729   0.421   2.805   6.569
 4610SOL    HW214730   0.314   2.921   6.608
 4611SOL     OW14731   0.918   3.907   0.338
 4611SOL    HW114732   0.884   3.833   0.281
 4611SOL    HW214733   1.003   3.943   0.299
 4612SOL     OW14734   2.004   6.315   6.269
 4612SOL    HW114735   2.047   6.298   6.181
 4612SOL    HW214736   2.060   6.379   6.322
 4613SOL     OW14737   3.161   5.225   2.482
 4613SOL    HW114738   3.183   5.127   2.481
 4613SOL    HW214739   3.087   5.243   2.417
 4614SOL     OW14740   1.968   5.512   6.899
 4614SOL    HW114741   2.048   5.560   6.864
 4614SOL    HW214742   1.885   5.557   6.867
 4615SOL     OW14743   1.439   2.080   0.242
 4615SOL    HW114744   1.481   1.992   0.265
 4615SOL    HW214745   1.431   2.136   0.325
 4616SOL     OW14746   5.789   0.706   6.827
 4616SOL    HW114747   5.747   0.724   6.738
 4616SOL    HW214748   5.805   0.792   6.875
 4617SOL     OW14749   0.810   2.581   1.606
 4617SOL    HW114750   0.873   2.565   1.530
 4617SOL    HW214751   0.727   2.526   1.593
 4618SOL     OW14752   0.725   2.353   5.979
 4618SOL    HW114753   0.791   2.425   6.001
 4618SOL    HW214754   0.764   2.264   6.004
 4619SOL     OW14755   3.775   0.865   3.428
 4619SOL    HW114756   3.844   0.927   3.464
 4619SOL    HW214757   3.733   0.814   3.504
 4620SOL     OW14758   2.813   4.564   6.627
 4620SOL    HW114759   2.834   4.482   6.574
 4620SOL    HW214760   2.719   4.592   6.609
 4621SOL     OW14761   0.673   0.613   4.999
 4621SOL    HW114762   0.637   0.572   5.083
 4621SOL    HW214763   0.661   0.549   4.923
 4622SOL     OW14764   1.559   3.208   0.656
 4622SOL    HW114765   1.479   3.237   0.603
 4622SOL    HW214766   1.579   3.112   0.636
 4623SOL     OW14767   6.682   4.678   1.433
 4623SOL    HW114768   6.701   4.771   1.466
 4623SOL    HW214769   6.759   4.619   1.454
 4624SOL     OW14770   4.839   0.638   4.025
 4624SOL    HW114771   4.778   0.707   4.064
 4624SOL    HW214772   4.933   0.670   4.029
 4625SOL     OW14773   1.222   3.792   6.694
 4625SOL    HW114774   1.139   3.776   6.746
 4625SOL    HW214775   1.268   3.873   6.729
 4626SOL     OW14776   6.314   4.964   1.220
 4626SOL    HW114777   6.414   4.960   1.223
 4626SOL    HW214778   6.286   5.037   1.157
 4627SOL     OW14779   3.430   6.118   5.754
 4627SOL    HW114780   3.512   6.101   5.699
 4627SOL    HW214781   3.457   6.136   5.848
 4628SOL     OW14782   6.395   4.736   1.977
 4628SOL    HW114783   6.421   4.660   2.036
 4628SOL    HW214784   6.300   4.726   1.949
 4629SOL     OW14785   2.178   4.611   5.581
 4629SOL    HW114786   2.143   4.531   5.629
 4629SOL    HW214787   2.103   4.658   5.534
 4630SOL     OW14788   2.486   5.579   2.988
 4630SOL    HW114789   2.485   5.577   2.888
 4630SOL    HW214790   2.498   5.673   3.019
 4631SOL     OW14791   2.732   6.407   2.645
 4631SOL    HW114792   2.801   6.338   2.625
 4631SOL    HW214793   2.747   6.486   2.585
 4632SOL     OW14794   4.768   5.478   4.050
 4632SOL    HW114795   4.804   5.545   3.985
 4632SOL    HW214796   4.669   5.491   4.059
 4633SOL     OW14797   6.864   1.660   4.453
 4633SOL    HW114798   6.884   1.734   4.517
 4633SOL    HW214799   6.768   1.634   4.461
 4634SOL     OW14800   2.863   4.703   0.887
 4634SOL    HW114801   2.903   4.660   0.968
 4634SOL    HW214802   2.766   4.722   0.903
 4635SOL     OW14803   5.269   3.259   2.313
 4635SOL    HW114804   5.226   3.176   2.347
 4635SOL    HW214805   5.231   3.282   2.223
 4636SOL     OW14806   3.025   5.351   0.430
 4636SOL    HW114807   3.017   5.289   0.509
 4636SOL    HW214808   2.941   5.404   0.421
 4637SOL     OW14809   1.327   1.124   5.271
 4637SOL    HW114810   1.392   1.049   5.262
 4637SOL    HW214811   1.316   1.147   5.368
 4638SOL     OW14812   4.931   3.119   5.847
 4638SOL    HW114813   4.932   3.157   5.755
 4638SOL    HW214814   4.845   3.142   5.892
 4639SOL     OW14815   0.634   3.927   5.924
 4639SOL    HW114816   0.540   3.895   5.935
 4639SOL    HW214817   0.686   3.908   6.007
 4640SOL     OW14818   5.347   4.339   2.806
 4640SOL    HW114819   5.337   4.425   2.755
 4640SOL    HW214820   5.257   4.309   2.838
 4641SOL     OW14821   2.413   5.158   4.478
 4641SOL    HW114822   2.484   5.127   4.541
 4641SOL    HW214823   2.436   5.129   4.385
 4642SOL     OW14824   6.638   6.430   4.432
 4642SOL    HW114825   6.613   6.456   4.525
 4642SOL    HW214826   6.571   6.468   4.368
 4643SOL     OW14827   3.928   2.187   1.802
 4643SOL    HW114828   4.005   2.246   1.779
 4643SOL    HW214829   3.851   2.243   1.831
 4644SOL     OW14830   1.439   6.347   4.330
 4644SOL    HW114831   1.376   6.288   4.381
 4644SOL    HW214832   1.399   6.369   4.241
 4645SOL     OW14833   1.834   6.539   4.639
 4645SOL    HW114834   1.762   6.488   4.594
 4645SOL    HW214835   1.879   6.599   4.572
 4646SOL     OW14836   2.914   0.402   2.319
 4646SOL    HW114837   2.853   0.359   2.252
 4646SOL    HW214838   2.957   0.332   2.375
 4647SOL     OW14839   6.337   0.367   3.855
 4647SOL    HW114840   6.297   0.458   3.855
 4647SOL    HW214841   6.272   0.302   3.893
 4648SOL     OW14842   2.451   5.512   2.357
 4648SOL    HW114843   2.413   5.569   2.430
 4648SOL    HW214844   2.376   5.467   2.308
 4649SOL     OW14845   5.129   0.582   5.542
 4649SOL    HW114846   5.095   0.506   5.487
 4649SOL    HW214847   5.166   0.653   5.481
 4650SOL     OW14848   5.261   5.434   2.500
 4650SOL    HW114849   5.165   5.435   2.474
 4650SOL    HW214850   5.284   5.520   2.546
 4651SOL     OW14851   0.402   2.217   1.600
 4651SOL    HW114852   0.438   2.186   1.688
 4651SOL    HW214853   0.477   2.227   1.535
 4652SOL     OW14854   6.575   0.166   5.510
 4652SOL    HW114855   6.633   0.110   5.450
 4652SOL    HW214856   6.606   0.261   5.507
 4653SOL     OW14857   0.185   6.280   6.582
 4653SOL    HW114858   0.115   6.306   6.515
 4653SOL    HW214859   0.165   6.189   6.617
 4654SOL     OW14860   0.855   0.276   0.168
 4654SOL    HW114861   0.817   0.364   0.140
 4654SOL    HW214862   0.942   0.291   0.216
 4655SOL     OW14863   0.586   4.629   3.192
 4655SOL    HW114864   0.564   4.716   3.149
 4655SOL    HW214865   0.684   4.613   3.187
 4656SOL     OW14866   1.217   0.553   3.784
 4656SOL    HW114867   1.295   0.603   3.747
 4656SOL    HW214868   1.143   0.551   3.717
 4657SOL     OW14869   5.222   6.986   1.406
 4657SOL    HW114870   5.256   6.915   1.345
 4657SOL    HW214871   5.141   6.953   1.454
 4658SOL     OW14872   4.914   0.314   2.905
 4658SOL    HW114873   4.821   0.347   2.886
 4658SOL    HW214874   4.914   0.214   2.908
 4659SOL     OW14875   1.996   2.506   4.890
 4659SOL    HW114876   2.010   2.487   4.793
 4659SOL    HW214877   1.953   2.596   4.900
 4660SOL     OW14878   0.215   1.441   6.228
 4660SOL    HW114879   0.125   1.399   6.212
 4660SOL    HW214880   0.269   1.438   6.144
 4661SOL     OW14881   3.454   3.847   3.972
 4661SOL    HW114882   3.478   3.818   4.065
 4661SOL    HW214883   3.358   3.826   3.955
 4662SOL     OW14884   4.921   0.333   5.491
 4662SOL    HW114885   4.821   0.332   5.492
 4662SOL    HW214886   4.953   0.327   5.396
 4663SOL     OW14887   6.529   2.282   2.565
 4663SOL    HW114888   6.582   2.367   2.569
 4663SOL    HW214889   6.569   2.215   2.627
 4664SOL     OW14890   3.450   2.482   0.216
 4664SOL    HW114891   3.427   2.425   0.138
 4664SOL    HW214892   3.540   2.457   0.251
 4665SOL     OW14893   4.986   0.475   6.746
 4665SOL    HW114894   4.943   0.389   6.720
 4665SOL    HW214895   5.077   0.457   6.784
 4666SOL     OW14896   2.477   1.698   0.745
 4666SOL    HW114897   2.525   1.739   0.823
 4666SOL    HW214898   2.504   1.602   0.737
 4667SOL     OW14899   6.991   5.112   6.665
 4667SOL    HW114900   0.064   5.119   6.694
 4667SOL    HW214901   6.973   5.021   6.628
 4668SOL     OW14902   6.249   1.643   4.478
 4668SOL    HW114903   6.209   1.735   4.485
 4668SOL    HW214904   6.261   1.606   4.570
 4669SOL     OW14905   1.083   0.061   0.397
 4669SOL    HW114906   1.059   0.158   0.389
 4669SOL    HW214907   1.011   0.005   0.356
 4670SOL     OW14908   2.402   2.276   4.683
 4670SOL    HW114909   2.329   2.268   4.751
 4670SOL    HW214910   2.363   2.262   4.592
 4671SOL     OW14911   5.376   3.457   1.638
 4671SOL    HW114912   5.432   3.388   1.684
 4671SOL    HW214913   5.293   3.414   1.603
 4672SOL     OW14914   2.157   3.896   6.527
 4672SOL    HW114915   2.158   3.995   6.523
 4672SOL    HW214916   2.193   3.866   6.615
 4673SOL     OW14917   3.617   1.336   2.605
 4673SOL    HW114918   3.556   1.258   2.592
 4673SOL    HW214919   3.579   1.416   2.559
 4674SOL     OW14920   4.683   5.611   4.939
 4674SOL    HW114921   4.701   5.642   5.032
 4674SOL    HW214922   4.768   5.615   4.886
 4675SOL     OW14923   1.108   4.051   0.157
 4675SOL    HW114924   1.045   4.078   0.084
 4675SOL    HW214925   1.122   4.128   0.219
 4676SOL     OW14926   1.363   5.546   3.241
 4676SOL    HW114927   1.300   5.609   3.287
 4676SOL    HW214928   1.352   5.454   3.279
 4677SOL     OW14929   1.764   2.695   0.174
 4677SOL    HW114930   1.752   2.706   0.273
 4677SOL    HW214931   1.707   2.620   0.142
 4678SOL     OW14932   2.084   4.585   2.753
 4678SOL    HW114933   2.163   4.528   2.776
 4678SOL    HW214934   2.007   4.526   2.726
 4679SOL     OW14935   4.978   0.146   1.772
 4679SOL    HW114936   5.012   0.186   1.686
 4679SOL    HW214937   4.908   0.078   1.751
 4680SOL     OW14938   2.521   1.197   1.899
 4680SOL    HW114939   2.460   1.249   1.838
 4680SOL    HW214940   2.483   1.106   1.915
 4681SOL     OW14941   5.506   4.009   1.234
 4681SOL    HW114942   5.462   3.925   1.266
 4681SOL    HW214943   5.602   4.010   1.261
 4682SOL     OW14944   4.653   3.761   6.358
 4682SOL    HW114945   4.680   3.671   6.393
 4682SOL    HW214946   4.630   3.821   6.435
 4683SOL     OW14947   5.997   3.933   3.856
 4683SOL    HW114948   6.063   3.911   3.785
 4683SOL    HW214949   5.904   3.924   3.820
 4684SOL     OW14950   4.597   6.434   6.817
 4684SOL    HW114951   4.640   6.485   6.891
 4684SOL    HW214952   4.622   6.337   6.824
 4685SOL     OW14953   2.515   3.605   5.803
 4685SOL    HW114954   2.511   3.510   5.835
 4685SOL    HW214955   2.509   3.666   5.882
 4686SOL     OW14956   3.097   5.791   0.600
 4686SOL    HW114957   3.165   5.865   0.595
 4686SOL    HW214958   3.006   5.828   0.585
 4687SOL     OW14959   2.997   0.784   2.829
 4687SOL    HW114960   3.070   0.771   2.762
 4687SOL    HW214961   2.937   0.705   2.828
 4688SOL     OW14962   5.618   2.832   5.903
 4688SOL    HW114963   5.647   2.863   5.993
 4688SOL    HW214964   5.630   2.906   5.837
 4689SOL     OW14965   5.625   0.516   0.546
 4689SOL    HW114966   5.614   0.419   0.570
 4689SOL    HW214967   5.605   0.528   0.448
 4690SOL     OW14968   2.504   1.365   0.768
 4690SOL    HW114969   2.588   1.347   0.718
 4690SOL    HW214970   2.437   1.294   0.747
 4691SOL     OW14971   6.164   4.820   0.557
 4691SOL    HW114972   6.090   4.753   0.546
 4691SOL    HW214973   6.170   4.849   0.652
 4692SOL     OW14974   6.550   4.302   3.158
 4692SOL    HW114975   6.523   4.344   3.071
 4692SOL    HW214976   6.490   4.337   3.231
 4693SOL     OW14977   1.816   0.958   3.641
 4693SOL    HW114978   1.762   1.040   3.659
 4693SOL    HW214979   1.849   0.960   3.547
 4694SOL     OW14980   2.684   1.198   0.581
 4694SOL    HW114981   2.733   1.266   0.527
 4694SOL    HW214982   2.705   1.107   0.546
 4695SOL     OW14983   1.287   5.879   0.838
 4695SOL    HW114984   1.324   5.858   0.747
 4695SOL    HW214985   1.361   5.909   0.898
 4696SOL     OW14986   1.654   4.924   6.112
 4696SOL    HW114987   1.630   4.945   6.017
 4696SOL    HW214988   1.591   4.972   6.173
 4697SOL     OW14989   2.486   4.503   0.918
 4697SOL    HW114990   2.527   4.595   0.920
 4697SOL    HW214991   2.508   4.460   0.830
 4698SOL     OW14992   4.620   0.747   3.023
 4698SOL    HW114993   4.604   0.746   3.121
 4698SOL    HW214994   4.533   0.761   2.975
 4699SOL     OW14995   0.953   0.561   2.192
 4699SOL    HW114996   0.935   0.463   2.197
 4699SOL    HW214997   1.052   0.576   2.190
 4700SOL     OW14998   5.998   2.168   2.898
 4700SOL    HW114999   6.089   2.139   2.929
 4700SOL    HW215000   5.931   2.098   2.923
 4701SOL     OW15001   3.417   1.667   2.090
 4701SOL    HW115002   3.413   1.718   2.004
 4701SOL    HW215003   3.505   1.620   2.097
 4702SOL     OW15004   5.129   4.857   6.150
 4702SOL    HW115005   5.170   4.899   6.069
 4702SOL    HW215006   5.173   4.893   6.232
 4703SOL     OW15007   1.223   4.828   3.018
 4703SOL    HW115008   1.206   4.780   3.104
 4703SOL    HW215009   1.151   4.895   3.002
 4704SOL     OW15010   0.647   5.433   5.764
 4704SOL    HW115011   0.559   5.471   5.795
 4704SOL    HW215012   0.702   5.506   5.724
 4705SOL     OW15013   3.103   2.670   1.827
 4705SOL    HW115014   3.079   2.593   1.768
 4705SOL    HW215015   3.032   2.739   1.823
 4706SOL     OW15016   1.437   0.687   0.384
 4706SOL    HW115017   1.386   0.641   0.312
 4706SOL    HW215018   1.535   0.667   0.374
 4707SOL     OW15019   1.304   6.999   1.500
 4707SOL    HW115020   1.383   6.981   1.559
 4707SOL    HW215021   1.331   0.037   1.426
 4708SOL     OW15022   0.744   2.647   3.816
 4708SOL    HW115023   0.822   2.680   3.869
 4708SOL    HW215024   0.659   2.680   3.858
 4709SOL     OW15025   4.803   3.977   5.291
 4709SOL    HW115026   4.831   3.881   5.290
 4709SOL    HW215027   4.788   4.009   5.197
 4710SOL     OW15028   5.614   6.566   4.138
 4710SOL    HW115029   5.585   6.643   4.195
 4710SOL    HW215030   5.602   6.481   4.189
 4711SOL     OW15031   6.278   3.212   3.233
 4711SOL    HW115032   6.218   3.140   3.198
 4711SOL    HW215033   6.298   3.277   3.160
 4712SOL     OW15034   4.470   4.228   5.270
 4712SOL    HW115035   4.431   4.290   5.203
 4712SOL    HW215036   4.498   4.280   5.351
 4713SOL     OW15037   5.576   4.105   0.988
 4713SOL    HW115038   5.557   4.084   1.084
 4713SOL    HW215039   5.536   4.194   0.965
 4714SOL     OW15040   6.480   0.825   6.097
 4714SOL    HW115041   6.429   0.872   6.169
 4714SOL    HW215042   6.426   0.748   6.063
 4715SOL     OW15043   6.176   2.211   1.799
 4715SOL    HW115044   6.225   2.127   1.824
 4715SOL    HW215045   6.157   2.265   1.881
 4716SOL     OW15046   3.683   4.582   5.720
 4716SOL    HW115047   3.653   4.676   5.704
 4716SOL    HW215048   3.641   4.521   5.652
 4717SOL     OW15049   3.118   5.174   5.804
 4717SOL    HW115050   3.133   5.255   5.748
 4717SOL    HW215051   3.112   5.200   5.900
 4718SOL     OW15052   5.229   4.141   1.388
 4718SOL    HW115053   5.147   4.115   1.439
 4718SOL    HW215054   5.294   4.065   1.390
 4719SOL     OW15055   6.308   3.366   3.889
 4719SOL    HW115056   6.265   3.425   3.957
 4719SOL    HW215057   6.311   3.413   3.801
 4720SOL     OW15058   3.066   4.591   6.990
 4720SOL    HW115059   3.068   4.491   6.983
 4720SOL    HW215060   3.039   4.630   6.902
 4721SOL     OW15061   6.565   3.421   2.690
 4721SOL    HW115062   6.517   3.346   2.736
 4721SOL    HW215063   6.565   3.502   2.749
 4722SOL     OW15064   1.096   4.412   6.262
 4722SOL    HW115065   1.036   4.482   6.302
 4722SOL    HW215066   1.040   4.341   6.220
 4723SOL     OW15067   3.917   3.931   6.126
 4723SOL    HW115068   3.831   3.983   6.118
 4723SOL    HW215069   3.934   3.911   6.222
 4724SOL     OW15070   0.735   6.575   4.388
 4724SOL    HW115071   0.774   6.642   4.450
 4724SOL    HW215072   0.768   6.592   4.295
 4725SOL     OW15073   5.612   5.243   0.389
 4725SOL    HW115074   5.561   5.305   0.449
 4725SOL    HW215075   5.613   5.280   0.296
 4726SOL     OW15076   1.862   2.911   5.693
 4726SOL    HW115077   1.945   2.939   5.645
 4726SOL    HW215078   1.884   2.891   5.789
 4727SOL     OW15079   0.892   5.471   0.679
 4727SOL    HW115080   0.824   5.530   0.722
 4727SOL    HW215081   0.972   5.462   0.739
 4728SOL     OW15082   6.026   0.841   4.064
 4728SOL    HW115083   5.962   0.915   4.043
 4728SOL    HW215084   5.998   0.758   4.015
 4729SOL     OW15085   6.320   0.708   0.574
 4729SOL    HW115086   6.324   0.623   0.628
 4729SOL    HW215087   6.369   0.695   0.488
 4730SOL     OW15088   3.345   6.628   5.034
 4730SOL    HW115089   3.255   6.661   5.064
 4730SOL    HW215090   3.334   6.547   4.978
 4731SOL     OW15091   2.967   6.899   0.752
 4731SOL    HW115092   2.910   6.848   0.688
 4731SOL    HW215093   3.035   6.838   0.793
 4732SOL     OW15094   0.099   3.912   4.336
 4732SOL    HW115095   0.100   3.981   4.409
 4732SOL    HW215096   0.115   3.822   4.376
 4733SOL     OW15097   2.044   3.488   2.987
 4733SOL    HW115098   2.083   3.458   2.900
 4733SOL    HW215099   1.945   3.473   2.986
 4734SOL     OW15100   5.160   3.797   6.405
 4734SOL    HW115101   5.102   3.827   6.329
 4734SOL    HW215102   5.253   3.834   6.393
 4735SOL     OW15103   6.888   6.252   4.776
 4735SOL    HW115104   6.940   6.333   4.748
 4735SOL    HW215105   6.947   6.171   4.768
 4736SOL     OW15106   6.375   2.155   3.116
 4736SOL    HW115107   6.376   2.161   3.016
 4736SOL    HW215108   6.291   2.108   3.146
 4737SOL     OW15109   2.014   5.013   1.136
 4737SOL    HW115110   2.022   5.091   1.199
 4737SOL    HW215111   1.997   4.930   1.189
 4738SOL     OW15112   2.250   0.419   3.639
 4738SOL    HW115113   2.318   0.449   3.572
 4738SOL    HW215114   2.234   0.492   3.705
 4739SOL     OW15115   6.003   3.571   4.554
 4739SOL    HW115116   6.015   3.668   4.574
 4739SOL    HW215117   6.087   3.536   4.511
 4740SOL     OW15118   0.344   1.376   1.663
 4740SOL    HW115119   0.244   1.378   1.667
 4740SOL    HW215120   0.376   1.422   1.580
 4741SOL     OW15121   4.529   4.873   1.270
 4741SOL    HW115122   4.616   4.834   1.299
 4741SOL    HW215123   4.478   4.805   1.217
 4742SOL     OW15124   2.558   5.742   1.014
 4742SOL    HW115125   2.480   5.773   1.069
 4742SOL    HW215126   2.572   5.804   0.937
 4743SOL     OW15127   2.059   1.907   7.011
 4743SOL    HW115128   1.978   1.959   6.986
 4743SOL    HW215129   2.073   1.832   6.946
 4744SOL     OW15130   1.969   3.434   5.663
 4744SOL    HW115131   1.950   3.397   5.571
 4744SOL    HW215132   2.046   3.497   5.658
 4745SOL     OW15133   3.909   5.278   5.248
 4745SOL    HW115134   3.820   5.274   5.202
 4745SOL    HW215135   3.972   5.334   5.194
 4746SOL     OW15136   6.407   6.327   0.776
 4746SOL    HW115137   6.357   6.372   0.702
 4746SOL    HW215138   6.344   6.307   0.851
 4747SOL     OW15139   6.945   2.215   0.676
 4747SOL    HW115140   6.946   2.309   0.708
 4747SOL    HW215141   6.901   2.157   0.744
 4748SOL     OW15142   1.195   0.499   1.385
 4748SOL    HW115143   1.166   0.432   1.317
 4748SOL    HW215144   1.227   0.452   1.467
 4749SOL     OW15145   2.333   6.574   0.042
 4749SOL    HW115146   2.308   6.479   0.060
 4749SOL    HW215147   2.392   6.579   6.984
 4750SOL     OW15148   0.076   0.907   4.592
 4750SOL    HW115149   0.075   0.902   4.492
 4750SOL    HW215150   0.122   0.827   4.629
 4751SOL     OW15151   1.528   4.916   6.429
 4751SOL    HW115152   1.558   4.823   6.408
 4751SOL    HW215153   1.429   4.922   6.415
 4752SOL     OW15154   3.052   6.548   1.872
 4752SOL    HW115155   3.052   6.448   1.873
 4752SOL    HW215156   3.008   6.582   1.955
 4753SOL     OW15157   5.667   6.628   5.395
 4753SOL    HW115158   5.649   6.614   5.297
 4753SOL    HW215159   5.592   6.588   5.448
 4754SOL     OW15160   0.190   0.037   6.006
 4754SOL    HW115161   0.179   0.072   5.912
 4754SOL    HW215162   0.280   0.064   6.041
 4755SOL     OW15163   2.253   1.656   6.198
 4755SOL    HW115164   2.285   1.742   6.157
 4755SOL    HW215165   2.310   1.581   6.167
 4756SOL     OW15166   4.800   2.925   1.520
 4756SOL    HW115167   4.807   2.924   1.620
 4756SOL    HW215168   4.768   2.836   1.488
 4757SOL     OW15169   2.446   2.177   1.932
 4757SOL    HW115170   2.527   2.191   1.875
 4757SOL    HW215171   2.451   2.087   1.975
 4758SOL     OW15172   5.088   5.118   5.375
 4758SOL    HW115173   5.182   5.094   5.351
 4758SOL    HW215174   5.082   5.134   5.474
 4759SOL     OW15175   5.637   5.836   6.137
 4759SOL    HW115176   5.668   5.753   6.184
 4759SOL    HW215177   5.538   5.846   6.148
 4760SOL     OW15178   2.111   0.954   1.734
 4760SOL    HW115179   2.121   0.995   1.824
 4760SOL    HW215180   2.017   0.965   1.702
 4761SOL     OW15181   6.949   0.115   6.489
 4761SOL    HW115182   6.953   0.019   6.465
 4761SOL    HW215183   6.880   0.161   6.433
 4762SOL     OW15184   2.771   5.292   1.732
 4762SOL    HW115185   2.862   5.326   1.756
 4762SOL    HW215186   2.710   5.368   1.711
 4763SOL     OW15187   6.124   6.199   3.120
 4763SOL    HW115188   6.179   6.237   3.194
 4763SOL    HW215189   6.028   6.222   3.135
 4764SOL     OW15190   4.265   3.628   5.289
 4764SOL    HW115191   4.247   3.616   5.192
 4764SOL    HW215192   4.356   3.668   5.302
 4765SOL     OW15193   4.889   5.905   4.996
 4765SOL    HW115194   4.961   5.909   5.065
 4765SOL    HW215195   4.813   5.849   5.031
 4766SOL     OW15196   2.352   0.150   3.660
 4766SOL    HW115197   2.450   0.149   3.681
 4766SOL    HW215198   2.323   0.244   3.640
 4767SOL     OW15199   4.152   6.811   0.093
 4767SOL    HW115200   4.113   6.791   0.003
 4767SOL    HW215201   4.080   6.803   0.163
 4768SOL     OW15202   6.068   0.445   4.479
 4768SOL    HW115203   6.056   0.542   4.499
 4768SOL    HW215204   5.986   0.411   4.432
 4769SOL     OW15205   4.248   6.265   1.586
 4769SOL    HW115206   4.238   6.168   1.609
 4769SOL    HW215207   4.158   6.307   1.577
 4770SOL     OW15208   2.411   0.523   3.438
 4770SOL    HW115209   2.356   0.585   3.382
 4770SOL    HW215210   2.410   0.431   3.397
 4771SOL     OW15211   3.915   4.092   5.643
 4771SOL    HW115212   3.962   4.174   5.610
 4771SOL    HW215213   3.947   4.071   5.735
 4772SOL     OW15214   2.996   1.294   1.694
 4772SOL    HW115215   2.942   1.267   1.774
 4772SOL    HW215216   3.016   1.392   1.698
 4773SOL     OW15217   0.262   5.716   3.345
 4773SOL    HW115218   0.343   5.761   3.308
 4773SOL    HW215219   0.277   5.694   3.441
 4774SOL     OW15220   1.119   3.377   1.740
 4774SOL    HW115221   1.064   3.303   1.700
 4774SOL    HW215222   1.191   3.404   1.675
 4775SOL     OW15223   4.410   0.483   3.012
 4775SOL    HW115224   4.393   0.574   2.974
 4775SOL    HW215225   4.425   0.491   3.111
 4776SOL     OW15226   2.823   5.982   2.412
 4776SOL    HW115227   2.904   6.041   2.410
 4776SOL    HW215228   2.829   5.914   2.339
 4777SOL     OW15229   2.556   4.698   1.325
 4777SOL    HW115230   2.573   4.645   1.242
 4777SOL    HW215231   2.518   4.639   1.396
 4778SOL     OW15232   4.816   3.714   1.917
 4778SOL    HW115233   4.826   3.615   1.907
 4778SOL    HW215234   4.745   3.746   1.854
 4779SOL     OW15235   6.515   0.257   3.014
 4779SOL    HW115236   6.506   0.332   2.948
 4779SOL    HW215237   6.427   0.210   3.021
 4780SOL     OW15238   0.962   6.737   6.141
 4780SOL    HW115239   0.941   6.665   6.075
 4780SOL    HW215240   1.058   6.764   6.132
 4781SOL     OW15241   2.241   5.248   0.776
 4781SOL    HW115242   2.247   5.289   0.867
 4781SOL    HW215243   2.306   5.294   0.715
 4782SOL     OW15244   5.422   6.544   6.752
 4782SOL    HW115245   5.505   6.598   6.738
 4782SOL    HW215246   5.352   6.572   6.686
 4783SOL     OW15247   5.077   4.108   1.022
 4783SOL    HW115248   5.137   4.175   1.068
 4783SOL    HW215249   5.079   4.124   0.924
 4784SOL     OW15250   5.751   5.210   5.275
 4784SOL    HW115251   5.774   5.225   5.179
 4784SOL    HW215252   5.708   5.292   5.312
 4785SOL     OW15253   6.916   6.277   0.663
 4785SOL    HW115254   6.823   6.305   0.640
 4785SOL    HW215255   6.976   6.357   0.666
 4786SOL     OW15256   1.768   3.134   2.061
 4786SOL    HW115257   1.840   3.075   2.023
 4786SOL    HW215258   1.717   3.084   2.130
 4787SOL     OW15259   3.032   2.173   3.343
 4787SOL    HW115260   2.953   2.233   3.358
 4787SOL    HW215261   3.001   2.086   3.305
 4788SOL     OW15262   0.931   5.070   5.074
 4788SOL    HW115263   1.028   5.082   5.054
 4788SOL    HW215264   0.900   4.982   5.036
 4789SOL     OW15265   5.619   0.223   6.607
 4789SOL    HW115266   5.647   0.291   6.539
 4789SOL    HW215267   5.546   0.262   6.664
 4790SOL     OW15268   5.653   2.688   6.445
 4790SOL    HW115269   5.605   2.732   6.370
 4790SOL    HW215270   5.603   2.605   6.472
 4791SOL     OW15271   5.424   6.889   2.081
 4791SOL    HW115272   5.497   6.955   2.102
 4791SOL    HW215273   5.342   6.913   2.133
 4792SOL     OW15274   2.319   2.733   3.115
 4792SOL    HW115275   2.294   2.830   3.117
 4792SOL    HW215276   2.246   2.680   3.071
 4793SOL     OW15277   1.365   0.054   6.240
 4793SOL    HW115278   1.417   7.020   6.177
 4793SOL    HW215279   1.277   0.077   6.199
 4794SOL     OW15280   2.254   6.518   3.329
 4794SOL    HW115281   2.184   6.579   3.293
 4794SOL    HW215282   2.297   6.560   3.410
 4795SOL     OW15283   5.941   3.321   4.388
 4795SOL    HW115284   5.895   3.402   4.350
 4795SOL    HW215285   5.907   3.305   4.480
 4796SOL     OW15286   5.775   3.707   0.815
 4796SOL    HW115287   5.695   3.763   0.834
 4796SOL    HW215288   5.790   3.643   0.891
 4797SOL     OW15289   0.759   4.794   6.034
 4797SOL    HW115290   0.835   4.730   6.044
 4797SOL    HW215291   0.699   4.763   5.960
 4798SOL     OW15292   0.063   4.332   4.015
 4798SOL    HW115293   0.013   4.418   4.006
 4798SOL    HW215294   0.115   4.333   4.100
 4799SOL     OW15295   4.743   1.391   4.873
 4799SOL    HW115296   4.780   1.307   4.913
 4799SOL    HW215297   4.648   1.403   4.901
 4800SOL     OW15298   2.771   2.763   5.567
 4800SOL    HW115299   2.699   2.780   5.500
 4800SOL    HW215300   2.816   2.849   5.591
 4801SOL     OW15301   1.878   1.607   0.707
 4801SOL    HW115302   1.939   1.615   0.629
 4801SOL    HW215303   1.815   1.685   0.709
 4802SOL     OW15304   2.441   6.748   1.598
 4802SOL    HW115305   2.498   6.825   1.570
 4802SOL    HW215306   2.345   6.770   1.582
 4803SOL     OW15307   0.694   6.742   0.514
 4803SOL    HW115308   0.701   6.841   0.502
 4803SOL    HW215309   0.608   6.720   0.560
 4804SOL     OW15310   4.266   5.185   6.024
 4804SOL    HW115311   4.321   5.154   6.101
 4804SOL    HW215312   4.178   5.138   6.025
 4805SOL     OW15313   6.901   1.544   0.148
 4805SOL    HW115314   6.952   1.520   0.066
 4805SOL    HW215315   6.829   1.610   0.125
 4806SOL     OW15316   0.525   3.644   2.799
 4806SOL    HW115317   0.441   3.693   2.776
 4806SOL    HW215318   0.508   3.546   2.801
 4807SOL     OW15319   0.600   6.122   1.471
 4807SOL    HW115320   0.523   6.183   1.452
 4807SOL    HW215321   0.580   6.031   1.434
 4808SOL     OW15322   5.127   3.407   1.523
 4808SOL    HW115323   5.056   3.455   1.575
 4808SOL    HW215324   5.085   3.333   1.470
 4809SOL     OW15325   3.614   5.084   7.004
 4809SOL    HW115326   3.553   5.148   6.958
 4809SOL    HW215327   3.565   5.040   0.057
 4810SOL     OW15328   0.696   5.900   1.609
 4810SOL    HW115329   0.607   5.860   1.629
 4810SOL    HW215330   0.685   5.997   1.587
 4811SOL     OW15331   3.590   5.195   1.940
 4811SOL    HW115332   3.658   5.139   1.892
 4811SOL    HW215333   3.511   5.138   1.964
 4812SOL     OW15334   0.264   5.703   4.118
 4812SOL    HW115335   0.328   5.703   4.195
 4812SOL    HW215336   0.256   5.610   4.081
 4813SOL     OW15337   4.939   1.647   2.441
 4813SOL    HW115338   5.025   1.596   2.447
 4813SOL    HW215339   4.944   1.712   2.365
 4814SOL     OW15340   7.011   3.731   1.067
 4814SOL    HW115341   0.019   3.752   0.974
 4814SOL    HW215342   6.944   3.800   1.096
 4815SOL     OW15343   4.667   5.427   1.638
 4815SOL    HW115344   4.714   5.340   1.656
 4815SOL    HW215345   4.586   5.410   1.582
 4816SOL     OW15346   5.286   5.149   2.787
 4816SOL    HW115347   5.315   5.094   2.709
 4816SOL    HW215348   5.225   5.222   2.756
 4817SOL     OW15349   1.347   2.162   5.609
 4817SOL    HW115350   1.371   2.068   5.635
 4817SOL    HW215351   1.336   2.218   5.691
 4818SOL     OW15352   0.076   6.913   3.704
 4818SOL    HW115353   7.020   6.862   3.739
 4818SOL    HW215354   0.044   6.983   3.641
 4819SOL     OW15355   1.422   3.297   7.009
 4819SOL    HW115356   1.374   3.339   6.932
 4819SOL    HW215357   1.461   3.368   0.045
 4820SOL     OW15358   6.955   3.139   2.045
 4820SOL    HW115359   6.863   3.174   2.057
 4820SOL    HW215360   6.996   3.181   1.964
 4821SOL     OW15361   6.737   5.650   2.466
 4821SOL    HW115362   6.834   5.672   2.459
 4821SOL    HW215363   6.722   5.556   2.439
 4822SOL     OW15364   1.121   4.107   4.219
 4822SOL    HW115365   1.048   4.131   4.283
 4822SOL    HW215366   1.194   4.059   4.268
 4823SOL     OW15367   1.709   2.731   1.745
 4823SOL    HW115368   1.738   2.673   1.821
 4823SOL    HW215369   1.759   2.817   1.747
 4824SOL     OW15370   5.313   0.773   5.108
 4824SOL    HW115371   5.365   0.852   5.075
 4824SOL    HW215372   5.365   0.689   5.092
 4825SOL     OW15373   1.576   0.232   4.189
 4825SOL    HW115374   1.571   0.176   4.107
 4825SOL    HW215375   1.596   0.327   4.164
 4826SOL     OW15376   4.257   0.161   1.454
 4826SOL    HW115377   4.354   0.184   1.445
 4826SOL    HW215378   4.223   0.191   1.543
 4827SOL     OW15379   6.746   2.004   1.082
 4827SOL    HW115380   6.822   2.064   1.059
 4827SOL    HW215381   6.776   1.933   1.145
 4828SOL     OW15382   4.943   1.009   2.660
 4828SOL    HW115383   4.898   0.963   2.737
 4828SOL    HW215384   4.879   1.074   2.619
 4829SOL     OW15385   3.678   0.016   5.568
 4829SOL    HW115386   3.753   6.975   5.590
 4829SOL    HW215387   3.710   0.110   5.581
 4830SOL     OW15388   2.974   5.630   3.811
 4830SOL    HW115389   3.049   5.616   3.746
 4830SOL    HW215390   2.896   5.575   3.784
 4831SOL     OW15391   3.524   5.075   6.594
 4831SOL    HW115392   3.440   5.054   6.645
 4831SOL    HW215393   3.565   5.159   6.630
 4832SOL     OW15394   3.103   3.153   4.131
 4832SOL    HW115395   3.083   3.122   4.224
 4832SOL    HW215396   3.024   3.202   4.095
 4833SOL     OW15397   0.096   2.655   4.174
 4833SOL    HW115398   0.055   2.566   4.155
 4833SOL    HW215399   0.183   2.643   4.221
 4834SOL     OW15400   1.805   5.340   1.583
 4834SOL    HW115401   1.763   5.412   1.638
 4834SOL    HW215402   1.893   5.371   1.548
 4835SOL     OW15403   0.129   2.575   5.046
 4835SOL    HW115404   0.048   2.622   5.011
 4835SOL    HW215405   0.170   2.521   4.972
 4836SOL     OW15406   4.839   1.187   5.043
 4836SOL    HW115407   4.812   1.124   5.115
 4836SOL    HW215408   4.923   1.154   5.000
 4837SOL     OW15409   0.087   3.525   4.644
 4837SOL    HW115410   0.044   3.589   4.708
 4837SOL    HW215411   0.017   3.466   4.603
 4838SOL     OW15412   1.389   4.572   6.462
 4838SOL    HW115413   1.470   4.514   6.447
 4838SOL    HW215414   1.361   4.565   6.557
 4839SOL     OW15415   2.486   1.695   0.478
 4839SOL    HW115416   2.583   1.690   0.454
 4839SOL    HW215417   2.476   1.711   0.576
 4840SOL     OW15418   5.641   3.327   5.183
 4840SOL    HW115419   5.599   3.397   5.126
 4840SOL    HW215420   5.653   3.243   5.129
 4841SOL     OW15421   3.324   5.436   3.255
 4841SOL    HW115422   3.233   5.436   3.214
 4841SOL    HW215423   3.365   5.527   3.247
 4842SOL     OW15424   3.063   5.454   3.143
 4842SOL    HW115425   3.004   5.392   3.194
 4842SOL    HW215426   3.013   5.492   3.065
 4843SOL     OW15427   0.419   2.416   2.517
 4843SOL    HW115428   0.385   2.328   2.551
 4843SOL    HW215429   0.510   2.405   2.480
 4844SOL     OW15430   0.953   5.643   4.814
 4844SOL    HW115431   0.980   5.663   4.908
 4844SOL    HW215432   1.033   5.649   4.755
 4845SOL     OW15433   4.876   3.844   4.892
 4845SOL    HW115434   4.850   3.756   4.930
 4845SOL    HW215435   4.818   3.916   4.931
 4846SOL     OW15436   7.000   3.603   5.053
 4846SOL    HW115437   6.943   3.537   5.003
 4846SOL    HW215438   0.063   3.558   5.080
 4847SOL     OW15439   2.276   6.239   6.114
 4847SOL    HW115440   2.368   6.206   6.093
 4847SOL    HW215441   2.269   6.336   6.094
 4848SOL     OW15442   2.742   0.706   4.118
 4848SOL    HW115443   2.836   0.702   4.151
 4848SOL    HW215444   2.733   0.780   4.052
 4849SOL     OW15445   1.777   6.805   0.950
 4849SOL    HW115446   1.734   6.808   0.860
 4849SOL    HW215447   1.875   6.826   0.941
 4850SOL     OW15448   4.584   0.715   0.645
 4850SOL    HW115449   4.678   0.685   0.626
 4850SOL    HW215450   4.542   0.747   0.561
 4851SOL     OW15451   3.636   5.667   6.512
 4851SOL    HW115452   3.594   5.610   6.583
 4851SOL    HW215453   3.697   5.610   6.457
 4852SOL     OW15454   4.342   5.221   4.575
 4852SOL    HW115455   4.253   5.242   4.533
 4852SOL    HW215456   4.351   5.270   4.661
 4853SOL     OW15457   3.505   0.751   3.350
 4853SOL    HW115458   3.475   0.761   3.444
 4853SOL    HW215459   3.605   0.749   3.347
 4854SOL     OW15460   5.995   6.176   1.607
 4854SOL    HW115461   6.068   6.169   1.538
 4854SOL    HW215462   5.907   6.186   1.561
 4855SOL     OW15463   6.422   4.732   4.735
 4855SOL    HW115464   6.449   4.727   4.638
 4855SOL    HW215465   6.427   4.641   4.775
 4856SOL     OW15466   0.270   3.884   2.927
 4856SOL    HW115467   0.197   3.862   2.992
 4856SOL    HW215468   0.285   3.983   2.925
 4857SOL     OW15469   2.611   2.078   4.617
 4857SOL    HW115470   2.601   2.038   4.709
 4857SOL    HW215471   2.540   2.146   4.602
 4858SOL     OW15472   0.450   6.126   4.362
 4858SOL    HW115473   0.496   6.046   4.400
 4858SOL    HW215474   0.374   6.153   4.420
 4859SOL     OW15475   0.714   5.771   2.474
 4859SOL    HW115476   0.627   5.808   2.442
 4859SOL    HW215477   0.727   5.679   2.437
 4860SOL     OW15478   4.693   5.645   0.915
 4860SOL    HW115479   4.654   5.731   0.881
 4860SOL    HW215480   4.793   5.650   0.911
 4861SOL     OW15481   0.570   4.769   6.677
 4861SOL    HW115482   0.555   4.705   6.752
 4861SOL    HW215483   0.603   4.720   6.597
 4862SOL     OW15484   2.745   4.556   5.311
 4862SOL    HW115485   2.671   4.566   5.244
 4862SOL    HW215486   2.832   4.541   5.263
 4863SOL     OW15487   4.441   2.032   3.077
 4863SOL    HW115488   4.364   2.083   3.115
 4863SOL    HW215489   4.523   2.051   3.131
 4864SOL     OW15490   3.365   1.372   1.889
 4864SOL    HW115491   3.379   1.398   1.793
 4864SOL    HW215492   3.290   1.427   1.927
 4865SOL     OW15493   3.954   5.673   5.399
 4865SOL    HW115494   3.996   5.601   5.344
 4865SOL    HW215495   3.957   5.760   5.349
 4866SOL     OW15496   6.036   4.301   0.807
 4866SOL    HW115497   5.954   4.285   0.752
 4866SOL    HW215498   6.023   4.383   0.863
 4867SOL     OW15499   4.838   5.990   2.992
 4867SOL    HW115500   4.756   5.949   3.032
 4867SOL    HW215501   4.895   5.918   2.951
 4868SOL     OW15502   0.445   5.599   1.432
 4868SOL    HW115503   0.347   5.604   1.451
 4868SOL    HW215504   0.464   5.521   1.374
 4869SOL     OW15505   6.781   1.345   0.340
 4869SOL    HW115506   6.749   1.426   0.390
 4869SOL    HW215507   6.820   1.374   0.253
 4870SOL     OW15508   6.006   6.540   2.261
 4870SOL    HW115509   5.919   6.589   2.261
 4870SOL    HW215510   5.997   6.455   2.312
 4871SOL     OW15511   1.312   3.430   4.195
 4871SOL    HW115512   1.394   3.415   4.250
 4871SOL    HW215513   1.319   3.380   4.109
 4872SOL     OW15514   1.078   0.898   2.476
 4872SOL    HW115515   1.118   0.987   2.451
 4872SOL    HW215516   1.148   0.842   2.520
 4873SOL     OW15517   0.203   5.687   5.512
 4873SOL    HW115518   0.196   5.685   5.413
 4873SOL    HW215519   0.222   5.595   5.547
 4874SOL     OW15520   5.497   3.552   3.114
 4874SOL    HW115521   5.596   3.566   3.123
 4874SOL    HW215522   5.453   3.571   3.201
 4875SOL     OW15523   5.766   2.420   0.217
 4875SOL    HW115524   5.710   2.474   0.279
 4875SOL    HW215525   5.862   2.449   0.224
 4876SOL     OW15526   0.201   1.328   0.187
 4876SOL    HW115527   0.129   1.271   0.146
 4876SOL    HW215528   0.166   1.370   0.270
 4877SOL     OW15529   6.331   1.395   1.284
 4877SOL    HW115530   6.385   1.318   1.249
 4877SOL    HW215531   6.376   1.433   1.365
 4878SOL     OW15532   6.664   2.142   2.173
 4878SOL    HW115533   6.704   2.053   2.151
 4878SOL    HW215534   6.567   2.141   2.150
 4879SOL     OW15535   4.299   5.198   3.439
 4879SOL    HW115536   4.336   5.144   3.363
 4879SOL    HW215537   4.368   5.263   3.469
 4880SOL     OW15538   5.836   1.829   6.170
 4880SOL    HW115539   5.763   1.895   6.188
 4880SOL    HW215540   5.797   1.738   6.158
 4881SOL     OW15541   3.482   6.359   6.530
 4881SOL    HW115542   3.528   6.417   6.462
 4881SOL    HW215543   3.403   6.315   6.488
 4882SOL     OW15544   5.717   0.535   5.397
 4882SOL    HW115545   5.620   0.546   5.374
 4882SOL    HW215546   5.726   0.481   5.481
 4883SOL     OW15547   0.084   4.948   2.025
 4883SOL    HW115548   0.014   4.964   1.955
 4883SOL    HW215549   0.137   4.867   2.001
 4884SOL     OW15550   3.452   6.548   1.485
 4884SOL    HW115551   3.488   6.614   1.550
 4884SOL    HW215552   3.361   6.519   1.515
 4885SOL     OW15553   1.772   0.085   1.883
 4885SOL    HW115554   1.816   0.003   1.919
 4885SOL    HW215555   1.756   0.074   1.785
 4886SOL     OW15556   6.678   0.277   0.066
 4886SOL    HW115557   6.776   0.297   0.075
 4886SOL    HW215558   6.625   0.355   0.099
 4887SOL     OW15559   0.455   2.193   3.703
 4887SOL    HW115560   0.357   2.188   3.689
 4887SOL    HW215561   0.501   2.132   3.638
 4888SOL     OW15562   2.687   5.333   2.926
 4888SOL    HW115563   2.734   5.245   2.921
 4888SOL    HW215564   2.743   5.403   2.881
 4889SOL     OW15565   0.747   1.806   0.297
 4889SOL    HW115566   0.812   1.784   0.225
 4889SOL    HW215567   0.682   1.874   0.263
 4890SOL     OW15568   1.146   0.735   4.520
 4890SOL    HW115569   1.078   0.788   4.470
 4890SOL    HW215570   1.217   0.704   4.457
 4891SOL     OW15571   0.765   4.875   0.393
 4891SOL    HW115572   0.821   4.820   0.331
 4891SOL    HW215573   0.818   4.895   0.476
 4892SOL     OW15574   0.905   5.292   0.474
 4892SOL    HW115575   0.817   5.255   0.443
 4892SOL    HW215576   0.889   5.354   0.551
 4893SOL     OW15577   0.597   3.349   6.629
 4893SOL    HW115578   0.691   3.372   6.654
 4893SOL    HW215579   0.593   3.252   6.603
 4894SOL     OW15580   2.228   1.378   3.388
 4894SOL    HW115581   2.277   1.309   3.335
 4894SOL    HW215582   2.133   1.383   3.358
 4895SOL     OW15583   0.914   3.267   0.162
 4895SOL    HW115584   0.962   3.327   0.226
 4895SOL    HW215585   0.942   3.172   0.177
 4896SOL     OW15586   3.802   5.163   4.974
 4896SOL    HW115587   3.730   5.203   4.917
 4896SOL    HW215588   3.890   5.206   4.951
 4897SOL     OW15589   3.889   5.361   6.146
 4897SOL    HW115590   3.856   5.267   6.145
 4897SOL    HW215591   3.950   5.377   6.068
 4898SOL     OW15592   5.120   2.029   5.384
 4898SOL    HW115593   5.168   2.107   5.425
 4898SOL    HW215594   5.037   2.011   5.436
 4899SOL     OW15595   5.732   4.398   3.700
 4899SOL    HW115596   5.650   4.366   3.749
 4899SOL    HW215597   5.812   4.347   3.732
 4900SOL     OW15598   1.064   6.999   5.436
 4900SOL    HW115599   1.136   6.947   5.390
 4900SOL    HW215600   1.028   6.946   5.513
 4901SOL     OW15601   0.659   0.038   3.841
 4901SOL    HW115602   0.726   0.037   3.915
 4901SOL    HW215603   0.575   7.016   3.871
 4902SOL     OW15604   2.179   4.491   1.688
 4902SOL    HW115605   2.233   4.493   1.772
 4902SOL    HW215606   2.089   4.454   1.707
 4903SOL     OW15607   4.883   0.229   6.700
 4903SOL    HW115608   4.826   0.214   6.781
 4903SOL    HW215609   4.824   0.248   6.622
 4904SOL     OW15610   2.498   5.998   4.262
 4904SOL    HW115611   2.587   6.012   4.218
 4904SOL    HW215612   2.456   6.087   4.281
 4905SOL     OW15613   4.945   3.211   1.923
 4905SOL    HW115614   4.882   3.135   1.940
 4905SOL    HW215615   4.954   3.225   1.824
 4906SOL     OW15616   5.234   0.414   0.399
 4906SOL    HW115617   5.271   0.470   0.473
 4906SOL    HW215618   5.138   0.395   0.416
 4907SOL     OW15619   3.140   0.961   3.418
 4907SOL    HW115620   3.148   0.879   3.475
 4907SOL    HW215621   3.153   1.042   3.475
 4908SOL     OW15622   3.289   6.218   6.335
 4908SOL    HW115623   3.232   6.196   6.257
 4908SOL    HW215624   3.335   6.135   6.368
 4909SOL     OW15625   6.595   6.657   5.305
 4909SOL    HW115626   6.595   6.751   5.270
 4909SOL    HW215627   6.603   6.658   5.405
 4910SOL     OW15628   5.727   0.068   4.883
 4910SOL    HW115629   5.746   0.012   4.963
 4910SOL    HW215630   5.812   0.105   4.846
 4911SOL     OW15631   0.077   2.593   6.122
 4911SOL    HW115632   0.046   2.601   6.027
 4911SOL    HW215633   0.173   2.623   6.127
 4912SOL     OW15634   2.653   2.354   2.647
 4912SOL    HW115635   2.610   2.435   2.608
 4912SOL    HW215636   2.719   2.316   2.582
 4913SOL     OW15637   3.100   3.945   3.162
 4913SOL    HW115638   3.133   4.004   3.235
 4913SOL    HW215639   3.154   3.961   3.079
 4914SOL     OW15640   2.658   6.562   3.673
 4914SOL    HW115641   2.655   6.628   3.748
 4914SOL    HW215642   2.753   6.534   3.657
 4915SOL     OW15643   3.288   5.643   4.300
 4915SOL    HW115644   3.330   5.595   4.223
 4915SOL    HW215645   3.288   5.741   4.282
 4916SOL     OW15646   2.053   1.532   2.428
 4916SOL    HW115647   2.145   1.563   2.405
 4916SOL    HW215648   2.018   1.585   2.505
 4917SOL     OW15649   1.984   4.909   0.637
 4917SOL    HW115650   1.943   4.994   0.604
 4917SOL    HW215651   2.030   4.926   0.725
 4918SOL     OW15652   2.248   0.204   2.172
 4918SOL    HW115653   2.199   0.130   2.129
 4918SOL    HW215654   2.342   0.206   2.138
 4919SOL     OW15655   2.396   2.641   1.981
 4919SOL    HW115656   2.327   2.676   2.044
 4919SOL    HW215657   2.436   2.557   2.018
 4920SOL     OW15658   4.341   0.927   0.204
 4920SOL    HW115659   4.355   0.828   0.206
 4920SOL    HW215660   4.316   0.959   0.295
 4921SOL     OW15661   0.997   4.736   1.504
 4921SOL    HW115662   0.910   4.780   1.528
 4921SOL    HW215663   0.980   4.644   1.471
 4922SOL     OW15664   1.409   2.886   5.257
 4922SOL    HW115665   1.499   2.901   5.215
 4922SOL    HW215666   1.403   2.792   5.290
 4923SOL     OW15667   4.649   0.974   1.072
 4923SOL    HW115668   4.611   1.001   1.160
 4923SOL    HW215669   4.603   0.892   1.039
 4924SOL     OW15670   0.597   4.166   4.641
 4924SOL    HW115671   0.595   4.068   4.622
 4924SOL    HW215672   0.608   4.181   4.739
 4925SOL     OW15673   4.661   6.166   6.814
 4925SOL    HW115674   4.565   6.148   6.833
 4925SOL    HW215675   4.717   6.089   6.848
 4926SOL     OW15676   4.771   2.278   1.924
 4926SOL    HW115677   4.825   2.332   1.860
 4926SOL    HW215678   4.725   2.338   1.989
 4927SOL     OW15679   3.273   2.966   3.409
 4927SOL    HW115680   3.221   2.963   3.495
 4927SOL    HW215681   3.213   2.994   3.335
 4928SOL     OW15682   0.184   5.797   0.182
 4928SOL    HW115683   0.229   5.886   0.173
 4928SOL    HW215684   0.194   5.746   0.096
 4929SOL     OW15685   1.180   5.358   4.170
 4929SOL    HW115686   1.198   5.271   4.216
 4929SOL    HW215687   1.214   5.354   4.076
 4930SOL     OW15688   0.362   2.157   0.694
 4930SOL    HW115689   0.457   2.155   0.663
 4930SOL    HW215690   0.304   2.115   0.625
 4931SOL     OW15691   6.987   0.882   0.312
 4931SOL    HW115692   0.054   0.838   0.318
 4931SOL    HW215693   6.988   0.968   0.363
 4932SOL     OW15694   2.498   2.124   1.539
 4932SOL    HW115695   2.504   2.196   1.469
 4932SOL    HW215696   2.542   2.156   1.623
 4933SOL     OW15697   2.807   0.926   3.902
 4933SOL    HW115698   2.842   0.894   3.814
 4933SOL    HW215699   2.755   1.010   3.889
 4934SOL     OW15700   0.964   5.825   4.388
 4934SOL    HW115701   1.012   5.741   4.365
 4934SOL    HW215702   0.911   5.812   4.472
 4935SOL     OW15703   1.452   1.067   0.529
 4935SOL    HW115704   1.505   1.145   0.563
 4935SOL    HW215705   1.363   1.066   0.573
 4936SOL     OW15706   3.983   5.610   0.898
 4936SOL    HW115707   4.013   5.646   0.810
 4936SOL    HW215708   3.955   5.514   0.887
 4937SOL     OW15709   0.613   2.748   6.206
 4937SOL    HW115710   0.664   2.704   6.133
 4937SOL    HW215711   0.649   2.840   6.222
 4938SOL     OW15712   3.483   4.557   1.667
 4938SOL    HW115713   3.554   4.613   1.710
 4938SOL    HW215714   3.524   4.503   1.593
 4939SOL     OW15715   1.729   1.690   1.896
 4939SOL    HW115716   1.685   1.614   1.944
 4939SOL    HW215717   1.704   1.777   1.939
 4940SOL     OW15718   0.403   2.672   4.696
 4940SOL    HW115719   0.416   2.669   4.795
 4940SOL    HW215720   0.306   2.673   4.674
 4941SOL     OW15721   3.850   2.426   5.381
 4941SOL    HW115722   3.859   2.525   5.364
 4941SOL    HW215723   3.922   2.377   5.331
 4942SOL     OW15724   5.855   2.009   4.172
 4942SOL    HW115725   5.891   1.915   4.170
 4942SOL    HW215726   5.756   2.006   4.188
 4943SOL     OW15727   5.748   3.014   6.534
 4943SOL    HW115728   5.828   2.976   6.580
 4943SOL    HW215729   5.667   2.963   6.562
 4944SOL     OW15730   1.066   5.370   0.915
 4944SOL    HW115731   1.138   5.424   0.958
 4944SOL    HW215732   1.107   5.305   0.850
 4945SOL     OW15733   2.002   1.188   4.988
 4945SOL    HW115734   1.904   1.168   4.996
 4945SOL    HW215735   2.016   1.287   4.981
 4946SOL     OW15736   2.115   5.300   0.180
 4946SOL    HW115737   2.025   5.343   0.171
 4946SOL    HW215738   2.105   5.211   0.224
 4947SOL     OW15739   1.847   0.992   1.666
 4947SOL    HW115740   1.813   0.901   1.642
 4947SOL    HW215741   1.805   1.060   1.605
 4948SOL     OW15742   1.539   2.374   1.927
 4948SOL    HW115743   1.607   2.376   2.001
 4948SOL    HW215744   1.456   2.330   1.960
 4949SOL     OW15745   6.837   3.982   0.527
 4949SOL    HW115746   6.869   3.945   0.439
 4949SOL    HW215747   6.758   3.929   0.558
 4950SOL     OW15748   2.146   4.057   5.268
 4950SOL    HW115749   2.125   4.013   5.355
 4950SOL    HW215750   2.223   4.011   5.225
 4951SOL     OW15751   4.860   5.779   3.543
 4951SOL    HW115752   4.854   5.712   3.470
 4951SOL    HW215753   4.952   5.778   3.582
 4952SOL     OW15754   0.626   6.426   5.852
 4952SOL    HW115755   0.547   6.470   5.810
 4952SOL    HW215756   0.594   6.354   5.915
 4953SOL     OW15757   1.125   2.188   4.735
 4953SOL    HW115758   1.154   2.093   4.734
 4953SOL    HW215759   1.155   2.232   4.820
 4954SOL     OW15760   3.330   4.117   4.795
 4954SOL    HW115761   3.391   4.183   4.751
 4954SOL    HW215762   3.377   4.073   4.871
 4955SOL     OW15763   3.378   5.642   0.155
 4955SOL    HW115764   3.367   5.544   0.140
 4955SOL    HW215765   3.306   5.692   0.106
 4956SOL     OW15766   2.461   6.982   4.951
 4956SOL    HW115767   2.487   0.049   4.987
 4956SOL    HW215768   2.364   6.966   4.967
 4957SOL     OW15769   6.266   4.298   0.306
 4957SOL    HW115770   6.271   4.245   0.221
 4957SOL    HW215771   6.242   4.237   0.381
 4958SOL     OW15772   3.132   6.543   0.382
 4958SOL    HW115773   3.044   6.499   0.364
 4958SOL    HW215774   3.199   6.515   0.313
 4959SOL     OW15775   0.784   3.372   2.286
 4959SOL    HW115776   0.825   3.425   2.211
 4959SOL    HW215777   0.855   3.326   2.338
 4960SOL     OW15778   3.985   5.965   4.206
 4960SOL    HW115779   4.075   6.006   4.222
 4960SOL    HW215780   3.972   5.952   4.107
 4961SOL     OW15781   3.786   0.906   0.701
 4961SOL    HW115782   3.827   0.976   0.760
 4961SOL    HW215783   3.699   0.876   0.741
 4962SOL     OW15784   0.970   4.307   1.124
 4962SOL    HW115785   0.991   4.220   1.168
 4962SOL    HW215786   1.050   4.340   1.074
 4963SOL     OW15787   1.134   4.048   6.084
 4963SOL    HW115788   1.051   4.047   6.140
 4963SOL    HW215789   1.128   3.977   6.014
 4964SOL     OW15790   2.761   6.773   4.673
 4964SOL    HW115791   2.667   6.774   4.707
 4964SOL    HW215792   2.807   6.858   4.699
 4965SOL     OW15793   1.536   6.190   2.632
 4965SOL    HW115794   1.554   6.245   2.551
 4965SOL    HW215795   1.448   6.145   2.623
 4966SOL     OW15796   3.680   6.459   4.269
 4966SOL    HW115797   3.678   6.531   4.339
 4966SOL    HW215798   3.597   6.464   4.214
 4967SOL     OW15799   4.211   4.856   5.047
 4967SOL    HW115800   4.293   4.905   5.075
 4967SOL    HW215801   4.230   4.758   5.040
 4968SOL     OW15802   6.962   1.631   3.735
 4968SOL    HW115803   6.974   1.585   3.647
 4968SOL    HW215804   7.000   1.574   3.808
 4969SOL     OW15805   0.615   5.817   3.042
 4969SOL    HW115806   0.691   5.872   3.008
 4969SOL    HW215807   0.542   5.816   2.974
 4970SOL     OW15808   1.563   1.226   1.574
 4970SOL    HW115809   1.572   1.294   1.647
 4970SOL    HW215810   1.477   1.175   1.587
 4971SOL     OW15811   6.475   6.348   3.155
 4971SOL    HW115812   6.399   6.370   3.094
 4971SOL    HW215813   6.535   6.428   3.163
 4972SOL     OW15814   1.690   4.119   1.472
 4972SOL    HW115815   1.600   4.157   1.451
 4972SOL    HW215816   1.721   4.064   1.395
 4973SOL     OW15817   6.943   0.503   1.039
 4973SOL    HW115818   6.859   0.477   1.086
 4973SOL    HW215819   6.935   0.597   1.005
 4974SOL     OW15820   3.736   4.831   5.253
 4974SOL    HW115821   3.679   4.842   5.172
 4974SOL    HW215822   3.832   4.835   5.226
 4975SOL     OW15823   5.957   3.495   0.851
 4975SOL    HW115824   5.874   3.445   0.877
 4975SOL    HW215825   5.945   3.536   0.761
 4976SOL     OW15826   1.347   0.018   4.559
 4976SOL    HW115827   1.354   0.079   4.480
 4976SOL    HW215828   1.438   0.001   4.597
 4977SOL     OW15829   2.486   5.120   6.376
 4977SOL    HW115830   2.558   5.188   6.365
 4977SOL    HW215831   2.525   5.036   6.414
 4978SOL     OW15832   5.197   4.827   5.122
 4978SOL    HW115833   5.202   4.757   5.193
 4978SOL    HW215834   5.182   4.917   5.165
 4979SOL     OW15835   1.905   6.606   6.325
 4979SOL    HW115836   1.914   6.700   6.291
 4979SOL    HW215837   1.920   6.542   6.250
 4980SOL     OW15838   6.142   4.423   2.777
 4980SOL    HW115839   6.050   4.383   2.776
 4980SOL    HW215840   6.209   4.350   2.788
 4981SOL     OW15841   3.501   4.905   1.776
 4981SOL    HW115842   3.543   4.956   1.701
 4981SOL    HW215843   3.561   4.830   1.802
 4982SOL     OW15844   4.664   1.306   6.385
 4982SOL    HW115845   4.696   1.397   6.359
 4982SOL    HW215846   4.565   1.302   6.375
 4983SOL     OW15847   0.046   5.214   2.811
 4983SOL    HW115848   0.025   5.259   2.724
 4983SOL    HW215849   0.096   5.278   2.870
 4984SOL     OW15850   5.014   4.590   2.915
 4984SOL    HW115851   5.033   4.528   2.839
 4984SOL    HW215852   5.042   4.547   3.001
 4985SOL     OW15853   5.902   5.446   2.933
 4985SOL    HW115854   5.913   5.461   3.031
 4985SOL    HW215855   5.861   5.527   2.891
 4986SOL     OW15856   1.179   5.211   2.259
 4986SOL    HW115857   1.249   5.235   2.192
 4986SOL    HW215858   1.147   5.118   2.241
 4987SOL     OW15859   0.606   0.785   2.115
 4987SOL    HW115860   0.704   0.793   2.100
 4987SOL    HW215861   0.562   0.752   2.032
 4988SOL     OW15862   5.945   0.236   3.372
 4988SOL    HW115863   6.025   0.217   3.430
 4988SOL    HW215864   5.915   0.150   3.329
 4989SOL     OW15865   4.086   1.224   2.717
 4989SOL    HW115866   4.054   1.155   2.781
 4989SOL    HW215867   4.017   1.239   2.646
 4990SOL     OW15868   4.545   1.747   5.434
 4990SOL    HW115869   4.533   1.841   5.403
 4990SOL    HW215870   4.630   1.738   5.486
 4991SOL     OW15871   1.077   5.399   5.129
 4991SOL    HW115872   1.097   5.488   5.088
 4991SOL    HW215873   0.978   5.387   5.135
 4992SOL     OW15874   0.041   1.480   3.508
 4992SOL    HW115875   0.090   1.429   3.438
 4992SOL    HW215876   0.008   1.417   3.578
 4993SOL     OW15877   4.211   6.313   4.732
 4993SOL    HW115878   4.112   6.324   4.733
 4993SOL    HW215879   4.238   6.242   4.796
 4994SOL     OW15880   3.044   5.202   6.111
 4994SOL    HW115881   2.986   5.125   6.083
 4994SOL    HW215882   2.992   5.287   6.105
 4995SOL     OW15883   0.936   0.575   4.901
 4995SOL    HW115884   0.926   0.552   4.804
 4995SOL    HW215885   0.848   0.607   4.936
 4996SOL     OW15886   6.815   0.991   4.727
 4996SOL    HW115887   6.777   0.909   4.768
 4996SOL    HW215888   6.883   0.965   4.658
 4997SOL     OW15889   3.388   2.003   1.730
 4997SOL    HW115890   3.319   1.998   1.658
 4997SOL    HW215891   3.461   2.065   1.702
 4998SOL     OW15892   0.855   3.062   3.983
 4998SOL    HW115893   0.919   3.129   3.947
 4998SOL    HW215894   0.780   3.049   3.919
 4999SOL     OW15895   0.845   3.738   4.541
 4999SOL    HW115896   0.882   3.668   4.480
 4999SOL    HW215897   0.786   3.695   4.609
 5000SOL     OW15898   2.893   5.333   3.740
 5000SOL    HW115899   2.822   5.286   3.793
 5000SOL    HW215900   2.983   5.310   3.778
 5001SOL     OW15901   0.953   5.192   2.433
 5001SOL    HW115902   0.984   5.221   2.523
 5001SOL    HW215903   1.022   5.214   2.364
 5002SOL     OW15904   0.653   3.812   3.199
 5002SOL    HW115905   0.672   3.910   3.204
 5002SOL    HW215906   0.578   3.788   3.260
 5003SOL     OW15907   4.370   6.482   3.671
 5003SOL    HW115908   4.456   6.531   3.663
 5003SOL    HW215909   4.348   6.438   3.584
 5004SOL     OW15910   2.642   6.027   6.206
 5004SOL    HW115911   2.724   6.072   6.171
 5004SOL    HW215912   2.645   6.022   6.305
 5005SOL     OW15913   2.938   3.019   6.140
 5005SOL    HW115914   2.939   2.949   6.069
 5005SOL    HW215915   3.032   3.035   6.172
 5006SOL     OW15916   5.402   1.649   1.962
 5006SOL    HW115917   5.440   1.655   2.055
 5006SOL    HW215918   5.395   1.741   1.923
 5007SOL     OW15919   6.062   0.286   1.998
 5007SOL    HW115920   6.139   0.224   2.003
 5007SOL    HW215921   5.992   0.248   1.937
 5008SOL     OW15922   6.351   6.786   1.542
 5008SOL    HW115923   6.342   6.829   1.632
 5008SOL    HW215924   6.260   6.760   1.508
 5009SOL     OW15925   0.908   2.245   0.283
 5009SOL    HW115926   0.852   2.323   0.308
 5009SOL    HW215927   0.961   2.267   0.201
 5010SOL     OW15928   4.069   2.550   0.613
 5010SOL    HW115929   4.044   2.531   0.518
 5010SOL    HW215930   3.992   2.592   0.661
 5011SOL     OW15931   2.174   3.834   6.798
 5011SOL    HW115932   2.100   3.878   6.850
 5011SOL    HW215933   2.245   3.803   6.861
 5012SOL     OW15934   5.658   1.624   5.325
 5012SOL    HW115935   5.738   1.565   5.338
 5012SOL    HW215936   5.576   1.567   5.316
 5013SOL     OW15937   5.899   0.103   5.692
 5013SOL    HW115938   5.828   0.033   5.686
 5013SOL    HW215939   5.954   0.089   5.774
 5014SOL     OW15940   6.197   3.382   1.822
 5014SOL    HW115941   6.275   3.327   1.793
 5014SOL    HW215942   6.118   3.363   1.764
 5015SOL     OW15943   5.623   0.084   3.869
 5015SOL    HW115944   5.574   7.022   3.849
 5015SOL    HW215945   5.702   0.063   3.927
 5016SOL     OW15946   1.330   3.189   4.924
 5016SOL    HW115947   1.416   3.147   4.893
 5016SOL    HW215948   1.278   3.219   4.844
 5017SOL     OW15949   0.330   2.599   1.463
 5017SOL    HW115950   0.315   2.554   1.375
 5017SOL    HW215951   0.373   2.688   1.447
 5018SOL     OW15952   0.477   5.750   1.693
 5018SOL    HW115953   0.402   5.781   1.635
 5018SOL    HW215954   0.457   5.659   1.728
 5019SOL     OW15955   1.479   5.202   5.236
 5019SOL    HW115956   1.459   5.110   5.268
 5019SOL    HW215957   1.421   5.268   5.284
 5020SOL     OW15958   0.249   6.602   4.358
 5020SOL    HW115959   0.279   6.646   4.442
 5020SOL    HW215960   0.281   6.654   4.279
 5021SOL     OW15961   2.049   0.845   0.849
 5021SOL    HW115962   1.996   0.910   0.903
 5021SOL    HW215963   1.987   0.785   0.798
 5022SOL     OW15964   0.621   3.160   1.383
 5022SOL    HW115965   0.541   3.146   1.324
 5022SOL    HW215966   0.642   3.258   1.387
 5023SOL     OW15967   0.556   4.494   1.975
 5023SOL    HW115968   0.529   4.554   1.900
 5023SOL    HW215969   0.607   4.416   1.939
 5024SOL     OW15970   5.401   3.758   1.247
 5024SOL    HW115971   5.329   3.715   1.301
 5024SOL    HW215972   5.437   3.692   1.181
 5025SOL     OW15973   4.012   1.318   3.596
 5025SOL    HW115974   3.992   1.257   3.673
 5025SOL    HW215975   4.001   1.413   3.626
 5026SOL     OW15976   6.333   6.209   5.106
 5026SOL    HW115977   6.283   6.177   5.187
 5026SOL    HW215978   6.413   6.261   5.134
 5027SOL     OW15979   5.556   0.559   6.952
 5027SOL    HW115980   5.598   0.649   6.966
 5027SOL    HW215981   5.553   0.510   0.016
 5028SOL     OW15982   6.994   2.304   2.718
 5028SOL    HW115983   0.012   2.388   2.685
 5028SOL    HW215984   6.936   2.264   2.647
 5029SOL     OW15985   6.201   2.114   2.180
 5029SOL    HW115986   6.183   2.035   2.240
 5029SOL    HW215987   6.278   2.167   2.216
 5030SOL     OW15988   6.945   5.412   6.593
 5030SOL    HW115989   6.911   5.318   6.604
 5030SOL    HW215990   6.959   5.431   6.496
 5031SOL     OW15991   6.972   0.719   5.427
 5031SOL    HW115992   6.895   0.694   5.485
 5031SOL    HW215993   6.948   0.800   5.372
 5032SOL     OW15994   3.628   2.874   5.367
 5032SOL    HW115995   3.544   2.904   5.323
 5032SOL    HW215996   3.693   2.843   5.297
 5033SOL     OW15997   2.372   1.099   0.719
 5033SOL    HW115998   2.277   1.069   0.716
 5033SOL    HW215999   2.433   1.021   0.707
 5034SOL     OW16000   4.548   6.248   4.037
 5034SOL    HW116001   4.496   6.244   4.122
 5034SOL    HW216002   4.485   6.266   3.961
 5035SOL     OW16003   0.452   4.599   4.325
 5035SOL    HW116004   0.423   4.602   4.420
 5035SOL    HW216005   0.460   4.692   4.289
 5036SOL     OW16006   6.446   3.423   5.102
 5036SOL    HW116007   6.421   3.506   5.152
 5036SOL    HW216008   6.378   3.352   5.121
 5037SOL     OW16009   4.505   4.524   1.179
 5037SOL    HW116010   4.533   4.547   1.272
 5037SOL    HW216011   4.405   4.519   1.175
 5038SOL     OW16012   3.126   3.415   4.266
 5038SOL    HW116013   3.182   3.497   4.272
 5038SOL    HW216014   3.149   3.364   4.183
 5039SOL     OW16015   2.062   2.930   6.203
 5039SOL    HW116016   2.011   2.860   6.253
 5039SOL    HW216017   2.152   2.942   6.244
 5040SOL     OW16018   1.096   5.086   5.822
 5040SOL    HW116019   1.121   5.182   5.831
 5040SOL    HW216020   1.007   5.071   5.865
 5041SOL     OW16021   0.805   3.417   1.905
 5041SOL    HW116022   0.895   3.457   1.925
 5041SOL    HW216023   0.801   3.324   1.940
 5042SOL     OW16024   0.053   3.627   5.949
 5042SOL    HW116025   0.016   3.590   5.864
 5042SOL    HW216026   0.137   3.579   5.973
 5043SOL     OW16027   4.263   0.527   0.513
 5043SOL    HW116028   4.267   0.627   0.516
 5043SOL    HW216029   4.169   0.498   0.531
 5044SOL     OW16030   6.700   5.242   0.933
 5044SOL    HW116031   6.634   5.168   0.932
 5044SOL    HW216032   6.720   5.272   0.840
 5045SOL     OW16033   6.068   4.091   6.412
 5045SOL    HW116034   6.025   4.181   6.426
 5045SOL    HW216035   6.014   4.038   6.347
 5046SOL     OW16036   3.266   3.326   3.842
 5046SOL    HW116037   3.168   3.331   3.821
 5046SOL    HW216038   3.316   3.292   3.762
 5047SOL     OW16039   1.768   3.501   3.025
 5047SOL    HW116040   1.753   3.597   3.048
 5047SOL    HW216041   1.712   3.477   2.946
 5048SOL     OW16042   1.559   1.488   5.943
 5048SOL    HW116043   1.557   1.586   5.960
 5048SOL    HW216044   1.629   1.446   6.001
 5049SOL     OW16045   6.356   0.425   6.248
 5049SOL    HW116046   6.315   0.404   6.159
 5049SOL    HW216047   6.321   0.362   6.317
 5050SOL     OW16048   1.769   1.207   0.381
 5050SOL    HW116049   1.720   1.205   0.294
 5050SOL    HW216050   1.866   1.225   0.364
 5051SOL     OW16051   3.773   4.510   1.243
 5051SOL    HW116052   3.774   4.522   1.144
 5051SOL    HW216053   3.854   4.554   1.283
 5052SOL     OW16054   3.327   2.112   5.455
 5052SOL    HW116055   3.417   2.070   5.448
 5052SOL    HW216056   3.316   2.180   5.382
 5053SOL     OW16057   0.381   5.004   2.722
 5053SOL    HW116058   0.336   4.962   2.800
 5053SOL    HW216059   0.464   4.952   2.699
 5054SOL     OW16060   3.977   4.581   5.330
 5054SOL    HW116061   3.978   4.677   5.303
 5054SOL    HW216062   3.954   4.524   5.251
 5055SOL     OW16063   6.671   3.376   6.109
 5055SOL    HW116064   6.738   3.437   6.151
 5055SOL    HW216065   6.609   3.341   6.179
 5056SOL     OW16066   5.098   3.757   5.047
 5056SOL    HW116067   5.036   3.799   4.980
 5056SOL    HW216068   5.191   3.755   5.010
 5057SOL     OW16069   1.063   6.593   2.101
 5057SOL    HW116070   1.054   6.684   2.061
 5057SOL    HW216071   1.001   6.584   2.179
 5058SOL     OW16072   2.793   5.031   6.746
 5058SOL    HW116073   2.835   5.090   6.815
 5058SOL    HW216074   2.694   5.049   6.742
 5059SOL     OW16075   0.675   0.369   2.877
 5059SOL    HW116076   0.653   0.286   2.827
 5059SOL    HW216077   0.688   0.445   2.813
 5060SOL     OW16078   6.399   1.931   6.237
 5060SOL    HW116079   6.488   1.916   6.194
 5060SOL    HW216080   6.379   1.855   6.298
 5061SOL     OW16081   4.748   3.143   0.263
 5061SOL    HW116082   4.670   3.095   0.224
 5061SOL    HW216083   4.742   3.142   0.363
 5062SOL     OW16084   0.634   0.127   1.185
 5062SOL    HW116085   0.621   0.174   1.098
 5062SOL    HW216086   0.691   0.182   1.245
 5063SOL     OW16087   0.814   6.909   1.961
 5063SOL    HW116088   0.753   6.954   2.027
 5063SOL    HW216089   0.771   6.825   1.930
 5064SOL     OW16090   4.751   3.154   0.534
 5064SOL    HW116091   4.814   3.101   0.591
 5064SOL    HW216092   4.767   3.252   0.549
 5065SOL     OW16093   2.452   6.802   5.327
 5065SOL    HW116094   2.471   6.711   5.290
 5065SOL    HW216095   2.376   6.843   5.277
 5066SOL     OW16096   5.622   4.463   1.528
 5066SOL    HW116097   5.531   4.424   1.532
 5066SOL    HW216098   5.617   4.557   1.495
 5067SOL     OW16099   5.155   1.136   0.522
 5067SOL    HW116100   5.155   1.140   0.622
 5067SOL    HW216101   5.097   1.060   0.493
 5068SOL     OW16102   3.190   4.735   0.685
 5068SOL    HW116103   3.172   4.789   0.768
 5068SOL    HW216104   3.109   4.736   0.627
 5069SOL     OW16105   0.681   4.763   2.844
 5069SOL    HW116106   0.632   4.774   2.758
 5069SOL    HW216107   0.695   4.666   2.863
 5070SOL     OW16108   4.886   3.232   4.147
 5070SOL    HW116109   4.851   3.317   4.108
 5070SOL    HW216110   4.949   3.189   4.082
 5071SOL     OW16111   4.127   2.154   5.945
 5071SOL    HW116112   4.029   2.174   5.948
 5071SOL    HW216113   4.163   2.176   5.854
 5072SOL     OW16114   0.296   4.532   0.933
 5072SOL    HW116115   0.252   4.585   1.005
 5072SOL    HW216116   0.229   4.469   0.893
 5073SOL     OW16117   6.320   6.714   2.192
 5073SOL    HW116118   6.320   6.627   2.243
 5073SOL    HW216119   6.231   6.727   2.148
 5074SOL     OW16120   2.761   4.286   6.800
 5074SOL    HW116121   2.854   4.280   6.762
 5074SOL    HW216122   2.698   4.317   6.729
 5075SOL     OW16123   0.508   5.628   5.556
 5075SOL    HW116124   0.480   5.697   5.490
 5075SOL    HW216125   0.433   5.563   5.571
 5076SOL     OW16126   3.065   0.589   0.926
 5076SOL    HW116127   3.017   0.506   0.898
 5076SOL    HW216128   3.020   0.629   1.006
 5077SOL     OW16129   1.431   2.780   3.596
 5077SOL    HW116130   1.423   2.848   3.669
 5077SOL    HW216131   1.522   2.738   3.600
 5078SOL     OW16132   1.468   2.090   4.545
 5078SOL    HW116133   1.485   2.148   4.625
 5078SOL    HW216134   1.424   2.145   4.473
 5079SOL     OW16135   3.354   4.990   5.660
 5079SOL    HW116136   3.321   5.084   5.672
 5079SOL    HW216137   3.441   4.990   5.611
 5080SOL     OW16138   5.919   6.467   5.381
 5080SOL    HW116139   5.840   6.526   5.395
 5080SOL    HW216140   5.968   6.456   5.468
 5081SOL     OW16141   3.413   3.496   3.190
 5081SOL    HW116142   3.382   3.511   3.096
 5081SOL    HW216143   3.457   3.579   3.225
 5082SOL     OW16144   5.526   5.753   5.846
 5082SOL    HW116145   5.462   5.719   5.915
 5082SOL    HW216146   5.620   5.737   5.876
 5083SOL     OW16147   1.613   6.616   1.971
 5083SOL    HW116148   1.570   6.530   1.946
 5083SOL    HW216149   1.711   6.612   1.950
 5084SOL     OW16150   1.249   5.583   3.814
 5084SOL    HW116151   1.273   5.495   3.853
 5084SOL    HW216152   1.247   5.653   3.885
 5085SOL     OW16153   5.800   1.496   6.717
 5085SOL    HW116154   5.753   1.577   6.752
 5085SOL    HW216155   5.864   1.463   6.787
 5086SOL     OW16156   6.386   4.743   3.577
 5086SOL    HW116157   6.468   4.712   3.529
 5086SOL    HW216158   6.392   4.717   3.674
 5087SOL     OW16159   6.514   5.744   5.100
 5087SOL    HW116160   6.450   5.714   5.028
 5087SOL    HW216161   6.598   5.776   5.058
 5088SOL     OW16162   6.298   0.450   5.783
 5088SOL    HW116163   6.271   0.384   5.713
 5088SOL    HW216164   6.271   0.416   5.873
 5089SOL     OW16165   5.796   3.324   2.983
 5089SOL    HW116166   5.812   3.229   3.008
 5089SOL    HW216167   5.705   3.332   2.941
 5090SOL     OW16168   1.707   4.908   1.467
 5090SOL    HW116169   1.802   4.940   1.473
 5090SOL    HW216170   1.667   4.904   1.558
 5091SOL     OW16171   1.024   6.213   2.293
 5091SOL    HW116172   1.051   6.231   2.199
 5091SOL    HW216173   1.076   6.270   2.355
 5092SOL     OW16174   3.645   2.153   0.749
 5092SOL    HW116175   3.680   2.143   0.656
 5092SOL    HW216176   3.603   2.066   0.778
 5093SOL     OW16177   1.442   2.083   2.237
 5093SOL    HW116178   1.462   2.005   2.177
 5093SOL    HW216179   1.443   2.053   2.332
 5094SOL     OW16180   0.957   6.509   5.205
 5094SOL    HW116181   0.972   6.607   5.218
 5094SOL    HW216182   0.975   6.484   5.110
 5095SOL     OW16183   2.394   0.495   4.996
 5095SOL    HW116184   2.330   0.474   5.070
 5095SOL    HW216185   2.458   0.565   5.026
 5096SOL     OW16186   5.044   3.566   1.094
 5096SOL    HW116187   4.962   3.573   1.151
 5096SOL    HW216188   5.093   3.653   1.096
 5097SOL     OW16189   1.748   6.563   5.791
 5097SOL    HW116190   1.649   6.577   5.789
 5097SOL    HW216191   1.767   6.468   5.816
 5098SOL     OW16192   0.168   1.647   2.549
 5098SOL    HW116193   0.089   1.667   2.607
 5098SOL    HW216194   0.251   1.683   2.592
 5099SOL     OW16195   1.325   0.081   5.147
 5099SOL    HW116196   1.275   0.155   5.192
 5099SOL    HW216197   1.375   0.118   5.068
 5100SOL     OW16198   5.552   6.027   0.385
 5100SOL    HW116199   5.591   6.114   0.415
 5100SOL    HW216200   5.564   6.017   0.286
 5101SOL     OW16201   4.320   6.454   6.747
 5101SOL    HW116202   4.410   6.432   6.784
 5101SOL    HW216203   4.276   6.523   6.804
 5102SOL     OW16204   4.210   6.926   5.086
 5102SOL    HW116205   4.158   6.964   5.009
 5102SOL    HW216206   4.203   6.988   5.164
 5103SOL     OW16207   0.478   0.552   4.136
 5103SOL    HW116208   0.554   0.492   4.113
 5103SOL    HW216209   0.509   0.647   4.133
 5104SOL     OW16210   1.469   0.718   1.958
 5104SOL    HW116211   1.432   0.802   1.920
 5104SOL    HW216212   1.490   0.732   2.055
 5105SOL     OW16213   3.572   3.984   6.476
 5105SOL    HW116214   3.657   3.936   6.499
 5105SOL    HW216215   3.561   3.985   6.376
 5106SOL     OW16216   3.254   0.031   2.444
 5106SOL    HW116217   3.286   0.055   2.535
 5106SOL    HW216218   3.326   0.051   2.377
 5107SOL     OW16219   2.467   0.174   6.236
 5107SOL    HW116220   2.516   0.163   6.149
 5107SOL    HW216221   2.391   0.238   6.223
 5108SOL     OW16222   2.938   3.838   4.010
 5108SOL    HW116223   3.008   3.885   3.958
 5108SOL    HW216224   2.881   3.905   4.058
 5109SOL     OW16225   0.390   1.202   1.243
 5109SOL    HW116226   0.338   1.145   1.307
 5109SOL    HW216227   0.474   1.233   1.286
 5110SOL     OW16228   2.045   5.810   5.581
 5110SOL    HW116229   2.004   5.843   5.496
 5110SOL    HW216230   1.980   5.752   5.630
 5111SOL     OW16231   1.475   1.067   6.952
 5111SOL    HW116232   1.497   1.077   6.855
 5111SOL    HW216233   1.379   1.042   6.962
 5112SOL     OW16234   0.729   6.069   3.814
 5112SOL    HW116235   0.653   6.011   3.782
 5112SOL    HW216236   0.702   6.114   3.899
 5113SOL     OW16237   1.252   0.587   0.148
 5113SOL    HW116238   1.314   0.608   0.072
 5113SOL    HW216239   1.229   0.490   0.147
 5114SOL     OW16240   3.727   4.847   6.826
 5114SOL    HW116241   3.697   4.831   6.732
 5114SOL    HW216242   3.702   4.939   6.854
 5115SOL     OW16243   1.644   3.447   5.434
 5115SOL    HW116244   1.662   3.475   5.528
 5115SOL    HW216245   1.587   3.365   5.434
 5116SOL     OW16246   6.126   5.030   0.019
 5116SOL    HW116247   6.170   5.085   6.971
 5116SOL    HW216248   6.065   4.964   6.999
 5117SOL     OW16249   2.339   4.426   4.855
 5117SOL    HW116250   2.260   4.476   4.818
 5117SOL    HW216251   2.307   4.353   4.915
 5118SOL     OW16252   4.111   5.848   6.965
 5118SOL    HW116253   4.123   5.947   6.960
 5118SOL    HW216254   4.120   5.818   0.037
 5119SOL     OW16255   6.040   0.754   2.013
 5119SOL    HW116256   6.132   0.749   2.054
 5119SOL    HW216257   6.023   0.848   1.983
 5120SOL     OW16258   4.932   1.507   2.720
 5120SOL    HW116259   4.915   1.535   2.626
 5120SOL    HW216260   4.949   1.588   2.777
 5121SOL     OW16261   0.024   3.287   5.505
 5121SOL    HW116262   0.101   3.270   5.443
 5121SOL    HW216263   7.017   3.201   5.546
 5122SOL     OW16264   2.296   6.974   3.456
 5122SOL    HW116265   2.225   0.017   3.428
 5122SOL    HW216266   2.373   0.002   3.496
 5123SOL     OW16267   4.648   4.283   2.661
 5123SOL    HW116268   4.672   4.362   2.717
 5123SOL    HW216269   4.659   4.305   2.564
 5124SOL     OW16270   3.015   6.611   6.598
 5124SOL    HW116271   3.032   6.514   6.578
 5124SOL    HW216272   3.082   6.643   6.665
 5125SOL     OW16273   6.999   3.043   4.498
 5125SOL    HW116274   0.076   3.053   4.493
 5125SOL    HW216275   6.964   3.012   4.409
 5126SOL     OW16276   6.223   4.598   6.025
 5126SOL    HW116277   6.178   4.685   6.047
 5126SOL    HW216278   6.302   4.616   5.966
 5127SOL     OW16279   5.486   3.416   6.764
 5127SOL    HW116280   5.430   3.491   6.800
 5127SOL    HW216281   5.522   3.442   6.675
 5128SOL     OW16282   0.036   0.578   6.686
 5128SOL    HW116283   6.985   0.633   6.725
 5128SOL    HW216284   0.041   0.490   6.734
 5129SOL     OW16285   4.509   1.708   2.264
 5129SOL    HW116286   4.420   1.699   2.219
 5129SOL    HW216287   4.533   1.622   2.308
 5130SOL     OW16288   1.267   5.320   3.893
 5130SOL    HW116289   1.221   5.294   3.808
 5130SOL    HW216290   1.304   5.238   3.938
 5131SOL     OW16291   3.265   4.897   3.027
 5131SOL    HW116292   3.323   4.900   2.946
 5131SOL    HW216293   3.318   4.868   3.106
 5132SOL     OW16294   3.727   1.589   0.012
 5132SOL    HW116295   3.634   1.560   0.034
 5132SOL    HW216296   3.735   1.688   0.026
 5133SOL     OW16297   4.365   4.470   6.591
 5133SOL    HW116298   4.388   4.400   6.524
 5133SOL    HW216299   4.362   4.559   6.545
 5134SOL     OW16300   6.669   6.099   1.530
 5134SOL    HW116301   6.690   6.057   1.618
 5134SOL    HW216302   6.700   6.039   1.456
 5135SOL     OW16303   6.001   3.041   1.846
 5135SOL    HW116304   6.099   3.023   1.839
 5135SOL    HW216305   5.969   3.018   1.938
 5136SOL     OW16306   0.560   0.672   6.108
 5136SOL    HW116307   0.491   0.716   6.050
 5136SOL    HW216308   0.599   0.594   6.059
 5137SOL     OW16309   5.430   1.129   5.355
 5137SOL    HW116310   5.490   1.139   5.435
 5137SOL    HW216311   5.344   1.086   5.383
 5138SOL     OW16312   3.477   2.887   4.258
 5138SOL    HW116313   3.439   2.915   4.346
 5138SOL    HW216314   3.539   2.958   4.224
 5139SOL     OW16315   1.903   0.321   4.694
 5139SOL    HW116316   1.810   0.318   4.731
 5139SOL    HW216317   1.902   0.285   4.601
 5140SOL     OW16318   4.598   2.334   6.356
 5140SOL    HW116319   4.680   2.284   6.384
 5140SOL    HW216320   4.523   2.269   6.341
 5141SOL     OW16321   6.236   3.031   2.511
 5141SOL    HW116322   6.190   2.948   2.482
 5141SOL    HW216323   6.334   3.013   2.521
 5142SOL     OW16324   0.252   0.057   2.455
 5142SOL    HW116325   0.230   0.145   2.413
 5142SOL    HW216326   0.282   0.072   2.550
 5143SOL     OW16327   0.581   5.390   4.093
 5143SOL    HW116328   0.665   5.434   4.062
 5143SOL    HW216329   0.600   5.296   4.121
 5144SOL     OW16330   2.548   3.003   6.181
 5144SOL    HW116331   2.588   3.095   6.186
 5144SOL    HW216332   2.512   2.988   6.089
 5145SOL     OW16333   2.929   6.204   6.975
 5145SOL    HW116334   3.022   6.232   6.999
 5145SOL    HW216335   2.913   6.220   6.878
 5146SOL     OW16336   5.244   4.967   5.938
 5146SOL    HW116337   5.339   4.942   5.957
 5146SOL    HW216338   5.214   4.922   5.854
 5147SOL     OW16339   4.768   2.761   3.602
 5147SOL    HW116340   4.725   2.682   3.646
 5147SOL    HW216341   4.818   2.814   3.671
 5148SOL     OW16342   0.602   6.578   0.971
 5148SOL    HW116343   0.612   6.669   0.932
 5148SOL    HW216344   0.624   6.581   1.069
 5149SOL     OW16345   5.384   4.629   3.451
 5149SOL    HW116346   5.388   4.546   3.395
 5149SOL    HW216347   5.323   4.614   3.529
 5150SOL     OW16348   0.539   5.876   3.814
 5150SOL    HW116349   0.445   5.892   3.784
 5150SOL    HW216350   0.539   5.842   3.908
 5151SOL     OW16351   5.695   5.121   1.625
 5151SOL    HW116352   5.712   5.029   1.661
 5151SOL    HW216353   5.619   5.163   1.675
 5152SOL     OW16354   1.087   1.076   6.442
 5152SOL    HW116355   1.130   1.118   6.522
 5152SOL    HW216356   1.118   0.981   6.434
 5153SOL     OW16357   0.924   1.883   1.120
 5153SOL    HW116358   0.923   1.967   1.066
 5153SOL    HW216359   0.984   1.816   1.076
 5154SOL     OW16360   6.935   2.923   6.669
 5154SOL    HW116361   0.004   2.961   6.686
 5154SOL    HW216362   6.868   2.974   6.724
 5155SOL     OW16363   1.904   1.348   1.041
 5155SOL    HW116364   1.865   1.401   1.117
 5155SOL    HW216365   1.835   1.336   0.970
 5156SOL     OW16366   5.289   5.360   5.477
 5156SOL    HW116367   5.227   5.282   5.469
 5156SOL    HW216368   5.338   5.372   5.391
 5157SOL     OW16369   4.135   0.298   1.670
 5157SOL    HW116370   4.175   0.308   1.761
 5157SOL    HW216371   4.120   0.388   1.630
 5158SOL     OW16372   3.000   1.602   2.342
 5158SOL    HW116373   3.080   1.563   2.296
 5158SOL    HW216374   2.959   1.672   2.284
 5159SOL     OW16375   6.388   3.025   5.367
 5159SOL    HW116376   6.461   2.961   5.343
 5159SOL    HW216377   6.300   2.978   5.367
 5160SOL     OW16378   6.395   6.293   3.552
 5160SOL    HW116379   6.417   6.196   3.540
 5160SOL    HW216380   6.445   6.329   3.631
 5161SOL     OW16381   1.044   3.367   0.387
 5161SOL    HW116382   1.053   3.324   0.477
 5161SOL    HW216383   1.112   3.439   0.377
 5162SOL     OW16384   6.787   6.820   2.962
 5162SOL    HW116385   6.831   6.731   2.976
 5162SOL    HW216386   6.852   6.893   2.985
 5163SOL     OW16387   2.960   6.907   2.337
 5163SOL    HW116388   2.995   6.965   2.264
 5163SOL    HW216389   2.995   6.814   2.326
 5164SOL     OW16390   3.509   3.723   0.787
 5164SOL    HW116391   3.534   3.669   0.707
 5164SOL    HW216392   3.578   3.711   0.858
 5165SOL     OW16393   1.332   4.515   6.954
 5165SOL    HW116394   1.329   4.457   6.873
 5165SOL    HW216395   1.345   4.459   0.013
 5166SOL     OW16396   1.871   5.814   1.724
 5166SOL    HW116397   1.838   5.765   1.644
 5166SOL    HW216398   1.806   5.887   1.748
 5167SOL     OW16399   4.754   2.382   5.189
 5167SOL    HW116400   4.828   2.446   5.209
 5167SOL    HW216401   4.747   2.369   5.090
 5168SOL     OW16402   4.383   2.393   2.485
 5168SOL    HW116403   4.295   2.345   2.490
 5168SOL    HW216404   4.443   2.347   2.420
 5169SOL     OW16405   3.800   6.557   3.616
 5169SOL    HW116406   3.705   6.529   3.629
 5169SOL    HW216407   3.833   6.604   3.697
 5170SOL     OW16408   0.757   3.295   6.133
 5170SOL    HW116409   0.832   3.357   6.157
 5170SOL    HW216410   0.671   3.346   6.136
 5171SOL     OW16411   1.863   5.871   5.363
 5171SOL    HW116412   1.851   5.876   5.264
 5171SOL    HW216413   1.823   5.785   5.397
 5172SOL     OW16414   7.019   5.489   3.915
 5172SOL    HW116415   0.074   5.440   3.876
 5172SOL    HW216416   6.995   5.566   3.856
 5173SOL     OW16417   4.548   4.361   5.486
 5173SOL    HW116418   4.634   4.358   5.536
 5173SOL    HW216419   4.477   4.401   5.544
 5174SOL     OW16420   2.653   6.486   3.404
 5174SOL    HW116421   2.585   6.416   3.385
 5174SOL    HW216422   2.643   6.518   3.498
 5175SOL     OW16423   2.864   4.162   7.010
 5175SOL    HW116424   2.887   4.066   0.002
 5175SOL    HW216425   2.826   4.173   6.918
 5176SOL     OW16426   5.549   5.503   0.449
 5176SOL    HW116427   5.582   5.529   0.359
 5176SOL    HW216428   5.615   5.533   0.518
 5177SOL     OW16429   5.623   0.235   6.938
 5177SOL    HW116430   5.535   0.210   6.896
 5177SOL    HW216431   5.612   0.320   6.990
 5178SOL     OW16432   1.048   3.992   1.767
 5178SOL    HW116433   1.031   3.984   1.669
 5178SOL    HW216434   1.124   3.932   1.792
 5179SOL     OW16435   6.019   4.541   2.550
 5179SOL    HW116436   6.058   4.501   2.633
 5179SOL    HW216437   6.019   4.641   2.559
 5180SOL     OW16438   2.090   6.934   2.243
 5180SOL    HW116439   2.023   6.952   2.171
 5180SOL    HW216440   2.177   6.906   2.201
 5181SOL     OW16441   0.806   6.908   6.003
 5181SOL    HW116442   0.726   6.889   6.061
 5181SOL    HW216443   0.881   6.847   6.030
 5182SOL     OW16444   3.648   5.461   3.288
 5182SOL    HW116445   3.640   5.555   3.254
 5182SOL    HW216446   3.654   5.398   3.210
 5183SOL     OW16447   4.485   1.669   3.845
 5183SOL    HW116448   4.454   1.600   3.780
 5183SOL    HW216449   4.413   1.685   3.913
 5184SOL     OW16450   2.654   1.128   3.842
 5184SOL    HW116451   2.575   1.121   3.781
 5184SOL    HW216452   2.639   1.203   3.906
 5185SOL     OW16453   5.985   1.006   1.839
 5185SOL    HW116454   5.986   1.024   1.741
 5185SOL    HW216455   5.930   1.075   1.886
 5186SOL     OW16456   6.746   3.672   6.481
 5186SOL    HW116457   6.740   3.656   6.383
 5186SOL    HW216458   6.842   3.671   6.510
 5187SOL     OW16459   2.269   5.001   5.301
 5187SOL    HW116460   2.296   4.906   5.285
 5187SOL    HW216461   2.176   5.016   5.265
 5188SOL     OW16462   6.165   6.674   2.518
 5188SOL    HW116463   6.077   6.722   2.510
 5188SOL    HW216464   6.218   6.715   2.593
 5189SOL     OW16465   5.271   6.963   6.191
 5189SOL    HW116466   5.315   6.996   6.275
 5189SOL    HW216467   5.293   0.003   6.116
 5190SOL     OW16468   1.795   3.943   1.308
 5190SOL    HW116469   1.758   3.850   1.313
 5190SOL    HW216470   1.895   3.939   1.307
 5191SOL     OW16471   2.860   4.946   2.468
 5191SOL    HW116472   2.804   4.893   2.532
 5191SOL    HW216473   2.957   4.934   2.492
 5192SOL     OW16474   2.309   4.755   2.242
 5192SOL    HW116475   2.365   4.794   2.169
 5192SOL    HW216476   2.356   4.765   2.330
 5193SOL     OW16477   5.748   0.466   6.511
 5193SOL    HW116478   5.710   0.438   6.423
 5193SOL    HW216479   5.771   0.564   6.507
 5194SOL     OW16480   5.005   2.190   6.609
 5194SOL    HW116481   5.095   2.220   6.640
 5194SOL    HW216482   4.962   2.136   6.682
 5195SOL     OW16483   6.851   0.429   4.776
 5195SOL    HW116484   6.871   0.336   4.747
 5195SOL    HW216485   6.930   0.488   4.760
 5196SOL     OW16486   5.416   6.548   2.450
 5196SOL    HW116487   5.452   6.459   2.420
 5196SOL    HW216488   5.355   6.584   2.380
 5197SOL     OW16489   1.207   4.278   5.894
 5197SOL    HW116490   1.233   4.252   5.801
 5197SOL    HW216491   1.193   4.195   5.948
 5198SOL     OW16492   5.571   5.568   2.270
 5198SOL    HW116493   5.617   5.646   2.314
 5198SOL    HW216494   5.633   5.491   2.265
 5199SOL     OW16495   6.731   4.549   1.126
 5199SOL    HW116496   6.800   4.499   1.176
 5199SOL    HW216497   6.640   4.524   1.160
 5200SOL     OW16498   0.559   4.037   5.146
 5200SOL    HW116499   0.575   3.941   5.123
 5200SOL    HW216500   0.607   4.059   5.231
 5201SOL     OW16501   1.604   5.141   4.168
 5201SOL    HW116502   1.667   5.128   4.091
 5201SOL    HW216503   1.583   5.052   4.208
 5202SOL     OW16504   0.198   4.216   0.599
 5202SOL    HW116505   0.266   4.288   0.612
 5202SOL    HW216506   0.190   4.163   0.684
 5203SOL     OW16507   1.378   2.544   6.713
 5203SOL    HW116508   1.443   2.570   6.784
 5203SOL    HW216509   1.396   2.451   6.683
 5204SOL     OW16510   4.212   5.200   0.068
 5204SOL    HW116511   4.199   5.242   7.000
 5204SOL    HW216512   4.153   5.245   0.134
 5205SOL     OW16513   1.492   0.178   1.890
 5205SOL    HW116514   1.507   0.267   1.934
 5205SOL    HW216515   1.412   0.133   1.931
 5206SOL     OW16516   0.703   4.372   6.794
 5206SOL    HW116517   0.771   4.440   6.766
 5206SOL    HW216518   0.742   4.311   6.862
 5207SOL     OW16519   1.562   4.873   4.212
 5207SOL    HW116520   1.617   4.806   4.162
 5207SOL    HW216521   1.569   4.855   4.310
 5208SOL     OW16522   3.920   1.460   6.909
 5208SOL    HW116523   3.961   1.430   6.995
 5208SOL    HW216524   3.836   1.510   6.928
 5209SOL     OW16525   5.425   5.917   2.835
 5209SOL    HW116526   5.524   5.930   2.847
 5209SOL    HW216527   5.390   5.861   2.910
 5210SOL     OW16528   5.319   4.859   4.081
 5210SOL    HW116529   5.223   4.875   4.103
 5210SOL    HW216530   5.346   4.915   4.002
 5211SOL     OW16531   3.626   3.008   3.536
 5211SOL    HW116532   3.558   2.950   3.581
 5211SOL    HW216533   3.708   3.013   3.593
 5212SOL     OW16534   0.946   2.090   0.955
 5212SOL    HW116535   0.920   2.122   0.864
 5212SOL    HW216536   1.032   2.134   0.982
 5213SOL     OW16537   4.801   2.489   5.977
 5213SOL    HW116538   4.741   2.463   5.901
 5213SOL    HW216539   4.887   2.438   5.970
 5214SOL     OW16540   5.193   1.695   6.088
 5214SOL    HW116541   5.125   1.696   6.015
 5214SOL    HW216542   5.285   1.693   6.048
 5215SOL     OW16543   4.832   4.788   2.932
 5215SOL    HW116544   4.918   4.739   2.919
 5215SOL    HW216545   4.775   4.777   2.851
 5216SOL     OW16546   4.943   4.885   0.489
 5216SOL    HW116547   5.011   4.830   0.538
 5216SOL    HW216548   4.925   4.844   0.399
 5217SOL     OW16549   3.036   5.287   3.993
 5217SOL    HW116550   2.945   5.249   3.976
 5217SOL    HW216551   3.039   5.326   4.085
 5218SOL     OW16552   1.502   6.166   3.212
 5218SOL    HW116553   1.437   6.208   3.149
 5218SOL    HW216554   1.478   6.070   3.226
 5219SOL     OW16555   3.227   6.955   6.354
 5219SOL    HW116556   3.248   7.021   6.425
 5219SOL    HW216557   3.249   6.863   6.387
 5220SOL     OW16558   0.390   6.161   2.814
 5220SOL    HW116559   0.315   6.094   2.814
 5220SOL    HW216560   0.430   6.166   2.723
 5221SOL     OW16561   5.058   1.089   4.913
 5221SOL    HW116562   5.138   1.146   4.932
 5221SOL    HW216563   5.076   1.030   4.834
 5222SOL     OW16564   2.039   0.436   3.816
 5222SOL    HW116565   2.092   0.507   3.863
 5222SOL    HW216566   2.079   0.420   3.726
 5223SOL     OW16567   4.620   0.847   1.566
 5223SOL    HW116568   4.582   0.756   1.579
 5223SOL    HW216569   4.597   0.905   1.644
 5224SOL     OW16570   6.308   1.865   2.561
 5224SOL    HW116571   6.217   1.829   2.538
 5224SOL    HW216572   6.352   1.899   2.478
 5225SOL     OW16573   6.239   6.314   3.992
 5225SOL    HW116574   6.284   6.320   4.081
 5225SOL    HW216575   6.215   6.405   3.960
 5226SOL     OW16576   0.879   6.600   4.163
 5226SOL    HW116577   0.978   6.608   4.172
 5226SOL    HW216578   0.857   6.545   4.082
 5227SOL     OW16579   6.302   4.522   3.271
 5227SOL    HW116580   6.233   4.514   3.198
 5227SOL    HW216581   6.330   4.431   3.300
 5228SOL     OW16582   5.704   1.908   0.855
 5228SOL    HW116583   5.638   1.909   0.930
 5228SOL    HW216584   5.749   1.997   0.849
 5229SOL     OW16585   1.306   3.648   5.729
 5229SOL    HW116586   1.287   3.605   5.641
 5229SOL    HW216587   1.393   3.615   5.765
 5230SOL     OW16588   0.164   0.313   0.251
 5230SOL    HW116589   0.177   0.363   0.337
 5230SOL    HW216590   0.209   0.362   0.177
 5231SOL     OW16591   4.034   3.183   3.837
 5231SOL    HW116592   4.095   3.203   3.913
 5231SOL    HW216593   4.048   3.250   3.764
 5232SOL     OW16594   4.753   2.367   0.003
 5232SOL    HW116595   4.696   2.400   0.079
 5232SOL    HW216596   4.699   2.307   6.967
 5233SOL     OW16597   0.164   6.231   2.384
 5233SOL    HW116598   0.107   6.311   2.366
 5233SOL    HW216599   0.109   6.148   2.370
 5234SOL     OW16600   3.304   6.662   0.591
 5234SOL    HW116601   3.254   6.748   0.592
 5234SOL    HW216602   3.319   6.633   0.497
 5235SOL     OW16603   1.196   3.243   0.699
 5235SOL    HW116604   1.224   3.147   0.693
 5235SOL    HW216605   1.097   3.248   0.705
 5236SOL     OW16606   4.794   3.506   1.214
 5236SOL    HW116607   4.824   3.485   1.307
 5236SOL    HW216608   4.735   3.587   1.215
 5237SOL     OW16609   2.458   2.193   5.334
 5237SOL    HW116610   2.447   2.292   5.330
 5237SOL    HW216611   2.497   2.167   5.422
 5238SOL     OW16612   1.822   4.696   0.693
 5238SOL    HW116613   1.884   4.621   0.717
 5238SOL    HW216614   1.876   4.778   0.675
 5239SOL     OW16615   3.172   3.009   3.634
 5239SOL    HW116616   3.155   2.978   3.727
 5239SOL    HW216617   3.237   3.086   3.635
 5240SOL     OW16618   3.330   2.057   5.109
 5240SOL    HW116619   3.298   1.962   5.103
 5240SOL    HW216620   3.258   2.118   5.076
 5241SOL     OW16621   1.331   6.426   6.204
 5241SOL    HW116622   1.349   6.343   6.257
 5241SOL    HW216623   1.324   6.504   6.265
 5242SOL     OW16624   6.079   1.368   6.009
 5242SOL    HW116625   6.088   1.390   6.106
 5242SOL    HW216626   6.146   1.299   5.983
 5243SOL     OW16627   1.261   5.060   0.825
 5243SOL    HW116628   1.196   5.104   0.763
 5243SOL    HW216629   1.326   5.006   0.772
 5244SOL     OW16630   4.560   4.618   5.821
 5244SOL    HW116631   4.477   4.593   5.771
 5244SOL    HW216632   4.596   4.705   5.786
 5245SOL     OW16633   4.532   3.843   6.677
 5245SOL    HW116634   4.493   3.861   6.587
 5245SOL    HW216635   4.548   3.745   6.687
 5246SOL     OW16636   1.041   3.603   2.426
 5246SOL    HW116637   0.971   3.613   2.497
 5246SOL    HW216638   1.131   3.624   2.465
 5247SOL     OW16639   6.900   5.087   0.539
 5247SOL    HW116640   6.939   5.035   0.615
 5247SOL    HW216641   6.861   5.173   0.574
 5248SOL     OW16642   5.418   1.077   5.987
 5248SOL    HW116643   5.338   1.044   5.937
 5248SOL    HW216644   5.388   1.133   6.064
 5249SOL     OW16645   0.823   5.051   5.328
 5249SOL    HW116646   0.872   5.053   5.240
 5249SOL    HW216647   0.734   5.008   5.316
 5250SOL     OW16648   0.157   1.685   5.893
 5250SOL    HW116649   0.232   1.627   5.925
 5250SOL    HW216650   0.180   1.721   5.802
 5251SOL     OW16651   6.219   3.434   1.422
 5251SOL    HW116652   6.237   3.400   1.330
 5251SOL    HW216653   6.228   3.360   1.488
 5252SOL     OW16654   3.728   6.381   0.117
 5252SOL    HW116655   3.736   6.361   0.215
 5252SOL    HW216656   3.645   6.338   0.081
 5253SOL     OW16657   5.662   3.824   4.279
 5253SOL    HW116658   5.603   3.779   4.347
 5253SOL    HW216659   5.684   3.916   4.311
 5254SOL     OW16660   4.205   0.898   4.131
 5254SOL    HW116661   4.221   0.840   4.211
 5254SOL    HW216662   4.292   0.938   4.102
 5255SOL     OW16663   3.032   6.387   5.207
 5255SOL    HW116664   3.008   6.297   5.171
 5255SOL    HW216665   3.109   6.425   5.155
 5256SOL     OW16666   5.044   0.784   3.331
 5256SOL    HW116667   5.102   0.781   3.250
 5256SOL    HW216668   5.071   0.860   3.389
 5257SOL     OW16669   3.987   0.077   0.229
 5257SOL    HW116670   3.964   0.162   0.276
 5257SOL    HW216671   3.903   0.026   0.208
 5258SOL     OW16672   4.712   4.306   2.409
 5258SOL    HW116673   4.725   4.218   2.364
 5258SOL    HW216674   4.725   4.380   2.343
 5259SOL     OW16675   4.377   5.767   3.066
 5259SOL    HW116676   4.293   5.777   3.012
 5259SOL    HW216677   4.362   5.698   3.138
 5260SOL     OW16678   5.654   3.357   1.443
 5260SOL    HW116679   5.578   3.340   1.379
 5260SOL    HW216680   5.725   3.410   1.396
 5261SOL     OW16681   0.467   2.168   4.435
 5261SOL    HW116682   0.439   2.177   4.531
 5261SOL    HW216683   0.437   2.248   4.384
 5262SOL     OW16684   2.705   6.733   2.212
 5262SOL    HW116685   2.743   6.822   2.187
 5262SOL    HW216686   2.610   6.727   2.181
 5263SOL     OW16687   1.663   6.758   6.625
 5263SOL    HW116688   1.744   6.809   6.655
 5263SOL    HW216689   1.691   6.666   6.596
 5264SOL     OW16690   0.077   1.677   1.247
 5264SOL    HW116691   0.120   1.764   1.268
 5264SOL    HW216692   0.141   1.602   1.264
 5265SOL     OW16693   5.646   4.868   2.096
 5265SOL    HW116694   5.714   4.817   2.148
 5265SOL    HW216695   5.592   4.925   2.157
 5266SOL     OW16696   1.488   6.728   1.739
 5266SOL    HW116697   1.520   6.715   1.832
 5266SOL    HW216698   1.482   6.826   1.719
 5267SOL     OW16699   4.800   5.176   5.018
 5267SOL    HW116700   4.855   5.221   4.948
 5267SOL    HW216701   4.811   5.223   5.105
 5268SOL     OW16702   6.535   5.561   5.428
 5268SOL    HW116703   6.526   5.652   5.469
 5268SOL    HW216704   6.614   5.514   5.467
 5269SOL     OW16705   1.965   5.349   4.120
 5269SOL    HW116706   2.055   5.312   4.140
 5269SOL    HW216707   1.947   5.343   4.021
 5270SOL     OW16708   6.164   2.832   2.104
 5270SOL    HW116709   6.258   2.836   2.136
 5270SOL    HW216710   6.104   2.873   2.173
 5271SOL     OW16711   5.100   4.748   4.871
 5271SOL    HW116712   5.165   4.689   4.824
 5271SOL    HW216713   5.142   4.784   4.955
 5272SOL     OW16714   0.024   6.489   4.267
 5272SOL    HW116715   0.109   6.537   4.286
 5272SOL    HW216716   0.044   6.405   4.215
 5273SOL     OW16717   0.520   1.424   4.004
 5273SOL    HW116718   0.500   1.515   4.040
 5273SOL    HW216719   0.449   1.398   3.938
 5274SOL     OW16720   6.872   4.615   4.083
 5274SOL    HW116721   6.961   4.633   4.041
 5274SOL    HW216722   6.808   4.583   4.013
 5275SOL     OW16723   2.497   0.323   6.657
 5275SOL    HW116724   2.449   0.368   6.582
 5275SOL    HW216725   2.447   0.339   6.742
 5276SOL     OW16726   6.637   6.870   1.622
 5276SOL    HW116727   6.702   6.882   1.546
 5276SOL    HW216728   6.544   6.871   1.587
 5277SOL     OW16729   1.389   1.817   3.119
 5277SOL    HW116730   1.478   1.860   3.107
 5277SOL    HW216731   1.333   1.872   3.181
 5278SOL     OW16732   0.481   5.793   5.818
 5278SOL    HW116733   0.480   5.791   5.718
 5278SOL    HW216734   0.569   5.830   5.849
 5279SOL     OW16735   1.725   5.455   6.037
 5279SOL    HW116736   1.681   5.540   6.009
 5279SOL    HW216737   1.824   5.468   6.042
 5280SOL     OW16738   3.675   6.110   4.820
 5280SOL    HW116739   3.734   6.042   4.865
 5280SOL    HW216740   3.595   6.127   4.878
 5281SOL     OW16741   1.563   0.808   4.328
 5281SOL    HW116742   1.605   0.896   4.352
 5281SOL    HW216743   1.524   0.814   4.236
 5282SOL     OW16744   1.542   0.379   2.602
 5282SOL    HW116745   1.631   0.361   2.558
 5282SOL    HW216746   1.474   0.316   2.565
 5283SOL     OW16747   6.925   0.929   3.994
 5283SOL    HW116748   6.963   0.853   4.047
 5283SOL    HW216749   6.839   0.958   4.035
 5284SOL     OW16750   5.597   2.117   2.042
 5284SOL    HW116751   5.524   2.167   1.996
 5284SOL    HW216752   5.559   2.068   2.121
 5285SOL     OW16753   0.824   3.079   3.491
 5285SOL    HW116754   0.825   2.998   3.548
 5285SOL    HW216755   0.916   3.100   3.460
 5286SOL     OW16756   6.421   2.818   0.869
 5286SOL    HW116757   6.469   2.891   0.917
 5286SOL    HW216758   6.437   2.731   0.915
 5287SOL     OW16759   3.635   5.121   1.506
 5287SOL    HW116760   3.549   5.157   1.542
 5287SOL    HW216761   3.650   5.155   1.414
 5288SOL     OW16762   5.110   0.192   1.996
 5288SOL    HW116763   5.056   0.179   1.913
 5288SOL    HW216764   5.048   0.192   2.075
 5289SOL     OW16765   1.817   5.306   6.708
 5289SOL    HW116766   1.905   5.298   6.754
 5289SOL    HW216767   1.792   5.217   6.668
 5290SOL     OW16768   1.931   3.792   5.679
 5290SOL    HW116769   1.868   3.752   5.612
 5290SOL    HW216770   1.879   3.819   5.760
 5291SOL     OW16771   2.820   4.202   5.340
 5291SOL    HW116772   2.866   4.125   5.295
 5291SOL    HW216773   2.881   4.280   5.343
 5292SOL     OW16774   6.800   4.144   6.633
 5292SOL    HW116775   6.816   4.167   6.537
 5292SOL    HW216776   6.869   4.189   6.690
 5293SOL     OW16777   2.340   5.430   4.616
 5293SOL    HW116778   2.384   5.358   4.562
 5293SOL    HW216779   2.407   5.499   4.641
 5294SOL     OW16780   4.200   0.624   5.122
 5294SOL    HW116781   4.178   0.585   5.211
 5294SOL    HW216782   4.147   0.708   5.108
 5295SOL     OW16783   3.216   0.911   2.915
 5295SOL    HW116784   3.227   0.912   3.015
 5295SOL    HW216785   3.129   0.869   2.892
 5296SOL     OW16786   3.721   4.494   0.951
 5296SOL    HW116787   3.681   4.580   0.921
 5296SOL    HW216788   3.744   4.438   0.871
 5297SOL     OW16789   2.572   4.142   0.265
 5297SOL    HW116790   2.647   4.167   0.325
 5297SOL    HW216791   2.560   4.213   0.195
 5298SOL     OW16792   2.551   6.968   0.219
 5298SOL    HW116793   2.606   6.891   0.186
 5298SOL    HW216794   2.554   0.020   0.151
 5299SOL     OW16795   3.327   1.883   0.649
 5299SOL    HW116796   3.417   1.892   0.607
 5299SOL    HW216797   3.293   1.791   0.636
 5300SOL     OW16798   1.394   4.583   0.281
 5300SOL    HW116799   1.385   4.497   0.231
 5300SOL    HW216800   1.491   4.609   0.286
 5301SOL     OW16801   4.596   0.518   6.776
 5301SOL    HW116802   4.621   0.425   6.802
 5301SOL    HW216803   4.670   0.580   6.801
 5302SOL     OW16804   4.471   6.072   3.331
 5302SOL    HW116805   4.565   6.085   3.363
 5302SOL    HW216806   4.445   6.148   3.271
 5303SOL     OW16807   6.812   5.203   6.306
 5303SOL    HW116808   6.778   5.127   6.250
 5303SOL    HW216809   6.739   5.234   6.366
 5304SOL     OW16810   6.057   1.298   0.949
 5304SOL    HW116811   6.073   1.361   1.025
 5304SOL    HW216812   6.144   1.267   0.912
 5305SOL     OW16813   1.317   5.373   2.804
 5305SOL    HW116814   1.285   5.280   2.827
 5305SOL    HW216815   1.254   5.439   2.845
 5306SOL     OW16816   6.882   4.060   5.994
 5306SOL    HW116817   6.916   4.021   5.908
 5306SOL    HW216818   6.895   3.993   6.068
 5307SOL     OW16819   4.707   2.427   0.424
 5307SOL    HW116820   4.758   2.341   0.416
 5307SOL    HW216821   4.669   2.451   0.335
 5308SOL     OW16822   1.532   4.712   2.835
 5308SOL    HW116823   1.630   4.714   2.818
 5308SOL    HW216824   1.491   4.632   2.790
 5309SOL     OW16825   4.043   5.854   2.650
 5309SOL    HW116826   4.067   5.770   2.700
 5309SOL    HW216827   4.103   5.863   2.570
 5310SOL     OW16828   6.119   3.576   2.822
 5310SOL    HW116829   6.056   3.630   2.877
 5310SOL    HW216830   6.075   3.551   2.736
 5311SOL     OW16831   5.733   6.980   0.049
 5311SOL    HW116832   5.707   0.043   0.003
 5311SOL    HW216833   5.815   6.943   0.006
 5312SOL     OW16834   0.378   6.301   1.536
 5312SOL    HW116835   0.432   6.377   1.500
 5312SOL    HW216836   0.281   6.327   1.540
 5313SOL     OW16837   6.801   4.991   5.235
 5313SOL    HW116838   6.759   5.081   5.244
 5313SOL    HW216839   6.850   4.969   5.319
 5314SOL     OW16840   5.725   6.420   1.037
 5314SOL    HW116841   5.766   6.481   1.104
 5314SOL    HW216842   5.708   6.470   0.952
 5315SOL     OW16843   4.518   2.109   3.498
 5315SOL    HW116844   4.466   2.050   3.560
 5315SOL    HW216845   4.614   2.082   3.498
 5316SOL     OW16846   0.824   3.269   5.109
 5316SOL    HW116847   0.829   3.172   5.087
 5316SOL    HW216848   0.736   3.306   5.081
 5317SOL     OW16849   6.776   1.364   5.768
 5317SOL    HW116850   6.840   1.302   5.723
 5317SOL    HW216851   6.822   1.449   5.790
 5318SOL     OW16852   0.003   3.047   0.326
 5318SOL    HW116853   0.041   3.028   0.236
 5318SOL    HW216854   0.066   3.014   0.397
 5319SOL     OW16855   4.586   6.591   0.545
 5319SOL    HW116856   4.492   6.609   0.513
 5319SOL    HW216857   4.623   6.512   0.496
 5320SOL     OW16858   4.128   5.585   1.366
 5320SOL    HW116859   4.112   5.647   1.288
 5320SOL    HW216860   4.155   5.495   1.331
 5321SOL     OW16861   1.677   4.378   4.878
 5321SOL    HW116862   1.629   4.346   4.796
 5321SOL    HW216863   1.627   4.347   4.959
 5322SOL     OW16864   5.560   6.902   1.361
 5322SOL    HW116865   5.512   6.815   1.358
 5322SOL    HW216866   5.512   6.970   1.306
 5323SOL     OW16867   4.320   1.495   5.901
 5323SOL    HW116868   4.222   1.476   5.891
 5323SOL    HW216869   4.351   1.552   5.825
 5324SOL     OW16870   2.820   2.559   6.695
 5324SOL    HW116871   2.832   2.477   6.750
 5324SOL    HW216872   2.727   2.594   6.707
 5325SOL     OW16873   2.684   1.624   5.244
 5325SOL    HW116874   2.644   1.561   5.178
 5325SOL    HW216875   2.783   1.626   5.232
 5326SOL     OW16876   6.305   5.921   3.473
 5326SOL    HW116877   6.207   5.940   3.479
 5326SOL    HW216878   6.349   5.990   3.416
 5327SOL     OW16879   5.194   2.330   4.680
 5327SOL    HW116880   5.099   2.346   4.707
 5327SOL    HW216881   5.246   2.415   4.690
 5328SOL     OW16882   4.126   3.662   5.835
 5328SOL    HW116883   4.064   3.737   5.813
 5328SOL    HW216884   4.184   3.643   5.755
 5329SOL     OW16885   1.386   5.569   6.211
 5329SOL    HW116886   1.349   5.485   6.171
 5329SOL    HW216887   1.419   5.629   6.138
 5330SOL     OW16888   3.634   3.884   0.521
 5330SOL    HW116889   3.660   3.790   0.497
 5330SOL    HW216890   3.548   3.882   0.572
 5331SOL     OW16891   6.290   2.090   6.850
 5331SOL    HW116892   6.255   2.050   6.765
 5331SOL    HW216893   6.298   2.189   6.840
 5332SOL     OW16894   1.452   4.454   1.898
 5332SOL    HW116895   1.364   4.422   1.932
 5332SOL    HW216896   1.475   4.405   1.813
 5333SOL     OW16897   1.042   0.819   3.093
 5333SOL    HW116898   1.080   0.850   3.007
 5333SOL    HW216899   1.046   0.892   3.161
 5334SOL     OW16900   3.177   0.524   5.266
 5334SOL    HW116901   3.189   0.622   5.249
 5334SOL    HW216902   3.188   0.506   5.364
 5335SOL     OW16903   6.441   6.017   0.761
 5335SOL    HW116904   6.437   6.116   0.773
 5335SOL    HW216905   6.351   5.977   0.779
 5336SOL     OW16906   1.740   3.357   2.231
 5336SOL    HW116907   1.642   3.346   2.244
 5336SOL    HW216908   1.773   3.290   2.165
 5337SOL     OW16909   4.604   4.089   1.394
 5337SOL    HW116910   4.662   4.155   1.346
 5337SOL    HW216911   4.591   4.119   1.489
 5338SOL     OW16912   6.207   1.980   6.625
 5338SOL    HW116913   6.256   1.909   6.575
 5338SOL    HW216914   6.122   1.943   6.662
 5339SOL     OW16915   6.439   2.035   3.921
 5339SOL    HW116916   6.362   1.975   3.901
 5339SOL    HW216917   6.454   2.039   4.020
 5340SOL     OW16918   5.756   2.938   6.883
 5340SOL    HW116919   5.828   2.869   6.888
 5340SOL    HW216920   5.739   2.962   6.788
 5341SOL     OW16921   3.647   2.452   5.849
 5341SOL    HW116922   3.590   2.533   5.838
 5341SOL    HW216923   3.731   2.477   5.898
 5342SOL     OW16924   3.638   0.432   5.317
 5342SOL    HW116925   3.585   0.516   5.304
 5342SOL    HW216926   3.613   0.366   5.245
 5343SOL     OW16927   3.832   3.651   2.946
 5343SOL    HW116928   3.811   3.603   2.861
 5343SOL    HW216929   3.832   3.586   3.022
 5344SOL     OW16930   1.647   2.611   2.407
 5344SOL    HW116931   1.731   2.655   2.437
 5344SOL    HW216932   1.666   2.517   2.380
 5345SOL     OW16933   4.575   6.143   0.599
 5345SOL    HW116934   4.623   6.147   0.687
 5345SOL    HW216935   4.569   6.048   0.569
 5346SOL     OW16936   3.083   5.899   3.841
 5346SOL    HW116937   3.059   5.812   3.799
 5346SOL    HW216938   3.011   5.928   3.903
 5347SOL     OW16939   6.867   2.224   2.484
 5347SOL    HW116940   6.781   2.247   2.438
 5347SOL    HW216941   6.943   2.269   2.435
 5348SOL     OW16942   1.001   1.446   0.471
 5348SOL    HW116943   1.046   1.380   0.411
 5348SOL    HW216944   1.070   1.499   0.519
 5349SOL     OW16945   0.590   2.409   0.127
 5349SOL    HW116946   0.654   2.427   0.201
 5349SOL    HW216947   0.541   2.323   0.145
 5350SOL     OW16948   2.393   0.498   6.466
 5350SOL    HW116949   2.406   0.561   6.543
 5350SOL    HW216950   2.443   0.531   6.387
 5351SOL     OW16951   5.083   6.174   1.500
 5351SOL    HW116952   5.087   6.136   1.407
 5351SOL    HW216953   4.997   6.222   1.513
 5352SOL     OW16954   2.259   6.376   4.112
 5352SOL    HW116955   2.208   6.385   4.026
 5352SOL    HW216956   2.252   6.282   4.145
 5353SOL     OW16957   4.387   6.227   4.541
 5353SOL    HW116958   4.346   6.269   4.622
 5353SOL    HW216959   4.423   6.137   4.565
 5354SOL     OW16960   2.397   4.619   2.583
 5354SOL    HW116961   2.455   4.661   2.513
 5354SOL    HW216962   2.302   4.648   2.569
 5355SOL     OW16963   4.672   2.028   3.992
 5355SOL    HW116964   4.604   1.990   4.054
 5355SOL    HW216965   4.628   2.088   3.925
 5356SOL     OW16966   6.008   3.813   1.703
 5356SOL    HW116967   6.105   3.835   1.708
 5356SOL    HW216968   5.983   3.758   1.783
 5357SOL     OW16969   3.521   0.873   0.782
 5357SOL    HW116970   3.447   0.855   0.718
 5357SOL    HW216971   3.502   0.827   0.869
 5358SOL     OW16972   4.122   2.043   0.391
 5358SOL    HW116973   4.107   2.084   0.481
 5358SOL    HW216974   4.038   1.997   0.362
 5359SOL     OW16975   2.365   1.745   1.149
 5359SOL    HW116976   2.317   1.658   1.148
 5359SOL    HW216977   2.450   1.737   1.097
 5360SOL     OW16978   4.099   6.771   5.379
 5360SOL    HW116979   4.170   6.835   5.410
 5360SOL    HW216980   4.142   6.694   5.333
 5361SOL     OW16981   2.146   1.188   4.574
 5361SOL    HW116982   2.179   1.278   4.547
 5361SOL    HW216983   2.161   1.175   4.672
 5362SOL     OW16984   5.049   4.402   3.158
 5362SOL    HW116985   5.020   4.492   3.191
 5362SOL    HW216986   5.146   4.389   3.182
 5363SOL     OW16987   0.906   6.111   5.589
 5363SOL    HW116988   0.890   6.191   5.647
 5363SOL    HW216989   0.915   6.140   5.494
 5364SOL     OW16990   6.252   5.510   0.779
 5364SOL    HW116991   6.349   5.488   0.795
 5364SOL    HW216992   6.243   5.563   0.695
 5365SOL     OW16993   4.494   2.738   6.351
 5365SOL    HW116994   4.405   2.756   6.310
 5365SOL    HW216995   4.547   2.678   6.290
 5366SOL     OW16996   4.548   4.834   0.479
 5366SOL    HW116997   4.515   4.896   0.408
 5366SOL    HW216998   4.622   4.779   0.444
 5367SOL     OW16999   0.696   5.166   0.354
 5367SOL    HW117000   0.615   5.177   0.296
 5367SOL    HW217001   0.708   5.070   0.378
 5368SOL     OW17002   5.516   1.727   2.723
 5368SOL    HW117003   5.531   1.766   2.632
 5368SOL    HW217004   5.426   1.684   2.726
 5369SOL     OW17005   2.305   5.213   3.189
 5369SOL    HW117006   2.340   5.169   3.107
 5369SOL    HW217007   2.325   5.311   3.185
 5370SOL     OW17008   4.350   3.291   1.483
 5370SOL    HW117009   4.286   3.242   1.542
 5370SOL    HW217010   4.389   3.228   1.416
 5371SOL     OW17011   1.761   4.061   4.366
 5371SOL    HW117012   1.800   4.048   4.274
 5371SOL    HW217013   1.679   4.005   4.375
 5372SOL     OW17014   3.010   5.792   2.165
 5372SOL    HW117015   3.058   5.744   2.239
 5372SOL    HW217016   3.067   5.867   2.131
 5373SOL     OW17017   2.962   4.910   4.329
 5373SOL    HW117018   2.966   4.903   4.429
 5373SOL    HW217019   3.053   4.929   4.293
 5374SOL     OW17020   1.466   3.143   6.605
 5374SOL    HW117021   1.543   3.082   6.591
 5374SOL    HW217022   1.496   3.238   6.593
 5375SOL     OW17023   1.095   4.474   5.425
 5375SOL    HW117024   1.044   4.458   5.340
 5375SOL    HW217025   1.171   4.536   5.407
 5376SOL     OW17026   1.268   3.424   1.502
 5376SOL    HW117027   1.243   3.397   1.409
 5376SOL    HW217028   1.322   3.352   1.545
 5377SOL     OW17029   6.303   0.187   1.810
 5377SOL    HW117030   6.255   0.135   1.739
 5377SOL    HW217031   6.370   0.128   1.855
 5378SOL     OW17032   6.306   0.680   0.984
 5378SOL    HW117033   6.376   0.743   0.948
 5378SOL    HW217034   6.218   0.700   0.941
 5379SOL     OW17035   0.021   5.094   3.815
 5379SOL    HW117036   6.998   5.059   3.733
 5379SOL    HW217037   0.081   5.023   3.853
 5380SOL     OW17038   2.154   0.793   3.558
 5380SOL    HW117039   2.174   0.789   3.461
 5380SOL    HW217040   2.152   0.888   3.588
 5381SOL     OW17041   6.715   3.816   0.921
 5381SOL    HW117042   6.662   3.830   1.006
 5381SOL    HW217043   6.652   3.814   0.843
 5382SOL     OW17044   2.924   0.230   1.672
 5382SOL    HW117045   3.015   0.225   1.712
 5382SOL    HW217046   2.918   0.310   1.611
 5383SOL     OW17047   2.833   2.282   5.409
 5383SOL    HW117048   2.828   2.277   5.509
 5383SOL    HW217049   2.830   2.189   5.371
 5384SOL     OW17050   6.318   6.715   3.949
 5384SOL    HW117051   6.399   6.713   3.891
 5384SOL    HW217052   6.344   6.695   4.044
 5385SOL     OW17053   3.005   3.849   2.740
 5385SOL    HW117054   3.025   3.757   2.773
 5385SOL    HW217055   3.035   3.916   2.809
 5386SOL     OW17056   4.959   6.489   4.137
 5386SOL    HW117057   4.976   6.469   4.041
 5386SOL    HW217058   5.020   6.434   4.194
 5387SOL     OW17059   2.557   5.801   2.652
 5387SOL    HW117060   2.547   5.706   2.682
 5387SOL    HW217061   2.489   5.822   2.582
 5388SOL     OW17062   5.107   6.699   2.495
 5388SOL    HW117063   5.049   6.750   2.432
 5388SOL    HW217064   5.062   6.613   2.520
 5389SOL     OW17065   4.904   1.254   1.373
 5389SOL    HW117066   4.816   1.208   1.382
 5389SOL    HW217067   4.892   1.345   1.334
 5390SOL     OW17068   5.126   5.323   4.220
 5390SOL    HW117069   5.068   5.400   4.248
 5390SOL    HW217070   5.090   5.239   4.261
 5391SOL     OW17071   2.848   3.039   0.509
 5391SOL    HW117072   2.918   2.982   0.467
 5391SOL    HW217073   2.814   3.106   0.442
 5392SOL     OW17074   6.505   3.341   1.093
 5392SOL    HW117075   6.514   3.440   1.082
 5392SOL    HW217076   6.428   3.321   1.154
 5393SOL     OW17077   6.973   6.789   7.016
 5393SOL    HW117078   6.965   6.811   0.091
 5393SOL    HW217079   6.884   6.760   6.981
 5394SOL     OW17080   0.420   3.704   6.263
 5394SOL    HW117081   0.481   3.628   6.284
 5394SOL    HW217082   0.447   3.785   6.316
 5395SOL     OW17083   4.928   0.665   1.098
 5395SOL    HW117084   4.994   0.725   1.143
 5395SOL    HW217085   4.914   0.583   1.153
 5396SOL     OW17086   5.095   3.566   2.265
 5396SOL    HW117087   5.178   3.596   2.312
 5396SOL    HW217088   5.050   3.496   2.320
 5397SOL     OW17089   6.833   2.891   2.145
 5397SOL    HW117090   6.897   2.967   2.134
 5397SOL    HW217091   6.853   2.820   2.078
 5398SOL     OW17092   3.415   2.669   1.777
 5398SOL    HW117093   3.408   2.678   1.677
 5398SOL    HW217094   3.324   2.660   1.816
 5399SOL     OW17095   2.588   6.495   0.878
 5399SOL    HW117096   2.688   6.493   0.879
 5399SOL    HW217097   2.554   6.428   0.812
 5400SOL     OW17098   2.668   4.106   0.901
 5400SOL    HW117099   2.603   4.067   0.836
 5400SOL    HW217100   2.625   4.116   0.990
 5401SOL     OW17101   5.800   3.169   2.357
 5401SOL    HW117102   5.814   3.142   2.262
 5401SOL    HW217103   5.885   3.158   2.408
 5402SOL     OW17104   2.568   5.525   1.712
 5402SOL    HW117105   2.653   5.568   1.742
 5402SOL    HW217106   2.514   5.591   1.659
 5403SOL     OW17107   6.886   3.373   6.507
 5403SOL    HW117108   6.926   3.441   6.445
 5403SOL    HW217109   6.803   3.410   6.548
 5404SOL     OW17110   1.018   2.977   3.672
 5404SOL    HW117111   0.964   2.893   3.661
 5404SOL    HW217112   1.064   2.998   3.586
 5405SOL     OW17113   6.943   5.781   6.989
 5405SOL    HW117114   6.942   5.730   0.052
 5405SOL    HW217115   6.887   5.734   6.921
 5406SOL     OW17116   2.222   1.871   0.204
 5406SOL    HW117117   2.145   1.860   0.142
 5406SOL    HW217118   2.229   1.967   0.233
 5407SOL     OW17119   4.420   3.233   0.159
 5407SOL    HW117120   4.421   3.225   0.259
 5407SOL    HW217121   4.447   3.325   0.133
 5408SOL     OW17122   2.351   1.019   5.647
 5408SOL    HW117123   2.345   0.922   5.672
 5408SOL    HW217124   2.261   1.050   5.616
 5409SOL     OW17125   5.448   0.218   3.162
 5409SOL    HW117126   5.523   0.274   3.197
 5409SOL    HW217127   5.428   0.145   3.227
 5410SOL     OW17128   2.698   2.229   1.757
 5410SOL    HW117129   2.785   2.186   1.780
 5410SOL    HW217130   2.704   2.328   1.772
 5411SOL     OW17131   6.653   5.053   6.158
 5411SOL    HW117132   6.597   4.976   6.190
 5411SOL    HW217133   6.593   5.127   6.128
 5412SOL     OW17134   5.081   2.919   0.546
 5412SOL    HW117135   5.125   2.980   0.481
 5412SOL    HW217136   5.111   2.825   0.530
 5413SOL     OW17137   3.017   1.562   1.772
 5413SOL    HW117138   3.093   1.585   1.711
 5413SOL    HW217139   2.933   1.604   1.738
 5414SOL     OW17140   5.366   1.889   4.595
 5414SOL    HW117141   5.322   1.799   4.598
 5414SOL    HW217142   5.389   1.918   4.687
 5415SOL     OW17143   0.521   5.878   1.323
 5415SOL    HW117144   0.504   5.780   1.333
 5415SOL    HW217145   0.602   5.893   1.266
 5416SOL     OW17146   4.362   4.984   5.468
 5416SOL    HW117147   4.451   4.995   5.513
 5416SOL    HW217148   4.346   4.887   5.450
 5417SOL     OW17149   3.853   6.797   5.499
 5417SOL    HW117150   3.927   6.773   5.436
 5417SOL    HW217151   3.765   6.776   5.456
 5418SOL     OW17152   3.099   0.389   2.734
 5418SOL    HW117153   3.146   0.419   2.817
 5418SOL    HW217154   3.061   0.469   2.687
 5419SOL     OW17155   3.668   4.835   0.513
 5419SOL    HW117156   3.645   4.933   0.518
 5419SOL    HW217157   3.585   4.782   0.499
 5420SOL     OW17158   2.202   2.984   3.134
 5420SOL    HW117159   2.109   2.995   3.169
 5420SOL    HW217160   2.239   3.074   3.111
 5421SOL     OW17161   1.663   3.704   1.318
 5421SOL    HW117162   1.684   3.616   1.359
 5421SOL    HW217163   1.567   3.726   1.333
 5422SOL     OW17164   0.844   4.925   0.651
 5422SOL    HW117165   0.781   4.999   0.675
 5422SOL    HW217166   0.835   4.850   0.717
 5423SOL     OW17167   6.632   3.275   6.978
 5423SOL    HW117168   6.581   3.326   0.026
 5423SOL    HW217169   6.686   3.203   7.022
 5424SOL     OW17170   4.928   3.399   4.361
 5424SOL    HW117171   4.927   3.340   4.280
 5424SOL    HW217172   4.967   3.348   4.438
 5425SOL     OW17173   4.170   1.089   4.915
 5425SOL    HW117174   4.153   1.057   5.008
 5425SOL    HW217175   4.228   1.171   4.917
 5426SOL     OW17176   5.617   6.333   4.275
 5426SOL    HW117177   5.713   6.340   4.248
 5426SOL    HW217178   5.608   6.354   4.372
 5427SOL     OW17179   4.408   6.166   6.549
 5427SOL    HW117180   4.384   6.134   6.641
 5427SOL    HW217181   4.344   6.238   6.521
 5428SOL     OW17182   0.677   0.289   0.949
 5428SOL    HW117183   0.674   0.206   0.893
 5428SOL    HW217184   0.626   0.362   0.903
 5429SOL     OW17185   1.564   1.513   6.867
 5429SOL    HW117186   1.607   1.423   6.853
 5429SOL    HW217187   1.603   1.579   6.803
 5430SOL     OW17188   0.078   1.949   6.122
 5430SOL    HW117189   0.164   1.901   6.138
 5430SOL    HW217190   0.074   1.980   6.027
 5431SOL     OW17191   3.638   6.771   6.637
 5431SOL    HW117192   3.673   6.704   6.702
 5431SOL    HW217193   3.712   6.799   6.575
 5432SOL     OW17194   5.329   0.206   6.845
 5432SOL    HW117195   5.275   0.164   6.773
 5432SOL    HW217196   5.325   0.149   6.928
 5433SOL     OW17197   0.454   1.930   4.584
 5433SOL    HW117198   0.466   1.953   4.487
 5433SOL    HW217199   0.364   1.888   4.597
 5434SOL     OW17200   2.996   0.469   5.516
 5434SOL    HW117201   3.054   0.521   5.579
 5434SOL    HW217202   2.931   0.531   5.472
 5435SOL     OW17203   4.615   0.181   1.887
 5435SOL    HW117204   4.526   0.220   1.865
 5435SOL    HW217205   4.662   0.154   1.803
 5436SOL     OW17206   4.805   4.288   3.472
 5436SOL    HW117207   4.894   4.263   3.434
 5436SOL    HW217208   4.816   4.358   3.542
 5437SOL     OW17209   2.764   4.527   0.246
 5437SOL    HW117210   2.831   4.567   0.308
 5437SOL    HW217211   2.790   4.433   0.224
 5438SOL     OW17212   6.869   2.553   1.755
 5438SOL    HW117213   6.965   2.574   1.739
 5438SOL    HW217214   6.850   2.552   1.853
 5439SOL     OW17215   1.399   1.814   1.354
 5439SOL    HW117216   1.455   1.735   1.379
 5439SOL    HW217217   1.391   1.875   1.433
 5440SOL     OW17218   1.381   1.096   1.225
 5440SOL    HW117219   1.338   1.187   1.226
 5440SOL    HW217220   1.359   1.049   1.310
 5441SOL     OW17221   3.925   1.511   3.812
 5441SOL    HW117222   3.983   1.590   3.831
 5441SOL    HW217223   3.834   1.543   3.783
 5442SOL     OW17224   4.193   6.688   2.796
 5442SOL    HW117225   4.174   6.594   2.767
 5442SOL    HW217226   4.170   6.751   2.723
 5443SOL     OW17227   3.119   6.917   4.914
 5443SOL    HW117228   3.162   6.972   4.985
 5443SOL    HW217229   3.104   6.824   4.946
 5444SOL     OW17230   0.963   0.441   4.147
 5444SOL    HW117231   0.884   0.457   4.087
 5444SOL    HW217232   0.987   0.526   4.195
 5445SOL     OW17233   6.447   4.037   3.414
 5445SOL    HW117234   6.389   4.005   3.488
 5445SOL    HW217235   6.543   4.020   3.437
 5446SOL     OW17236   6.369   5.675   4.882
 5446SOL    HW117237   6.344   5.748   4.819
 5446SOL    HW217238   6.289   5.620   4.904
 5447SOL     OW17239   3.342   2.224   0.111
 5447SOL    HW117240   3.351   2.233   0.012
 5447SOL    HW217241   3.255   2.263   0.141
 5448SOL     OW17242   4.348   2.727   5.341
 5448SOL    HW117243   4.262   2.696   5.300
 5448SOL    HW217244   4.331   2.807   5.399
 5449SOL     OW17245   1.502   2.455   5.952
 5449SOL    HW117246   1.597   2.459   5.983
 5449SOL    HW217247   1.487   2.524   5.881
 5450SOL     OW17248   2.512   0.712   1.816
 5450SOL    HW117249   2.589   0.660   1.779
 5450SOL    HW217250   2.449   0.736   1.742
 5451SOL     OW17251   1.803   5.979   3.190
 5451SOL    HW117252   1.715   6.007   3.228
 5451SOL    HW217253   1.852   6.059   3.155
 5452SOL     OW17254   2.123   4.313   0.014
 5452SOL    HW117255   2.204   4.351   0.059
 5452SOL    HW217256   2.047   4.377   0.022
 5453SOL     OW17257   6.523   4.108   0.559
 5453SOL    HW117258   6.574   4.179   0.609
 5453SOL    HW217259   6.546   4.111   0.462
 5454SOL     OW17260   0.313   4.405   6.774
 5454SOL    HW117261   0.234   4.456   6.740
 5454SOL    HW217262   0.370   4.464   6.831
 5455SOL     OW17263   6.538   3.002   1.039
 5455SOL    HW117264   6.587   3.080   1.079
 5455SOL    HW217265   6.499   2.946   1.111
 5456SOL     OW17266   3.235   0.610   6.216
 5456SOL    HW117267   3.182   0.537   6.173
 5456SOL    HW217268   3.275   0.669   6.146
 5457SOL     OW17269   5.417   2.373   0.968
 5457SOL    HW117270   5.504   2.360   1.016
 5457SOL    HW217271   5.384   2.285   0.934
 5458SOL     OW17272   1.045   4.651   6.893
 5458SOL    HW117273   1.145   4.650   6.896
 5458SOL    HW217274   1.013   4.740   6.860
 5459SOL     OW17275   1.844   5.386   0.230
 5459SOL    HW117276   1.838   5.343   0.321
 5459SOL    HW217277   1.789   5.334   0.165
 5460SOL     OW17278   3.174   0.184   1.885
 5460SOL    HW117279   3.195   0.158   1.791
 5460SOL    HW217280   3.230   0.263   1.911
 5461SOL     OW17281   5.665   6.351   5.613
 5461SOL    HW117282   5.635   6.274   5.558
 5461SOL    HW217283   5.611   6.432   5.590
 5462SOL     OW17284   1.694   0.761   0.999
 5462SOL    HW117285   1.719   0.854   1.026
 5462SOL    HW217286   1.602   0.740   1.033
 5463SOL     OW17287   6.342   2.301   0.391
 5463SOL    HW117288   6.311   2.207   0.379
 5463SOL    HW217289   6.264   2.363   0.383
 5464SOL     OW17290   1.720   1.020   3.975
 5464SOL    HW117291   1.700   0.966   4.057
 5464SOL    HW217292   1.775   0.965   3.912
 5465SOL     OW17293   3.991   6.982   3.438
 5465SOL    HW117294   4.064   6.915   3.458
 5465SOL    HW217295   3.915   6.968   3.501
 5466SOL     OW17296   5.487   5.049   4.836
 5466SOL    HW117297   5.574   5.005   4.812
 5466SOL    HW217298   5.414   4.981   4.835
 5467SOL     OW17299   5.425   2.140   2.593
 5467SOL    HW117300   5.357   2.157   2.665
 5467SOL    HW217301   5.419   2.045   2.562
 5468SOL     OW17302   5.079   1.751   4.495
 5468SOL    HW117303   5.098   1.846   4.519
 5468SOL    HW217304   5.077   1.742   4.395
 5469SOL     OW17305   3.740   4.658   6.190
 5469SOL    HW117306   3.757   4.743   6.239
 5469SOL    HW217307   3.798   4.654   6.109
 5470SOL     OW17308   2.052   4.990   3.764
 5470SOL    HW117309   1.997   5.057   3.713
 5470SOL    HW217310   2.144   4.987   3.727
 5471SOL     OW17311   5.516   6.328   1.378
 5471SOL    HW117312   5.492   6.385   1.299
 5471SOL    HW217313   5.450   6.343   1.451
 5472SOL     OW17314   5.005   3.930   5.967
 5472SOL    HW117315   4.984   3.891   5.878
 5472SOL    HW217316   5.072   4.004   5.956
 5473SOL     OW17317   0.835   3.427   3.198
 5473SOL    HW117318   0.934   3.429   3.180
 5473SOL    HW217319   0.789   3.493   3.138
 5474SOL     OW17320   2.033   5.016   4.708
 5474SOL    HW117321   2.081   5.084   4.653
 5474SOL    HW217322   2.037   4.928   4.663
 5475SOL     OW17323   3.953   2.740   1.251
 5475SOL    HW117324   3.856   2.752   1.273
 5475SOL    HW217325   4.009   2.777   1.326
 5476SOL     OW17326   2.122   3.611   6.038
 5476SOL    HW117327   2.188   3.542   6.068
 5476SOL    HW217328   2.150   3.649   5.950
 5477SOL     OW17329   1.912   3.404   3.288
 5477SOL    HW117330   1.841   3.407   3.217
 5477SOL    HW217331   1.928   3.497   3.322
 5478SOL     OW17332   5.610   5.841   6.485
 5478SOL    HW117333   5.597   5.855   6.387
 5478SOL    HW217334   5.707   5.828   6.504
 5479SOL     OW17335   4.686   0.706   5.129
 5479SOL    HW117336   4.705   0.675   5.222
 5479SOL    HW217337   4.766   0.753   5.092
 5480SOL     OW17338   0.776   4.285   4.448
 5480SOL    HW117339   0.747   4.256   4.539
 5480SOL    HW217340   0.785   4.205   4.388
 5481SOL     OW17341   2.907   6.995   4.763
 5481SOL    HW117342   2.951   0.054   4.727
 5481SOL    HW217343   2.966   6.952   4.831
 5482SOL     OW17344   3.798   4.481   1.655
 5482SOL    HW117345   3.740   4.534   1.717
 5482SOL    HW217346   3.746   4.456   1.573
 5483SOL     OW17347   0.602   2.578   5.640
 5483SOL    HW117348   0.573   2.589   5.545
 5483SOL    HW217349   0.652   2.491   5.650
 5484SOL     OW17350   4.569   0.306   4.856
 5484SOL    HW117351   4.533   0.215   4.877
 5484SOL    HW217352   4.546   0.369   4.931
 5485SOL     OW17353   2.799   6.516   5.245
 5485SOL    HW117354   2.783   6.557   5.155
 5485SOL    HW217355   2.889   6.472   5.246
 5486SOL     OW17356   2.898   5.947   5.240
 5486SOL    HW117357   2.890   6.034   5.289
 5486SOL    HW217358   2.995   5.922   5.234
 5487SOL     OW17359   2.885   4.374   5.863
 5487SOL    HW117360   2.812   4.413   5.919
 5487SOL    HW217361   2.848   4.302   5.805
 5488SOL     OW17362   6.079   1.133   0.287
 5488SOL    HW117363   6.009   1.190   0.331
 5488SOL    HW217364   6.156   1.191   0.259
 5489SOL     OW17365   6.686   3.219   2.106
 5489SOL    HW117366   6.685   3.319   2.105
 5489SOL    HW217367   6.594   3.184   2.124
 5490SOL     OW17368   1.037   6.738   2.446
 5490SOL    HW117369   1.131   6.718   2.419
 5490SOL    HW217370   0.997   6.658   2.491
 5491SOL     OW17371   6.748   3.034   0.654
 5491SOL    HW117372   6.786   3.014   0.744
 5491SOL    HW217373   6.748   3.133   0.640
 5492SOL     OW17374   0.551   2.163   5.362
 5492SOL    HW117375   0.631   2.111   5.334
 5492SOL    HW217376   0.535   2.149   5.460
 5493SOL     OW17377   4.193   3.714   1.848
 5493SOL    HW117378   4.147   3.717   1.937
 5493SOL    HW217379   4.204   3.619   1.820
 5494SOL     OW17380   5.914   4.470   5.105
 5494SOL    HW117381   5.912   4.395   5.170
 5494SOL    HW217382   6.007   4.508   5.101
 5495SOL     OW17383   6.057   0.392   0.406
 5495SOL    HW117384   6.023   0.410   0.498
 5495SOL    HW217385   5.979   0.388   0.343
 5496SOL     OW17386   4.636   0.478   4.341
 5496SOL    HW117387   4.686   0.463   4.426
 5496SOL    HW217388   4.599   0.391   4.308
 5497SOL     OW17389   0.540   0.992   6.147
 5497SOL    HW117390   0.465   0.944   6.101
 5497SOL    HW217391   0.594   1.042   6.079
 5498SOL     OW17392   0.491   4.730   1.832
 5498SOL    HW117393   0.531   4.815   1.869
 5498SOL    HW217394   0.554   4.690   1.766
 5499SOL     OW17395   0.269   0.631   4.845
 5499SOL    HW117396   0.341   0.603   4.781
 5499SOL    HW217397   0.306   0.699   4.908
 5500SOL     OW17398   2.063   0.617   0.403
 5500SOL    HW117399   1.985   0.670   0.369
 5500SOL    HW217400   2.046   0.519   0.386
 5501SOL     OW17401   3.848   1.843   0.098
 5501SOL    HW117402   3.787   1.914   0.062
 5501SOL    HW217403   3.935   1.845   0.049
 5502SOL     OW17404   5.161   2.891   6.911
 5502SOL    HW117405   5.179   2.876   6.813
 5502SOL    HW217406   5.063   2.886   6.928
 5503SOL     OW17407   0.695   3.713   0.226
 5503SOL    HW117408   0.683   3.628   0.175
 5503SOL    HW217409   0.620   3.724   0.291
 5504SOL     OW17410   3.905   0.999   6.917
 5504SOL    HW117411   3.996   1.000   6.959
 5504SOL    HW217412   3.874   0.904   6.906
 5505SOL     OW17413   2.419   4.635   4.222
 5505SOL    HW117414   2.337   4.659   4.170
 5505SOL    HW217415   2.500   4.645   4.164
 5506SOL     OW17416   0.297   3.535   5.867
 5506SOL    HW117417   0.303   3.526   5.768
 5506SOL    HW217418   0.315   3.447   5.910
 5507SOL     OW17419   3.061   0.346   6.061
 5507SOL    HW117420   2.981   0.389   6.020
 5507SOL    HW217421   3.036   0.309   6.151
 5508SOL     OW17422   0.813   0.854   6.702
 5508SOL    HW117423   0.773   0.935   6.659
 5508SOL    HW217424   0.747   0.812   6.763
 5509SOL     OW17425   6.983   5.035   0.793
 5509SOL    HW117426   7.013   5.113   0.849
 5509SOL    HW217427   6.974   4.954   0.850
 5510SOL     OW17428   4.176   5.280   6.833
 5510SOL    HW117429   4.160   5.347   6.761
 5510SOL    HW217430   4.162   5.188   6.797
 5511SOL     OW17431   0.748   1.455   5.672
 5511SOL    HW117432   0.754   1.356   5.679
 5511SOL    HW217433   0.671   1.480   5.613
 5512SOL     OW17434   3.981   0.959   2.120
 5512SOL    HW117435   3.946   1.042   2.076
 5512SOL    HW217436   3.918   0.884   2.104
 5513SOL     OW17437   4.477   4.738   0.216
 5513SOL    HW117438   4.452   4.670   0.147
 5513SOL    HW217439   4.397   4.760   0.272
 5514SOL     OW17440   3.023   6.947   5.762
 5514SOL    HW117441   2.947   6.974   5.703
 5514SOL    HW217442   3.109   6.979   5.722
 5515SOL     OW17443   2.318   5.704   2.081
 5515SOL    HW117444   2.405   5.738   2.116
 5515SOL    HW217445   2.332   5.618   2.033
 5516SOL     OW17446   2.556   2.780   5.344
 5516SOL    HW117447   2.495   2.729   5.283
 5516SOL    HW217448   2.584   2.865   5.299
 5517SOL     OW17449   1.970   3.902   2.915
 5517SOL    HW117450   2.066   3.911   2.888
 5517SOL    HW217451   1.923   3.990   2.904
 5518SOL     OW17452   4.940   4.426   5.232
 5518SOL    HW117453   4.921   4.486   5.310
 5518SOL    HW217454   4.986   4.343   5.265
 5519SOL     OW17455   4.566   2.586   3.781
 5519SOL    HW117456   4.641   2.521   3.792
 5519SOL    HW217457   4.481   2.537   3.768
 5520SOL     OW17458   5.607   6.453   1.963
 5520SOL    HW117459   5.661   6.496   1.891
 5520SOL    HW217460   5.530   6.512   1.987
 5521SOL     OW17461   5.513   5.516   1.520
 5521SOL    HW117462   5.416   5.491   1.521
 5521SOL    HW217463   5.569   5.434   1.517
 5522SOL     OW17464   5.851   5.246   0.740
 5522SOL    HW117465   5.949   5.241   0.719
 5522SOL    HW217466   5.815   5.154   0.754
 5523SOL     OW17467   5.952   1.539   2.230
 5523SOL    HW117468   5.931   1.447   2.263
 5523SOL    HW217469   5.899   1.558   2.148
 5524SOL     OW17470   3.065   0.421   4.870
 5524SOL    HW117471   3.047   0.402   4.967
 5524SOL    HW217472   3.161   0.402   4.850
 5525SOL     OW17473   6.331   2.659   1.288
 5525SOL    HW117474   6.356   2.664   1.384
 5525SOL    HW217475   6.237   2.626   1.279
 5526SOL     OW17476   4.763   4.748   3.186
 5526SOL    HW117477   4.775   4.774   3.090
 5526SOL    HW217478   4.752   4.829   3.242
 5527SOL     OW17479   5.348   2.400   4.077
 5527SOL    HW117480   5.313   2.384   4.169
 5527SOL    HW217481   5.416   2.330   4.055
 5528SOL     OW17482   1.122   1.902   1.373
 5528SOL    HW117483   1.085   1.878   1.283
 5528SOL    HW217484   1.211   1.859   1.386
 5529SOL     OW17485   3.382   0.594   2.430
 5529SOL    HW117486   3.445   0.517   2.433
 5529SOL    HW217487   3.431   0.679   2.448
 5530SOL     OW17488   6.664   2.401   1.621
 5530SOL    HW117489   6.601   2.476   1.600
 5530SOL    HW217490   6.746   2.437   1.664
 5531SOL     OW17491   3.543   3.894   1.224
 5531SOL    HW117492   3.487   3.922   1.303
 5531SOL    HW217493   3.484   3.878   1.145
 5532SOL     OW17494   1.748   3.177   1.064
 5532SOL    HW117495   1.664   3.207   1.020
 5532SOL    HW217496   1.733   3.088   1.107
 5533SOL     OW17497   4.190   1.468   4.210
 5533SOL    HW117498   4.098   1.448   4.178
 5533SOL    HW217499   4.192   1.467   4.310
 5534SOL     OW17500   1.092   1.456   5.517
 5534SOL    HW117501   1.095   1.370   5.568
 5534SOL    HW217502   1.036   1.522   5.568
 5535SOL     OW17503   0.892   2.116   3.209
 5535SOL    HW117504   0.839   2.092   3.291
 5535SOL    HW217505   0.837   2.098   3.128
 5536SOL     OW17506   2.961   0.220   4.675
 5536SOL    HW117507   2.986   0.283   4.749
 5536SOL    HW217508   3.026   0.230   4.600
 5537SOL     OW17509   2.883   1.040   2.892
 5537SOL    HW117510   2.803   1.056   2.835
 5537SOL    HW217511   2.927   0.954   2.865
 5538SOL     OW17512   4.888   5.960   4.681
 5538SOL    HW117513   4.879   6.048   4.728
 5538SOL    HW217514   4.888   5.975   4.582
 5539SOL     OW17515   2.597   2.598   1.177
 5539SOL    HW117516   2.600   2.697   1.163
 5539SOL    HW217517   2.608   2.552   1.088
 5540SOL     OW17518   5.104   4.258   2.895
 5540SOL    HW117519   5.071   4.279   2.987
 5540SOL    HW217520   5.049   4.186   2.854
 5541SOL     OW17521   4.726   1.136   5.618
 5541SOL    HW117522   4.698   1.179   5.533
 5541SOL    HW217523   4.677   1.050   5.631
 5542SOL     OW17524   4.370   4.384   6.158
 5542SOL    HW117525   4.461   4.348   6.137
 5542SOL    HW217526   4.317   4.395   6.074
 5543SOL     OW17527   6.563   2.769   6.160
 5543SOL    HW117528   6.552   2.848   6.100
 5543SOL    HW217529   6.661   2.753   6.176
 5544SOL     OW17530   6.295   0.635   6.014
 5544SOL    HW117531   6.343   0.552   5.986
 5544SOL    HW217532   6.213   0.610   6.066
 5545SOL     OW17533   3.092   2.123   2.225
 5545SOL    HW117534   3.117   2.174   2.308
 5545SOL    HW217535   3.026   2.175   2.172
 5546SOL     OW17536   1.931   4.958   6.051
 5546SOL    HW117537   1.836   4.934   6.070
 5546SOL    HW217538   1.991   4.885   6.083
 5547SOL     OW17539   3.835   5.603   5.024
 5547SOL    HW117540   3.904   5.543   5.063
 5547SOL    HW217541   3.828   5.586   4.925
 5548SOL     OW17542   6.269   3.254   4.885
 5548SOL    HW117543   6.212   3.320   4.934
 5548SOL    HW217544   6.261   3.271   4.787
 5549SOL     OW17545   2.497   4.947   6.758
 5549SOL    HW117546   2.496   5.043   6.785
 5549SOL    HW217547   2.428   4.897   6.809
 5550SOL     OW17548   4.113   6.406   1.189
 5550SOL    HW117549   4.033   6.377   1.242
 5550SOL    HW217550   4.083   6.442   1.100
 5551SOL     OW17551   0.900   1.733   3.055
 5551SOL    HW117552   0.954   1.803   3.008
 5551SOL    HW217553   0.835   1.692   2.992
 5552SOL     OW17554   0.355   2.728   1.730
 5552SOL    HW117555   0.422   2.654   1.723
 5552SOL    HW217556   0.357   2.783   1.647
 5553SOL     OW17557   5.283   5.762   0.702
 5553SOL    HW117558   5.195   5.804   0.679
 5553SOL    HW217559   5.268   5.675   0.749
 5554SOL     OW17560   2.795   2.346   4.561
 5554SOL    HW117561   2.765   2.400   4.483
 5554SOL    HW217562   2.893   2.331   4.555
 5555SOL     OW17563   0.195   5.977   2.811
 5555SOL    HW117564   0.178   5.938   2.720
 5555SOL    HW217565   0.112   6.023   2.843
 5556SOL     OW17566   0.197   1.575   5.114
 5556SOL    HW117567   0.182   1.481   5.084
 5556SOL    HW217568   0.220   1.632   5.036
 5557SOL     OW17569   2.424   0.352   3.947
 5557SOL    HW117570   2.339   0.335   3.897
 5557SOL    HW217571   2.492   0.283   3.923
 5558SOL     OW17572   5.195   3.163   5.019
 5558SOL    HW117573   5.165   3.156   5.115
 5558SOL    HW217574   5.218   3.258   4.999
 5559SOL     OW17575   1.973   0.625   1.458
 5559SOL    HW117576   1.995   0.562   1.383
 5559SOL    HW217577   2.047   0.623   1.526
 5560SOL     OW17578   0.060   1.070   4.174
 5560SOL    HW117579   0.027   0.999   4.111
 5560SOL    HW217580   7.004   1.125   4.205
 5561SOL     OW17581   1.695   2.609   3.161
 5561SOL    HW117582   1.614   2.662   3.183
 5561SOL    HW217583   1.696   2.525   3.216
 5562SOL     OW17584   2.427   2.574   5.706
 5562SOL    HW117585   2.453   2.478   5.710
 5562SOL    HW217586   2.327   2.581   5.703
 5563SOL     OW17587   4.385   5.779   1.772
 5563SOL    HW117588   4.444   5.704   1.802
 5563SOL    HW217589   4.297   5.772   1.818
 5564SOL     OW17590   5.697   4.603   1.805
 5564SOL    HW117591   5.694   4.543   1.725
 5564SOL    HW217592   5.767   4.673   1.791
 5565SOL     OW17593   3.550   3.639   5.415
 5565SOL    HW117594   3.585   3.557   5.370
 5565SOL    HW217595   3.614   3.715   5.400
 5566SOL     OW17596   1.640   4.829   1.192
 5566SOL    HW117597   1.654   4.875   1.280
 5566SOL    HW217598   1.588   4.745   1.207
 5567SOL     OW17599   1.478   5.674   1.939
 5567SOL    HW117600   1.396   5.642   1.985
 5567SOL    HW217601   1.541   5.598   1.926
 5568SOL     OW17602   3.287   2.306   1.691
 5568SOL    HW117603   3.283   2.206   1.687
 5568SOL    HW217604   3.381   2.336   1.677
 5569SOL     OW17605   5.194   1.920   0.012
 5569SOL    HW117606   5.227   1.933   0.106
 5569SOL    HW217607   5.144   2.001   7.005
 5570SOL     OW17608   6.873   4.323   5.942
 5570SOL    HW117609   6.860   4.228   5.969
 5570SOL    HW217610   6.798   4.351   5.882
 5571SOL     OW17611   6.840   4.971   5.728
 5571SOL    HW117612   6.889   5.018   5.654
 5571SOL    HW217613   6.904   4.914   5.779
 5572SOL     OW17614   5.264   2.226   5.840
 5572SOL    HW117615   5.291   2.152   5.778
 5572SOL    HW217616   5.345   2.272   5.875
 5573SOL     OW17617   1.288   3.966   0.517
 5573SOL    HW117618   1.344   3.890   0.551
 5573SOL    HW217619   1.347   4.045   0.499
 5574SOL     OW17620   0.702   5.831   4.926
 5574SOL    HW117621   0.650   5.748   4.912
 5574SOL    HW217622   0.779   5.813   4.987
 5575SOL     OW17623   1.747   1.027   1.032
 5575SOL    HW117624   1.823   1.090   1.017
 5575SOL    HW217625   1.661   1.078   1.040
 5576SOL     OW17626   5.932   5.815   7.008
 5576SOL    HW117627   5.863   5.810   6.936
 5576SOL    HW217628   5.985   5.899   6.998
 5577SOL     OW17629   2.094   3.650   5.293
 5577SOL    HW117630   2.068   3.734   5.245
 5577SOL    HW217631   2.193   3.651   5.312
 5578SOL     OW17632   3.800   2.652   6.465
 5578SOL    HW117633   3.855   2.735   6.455
 5578SOL    HW217634   3.752   2.633   6.379
 5579SOL     OW17635   4.895   4.285   6.989
 5579SOL    HW117636   4.894   4.225   6.909
 5579SOL    HW217637   4.989   4.295   0.000
 5580SOL     OW17638   5.866   1.355   0.327
 5580SOL    HW117639   5.812   1.346   0.411
 5580SOL    HW217640   5.958   1.386   0.350
 5581SOL     OW17641   2.802   2.331   6.861
 5581SOL    HW117642   2.733   2.386   6.907
 5581SOL    HW217643   2.841   2.265   6.926
 5582SOL     OW17644   4.090   3.580   3.481
 5582SOL    HW117645   4.096   3.673   3.518
 5582SOL    HW217646   4.018   3.577   3.411
 5583SOL     OW17647   4.109   6.848   1.137
 5583SOL    HW117648   4.204   6.838   1.166
 5583SOL    HW217649   4.055   6.887   1.212
 5584SOL     OW17650   6.599   2.939   3.549
 5584SOL    HW117651   6.555   2.874   3.487
 5584SOL    HW217652   6.561   3.030   3.534
 5585SOL     OW17653   6.178   6.952   3.856
 5585SOL    HW117654   6.188   6.966   3.758
 5585SOL    HW217655   6.259   6.906   3.892
 5586SOL     OW17656   2.096   0.927   6.476
 5586SOL    HW117657   2.038   0.910   6.555
 5586SOL    HW217658   2.192   0.913   6.500
 5587SOL     OW17659   3.608   0.202   4.455
 5587SOL    HW117660   3.708   0.206   4.450
 5587SOL    HW217661   3.571   0.190   4.363
 5588SOL     OW17662   4.067   0.486   6.804
 5588SOL    HW117663   4.119   0.570   6.820
 5588SOL    HW217664   4.002   0.472   6.879
 5589SOL     OW17665   4.105   3.541   6.722
 5589SOL    HW117666   4.150   3.630   6.730
 5589SOL    HW217667   4.113   3.491   6.808
 5590SOL     OW17668   0.469   6.482   3.010
 5590SOL    HW117669   0.565   6.482   3.037
 5590SOL    HW217670   0.462   6.509   2.914
 5591SOL     OW17671   4.934   0.996   0.171
 5591SOL    HW117672   4.860   1.008   0.105
 5591SOL    HW217673   5.001   1.069   0.159
 5592SOL     OW17674   1.962   2.547   2.398
 5592SOL    HW117675   1.935   2.640   2.424
 5592SOL    HW217676   2.049   2.524   2.442
 5593SOL     OW17677   1.502   3.179   5.392
 5593SOL    HW117678   1.601   3.172   5.403
 5593SOL    HW217679   1.468   3.101   5.341
 5594SOL     OW17680   2.901   0.673   0.013
 5594SOL    HW117681   2.864   0.729   0.088
 5594SOL    HW217682   2.827   0.651   6.972
 5595SOL     OW17683   0.075   1.649   5.357
 5595SOL    HW117684   0.088   1.558   5.397
 5595SOL    HW217685   0.127   1.656   5.272
 5596SOL     OW17686   5.190   1.448   2.982
 5596SOL    HW117687   5.209   1.545   2.965
 5596SOL    HW217688   5.110   1.420   2.928
 5597SOL     OW17689   0.034   0.988   6.132
 5597SOL    HW117690   6.958   0.974   6.132
 5597SOL    HW217691   0.054   1.085   6.125
 5598SOL     OW17692   6.777   2.240   4.069
 5598SOL    HW117693   6.682   2.271   4.061
 5598SOL    HW217694   6.801   2.186   3.988
 5599SOL     OW17695   5.047   2.655   3.178
 5599SOL    HW117696   4.972   2.634   3.114
 5599SOL    HW217697   5.066   2.576   3.235
 5600SOL     OW17698   2.684   1.435   1.939
 5600SOL    HW117699   2.602   1.378   1.933
 5600SOL    HW217700   2.718   1.436   2.033
 5601SOL     OW17701   5.989   3.030   5.119
 5601SOL    HW117702   6.070   2.988   5.079
 5601SOL    HW217703   6.000   3.037   5.218
 5602SOL     OW17704   6.548   2.382   3.089
 5602SOL    HW117705   6.637   2.395   3.044
 5602SOL    HW217706   6.481   2.352   3.021
 5603SOL     OW17707   4.170   1.462   5.183
 5603SOL    HW117708   4.231   1.393   5.145
 5603SOL    HW217709   4.224   1.530   5.233
 5604SOL     OW17710   1.146   0.214   4.109
 5604SOL    HW117711   1.099   0.294   4.147
 5604SOL    HW217712   1.212   0.245   4.040
 5605SOL     OW17713   4.077   6.510   4.516
 5605SOL    HW117714   4.053   6.468   4.428
 5605SOL    HW217715   4.174   6.495   4.535
 5606SOL     OW17716   4.876   3.022   0.720
 5606SOL    HW117717   4.831   2.953   0.777
 5606SOL    HW217718   4.962   2.986   0.685
 5607SOL     OW17719   6.130   2.808   2.432
 5607SOL    HW117720   6.186   2.747   2.489
 5607SOL    HW217721   6.061   2.755   2.384
 5608SOL     OW17722   5.038   0.473   3.289
 5608SOL    HW117723   4.946   0.509   3.279
 5608SOL    HW217724   5.087   0.484   3.202
 5609SOL     OW17725   0.467   0.323   0.619
 5609SOL    HW117726   0.489   0.358   0.709
 5609SOL    HW217727   0.550   0.314   0.564
 5610SOL     OW17728   5.593   4.723   0.654
 5610SOL    HW117729   5.647   4.751   0.734
 5610SOL    HW217730   5.538   4.800   0.622
 5611SOL     OW17731   6.299   4.844   1.617
 5611SOL    HW117732   6.216   4.831   1.672
 5611SOL    HW217733   6.368   4.777   1.646
 5612SOL     OW17734   3.314   1.528   0.397
 5612SOL    HW117735   3.333   1.440   0.440
 5612SOL    HW217736   3.294   1.514   0.300
 5613SOL     OW17737   5.741   4.995   5.873
 5613SOL    HW117738   5.758   4.912   5.820
 5613SOL    HW217739   5.733   5.073   5.810
 5614SOL     OW17740   5.423   3.335   3.960
 5614SOL    HW117741   5.357   3.299   4.025
 5614SOL    HW217742   5.432   3.272   3.883
 5615SOL     OW17743   0.251   2.428   3.174
 5615SOL    HW117744   0.277   2.344   3.222
 5615SOL    HW217745   0.214   2.405   3.085
 5616SOL     OW17746   1.482   3.303   2.303
 5616SOL    HW117747   1.398   3.351   2.280
 5616SOL    HW217748   1.474   3.207   2.277
 5617SOL     OW17749   2.343   4.802   6.044
 5617SOL    HW117750   2.348   4.782   5.946
 5617SOL    HW217751   2.258   4.763   6.082
 5618SOL     OW17752   5.978   6.007   2.795
 5618SOL    HW117753   6.024   5.930   2.751
 5618SOL    HW217754   6.043   6.082   2.808
 5619SOL     OW17755   3.843   3.064   3.690
 5619SOL    HW117756   3.829   2.970   3.722
 5619SOL    HW217757   3.900   3.113   3.757
 5620SOL     OW17758   5.395   4.317   4.958
 5620SOL    HW117759   5.469   4.381   4.974
 5620SOL    HW217760   5.311   4.368   4.937
 5621SOL     OW17761   1.156   2.262   5.464
 5621SOL    HW117762   1.175   2.357   5.442
 5621SOL    HW217763   1.231   2.224   5.517
 5622SOL     OW17764   4.678   6.007   3.998
 5622SOL    HW117765   4.645   5.962   3.914
 5622SOL    HW217766   4.647   6.101   4.000
 5623SOL     OW17767   4.737   5.475   3.718
 5623SOL    HW117768   4.676   5.544   3.681
 5623SOL    HW217769   4.795   5.516   3.789
 5624SOL     OW17770   6.090   5.215   3.254
 5624SOL    HW117771   6.161   5.230   3.185
 5624SOL    HW217772   6.041   5.301   3.270
 5625SOL     OW17773   1.427   6.109   5.462
 5625SOL    HW117774   1.351   6.142   5.517
 5625SOL    HW217775   1.507   6.167   5.478
 5626SOL     OW17776   1.145   4.573   6.629
 5626SOL    HW117777   1.154   4.607   6.535
 5626SOL    HW217778   1.059   4.605   6.667
 5627SOL     OW17779   0.613   6.017   0.200
 5627SOL    HW117780   0.628   6.112   0.172
 5627SOL    HW217781   0.519   5.990   0.179
 5628SOL     OW17782   2.456   2.599   1.402
 5628SOL    HW117783   2.512   2.626   1.481
 5628SOL    HW217784   2.509   2.611   1.319
 5629SOL     OW17785   5.786   3.581   2.536
 5629SOL    HW117786   5.838   3.627   2.465
 5629SOL    HW217787   5.841   3.506   2.574
 5630SOL     OW17788   1.116   3.763   6.416
 5630SOL    HW117789   1.203   3.788   6.372
 5630SOL    HW217790   1.088   3.837   6.477
 5631SOL     OW17791   3.768   1.711   2.163
 5631SOL    HW117792   3.729   1.786   2.110
 5631SOL    HW217793   3.754   1.729   2.261
 5632SOL     OW17794   5.323   0.090   5.764
 5632SOL    HW117795   5.362   0.150   5.833
 5632SOL    HW217796   5.299   0.143   5.683
 5633SOL     OW17797   0.586   4.917   5.571
 5633SOL    HW117798   0.557   4.871   5.655
 5633SOL    HW217799   0.535   5.003   5.560
 5634SOL     OW17800   2.416   0.060   1.103
 5634SOL    HW117801   2.385   0.018   1.017
 5634SOL    HW217802   2.467   0.144   1.082
 5635SOL     OW17803   2.702   0.556   0.465
 5635SOL    HW117804   2.679   0.554   0.368
 5635SOL    HW217805   2.620   0.538   0.520
 5636SOL     OW17806   5.409   1.493   5.407
 5636SOL    HW117807   5.430   1.508   5.504
 5636SOL    HW217808   5.369   1.402   5.395
 5637SOL     OW17809   4.885   6.730   4.270
 5637SOL    HW117810   4.923   6.654   4.218
 5637SOL    HW217811   4.877   6.810   4.210
 5638SOL     OW17812   6.149   5.196   0.719
 5638SOL    HW117813   6.209   5.271   0.746
 5638SOL    HW217814   6.137   5.133   0.796
 5639SOL     OW17815   1.894   0.252   1.346
 5639SOL    HW117816   1.960   0.317   1.309
 5639SOL    HW217817   1.922   0.159   1.322
 5640SOL     OW17818   2.747   6.127   2.949
 5640SOL    HW117819   2.777   6.089   2.862
 5640SOL    HW217820   2.714   6.220   2.936
 5641SOL     OW17821   0.591   4.512   4.054
 5641SOL    HW117822   0.549   4.572   4.123
 5641SOL    HW217823   0.643   4.567   3.989
 5642SOL     OW17824   1.956   4.758   0.038
 5642SOL    HW117825   2.028   4.725   0.099
 5642SOL    HW217826   1.907   4.681   7.021
 5643SOL     OW17827   4.410   2.385   5.242
 5643SOL    HW117828   4.339   2.416   5.179
 5643SOL    HW217829   4.437   2.292   5.217
 5644SOL     OW17830   4.364   1.282   4.971
 5644SOL    HW117831   4.415   1.352   4.921
 5644SOL    HW217832   4.425   1.205   4.991
 5645SOL     OW17833   6.182   5.901   3.999
 5645SOL    HW117834   6.146   5.986   4.036
 5645SOL    HW217835   6.180   5.830   4.069
 5646SOL     OW17836   0.451   5.674   4.336
 5646SOL    HW117837   0.492   5.584   4.351
 5646SOL    HW217838   0.492   5.740   4.399
 5647SOL     OW17839   5.476   5.219   6.082
 5647SOL    HW117840   5.529   5.262   6.155
 5647SOL    HW217841   5.487   5.120   6.087
 5648SOL     OW17842   1.906   1.584   5.169
 5648SOL    HW117843   1.886   1.680   5.149
 5648SOL    HW217844   1.840   1.550   5.236
 5649SOL     OW17845   0.859   0.633   5.542
 5649SOL    HW117846   0.837   0.609   5.636
 5649SOL    HW217847   0.914   0.717   5.540
 5650SOL     OW17848   6.096   5.118   6.614
 5650SOL    HW117849   6.120   5.160   6.702
 5650SOL    HW217850   6.073   5.022   6.628
 5651SOL     OW17851   6.557   0.714   2.980
 5651SOL    HW117852   6.592   0.750   2.893
 5651SOL    HW217853   6.634   0.677   3.033
 5652SOL     OW17854   4.539   4.994   0.259
 5652SOL    HW117855   4.523   4.899   0.234
 5652SOL    HW217856   4.514   5.054   0.183
 5653SOL     OW17857   1.356   6.001   6.032
 5653SOL    HW117858   1.283   5.937   6.005
 5653SOL    HW217859   1.336   6.038   6.123
 5654SOL     OW17860   0.191   5.990   5.603
 5654SOL    HW117861   0.282   6.025   5.579
 5654SOL    HW217862   0.184   5.895   5.573
 5655SOL     OW17863   6.687   3.276   3.830
 5655SOL    HW117864   6.775   3.260   3.785
 5655SOL    HW217865   6.680   3.373   3.856
 5656SOL     OW17866   3.709   4.626   0.193
 5656SOL    HW117867   3.755   4.578   0.119
 5656SOL    HW217868   3.724   4.577   0.279
 5657SOL     OW17869   3.820   6.634   2.106
 5657SOL    HW117870   3.870   6.629   2.192
 5657SOL    HW217871   3.810   6.729   2.078
 5658SOL     OW17872   4.380   0.219   5.621
 5658SOL    HW117873   4.318   0.143   5.640
 5658SOL    HW217874   4.469   0.202   5.663
 5659SOL     OW17875   3.726   3.670   2.659
 5659SOL    HW117876   3.757   3.576   2.647
 5659SOL    HW217877   3.800   3.733   2.633
 5660SOL     OW17878   5.661   6.268   0.462
 5660SOL    HW117879   5.754   6.252   0.493
 5660SOL    HW217880   5.660   6.345   0.397
 5661SOL     OW17881   6.196   5.469   4.414
 5661SOL    HW117882   6.129   5.529   4.370
 5661SOL    HW217883   6.199   5.381   4.366
 5662SOL     OW17884   2.440   4.480   4.608
 5662SOL    HW117885   2.537   4.499   4.593
 5662SOL    HW217886   2.430   4.416   4.684
 5663SOL     OW17887   1.742   4.288   7.018
 5663SOL    HW117888   1.648   4.269   6.990
 5663SOL    HW217889   1.742   4.339   0.082
 5664SOL     OW17890   0.711   4.451   2.877
 5664SOL    HW117891   0.613   4.444   2.897
 5664SOL    HW217892   0.745   4.361   2.849
 5665SOL     OW17893   2.188   2.310   5.915
 5665SOL    HW117894   2.166   2.382   5.849
 5665SOL    HW217895   2.152   2.335   6.005
 5666SOL     OW17896   5.537   5.018   0.638
 5666SOL    HW117897   5.581   5.038   0.725
 5666SOL    HW217898   5.553   5.093   0.574
 5667SOL     OW17899   0.182   5.272   3.403
 5667SOL    HW117900   0.233   5.349   3.441
 5667SOL    HW217901   0.196   5.191   3.460
 5668SOL     OW17902   6.228   2.273   5.801
 5668SOL    HW117903   6.173   2.220   5.737
 5668SOL    HW217904   6.173   2.293   5.882
 5669SOL     OW17905   0.078   4.183   6.462
 5669SOL    HW117906   0.088   4.098   6.514
 5669SOL    HW217907   7.012   4.184   6.416
 5670SOL     OW17908   0.615   4.037   3.975
 5670SOL    HW117909   0.555   4.011   4.050
 5670SOL    HW217910   0.630   3.958   3.916
 5671SOL     OW17911   1.885   0.972   6.075
 5671SOL    HW117912   1.885   1.002   6.170
 5671SOL    HW217913   1.970   0.922   6.057
 5672SOL     OW17914   4.666   5.108   5.945
 5672SOL    HW117915   4.695   5.166   6.021
 5672SOL    HW217916   4.609   5.161   5.882
 5673SOL     OW17917   0.179   0.661   2.203
 5673SOL    HW117918   0.114   0.684   2.275
 5673SOL    HW217919   0.249   0.732   2.197
 5674SOL     OW17920   6.981   3.338   1.866
 5674SOL    HW117921   0.041   3.346   1.811
 5674SOL    HW217922   6.900   3.332   1.807
 5675SOL     OW17923   4.105   2.587   5.635
 5675SOL    HW117924   4.135   2.539   5.717
 5675SOL    HW217925   4.153   2.550   5.555
 5676SOL     OW17926   2.197   0.436   1.872
 5676SOL    HW117927   2.134   0.385   1.931
 5676SOL    HW217928   2.255   0.495   1.928
 5677SOL     OW17929   6.657   0.731   4.061
 5677SOL    HW117930   6.688   0.825   4.054
 5677SOL    HW217931   6.705   0.685   4.135
 5678SOL     OW17932   2.443   6.353   3.098
 5678SOL    HW117933   2.466   6.315   3.009
 5678SOL    HW217934   2.366   6.416   3.089
 5679SOL     OW17935   1.815   6.385   4.939
 5679SOL    HW117936   1.768   6.464   4.899
 5679SOL    HW217937   1.902   6.370   4.892
 5680SOL     OW17938   2.178   6.416   6.486
 5680SOL    HW117939   2.210   6.487   6.549
 5680SOL    HW217940   2.257   6.365   6.451
 5681SOL     OW17941   1.572   2.648   6.894
 5681SOL    HW117942   1.591   2.608   6.983
 5681SOL    HW217943   1.623   2.734   6.885
 5682SOL     OW17944   1.106   3.555   4.791
 5682SOL    HW117945   1.098   3.455   4.794
 5682SOL    HW217946   1.052   3.590   4.716
 5683SOL     OW17947   3.470   2.200   5.867
 5683SOL    HW117948   3.406   2.190   5.790
 5683SOL    HW217949   3.498   2.296   5.874
 5684SOL     OW17950   3.424   4.142   3.974
 5684SOL    HW117951   3.452   4.048   3.992
 5684SOL    HW217952   3.433   4.162   3.877
 5685SOL     OW17953   0.311   5.104   2.143
 5685SOL    HW117954   0.243   5.041   2.105
 5685SOL    HW217955   0.320   5.088   2.241
 5686SOL     OW17956   3.142   6.830   0.363
 5686SOL    HW117957   3.053   6.864   0.333
 5686SOL    HW217958   3.136   6.732   0.382
 5687SOL     OW17959   5.374   4.978   5.648
 5687SOL    HW117960   5.380   4.959   5.550
 5687SOL    HW217961   5.456   5.027   5.677
 5688SOL     OW17962   5.911   1.935   1.086
 5688SOL    HW117963   6.006   1.967   1.096
 5688SOL    HW217964   5.906   1.873   1.008
 5689SOL     OW17965   3.558   2.616   0.918
 5689SOL    HW117966   3.598   2.661   0.839
 5689SOL    HW217967   3.592   2.522   0.924
 5690SOL     OW17968   4.745   6.262   0.864
 5690SOL    HW117969   4.816   6.242   0.932
 5690SOL    HW217970   4.760   6.353   0.826
 5691SOL     OW17971   1.135   0.268   1.955
 5691SOL    HW117972   1.171   0.200   1.891
 5691SOL    HW217973   1.197   0.346   1.959
 5692SOL     OW17974   6.283   2.688   6.766
 5692SOL    HW117975   6.278   2.641   6.678
 5692SOL    HW217976   6.191   2.707   6.799
 5693SOL     OW17977   5.011   2.620   2.740
 5693SOL    HW117978   4.989   2.616   2.838
 5693SOL    HW217979   4.928   2.606   2.687
 5694SOL     OW17980   6.970   1.869   3.899
 5694SOL    HW117981   0.021   1.929   3.867
 5694SOL    HW217982   6.992   1.774   3.874
 5695SOL     OW17983   1.702   3.397   3.671
 5695SOL    HW117984   1.690   3.345   3.586
 5695SOL    HW217985   1.800   3.408   3.689
 5696SOL     OW17986   2.716   0.433   5.132
 5696SOL    HW117987   2.690   0.530   5.139
 5696SOL    HW217988   2.801   0.426   5.080
 5697SOL     OW17989   6.534   2.883   0.549
 5697SOL    HW117990   6.437   2.903   0.561
 5697SOL    HW217991   6.587   2.966   0.569
 5698SOL     OW17992   0.762   3.656   1.741
 5698SOL    HW117993   0.769   3.577   1.801
 5698SOL    HW217994   0.758   3.739   1.796
 5699SOL     OW17995   6.249   0.875   5.022
 5699SOL    HW117996   6.150   0.869   5.031
 5699SOL    HW217997   6.288   0.783   5.022
 5700SOL     OW17998   1.773   5.398   3.804
 5700SOL    HW117999   1.691   5.404   3.746
 5700SOL    HW218000   1.768   5.465   3.878
 5701SOL     OW18001   6.526   5.471   1.204
 5701SOL    HW118002   6.432   5.445   1.223
 5701SOL    HW218003   6.539   5.481   1.105
 5702SOL     OW18004   2.116   0.418   6.504
 5702SOL    HW118005   2.200   0.455   6.464
 5702SOL    HW218006   2.111   0.319   6.487
 5703SOL     OW18007   4.405   4.718   0.751
 5703SOL    HW118008   4.464   4.760   0.821
 5703SOL    HW218009   4.422   4.620   0.749
 5704SOL     OW18010   4.178   5.479   3.465
 5704SOL    HW118011   4.259   5.504   3.518
 5704SOL    HW218012   4.191   5.388   3.425
 5705SOL     OW18013   5.960   1.046   1.529
 5705SOL    HW118014   5.911   0.974   1.481
 5705SOL    HW218015   6.024   1.091   1.466
 5706SOL     OW18016   1.101   1.282   6.649
 5706SOL    HW118017   1.026   1.250   6.707
 5706SOL    HW218018   1.127   1.375   6.675
 5707SOL     OW18019   2.368   2.156   0.208
 5707SOL    HW118020   2.466   2.141   0.196
 5707SOL    HW218021   2.338   2.232   0.150
 5708SOL     OW18022   5.014   6.846   1.881
 5708SOL    HW118023   5.061   6.887   1.958
 5708SOL    HW218024   4.922   6.886   1.873
 5709SOL     OW18025   1.097   0.549   2.655
 5709SOL    HW118026   1.176   0.608   2.671
 5709SOL    HW218027   1.078   0.496   2.738
 5710SOL     OW18028   2.738   3.509   6.085
 5710SOL    HW118029   2.666   3.571   6.115
 5710SOL    HW218030   2.735   3.499   5.986
 5711SOL     OW18031   4.456   1.049   4.352
 5711SOL    HW118032   4.522   0.977   4.373
 5711SOL    HW218033   4.504   1.136   4.337
 5712SOL     OW18034   0.279   5.991   6.287
 5712SOL    HW118035   0.300   5.963   6.381
 5712SOL    HW218036   0.315   6.084   6.272
 5713SOL     OW18037   6.708   2.739   2.543
 5713SOL    HW118038   6.748   2.824   2.578
 5713SOL    HW218039   6.686   2.749   2.446
 5714SOL     OW18040   1.549   0.714   6.189
 5714SOL    HW118041   1.451   0.697   6.176
 5714SOL    HW218042   1.582   0.770   6.112
 5715SOL     OW18043   1.375   6.547   2.545
 5715SOL    HW118044   1.365   6.480   2.618
 5715SOL    HW218045   1.408   6.501   2.462
 5716SOL     OW18046   2.251   3.931   5.903
 5716SOL    HW118047   2.333   3.982   5.877
 5716SOL    HW218048   2.255   3.839   5.864
 5717SOL     OW18049   1.688   4.136   0.366
 5717SOL    HW118050   1.634   4.098   0.441
 5717SOL    HW218051   1.673   4.083   0.283
 5718SOL     OW18052   3.078   4.398   6.422
 5718SOL    HW118053   3.084   4.481   6.477
 5718SOL    HW218054   3.170   4.370   6.393
 5719SOL     OW18055   3.442   0.857   6.539
 5719SOL    HW118056   3.428   0.859   6.638
 5719SOL    HW218057   3.458   0.763   6.510
 5720SOL     OW18058   1.350   4.861   5.167
 5720SOL    HW118059   1.402   4.880   5.250
 5720SOL    HW218060   1.413   4.847   5.090
 5721SOL     OW18061   0.702   4.271   1.389
 5721SOL    HW118062   0.688   4.192   1.449
 5721SOL    HW218063   0.728   4.238   1.298
 5722SOL     OW18064   5.407   6.715   4.302
 5722SOL    HW118065   5.426   6.619   4.323
 5722SOL    HW218066   5.385   6.763   4.387
 5723SOL     OW18067   2.975   5.275   0.705
 5723SOL    HW118068   2.913   5.196   0.709
 5723SOL    HW218069   3.038   5.271   0.782
 5724SOL     OW18070   5.282   1.374   6.703
 5724SOL    HW118071   5.321   1.441   6.766
 5724SOL    HW218072   5.184   1.364   6.722
 5725SOL     OW18073   5.410   5.538   6.066
 5725SOL    HW118074   5.444   5.506   6.155
 5725SOL    HW218075   5.441   5.476   5.994
 5726SOL     OW18076   5.451   3.563   6.105
 5726SOL    HW118077   5.549   3.580   6.115
 5726SOL    HW218078   5.437   3.484   6.045
 5727SOL     OW18079   5.987   2.088   3.574
 5727SOL    HW118080   6.054   2.095   3.648
 5727SOL    HW218081   5.898   2.061   3.611
 5728SOL     OW18082   6.182   0.694   5.705
 5728SOL    HW118083   6.222   0.605   5.723
 5728SOL    HW218084   6.100   0.683   5.649
 5729SOL     OW18085   0.719   2.120   6.525
 5729SOL    HW118086   0.778   2.199   6.506
 5729SOL    HW218087   0.656   2.106   6.449
 5730SOL     OW18088   4.461   4.917   5.960
 5730SOL    HW118089   4.448   4.884   5.866
 5730SOL    HW218090   4.520   4.998   5.958
 5731SOL     OW18091   3.008   0.993   4.140
 5731SOL    HW118092   2.930   0.994   4.077
 5731SOL    HW218093   3.086   0.948   4.097
 5732SOL     OW18094   5.851   5.242   5.025
 5732SOL    HW118095   5.928   5.203   4.975
 5732SOL    HW218096   5.767   5.231   4.972
 5733SOL     OW18097   3.407   1.239   0.016
 5733SOL    HW118098   3.505   1.216   0.019
 5733SOL    HW218099   3.369   1.230   0.108
 5734SOL     OW18100   1.975   6.326   5.773
 5734SOL    HW118101   1.986   6.416   5.816
 5734SOL    HW218102   2.061   6.276   5.777
 5735SOL     OW18103   3.814   0.559   2.539
 5735SOL    HW118104   3.893   0.618   2.554
 5735SOL    HW218105   3.802   0.498   2.618
 5736SOL     OW18106   4.601   4.217   6.526
 5736SOL    HW118107   4.667   4.291   6.538
 5736SOL    HW218108   4.525   4.248   6.468
 5737SOL     OW18109   4.613   5.279   1.020
 5737SOL    HW118110   4.601   5.365   1.071
 5737SOL    HW218111   4.546   5.212   1.052
 5738SOL     OW18112   3.170   1.212   6.300
 5738SOL    HW118113   3.223   1.291   6.271
 5738SOL    HW218114   3.078   1.217   6.261
 5739SOL     OW18115   2.197   0.170   5.682
 5739SOL    HW118116   2.243   0.164   5.770
 5739SOL    HW218117   2.098   0.173   5.696
 5740SOL     OW18118   5.475   3.775   2.217
 5740SOL    HW118119   5.437   3.715   2.288
 5740SOL    HW218120   5.485   3.723   2.132
 5741SOL     OW18121   0.311   3.773   4.172
 5741SOL    HW118122   0.366   3.697   4.207
 5741SOL    HW218123   0.242   3.798   4.240
 5742SOL     OW18124   4.826   0.630   3.300
 5742SOL    HW118125   4.896   0.701   3.311
 5742SOL    HW218126   4.738   0.674   3.284
 5743SOL     OW18127   3.623   4.089   5.486
 5743SOL    HW118128   3.722   4.101   5.482
 5743SOL    HW218129   3.593   4.033   5.409
 5744SOL     OW18130   5.773   6.645   2.374
 5744SOL    HW118131   5.701   6.715   2.377
 5744SOL    HW218132   5.758   6.579   2.448
 5745SOL     OW18133   1.972   2.512   3.288
 5745SOL    HW118134   1.879   2.479   3.271
 5745SOL    HW218135   2.037   2.461   3.231
 5746SOL     OW18136   4.421   0.531   3.268
 5746SOL    HW118137   4.403   0.625   3.296
 5746SOL    HW218138   4.423   0.472   3.349
 5747SOL     OW18139   0.921   6.447   1.522
 5747SOL    HW118140   0.884   6.371   1.468
 5747SOL    HW218141   0.899   6.433   1.619
 5748SOL     OW18142   0.464   5.940   0.465
 5748SOL    HW118143   0.418   6.019   0.505
 5748SOL    HW218144   0.561   5.961   0.451
 5749SOL     OW18145   1.967   6.159   5.201
 5749SOL    HW118146   2.022   6.151   5.118
 5749SOL    HW218147   2.016   6.115   5.277
 5750SOL     OW18148   6.613   4.522   4.183
 5750SOL    HW118149   6.566   4.610   4.195
 5750SOL    HW218150   6.707   4.539   4.153
 5751SOL     OW18151   2.186   3.655   4.060
 5751SOL    HW118152   2.162   3.651   3.963
 5751SOL    HW218153   2.169   3.566   4.101
 5752SOL     OW18154   5.309   0.652   1.150
 5752SOL    HW118155   5.379   0.619   1.214
 5752SOL    HW218156   5.268   0.736   1.184
 5753SOL     OW18157   3.216   4.086   4.516
 5753SOL    HW118158   3.119   4.066   4.515
 5753SOL    HW218159   3.240   4.132   4.602
 5754SOL     OW18160   0.942   6.015   1.491
 5754SOL    HW118161   0.977   5.960   1.415
 5754SOL    HW218162   0.877   5.961   1.544
 5755SOL     OW18163   1.978   2.325   0.080
 5755SOL    HW118164   2.041   2.343   0.004
 5755SOL    HW218165   1.935   2.410   0.108
 5756SOL     OW18166   5.817   5.869   1.574
 5756SOL    HW118167   5.798   5.870   1.672
 5756SOL    HW218168   5.736   5.840   1.524
 5757SOL     OW18169   6.855   0.295   3.617
 5757SOL    HW118170   6.772   0.332   3.574
 5757SOL    HW218171   6.931   0.359   3.601
 5758SOL     OW18172   0.879   0.002   3.035
 5758SOL    HW118173   0.780   0.009   3.040
 5758SOL    HW218174   0.906   6.963   2.961
 5759SOL     OW18175   3.797   6.619   1.160
 5759SOL    HW118176   3.872   6.629   1.095
 5759SOL    HW218177   3.738   6.700   1.156
 5760SOL     OW18178   0.365   3.092   1.510
 5760SOL    HW118179   0.448   3.131   1.548
 5760SOL    HW218180   0.286   3.123   1.563
 5761SOL     OW18181   5.432   5.359   5.243
 5761SOL    HW118182   5.463   5.301   5.168
 5761SOL    HW218183   5.472   5.450   5.234
 5762SOL     OW18184   5.313   4.562   7.011
 5762SOL    HW118185   5.383   4.557   6.939
 5762SOL    HW218186   5.358   4.576   0.077
 5763SOL     OW18187   5.406   0.196   0.333
 5763SOL    HW118188   5.348   0.277   0.342
 5763SOL    HW218189   5.496   0.214   0.374
 5764SOL     OW18190   4.205   5.851   3.564
 5764SOL    HW118191   4.147   5.931   3.582
 5764SOL    HW218192   4.148   5.773   3.541
 5765SOL     OW18193   5.846   4.812   1.537
 5765SOL    HW118194   5.871   4.865   1.455
 5765SOL    HW218195   5.749   4.788   1.532
 5766SOL     OW18196   0.490   1.665   4.126
 5766SOL    HW118197   0.476   1.761   4.099
 5766SOL    HW218198   0.476   1.656   4.224
 5767SOL     OW18199   2.188   0.178   0.851
 5767SOL    HW118200   2.257   0.109   0.871
 5767SOL    HW218201   2.197   0.254   0.915
 5768SOL     OW18202   6.749   6.172   4.566
 5768SOL    HW118203   6.795   6.204   4.649
 5768SOL    HW218204   6.708   6.250   4.518
 5769SOL     OW18205   1.275   4.984   6.377
 5769SOL    HW118206   1.219   4.902   6.371
 5769SOL    HW218207   1.285   5.024   6.286
 5770SOL     OW18208   1.678   5.672   1.190
 5770SOL    HW118209   1.697   5.717   1.278
 5770SOL    HW218210   1.616   5.730   1.136
 5771SOL     OW18211   2.431   5.161   3.928
 5771SOL    HW118212   2.471   5.087   3.875
 5771SOL    HW218213   2.480   5.171   4.014
 5772SOL     OW18214   4.092   0.482   2.249
 5772SOL    HW118215   4.103   0.456   2.345
 5772SOL    HW218216   3.995   0.487   2.227
 5773SOL     OW18217   4.480   2.221   2.291
 5773SOL    HW118218   4.496   2.123   2.303
 5773SOL    HW218219   4.404   2.235   2.228
 5774SOL     OW18220   0.384   6.404   3.433
 5774SOL    HW118221   0.430   6.346   3.365
 5774SOL    HW218222   0.393   6.363   3.523
 5775SOL     OW18223   0.611   5.492   2.651
 5775SOL    HW118224   0.598   5.487   2.750
 5775SOL    HW218225   0.695   5.444   2.627
 5776SOL     OW18226   2.003   0.346   3.172
 5776SOL    HW118227   1.987   0.275   3.104
 5776SOL    HW218228   1.916   0.374   3.212
 5777SOL     OW18229   1.834   7.011   3.387
 5777SOL    HW118230   1.885   0.003   3.472
 5777SOL    HW218231   1.752   6.957   3.406
 5778SOL     OW18232   0.808   1.561   6.734
 5778SOL    HW118233   0.842   1.494   6.801
 5778SOL    HW218234   0.808   1.520   6.643
 5779SOL     OW18235   5.312   2.071   6.139
 5779SOL    HW118236   5.312   1.988   6.195
 5779SOL    HW218237   5.380   2.062   6.066
 5780SOL     OW18238   4.918   4.944   3.516
 5780SOL    HW118239   4.957   4.953   3.608
 5780SOL    HW218240   4.987   4.905   3.455
 5781SOL     OW18241   0.623   3.783   5.079
 5781SOL    HW118242   0.686   3.773   5.002
 5781SOL    HW218243   0.614   3.696   5.126
 5782SOL     OW18244   0.534   1.155   0.742
 5782SOL    HW118245   0.585   1.104   0.811
 5782SOL    HW218246   0.566   1.250   0.741
 5783SOL     OW18247   2.319   2.293   2.426
 5783SOL    HW118248   2.342   2.221   2.360
 5783SOL    HW218249   2.253   2.356   2.384
 5784SOL     OW18250   0.727   6.376   6.702
 5784SOL    HW118251   0.676   6.329   6.629
 5784SOL    HW218252   0.663   6.405   6.773
 5785SOL     OW18253   2.146   1.426   1.216
 5785SOL    HW118254   2.046   1.420   1.222
 5785SOL    HW218255   2.184   1.333   1.220
 5786SOL     OW18256   0.291   3.807   0.590
 5786SOL    HW118257   0.205   3.769   0.556
 5786SOL    HW218258   0.276   3.850   0.679
 5787SOL     OW18259   2.434   1.565   5.615
 5787SOL    HW118260   2.390   1.566   5.525
 5787SOL    HW218261   2.396   1.637   5.672
 5788SOL     OW18262   2.571   0.734   2.913
 5788SOL    HW118263   2.640   0.668   2.883
 5788SOL    HW218264   2.490   0.727   2.854
 5789SOL     OW18265   4.071   5.084   6.389
 5789SOL    HW118266   4.100   5.044   6.302
 5789SOL    HW218267   4.124   5.043   6.463
 5790SOL     OW18268   0.498   3.190   4.072
 5790SOL    HW118269   0.584   3.186   4.022
 5790SOL    HW218270   0.513   3.159   4.166
 5791SOL     OW18271   2.607   0.361   2.954
 5791SOL    HW118272   2.660   0.377   3.037
 5791SOL    HW218273   2.526   0.420   2.954
 5792SOL     OW18274   6.857   1.798   3.220
 5792SOL    HW118275   6.801   1.715   3.222
 5792SOL    HW218276   6.805   1.873   3.262
 5793SOL     OW18277   6.332   1.052   3.819
 5793SOL    HW118278   6.313   1.017   3.911
 5793SOL    HW218279   6.321   1.151   3.818
 5794SOL     OW18280   3.896   3.178   0.163
 5794SOL    HW118281   3.980   3.230   0.178
 5794SOL    HW218282   3.904   3.126   0.079
 5795SOL     OW18283   5.606   4.648   5.844
 5795SOL    HW118284   5.510   4.672   5.827
 5795SOL    HW218285   5.664   4.701   5.782
 5796SOL     OW18286   3.203   1.504   0.156
 5796SOL    HW118287   3.136   1.446   0.202
 5796SOL    HW218288   3.157   1.581   0.112
 5797SOL     OW18289   3.400   2.115   4.525
 5797SOL    HW118290   3.382   2.140   4.620
 5797SOL    HW218291   3.499   2.107   4.511
 5798SOL     OW18292   0.373   4.719   4.948
 5798SOL    HW118293   0.283   4.695   4.914
 5798SOL    HW218294   0.412   4.793   4.893
 5799SOL     OW18295   5.217   6.895   3.045
 5799SOL    HW118296   5.155   6.971   3.067
 5799SOL    HW218297   5.264   6.914   2.959
 5800SOL     OW18298   5.495   4.633   1.248
 5800SOL    HW118299   5.401   4.610   1.275
 5800SOL    HW218300   5.512   4.599   1.156
 5801SOL     OW18301   0.301   1.257   3.543
 5801SOL    HW118302   0.395   1.239   3.512
 5801SOL    HW218303   0.245   1.284   3.466
 5802SOL     OW18304   0.414   3.962   6.382
 5802SOL    HW118305   0.338   3.954   6.447
 5802SOL    HW218306   0.388   4.025   6.309
 5803SOL     OW18307   1.188   4.418   0.950
 5803SOL    HW118308   1.144   4.506   0.930
 5803SOL    HW218309   1.227   4.381   0.866
 5804SOL     OW18310   6.367   3.928   4.520
 5804SOL    HW118311   6.284   3.940   4.467
 5804SOL    HW218312   6.358   3.848   4.579
 5805SOL     OW18313   4.178   3.829   6.099
 5805SOL    HW118314   4.185   3.748   6.041
 5805SOL    HW218315   4.082   3.856   6.108
 5806SOL     OW18316   0.867   6.935   0.306
 5806SOL    HW118317   0.850   6.836   0.311
 5806SOL    HW218318   0.780   6.984   0.308
 5807SOL     OW18319   1.906   3.824   0.626
 5807SOL    HW118320   1.974   3.896   0.643
 5807SOL    HW218321   1.915   3.753   0.696
 5808SOL     OW18322   5.625   3.919   2.390
 5808SOL    HW118323   5.611   3.854   2.315
 5808SOL    HW218324   5.538   3.938   2.435
 5809SOL     OW18325   6.789   3.029   4.868
 5809SOL    HW118326   6.689   3.032   4.861
 5809SOL    HW218327   6.817   3.053   4.961
 5810SOL     OW18328   3.371   1.399   3.565
 5810SOL    HW118329   3.287   1.424   3.518
 5810SOL    HW218330   3.384   1.300   3.563
 5811SOL     OW18331   2.733   0.197   4.858
 5811SOL    HW118332   2.744   0.097   4.855
 5811SOL    HW218333   2.805   0.240   4.804
 5812SOL     OW18334   4.659   0.278   3.328
 5812SOL    HW118335   4.562   0.277   3.351
 5812SOL    HW218336   4.698   0.367   3.352
 5813SOL     OW18337   1.211   1.244   5.880
 5813SOL    HW118338   1.132   1.210   5.829
 5813SOL    HW218339   1.250   1.322   5.831
 5814SOL     OW18340   0.293   4.489   0.613
 5814SOL    HW118341   0.386   4.461   0.588
 5814SOL    HW218342   0.291   4.516   0.709
 5815SOL     OW18343   3.975   2.204   2.848
 5815SOL    HW118344   3.971   2.140   2.925
 5815SOL    HW218345   3.912   2.173   2.776
 5816SOL     OW18346   5.052   0.240   0.138
 5816SOL    HW118347   5.127   0.306   0.140
 5816SOL    HW218348   5.087   0.149   0.161
 5817SOL     OW18349   5.641   3.117   6.051
 5817SOL    HW118350   5.601   3.189   6.107
 5817SOL    HW218351   5.700   3.158   5.982
 5818SOL     OW18352   5.964   6.736   5.621
 5818SOL    HW118353   6.007   6.774   5.539
 5818SOL    HW218354   5.957   6.637   5.613
 5819SOL     OW18355   5.166   0.437   1.004
 5819SOL    HW118356   5.066   0.439   1.002
 5819SOL    HW218357   5.201   0.524   1.041
 5820SOL     OW18358   4.976   7.000   3.208
 5820SOL    HW118359   4.959   0.073   3.231
 5820SOL    HW218360   4.907   6.942   3.251
 5821SOL     OW18361   2.792   0.290   2.137
 5821SOL    HW118362   2.763   0.376   2.096
 5821SOL    HW218363   2.716   0.225   2.135
 5822SOL     OW18364   0.491   2.491   1.699
 5822SOL    HW118365   0.490   2.395   1.726
 5822SOL    HW218366   0.432   2.504   1.619
 5823SOL     OW18367   1.560   1.263   4.912
 5823SOL    HW118368   1.477   1.276   4.965
 5823SOL    HW218369   1.584   1.349   4.866
 5824SOL     OW18370   6.474   6.747   3.328
 5824SOL    HW118371   6.478   6.683   3.405
 5824SOL    HW218372   6.520   6.706   3.249
 5825SOL     OW18373   2.453   1.485   6.440
 5825SOL    HW118374   2.456   1.425   6.360
 5825SOL    HW218375   2.518   1.560   6.428
 5826SOL     OW18376   5.965   6.195   5.340
 5826SOL    HW118377   5.911   6.238   5.267
 5826SOL    HW218378   5.978   6.261   5.414
 5827SOL     OW18379   0.740   5.425   4.827
 5827SOL    HW118380   0.662   5.436   4.766
 5827SOL    HW218381   0.792   5.511   4.830
 5828SOL     OW18382   0.551   3.923   2.100
 5828SOL    HW118383   0.604   3.845   2.133
 5828SOL    HW218384   0.464   3.928   2.150
 5829SOL     OW18385   2.991   1.113   2.286
 5829SOL    HW118386   2.912   1.123   2.226
 5829SOL    HW218387   2.994   1.190   2.351
 5830SOL     OW18388   3.657   1.179   5.747
 5830SOL    HW118389   3.573   1.230   5.766
 5830SOL    HW218390   3.735   1.241   5.752
 5831SOL     OW18391   5.821   6.140   2.606
 5831SOL    HW118392   5.870   6.120   2.691
 5831SOL    HW218393   5.785   6.233   2.610
 5832SOL     OW18394   4.182   4.125   5.289
 5832SOL    HW118395   4.140   4.036   5.273
 5832SOL    HW218396   4.271   4.113   5.333
 5833SOL     OW18397   2.843   3.563   3.994
 5833SOL    HW118398   2.888   3.652   3.994
 5833SOL    HW218399   2.811   3.542   3.902
 5834SOL     OW18400   6.106   1.412   0.394
 5834SOL    HW118401   6.198   1.386   0.365
 5834SOL    HW218402   6.112   1.486   0.461
 5835SOL     OW18403   5.001   2.167   3.540
 5835SOL    HW118404   5.086   2.172   3.592
 5835SOL    HW218405   4.952   2.254   3.548
 5836SOL     OW18406   2.988   6.283   2.703
 5836SOL    HW118407   2.982   6.358   2.769
 5836SOL    HW218408   3.006   6.197   2.751
 5837SOL     OW18409   4.775   4.331   0.219
 5837SOL    HW118410   4.819   4.300   0.135
 5837SOL    HW218411   4.731   4.253   0.263
 5838SOL     OW18412   1.690   1.659   6.184
 5838SOL    HW118413   1.614   1.673   6.246
 5838SOL    HW218414   1.742   1.578   6.211
 5839SOL     OW18415   6.681   3.121   2.385
 5839SOL    HW118416   6.723   3.124   2.294
 5839SOL    HW218417   6.652   3.213   2.412
 5840SOL     OW18418   1.368   5.774   6.403
 5840SOL    HW118419   1.398   5.690   6.357
 5840SOL    HW218420   1.279   5.801   6.367
 5841SOL     OW18421   6.045   3.569   3.204
 5841SOL    HW118422   6.117   3.628   3.240
 5841SOL    HW218423   6.085   3.495   3.150
 5842SOL     OW18424   3.939   2.830   0.774
 5842SOL    HW118425   3.990   2.795   0.852
 5842SOL    HW218426   3.990   2.904   0.731
 5843SOL     OW18427   1.720   3.616   2.585
 5843SOL    HW118428   1.769   3.697   2.618
 5843SOL    HW218429   1.704   3.554   2.662
 5844SOL     OW18430   0.211   5.562   6.447
 5844SOL    HW118431   0.214   5.464   6.469
 5844SOL    HW218432   0.180   5.613   6.527
 5845SOL     OW18433   0.991   2.505   3.508
 5845SOL    HW118434   0.918   2.439   3.492
 5845SOL    HW218435   1.010   2.555   3.424
 5846SOL     OW18436   6.818   2.638   5.194
 5846SOL    HW118437   6.846   2.679   5.281
 5846SOL    HW218438   6.804   2.540   5.207
 5847SOL     OW18439   2.199   2.456   2.799
 5847SOL    HW118440   2.118   2.438   2.743
 5847SOL    HW218441   2.277   2.406   2.762
 5848SOL     OW18442   2.294   4.895   3.669
 5848SOL    HW118443   2.304   4.805   3.627
 5848SOL    HW218444   2.335   4.964   3.610
 5849SOL     OW18445   1.070   0.407   5.808
 5849SOL    HW118446   1.129   0.477   5.768
 5849SOL    HW218447   1.083   0.320   5.760
 5850SOL     OW18448   1.453   3.939   2.224
 5850SOL    HW118449   1.484   3.916   2.317
 5850SOL    HW218450   1.366   3.988   2.229
 5851SOL     OW18451   6.000   4.035   2.684
 5851SOL    HW118452   5.903   4.014   2.697
 5851SOL    HW218453   6.010   4.100   2.609
 5852SOL     OW18454   3.961   6.344   2.804
 5852SOL    HW118455   3.990   6.249   2.817
 5852SOL    HW218456   3.863   6.347   2.787
 5853SOL     OW18457   3.063   5.172   6.385
 5853SOL    HW118458   3.099   5.206   6.298
 5853SOL    HW218459   3.125   5.103   6.422
 5854SOL     OW18460   6.960   2.136   5.522
 5854SOL    HW118461   6.941   2.205   5.452
 5854SOL    HW218462   6.995   2.053   5.478
 5855SOL     OW18463   1.323   1.145   4.374
 5855SOL    HW118464   1.255   1.189   4.433
 5855SOL    HW218465   1.408   1.132   4.425
 5856SOL     OW18466   2.574   5.044   3.179
 5856SOL    HW118467   2.501   4.983   3.209
 5856SOL    HW218468   2.534   5.125   3.136
 5857SOL     OW18469   6.364   2.473   5.005
 5857SOL    HW118470   6.293   2.431   4.949
 5857SOL    HW218471   6.361   2.435   5.097
 5858SOL     OW18472   3.266   1.239   2.357
 5858SOL    HW118473   3.264   1.335   2.329
 5858SOL    HW218474   3.195   1.223   2.426
 5859SOL     OW18475   6.648   6.309   0.617
 5859SOL    HW118476   6.570   6.291   0.677
 5859SOL    HW218477   6.643   6.251   0.536
 5860SOL     OW18478   1.659   4.670   1.910
 5860SOL    HW118479   1.742   4.644   1.860
 5860SOL    HW218480   1.598   4.591   1.915
 5861SOL     OW18481   5.471   2.148   3.926
 5861SOL    HW118482   5.528   2.132   4.006
 5861SOL    HW218483   5.446   2.060   3.885
 5862SOL     OW18484   3.891   5.064   3.139
 5862SOL    HW118485   3.971   5.064   3.199
 5862SOL    HW218486   3.819   5.008   3.180
 5863SOL     OW18487   2.041   0.714   6.260
 5863SOL    HW118488   2.056   0.746   6.354
 5863SOL    HW218489   1.953   0.668   6.254
 5864SOL     OW18490   4.044   4.229   1.579
 5864SOL    HW118491   4.120   4.264   1.524
 5864SOL    HW218492   4.080   4.184   1.661
 5865SOL     OW18493   5.290   0.728   3.523
 5865SOL    HW118494   5.216   0.691   3.467
 5865SOL    HW218495   5.364   0.661   3.528
 5866SOL     OW18496   4.529   6.817   5.598
 5866SOL    HW118497   4.531   6.723   5.566
 5866SOL    HW218498   4.558   6.878   5.524
 5867SOL     OW18499   0.121   2.902   1.300
 5867SOL    HW118500   0.188   2.972   1.324
 5867SOL    HW218501   0.104   2.844   1.380
 5868SOL     OW18502   0.795   0.173   5.312
 5868SOL    HW118503   0.838   0.245   5.366
 5868SOL    HW218504   0.865   0.112   5.275
 5869SOL     OW18505   2.683   4.628   4.503
 5869SOL    HW118506   2.750   4.649   4.574
 5869SOL    HW218507   2.699   4.687   4.424
 5870SOL     OW18508   5.595   5.503   4.588
 5870SOL    HW118509   5.526   5.451   4.639
 5870SOL    HW218510   5.585   5.484   4.490
 5871SOL     OW18511   3.639   3.301   0.138
 5871SOL    HW118512   3.734   3.270   0.134
 5871SOL    HW218513   3.580   3.225   0.165
 5872SOL     OW18514   4.401   5.902   6.444
 5872SOL    HW118515   4.308   5.869   6.459
 5872SOL    HW218516   4.410   5.995   6.478
 5873SOL     OW18517   2.527   2.917   0.339
 5873SOL    HW118518   2.565   2.847   0.278
 5873SOL    HW218519   2.540   2.889   0.434
 5874SOL     OW18520   2.461   3.467   1.573
 5874SOL    HW118521   2.373   3.442   1.533
 5874SOL    HW218522   2.446   3.509   1.663
 5875SOL     OW18523   3.466   1.842   0.154
 5875SOL    HW118524   3.371   1.851   0.184
 5875SOL    HW218525   3.516   1.927   0.173
 5876SOL     OW18526   3.346   3.440   6.675
 5876SOL    HW118527   3.295   3.446   6.589
 5876SOL    HW218528   3.301   3.375   6.735
 5877SOL     OW18529   6.294   0.504   1.390
 5877SOL    HW118530   6.359   0.501   1.466
 5877SOL    HW218531   6.243   0.590   1.393
 5878SOL     OW18532   4.520   5.497   2.123
 5878SOL    HW118533   4.578   5.566   2.081
 5878SOL    HW218534   4.424   5.524   2.115
 5879SOL     OW18535   3.585   3.030   6.517
 5879SOL    HW118536   3.583   3.126   6.489
 5879SOL    HW218537   3.614   3.023   6.612
 5880SOL     OW18538   5.286   3.154   5.582
 5880SOL    HW118539   5.229   3.232   5.555
 5880SOL    HW218540   5.339   3.122   5.503
 5881SOL     OW18541   0.869   6.535   2.558
 5881SOL    HW118542   0.815   6.485   2.625
 5881SOL    HW218543   0.833   6.518   2.467
 5882SOL     OW18544   1.122   6.395   5.808
 5882SOL    HW118545   1.165   6.441   5.730
 5882SOL    HW218546   1.037   6.351   5.778
 5883SOL     OW18547   0.044   3.756   0.792
 5883SOL    HW118548   0.012   3.684   0.730
 5883SOL    HW218549   0.001   3.843   0.766
 5884SOL     OW18550   5.754   1.728   3.794
 5884SOL    HW118551   5.682   1.792   3.820
 5884SOL    HW218552   5.831   1.736   3.858
 5885SOL     OW18553   0.314   5.487   0.282
 5885SOL    HW118554   0.311   5.397   0.325
 5885SOL    HW218555   0.296   5.557   0.351
 5886SOL     OW18556   1.367   3.621   3.062
 5886SOL    HW118557   1.325   3.704   3.097
 5886SOL    HW218558   1.461   3.641   3.035
 5887SOL     OW18559   2.085   2.080   1.313
 5887SOL    HW118560   2.003   2.097   1.258
 5887SOL    HW218561   2.098   2.156   1.378
 5888SOL     OW18562   2.483   6.646   1.850
 5888SOL    HW118563   2.575   6.607   1.853
 5888SOL    HW218564   2.467   6.688   1.760
 5889SOL     OW18565   0.137   0.670   1.185
 5889SOL    HW118566   0.082   0.589   1.163
 5889SOL    HW218567   0.105   0.710   1.270
 5890SOL     OW18568   2.629   6.410   2.153
 5890SOL    HW118569   2.596   6.474   2.223
 5890SOL    HW218570   2.710   6.363   2.187
 5891SOL     OW18571   2.889   3.241   1.159
 5891SOL    HW118572   2.972   3.221   1.212
 5891SOL    HW218573   2.832   3.305   1.210
 5892SOL     OW18574   0.714   3.434   0.811
 5892SOL    HW118575   0.642   3.371   0.843
 5892SOL    HW218576   0.683   3.480   0.728
 5893SOL     OW18577   0.711   5.681   2.091
 5893SOL    HW118578   0.741   5.776   2.080
 5893SOL    HW218579   0.611   5.678   2.094
 5894SOL     OW18580   1.268   5.691   5.757
 5894SOL    HW118581   1.295   5.765   5.695
 5894SOL    HW218582   1.251   5.608   5.705
 5895SOL     OW18583   5.707   3.210   4.587
 5895SOL    HW118584   5.735   3.223   4.492
 5895SOL    HW218585   5.787   3.199   4.645
 5896SOL     OW18586   5.960   2.099   1.451
 5896SOL    HW118587   5.893   2.081   1.523
 5896SOL    HW218588   5.999   2.190   1.463
 5897SOL     OW18589   4.554   1.651   0.916
 5897SOL    HW118590   4.642   1.697   0.901
 5897SOL    HW218591   4.480   1.714   0.892
 5898SOL     OW18592   1.891   1.538   5.813
 5898SOL    HW118593   1.905   1.449   5.856
 5898SOL    HW218594   1.953   1.548   5.735
 5899SOL     OW18595   6.922   5.460   6.328
 5899SOL    HW118596   6.896   5.553   6.302
 5899SOL    HW218597   6.875   5.395   6.269
 5900SOL     OW18598   6.760   5.990   3.000
 5900SOL    HW118599   6.702   5.910   2.986
 5900SOL    HW218600   6.703   6.072   3.010
 5901SOL     OW18601   1.765   0.170   6.477
 5901SOL    HW118602   1.770   0.180   6.576
 5901SOL    HW218603   1.672   0.148   6.449
 5902SOL     OW18604   5.985   4.798   4.756
 5902SOL    HW118605   6.016   4.853   4.833
 5902SOL    HW218606   5.975   4.703   4.785
 5903SOL     OW18607   6.349   2.398   6.508
 5903SOL    HW118608   6.365   2.300   6.494
 5903SOL    HW218609   6.330   2.442   6.420
 5904SOL     OW18610   2.076   4.647   3.025
 5904SOL    HW118611   2.174   4.647   3.040
 5904SOL    HW218612   2.056   4.614   2.932
 5905SOL     OW18613   5.677   0.888   4.286
 5905SOL    HW118614   5.760   0.837   4.261
 5905SOL    HW218615   5.681   0.979   4.246
 5906SOL     OW18616   5.020   1.013   5.435
 5906SOL    HW118617   4.941   0.988   5.378
 5906SOL    HW218618   4.994   1.009   5.532
 5907SOL     OW18619   1.888   1.672   6.894
 5907SOL    HW118620   1.811   1.676   6.830
 5907SOL    HW218621   1.855   1.642   6.984
 5908SOL     OW18622   4.513   3.470   6.034
 5908SOL    HW118623   4.451   3.548   6.040
 5908SOL    HW218624   4.607   3.503   6.034
 5909SOL     OW18625   0.037   4.484   5.212
 5909SOL    HW118626   0.039   4.525   5.121
 5909SOL    HW218627   0.012   4.387   5.205
 5910SOL     OW18628   2.028   3.762   1.441
 5910SOL    HW118629   2.017   3.679   1.388
 5910SOL    HW218630   2.121   3.798   1.430
 5911SOL     OW18631   6.070   5.122   6.106
 5911SOL    HW118632   6.140   5.184   6.140
 5911SOL    HW218633   6.059   5.134   6.007
 5912SOL     OW18634   6.278   3.735   6.972
 5912SOL    HW118635   6.269   3.834   6.978
 5912SOL    HW218636   6.375   3.710   6.974
 5913SOL     OW18637   2.024   1.948   5.766
 5913SOL    HW118638   2.058   1.967   5.674
 5913SOL    HW218639   2.062   1.862   5.799
 5914SOL     OW18640   2.408   5.391   0.587
 5914SOL    HW118641   2.363   5.431   0.507
 5914SOL    HW218642   2.505   5.412   0.585
 5915SOL     OW18643   4.815   2.940   2.466
 5915SOL    HW118644   4.794   2.884   2.547
 5915SOL    HW218645   4.765   2.905   2.387
 5916SOL     OW18646   4.145   0.029   5.631
 5916SOL    HW118647   4.053   0.020   5.591
 5916SOL    HW218648   4.213   7.018   5.566
 5917SOL     OW18649   3.590   3.323   3.051
 5917SOL    HW118650   3.538   3.397   3.094
 5917SOL    HW218651   3.687   3.343   3.055
 5918SOL     OW18652   1.820   3.671   3.998
 5918SOL    HW118653   1.847   3.663   4.094
 5918SOL    HW218654   1.888   3.626   3.940
 5919SOL     OW18655   2.323   2.384   0.076
 5919SOL    HW118656   2.252   2.374   0.005
 5919SOL    HW218657   2.396   2.442   0.041
 5920SOL     OW18658   3.712   0.499   6.636
 5920SOL    HW118659   3.707   0.478   6.734
 5920SOL    HW218660   3.804   0.479   6.603
 5921SOL     OW18661   3.956   4.950   5.572
 5921SOL    HW118662   4.014   4.995   5.505
 5921SOL    HW218663   4.007   4.935   5.656
 5922SOL     OW18664   6.463   4.777   3.101
 5922SOL    HW118665   6.395   4.844   3.073
 5922SOL    HW218666   6.420   4.688   3.110
 5923SOL     OW18667   6.684   0.096   3.194
 5923SOL    HW118668   6.763   0.107   3.134
 5923SOL    HW218669   6.616   0.167   3.174
 5924SOL     OW18670   5.127   2.072   4.574
 5924SOL    HW118671   5.031   2.094   4.587
 5924SOL    HW218672   5.183   2.152   4.596
 5925SOL     OW18673   5.331   5.665   1.235
 5925SOL    HW118674   5.278   5.699   1.313
 5925SOL    HW218675   5.304   5.714   1.153
 5926SOL     OW18676   3.618   4.848   1.338
 5926SOL    HW118677   3.553   4.805   1.400
 5926SOL    HW218678   3.651   4.934   1.377
 5927SOL     OW18679   2.847   5.616   1.730
 5927SOL    HW118680   2.832   5.669   1.645
 5927SOL    HW218681   2.931   5.648   1.774
 5928SOL     OW18682   1.204   6.875   2.920
 5928SOL    HW118683   1.201   6.973   2.940
 5928SOL    HW218684   1.114   6.845   2.888
 5929SOL     OW18685   1.256   6.787   6.062
 5929SOL    HW118686   1.339   6.840   6.049
 5929SOL    HW218687   1.271   6.693   6.035
 5930SOL     OW18688   6.117   1.186   4.736
 5930SOL    HW118689   6.196   1.126   4.751
 5930SOL    HW218690   6.034   1.142   4.771
 5931SOL     OW18691   6.040   5.710   1.271
 5931SOL    HW118692   5.960   5.698   1.212
 5931SOL    HW218693   6.109   5.641   1.249
 5932SOL     OW18694   2.189   6.601   1.111
 5932SOL    HW118695   2.287   6.601   1.093
 5932SOL    HW218696   2.166   6.522   1.168
 5933SOL     OW18697   0.060   4.099   3.021
 5933SOL    HW118698   0.150   4.143   3.011
 5933SOL    HW218699   0.028   4.111   3.115
 5934SOL     OW18700   3.523   3.809   2.856
 5934SOL    HW118701   3.530   3.900   2.814
 5934SOL    HW218702   3.594   3.749   2.819
 5935SOL     OW18703   3.880   3.994   4.245
 5935SOL    HW118704   3.947   3.935   4.290
 5935SOL    HW218705   3.793   3.990   4.295
 5936SOL     OW18706   4.959   4.859   6.774
 5936SOL    HW118707   4.911   4.876   6.860
 5936SOL    HW218708   5.044   4.912   6.772
 5937SOL     OW18709   1.941   3.584   0.794
 5937SOL    HW118710   1.906   3.500   0.837
 5937SOL    HW218711   2.010   3.559   0.726
 5938SOL     OW18712   2.342   4.307   3.061
 5938SOL    HW118713   2.394   4.392   3.063
 5938SOL    HW218714   2.341   4.271   2.967
 5939SOL     OW18715   2.961   0.297   3.004
 5939SOL    HW118716   2.875   0.246   3.011
 5939SOL    HW218717   3.037   0.239   3.033
 5940SOL     OW18718   4.094   0.196   2.975
 5940SOL    HW118719   4.006   0.241   2.962
 5940SOL    HW218720   4.085   0.124   3.044
 5941SOL     OW18721   6.568   5.167   2.144
 5941SOL    HW118722   6.639   5.145   2.211
 5941SOL    HW218723   6.560   5.093   2.078
 5942SOL     OW18724   4.219   3.344   6.159
 5942SOL    HW118725   4.278   3.400   6.102
 5942SOL    HW218726   4.177   3.402   6.230
 5943SOL     OW18727   1.858   5.931   0.442
 5943SOL    HW118728   1.957   5.926   0.440
 5943SOL    HW218729   1.828   6.017   0.400
 5944SOL     OW18730   5.027   1.395   2.126
 5944SOL    HW118731   4.949   1.441   2.169
 5944SOL    HW218732   5.055   1.446   2.045
 5945SOL     OW18733   6.487   4.708   5.914
 5945SOL    HW118734   6.553   4.718   5.839
 5945SOL    HW218735   6.470   4.798   5.956
 5946SOL     OW18736   4.815   3.078   6.232
 5946SOL    HW118737   4.789   3.053   6.138
 5946SOL    HW218738   4.760   3.026   6.297
 5947SOL     OW18739   4.385   3.567   1.607
 5947SOL    HW118740   4.298   3.615   1.595
 5947SOL    HW218741   4.386   3.484   1.551
 5948SOL     OW18742   3.644   4.864   2.980
 5948SOL    HW118743   3.730   4.826   2.944
 5948SOL    HW218744   3.655   4.886   3.076
 5949SOL     OW18745   4.209   5.068   1.370
 5949SOL    HW118746   4.300   5.102   1.390
 5949SOL    HW218747   4.190   4.988   1.428
 5950SOL     OW18748   6.140   1.894   4.621
 5950SOL    HW118749   6.116   1.984   4.658
 5950SOL    HW218750   6.234   1.871   4.645
 5951SOL     OW18751   1.959   5.959   4.190
 5951SOL    HW118752   1.877   6.004   4.225
 5951SOL    HW218753   1.964   5.866   4.227
 5952SOL     OW18754   6.829   6.589   3.722
 5952SOL    HW118755   6.853   6.530   3.799
 5952SOL    HW218756   6.734   6.574   3.695
 5953SOL     OW18757   6.522   3.086   5.722
 5953SOL    HW118758   6.428   3.081   5.688
 5953SOL    HW218759   6.571   3.159   5.676
 5954SOL     OW18760   6.920   4.866   6.517
 5954SOL    HW118761   6.955   4.773   6.527
 5954SOL    HW218762   6.922   4.892   6.420
 5955SOL     OW18763   5.070   5.238   1.904
 5955SOL    HW118764   5.129   5.157   1.905
 5955SOL    HW218765   5.011   5.238   1.985
 5956SOL     OW18766   4.325   2.312   6.940
 5956SOL    HW118767   4.297   2.369   7.017
 5956SOL    HW218768   4.296   2.355   6.855
 5957SOL     OW18769   6.132   6.009   6.217
 5957SOL    HW118770   6.068   6.078   6.250
 5957SOL    HW218771   6.082   5.935   6.172
 5958SOL     OW18772   6.767   5.730   1.797
 5958SOL    HW118773   6.778   5.687   1.708
 5958SOL    HW218774   6.694   5.799   1.793
 5959SOL     OW18775   2.879   1.736   5.935
 5959SOL    HW118776   2.926   1.804   5.879
 5959SOL    HW218777   2.842   1.665   5.876
 5960SOL     OW18778   2.772   0.023   3.662
 5960SOL    HW118779   2.847   0.082   3.632
 5960SOL    HW218780   2.749   6.982   3.588
 5961SOL     OW18781   3.280   0.891   5.028
 5961SOL    HW118782   3.305   0.794   5.019
 5961SOL    HW218783   3.362   0.944   5.053
 5962SOL     OW18784   4.663   5.664   2.399
 5962SOL    HW118785   4.737   5.707   2.349
 5962SOL    HW218786   4.636   5.579   2.353
 5963SOL     OW18787   3.773   3.599   2.373
 5963SOL    HW118788   3.774   3.591   2.273
 5963SOL    HW218789   3.685   3.565   2.408
 5964SOL     OW18790   0.218   4.887   6.342
 5964SOL    HW118791   0.280   4.904   6.419
 5964SOL    HW218792   0.150   4.961   6.336
 5965SOL     OW18793   2.108   2.679   5.951
 5965SOL    HW118794   2.046   2.755   5.972
 5965SOL    HW218795   2.097   2.608   6.020
 5966SOL     OW18796   3.302   5.862   4.886
 5966SOL    HW118797   3.281   5.905   4.798
 5966SOL    HW218798   3.225   5.804   4.913
 5967SOL     OW18799   4.361   6.972   3.079
 5967SOL    HW118800   4.386   6.981   2.982
 5967SOL    HW218801   4.261   6.980   3.088
 5968SOL     OW18802   6.486   2.349   3.369
 5968SOL    HW118803   6.486   2.375   3.273
 5968SOL    HW218804   6.577   2.317   3.395
 5969SOL     OW18805   5.775   3.799   3.730
 5969SOL    HW118806   5.761   3.744   3.812
 5969SOL    HW218807   5.819   3.743   3.659
 5970SOL     OW18808   1.290   3.678   2.497
 5970SOL    HW118809   1.285   3.777   2.487
 5970SOL    HW218810   1.382   3.646   2.475
 5971SOL     OW18811   1.826   6.281   2.955
 5971SOL    HW118812   1.788   6.200   2.912
 5971SOL    HW218813   1.925   6.284   2.940
 5972SOL     OW18814   5.154   6.995   0.099
 5972SOL    HW118815   5.248   0.008   0.094
 5972SOL    HW218816   5.129   6.954   0.011
 5973SOL     OW18817   1.852   4.162   2.884
 5973SOL    HW118818   1.921   4.180   2.813
 5973SOL    HW218819   1.791   4.241   2.891
 5974SOL     OW18820   0.067   3.725   0.465
 5974SOL    HW118821   0.031   3.791   0.399
 5974SOL    HW218822   0.019   3.638   0.455
 5975SOL     OW18823   3.690   2.765   1.356
 5975SOL    HW118824   3.613   2.723   1.307
 5975SOL    HW218825   3.687   2.738   1.453
 5976SOL     OW18826   3.029   3.198   5.130
 5976SOL    HW118827   3.069   3.182   5.040
 5976SOL    HW218828   2.930   3.207   5.121
 5977SOL     OW18829   1.487   4.877   1.991
 5977SOL    HW118830   1.540   4.806   1.944
 5977SOL    HW218831   1.532   4.965   1.979
 5978SOL     OW18832   5.342   4.570   2.680
 5978SOL    HW118833   5.405   4.570   2.603
 5978SOL    HW218834   5.371   4.639   2.747
 5979SOL     OW18835   6.396   0.933   3.572
 5979SOL    HW118836   6.390   1.015   3.515
 5979SOL    HW218837   6.385   0.958   3.668
 5980SOL     OW18838   5.109   3.934   0.599
 5980SOL    HW118839   5.088   4.019   0.647
 5980SOL    HW218840   5.203   3.908   0.617
 5981SOL     OW18841   5.784   1.543   2.680
 5981SOL    HW118842   5.768   1.602   2.759
 5981SOL    HW218843   5.786   1.448   2.709
 5982SOL     OW18844   6.917   1.863   6.690
 5982SOL    HW118845   6.965   1.924   6.627
 5982SOL    HW218846   6.866   1.794   6.638
 5983SOL     OW18847   1.594   1.491   4.025
 5983SOL    HW118848   1.606   1.566   4.091
 5983SOL    HW218849   1.671   1.490   3.962
 5984SOL     OW18850   6.814   5.942   4.429
 5984SOL    HW118851   6.907   5.944   4.392
 5984SOL    HW218852   6.789   6.033   4.461
 5985SOL     OW18853   5.067   1.870   3.899
 5985SOL    HW118854   5.031   1.802   3.835
 5985SOL    HW218855   4.991   1.914   3.947
 5986SOL     OW18856   3.656   3.217   2.802
 5986SOL    HW118857   3.624   3.272   2.880
 5986SOL    HW218858   3.737   3.261   2.762
 5987SOL     OW18859   4.498   6.507   4.749
 5987SOL    HW118860   4.571   6.571   4.722
 5987SOL    HW218861   4.410   6.543   4.719
 5988SOL     OW18862   4.199   6.976   4.140
 5988SOL    HW118863   4.183   6.940   4.049
 5988SOL    HW218864   4.142   0.034   4.155
 5989SOL     OW18865   2.910   0.518   5.910
 5989SOL    HW118866   2.826   0.570   5.922
 5989SOL    HW218867   2.903   0.462   5.827
 5990SOL     OW18868   3.468   4.973   0.726
 5990SOL    HW118869   3.502   5.036   0.656
 5990SOL    HW218870   3.469   4.880   0.690
 5991SOL     OW18871   3.560   5.260   4.545
 5991SOL    HW118872   3.656   5.260   4.518
 5991SOL    HW218873   3.519   5.348   4.524
 5992SOL     OW18874   3.558   0.612   3.858
 5992SOL    HW118875   3.467   0.583   3.828
 5992SOL    HW218876   3.565   0.604   3.957
 5993SOL     OW18877   2.480   6.106   5.987
 5993SOL    HW118878   2.532   6.049   6.051
 5993SOL    HW218879   2.505   6.083   5.893
 5994SOL     OW18880   5.783   2.910   2.609
 5994SOL    HW118881   5.783   3.009   2.618
 5994SOL    HW218882   5.696   2.880   2.569
 5995SOL     OW18883   6.594   4.959   1.238
 5995SOL    HW118884   6.610   4.860   1.234
 5995SOL    HW218885   6.679   5.008   1.220
 5996SOL     OW18886   0.433   5.157   6.454
 5996SOL    HW118887   0.356   5.215   6.480
 5996SOL    HW218888   0.431   5.073   6.507
 5997SOL     OW18889   0.604   6.842   1.758
 5997SOL    HW118890   0.534   6.912   1.768
 5997SOL    HW218891   0.669   6.870   1.687
 5998SOL     OW18892   5.609   1.869   2.481
 5998SOL    HW118893   5.647   1.778   2.465
 5998SOL    HW218894   5.679   1.928   2.521
 5999SOL     OW18895   1.825   1.767   2.924
 5999SOL    HW118896   1.905   1.770   2.864
 5999SOL    HW218897   1.762   1.840   2.898
 6000SOL     OW18898   4.253   5.445   2.446
 6000SOL    HW118899   4.332   5.385   2.432
 6000SOL    HW218900   4.243   5.506   2.367
 6001SOL     OW18901   6.515   2.814   6.635
 6001SOL    HW118902   6.530   2.718   6.615
 6001SOL    HW218903   6.427   2.825   6.681
 6002SOL     OW18904   1.697   0.624   1.823
 6002SOL    HW118905   1.617   0.673   1.859
 6002SOL    HW218906   1.731   0.561   1.893
 6003SOL     OW18907   5.249   4.137   4.812
 6003SOL    HW118908   5.254   4.136   4.712
 6003SOL    HW218909   5.296   4.217   4.847
 6004SOL     OW18910   0.553   3.392   2.422
 6004SOL    HW118911   0.647   3.412   2.395
 6004SOL    HW218912   0.494   3.470   2.397
 6005SOL     OW18913   3.417   5.560   4.061
 6005SOL    HW118914   3.459   5.617   3.990
 6005SOL    HW218915   3.488   5.520   4.118
 6006SOL     OW18916   2.779   6.493   6.608
 6006SOL    HW118917   2.862   6.548   6.600
 6006SOL    HW218918   2.715   6.520   6.536
 6007SOL     OW18919   5.877   2.762   4.072
 6007SOL    HW118920   5.944   2.730   4.005
 6007SOL    HW218921   5.801   2.808   4.025
 6008SOL     OW18922   2.999   4.603   5.953
 6008SOL    HW118923   3.044   4.570   6.036
 6008SOL    HW218924   2.956   4.527   5.906
 6009SOL     OW18925   2.710   1.865   4.210
 6009SOL    HW118926   2.764   1.935   4.256
 6009SOL    HW218927   2.672   1.902   4.126
 6010SOL     OW18928   2.028   4.242   2.645
 6010SOL    HW118929   2.114   4.210   2.684
 6010SOL    HW218930   2.046   4.301   2.567
 6011SOL     OW18931   5.370   2.854   2.366
 6011SOL    HW118932   5.431   2.933   2.374
 6011SOL    HW218933   5.367   2.825   2.270
 6012SOL     OW18934   6.697   2.715   0.705
 6012SOL    HW118935   6.761   2.685   0.634
 6012SOL    HW218936   6.629   2.776   0.664
 6013SOL     OW18937   6.256   0.838   2.166
 6013SOL    HW118938   6.342   0.807   2.127
 6013SOL    HW218939   6.262   0.835   2.266
 6014SOL     OW18940   5.631   0.232   0.560
 6014SOL    HW118941   5.662   0.155   0.504
 6014SOL    HW218942   5.654   0.216   0.656
 6015SOL     OW18943   5.722   2.136   4.860
 6015SOL    HW118944   5.656   2.208   4.881
 6015SOL    HW218945   5.792   2.172   4.798
 6016SOL     OW18946   1.763   0.663   5.086
 6016SOL    HW118947   1.859   0.678   5.110
 6016SOL    HW218948   1.749   0.566   5.066
 6017SOL     OW18949   6.308   5.259   3.028
 6017SOL    HW118950   6.308   5.295   2.935
 6017SOL    HW218951   6.395   5.213   3.046
 6018SOL     OW18952   2.969   3.310   0.890
 6018SOL    HW118953   2.936   3.304   0.984
 6018SOL    HW218954   2.937   3.231   0.838
 6019SOL     OW18955   3.592   0.969   4.113
 6019SOL    HW118956   3.664   0.908   4.146
 6019SOL    HW218957   3.608   0.990   4.016
 6020SOL     OW18958   3.789   0.747   2.784
 6020SOL    HW118959   3.847   0.703   2.715
 6020SOL    HW218960   3.761   0.837   2.752
 6021SOL     OW18961   4.138   1.309   2.440
 6021SOL    HW118962   4.175   1.310   2.533
 6021SOL    HW218963   4.103   1.218   2.419
 6022SOL     OW18964   4.447   1.417   3.382
 6022SOL    HW118965   4.360   1.425   3.430
 6022SOL    HW218966   4.516   1.473   3.428
 6023SOL     OW18967   0.495   1.746   3.204
 6023SOL    HW118968   0.527   1.686   3.132
 6023SOL    HW218969   0.480   1.693   3.288
 6024SOL     OW18970   0.547   5.003   1.550
 6024SOL    HW118971   0.626   4.949   1.578
 6024SOL    HW218972   0.560   5.098   1.578
 6025SOL     OW18973   4.440   1.436   1.679
 6025SOL    HW118974   4.445   1.521   1.731
 6025SOL    HW218975   4.512   1.435   1.610
 6026SOL     OW18976   6.384   4.597   5.332
 6026SOL    HW118977   6.444   4.518   5.334
 6026SOL    HW218978   6.433   4.676   5.295
 6027SOL     OW18979   2.912   2.700   6.472
 6027SOL    HW118980   2.835   2.730   6.416
 6027SOL    HW218981   2.877   2.658   6.556
 6028SOL     OW18982   1.941   4.075   6.953
 6028SOL    HW118983   2.006   4.134   6.999
 6028SOL    HW218984   1.848   4.101   6.980
 6029SOL     OW18985   2.028   5.997   0.711
 6029SOL    HW118986   2.070   6.073   0.762
 6029SOL    HW218987   2.015   5.919   0.772
 6030SOL     OW18988   2.306   0.780   1.635
 6030SOL    HW118989   2.333   0.824   1.549
 6030SOL    HW218990   2.242   0.839   1.684
 6031SOL     OW18991   5.096   6.495   5.746
 6031SOL    HW118992   5.095   6.429   5.672
 6031SOL    HW218993   5.050   6.579   5.717
 6032SOL     OW18994   1.446   3.388   2.011
 6032SOL    HW118995   1.372   3.329   2.041
 6032SOL    HW218996   1.521   3.332   1.974
 6033SOL     OW18997   1.503   1.994   3.406
 6033SOL    HW118998   1.411   1.960   3.427
 6033SOL    HW218999   1.570   1.935   3.450
 6034SOL     OW19000   2.141   4.461   5.178
 6034SOL    HW119001   2.200   4.488   5.254
 6034SOL    HW219002   2.076   4.391   5.209
 6035SOL     OW19003   5.519   0.490   4.264
 6035SOL    HW119004   5.535   0.520   4.358
 6035SOL    HW219005   5.600   0.508   4.209
 6036SOL     OW19006   0.590   6.883   5.367
 6036SOL    HW119007   0.628   6.918   5.452
 6036SOL    HW219008   0.573   6.958   5.304
 6037SOL     OW19009   5.681   5.795   5.144
 6037SOL    HW119010   5.730   5.714   5.112
 6037SOL    HW219011   5.732   5.877   5.118
 6038SOL     OW19012   6.451   4.425   5.862
 6038SOL    HW119013   6.447   4.523   5.882
 6038SOL    HW219014   6.373   4.379   5.905
 6039SOL     OW19015   3.267   3.521   2.289
 6039SOL    HW119016   3.222   3.588   2.230
 6039SOL    HW219017   3.201   3.451   2.316
 6040SOL     OW19018   0.692   2.369   6.753
 6040SOL    HW119019   0.746   2.353   6.671
 6040SOL    HW219020   0.752   2.380   6.832
 6041SOL     OW19021   0.652   1.684   6.994
 6041SOL    HW119022   0.746   1.673   0.003
 6041SOL    HW219023   0.629   1.781   6.990
 6042SOL     OW19024   5.207   4.786   2.830
 6042SOL    HW119025   5.143   4.720   2.869
 6042SOL    HW219026   5.299   4.768   2.865
 6043SOL     OW19027   1.112   4.607   5.026
 6043SOL    HW119028   1.159   4.694   5.010
 6043SOL    HW219029   1.143   4.539   4.961
 6044SOL     OW19030   0.824   0.749   1.215
 6044SOL    HW119031   0.868   0.725   1.302
 6044SOL    HW219032   0.827   0.848   1.202
 6045SOL     OW19033   5.831   4.957   0.723
 6045SOL    HW119034   5.738   4.935   0.754
 6045SOL    HW219035   5.849   4.911   0.636
 6046SOL     OW19036   3.131   2.830   0.218
 6046SOL    HW119037   3.086   2.775   0.289
 6046SOL    HW219038   3.076   2.912   0.201
 6047SOL     OW19039   6.579   0.306   3.971
 6047SOL    HW119040   6.501   0.349   3.925
 6047SOL    HW219041   6.647   0.279   3.903
 6048SOL     OW19042   4.365   0.331   3.990
 6048SOL    HW119043   4.289   0.312   4.052
 6048SOL    HW219044   4.451   0.334   4.041
 6049SOL     OW19045   4.886   3.858   6.674
 6049SOL    HW119046   4.816   3.810   6.726
 6049SOL    HW219047   4.973   3.808   6.681
 6050SOL     OW19048   4.497   4.747   5.240
 6050SOL    HW119049   4.403   4.760   5.271
 6050SOL    HW219050   4.554   4.822   5.274
 6051SOL     OW19051   2.237   2.040   2.695
 6051SOL    HW119052   2.162   2.055   2.760
 6051SOL    HW219053   2.302   2.115   2.701
 6052SOL     OW19054   0.341   1.755   0.913
 6052SOL    HW119055   0.382   1.836   0.954
 6052SOL    HW219056   0.244   1.770   0.897
 6053SOL     OW19057   2.314   0.027   6.875
 6053SOL    HW119058   2.314   0.038   6.775
 6053SOL    HW219059   2.272   6.962   6.899
 6054SOL     OW19060   1.375   5.227   0.502
 6054SOL    HW119061   1.290   5.220   0.553
 6054SOL    HW219062   1.453   5.209   0.563
 6055SOL     OW19063   4.731   0.928   4.789
 6055SOL    HW119064   4.811   0.954   4.734
 6055SOL    HW219065   4.688   0.847   4.749
 6056SOL     OW19066   3.766   1.498   6.372
 6056SOL    HW119067   3.739   1.485   6.467
 6056SOL    HW219068   3.866   1.503   6.365
 6057SOL     OW19069   3.500   1.042   5.063
 6057SOL    HW119070   3.473   1.121   5.118
 6057SOL    HW219071   3.515   1.071   4.968
 6058SOL     OW19072   5.704   2.396   4.648
 6058SOL    HW119073   5.647   2.327   4.603
 6058SOL    HW219074   5.716   2.474   4.586
 6059SOL     OW19075   5.343   4.420   6.441
 6059SOL    HW119076   5.420   4.357   6.456
 6059SOL    HW219077   5.267   4.370   6.400
 6060SOL     OW19078   4.646   5.363   5.608
 6060SOL    HW119079   4.585   5.359   5.687
 6060SOL    HW219080   4.675   5.457   5.593
 6061SOL     OW19081   3.102   2.108   6.849
 6061SOL    HW119082   3.020   2.121   6.904
 6061SOL    HW219083   3.079   2.057   6.766
 6062SOL     OW19084   1.885   1.157   4.580
 6062SOL    HW119085   1.860   1.123   4.671
 6062SOL    HW219086   1.984   1.157   4.571
 6063SOL     OW19087   4.192   0.813   6.883
 6063SOL    HW119088   4.113   0.802   6.823
 6063SOL    HW219089   4.161   0.840   6.974
 6064SOL     OW19090   1.340   5.781   2.821
 6064SOL    HW119091   1.427   5.791   2.868
 6064SOL    HW219092   1.278   5.724   2.876
 6065SOL     OW19093   6.636   6.837   0.619
 6065SOL    HW119094   6.604   6.856   0.712
 6065SOL    HW219095   6.696   6.757   0.621
 6066SOL     OW19096   4.551   2.259   0.888
 6066SOL    HW119097   4.470   2.262   0.947
 6066SOL    HW219098   4.530   2.207   0.805
 6067SOL     OW19099   5.989   1.488   6.220
 6067SOL    HW119100   5.988   1.452   6.313
 6067SOL    HW219101   5.895   1.499   6.188
 6068SOL     OW19102   4.769   2.908   4.935
 6068SOL    HW119103   4.803   2.995   4.971
 6068SOL    HW219104   4.687   2.924   4.881
 6069SOL     OW19105   6.706   3.925   5.246
 6069SOL    HW119106   6.686   3.860   5.319
 6069SOL    HW219107   6.673   3.889   5.159
 6070SOL     OW19108   4.277   2.434   6.687
 6070SOL    HW119109   4.237   2.354   6.642
 6070SOL    HW219110   4.344   2.476   6.625
 6071SOL     OW19111   4.132   6.340   5.380
 6071SOL    HW119112   4.035   6.360   5.393
 6071SOL    HW219113   4.154   6.345   5.282
 6072SOL     OW19114   1.109   1.298   2.063
 6072SOL    HW119115   1.097   1.267   1.968
 6072SOL    HW219116   1.185   1.249   2.104
 6073SOL     OW19117   6.774   2.876   1.182
 6073SOL    HW119118   6.798   2.821   1.262
 6073SOL    HW219119   6.733   2.818   1.112
 6074SOL     OW19120   0.524   6.773   4.943
 6074SOL    HW119121   0.445   6.761   4.883
 6074SOL    HW219122   0.499   6.750   5.037
 6075SOL     OW19123   6.318   3.406   0.467
 6075SOL    HW119124   6.261   3.414   0.385
 6075SOL    HW219125   6.317   3.311   0.500
 6076SOL     OW19126   2.082   6.834   3.536
 6076SOL    HW119127   2.165   6.886   3.519
 6076SOL    HW219128   2.072   6.763   3.466
 6077SOL     OW19129   5.720   6.183   2.298
 6077SOL    HW119130   5.775   6.145   2.224
 6077SOL    HW219131   5.697   6.111   2.364
 6078SOL     OW19132   2.906   4.786   3.830
 6078SOL    HW119133   2.980   4.820   3.888
 6078SOL    HW219134   2.903   4.838   3.745
 6079SOL     OW19135   2.644   2.678   0.189
 6079SOL    HW119136   2.546   2.693   0.180
 6079SOL    HW219137   2.691   2.718   0.110
 6080SOL     OW19138   6.322   2.262   1.322
 6080SOL    HW119139   6.307   2.165   1.343
 6080SOL    HW219140   6.242   2.299   1.275
 6081SOL     OW19141   6.411   3.689   4.083
 6081SOL    HW119142   6.323   3.643   4.073
 6081SOL    HW219143   6.462   3.649   4.159
 6082SOL     OW19144   4.536   1.122   2.968
 6082SOL    HW119145   4.530   1.182   3.048
 6082SOL    HW219146   4.622   1.139   2.920
 6083SOL     OW19147   1.462   5.984   6.558
 6083SOL    HW119148   1.433   6.066   6.510
 6083SOL    HW219149   1.452   5.905   6.498
 6084SOL     OW19150   6.599   5.465   5.080
 6084SOL    HW119151   6.642   5.431   4.996
 6084SOL    HW219152   6.553   5.551   5.062
 6085SOL     OW19153   6.433   3.361   0.156
 6085SOL    HW119154   6.392   3.413   0.081
 6085SOL    HW219155   6.362   3.341   0.224
 6086SOL     OW19156   3.770   1.498   4.574
 6086SOL    HW119157   3.723   1.568   4.521
 6086SOL    HW219158   3.850   1.466   4.523
 6087SOL     OW19159   5.655   6.634   6.622
 6087SOL    HW119160   5.710   6.676   6.550
 6087SOL    HW219161   5.690   6.662   6.711
 6088SOL     OW19162   0.724   0.197   4.838
 6088SOL    HW119163   0.734   0.169   4.743
 6088SOL    HW219164   0.691   0.292   4.842
 6089SOL     OW19165   0.602   3.277   1.062
 6089SOL    HW119166   0.523   3.233   1.105
 6089SOL    HW219167   0.604   3.374   1.087
 6090SOL     OW19168   0.437   5.834   5.372
 6090SOL    HW119169   0.360   5.807   5.312
 6090SOL    HW219170   0.410   5.912   5.427
 6091SOL     OW19171   6.337   2.022   1.897
 6091SOL    HW119172   6.370   2.042   1.989
 6091SOL    HW219173   6.409   1.976   1.844
 6092SOL     OW19174   1.984   1.139   2.594
 6092SOL    HW119175   2.053   1.184   2.651
 6092SOL    HW219176   2.007   1.152   2.497
 6093SOL     OW19177   1.456   2.839   1.161
 6093SOL    HW119178   1.408   2.902   1.100
 6093SOL    HW219179   1.423   2.746   1.145
 6094SOL     OW19180   1.073   1.167   1.818
 6094SOL    HW119181   1.067   1.075   1.855
 6094SOL    HW219182   0.990   1.188   1.765
 6095SOL     OW19183   5.973   3.666   6.648
 6095SOL    HW119184   6.024   3.742   6.608
 6095SOL    HW219185   6.026   3.624   6.722
 6096SOL     OW19186   3.957   1.242   3.875
 6096SOL    HW119187   3.876   1.199   3.915
 6096SOL    HW219188   3.936   1.336   3.848
 6097SOL     OW19189   2.725   1.076   2.100
 6097SOL    HW119190   2.685   1.168   2.095
 6097SOL    HW219191   2.741   1.041   2.008
 6098SOL     OW19192   2.507   2.326   5.638
 6098SOL    HW119193   2.470   2.243   5.679
 6098SOL    HW219194   2.602   2.311   5.610
 6099SOL     OW19195   5.840   6.019   5.027
 6099SOL    HW119196   5.912   5.996   4.962
 6099SOL    HW219197   5.839   6.118   5.042
 6100SOL     OW19198   6.410   2.973   0.248
 6100SOL    HW119199   6.359   3.033   0.310
 6100SOL    HW219200   6.353   2.952   0.168
 6101SOL     OW19201   6.736   1.373   6.054
 6101SOL    HW119202   6.736   1.370   5.954
 6101SOL    HW219203   6.695   1.459   6.085
 6102SOL     OW19204   3.118   0.956   4.816
 6102SOL    HW119205   3.195   0.943   4.878
 6102SOL    HW219206   3.127   0.894   4.738
 6103SOL     OW19207   6.375   6.825   4.624
 6103SOL    HW119208   6.386   6.918   4.659
 6103SOL    HW219209   6.300   6.822   4.558
 6104SOL     OW19210   5.912   1.688   6.904
 6104SOL    HW119211   5.923   1.606   6.960
 6104SOL    HW219212   5.815   1.702   6.883
 6105SOL     OW19213   3.447   5.712   5.719
 6105SOL    HW119214   3.400   5.706   5.631
 6105SOL    HW219215   3.526   5.651   5.719
 6106SOL     OW19216   3.109   4.590   6.203
 6106SOL    HW119217   3.193   4.641   6.219
 6106SOL    HW219218   3.110   4.506   6.257
 6107SOL     OW19219   2.259   4.903   4.850
 6107SOL    HW119220   2.187   4.907   4.781
 6107SOL    HW219221   2.226   4.853   4.930
 6108SOL     OW19222   0.814   1.926   4.358
 6108SOL    HW119223   0.889   1.948   4.296
 6108SOL    HW219224   0.733   1.977   4.332
 6109SOL     OW19225   5.647   3.402   0.800
 6109SOL    HW119226   5.612   3.328   0.742
 6109SOL    HW219227   5.579   3.475   0.804
 6110SOL     OW19228   3.266   1.549   5.015
 6110SOL    HW119229   3.185   1.491   5.027
 6110SOL    HW219230   3.320   1.515   4.938
 6111SOL     OW19231   1.485   4.838   3.164
 6111SOL    HW119232   1.584   4.849   3.154
 6111SOL    HW219233   1.466   4.772   3.237
 6112SOL     OW19234   1.176   1.857   2.755
 6112SOL    HW119235   1.253   1.793   2.751
 6112SOL    HW219236   1.184   1.923   2.680
 6113SOL     OW19237   1.468   6.902   5.809
 6113SOL    HW119238   1.514   6.952   5.736
 6113SOL    HW219239   1.467   6.804   5.787
 6114SOL     OW19240   4.658   5.864   0.522
 6114SOL    HW119241   4.646   5.825   0.431
 6114SOL    HW219242   4.736   5.820   0.566
 6115SOL     OW19243   5.047   5.290   2.752
 6115SOL    HW119244   5.025   5.284   2.654
 6115SOL    HW219245   5.015   5.208   2.799
 6116SOL     OW19246   3.841   1.123   1.949
 6116SOL    HW119247   3.896   1.202   1.922
 6116SOL    HW219248   3.744   1.147   1.948
 6117SOL     OW19249   5.823   6.514   4.940
 6117SOL    HW119250   5.859   6.593   4.889
 6117SOL    HW219251   5.760   6.546   5.011
 6118SOL     OW19252   6.329   1.240   3.423
 6118SOL    HW119253   6.319   1.210   3.328
 6118SOL    HW219254   6.285   1.329   3.435
 6119SOL     OW19255   0.040   5.545   4.191
 6119SOL    HW119256   0.036   5.504   4.100
 6119SOL    HW219257   0.069   5.640   4.183
 6120SOL     OW19258   2.569   6.682   2.656
 6120SOL    HW119259   2.511   6.650   2.581
 6120SOL    HW219260   2.665   6.663   2.633
 6121SOL     OW19261   0.482   2.497   3.720
 6121SOL    HW119262   0.565   2.443   3.711
 6121SOL    HW219263   0.435   2.502   3.632
 6122SOL     OW19264   3.759   6.340   3.146
 6122SOL    HW119265   3.783   6.251   3.109
 6122SOL    HW219266   3.663   6.360   3.128
 6123SOL     OW19267   6.477   1.384   1.937
 6123SOL    HW119268   6.408   1.380   2.009
 6123SOL    HW219269   6.435   1.359   1.850
 6124SOL     OW19270   3.170   0.186   5.862
 6124SOL    HW119271   3.208   0.102   5.901
 6124SOL    HW219272   3.118   0.234   5.933
 6125SOL     OW19273   2.066   6.189   1.648
 6125SOL    HW119274   2.087   6.120   1.717
 6125SOL    HW219275   2.147   6.205   1.592
 6126SOL     OW19276   5.468   4.758   2.884
 6126SOL    HW119277   5.513   4.738   2.971
 6126SOL    HW219278   5.537   4.764   2.812
 6127SOL     OW19279   2.271   5.961   1.489
 6127SOL    HW119280   2.205   5.933   1.559
 6127SOL    HW219281   2.304   6.053   1.509
 6128SOL     OW19282   6.691   2.110   7.013
 6128SOL    HW119283   6.749   2.163   0.052
 6128SOL    HW219284   6.596   2.143   7.020
 6129SOL     OW19285   6.088   4.302   2.193
 6129SOL    HW119286   6.003   4.314   2.245
 6129SOL    HW219287   6.098   4.379   2.129
 6130SOL     OW19288   5.017   2.973   3.576
 6130SOL    HW119289   4.996   2.921   3.660
 6130SOL    HW219290   4.969   2.931   3.499
 6131SOL     OW19291   6.559   1.117   5.274
 6131SOL    HW119292   6.594   1.121   5.367
 6131SOL    HW219293   6.462   1.093   5.275
 6132SOL     OW19294   4.229   2.894   1.062
 6132SOL    HW119295   4.196   2.982   1.095
 6132SOL    HW219296   4.152   2.835   1.039
 6133SOL     OW19297   0.994   3.929   1.481
 6133SOL    HW119298   1.038   4.006   1.435
 6133SOL    HW219299   1.017   3.844   1.433
 6134SOL     OW19300   4.209   3.773   6.454
 6134SOL    HW119301   4.247   3.778   6.546
 6134SOL    HW219302   4.275   3.731   6.392
 6135SOL     OW19303   6.551   6.891   0.888
 6135SOL    HW119304   6.468   6.940   0.863
 6135SOL    HW219305   6.630   6.950   0.873
 6136SOL     OW19306   1.059   1.962   1.681
 6136SOL    HW119307   0.969   2.006   1.682
 6136SOL    HW219308   1.064   1.894   1.754
 6137SOL     OW19309   2.712   6.295   5.912
 6137SOL    HW119310   2.612   6.292   5.913
 6137SOL    HW219311   2.743   6.380   5.956
 6138SOL     OW19312   3.482   5.929   2.903
 6138SOL    HW119313   3.554   5.997   2.905
 6138SOL    HW219314   3.452   5.915   2.809
 6139SOL     OW19315   1.361   4.097   4.357
 6139SOL    HW119316   1.401   4.173   4.307
 6139SOL    HW219317   1.288   4.130   4.417
 6140SOL     OW19318   1.253   7.004   1.889
 6140SOL    HW119319   1.243   6.978   1.793
 6140SOL    HW219320   1.175   6.970   1.942
 6141SOL     OW19321   6.590   5.246   5.749
 6141SOL    HW119322   6.577   5.147   5.746
 6141SOL    HW219323   6.548   5.282   5.832
 6142SOL     OW19324   6.830   3.894   1.185
 6142SOL    HW119325   6.815   3.992   1.173
 6142SOL    HW219326   6.745   3.850   1.215
 6143SOL     OW19327   5.851   5.208   6.519
 6143SOL    HW119328   5.943   5.196   6.557
 6143SOL    HW219329   5.803   5.120   6.520
 6144SOL     OW19330   6.862   4.030   3.647
 6144SOL    HW119331   6.885   3.953   3.707
 6144SOL    HW219332   6.883   4.116   3.693
 6145SOL     OW19333   4.619   5.913   3.139
 6145SOL    HW119334   4.531   5.866   3.135
 6145SOL    HW219335   4.627   5.960   3.227
 6146SOL     OW19336   5.685   1.685   3.291
 6146SOL    HW119337   5.764   1.675   3.231
 6146SOL    HW219338   5.713   1.673   3.386
 6147SOL     OW19339   2.076   3.816   2.501
 6147SOL    HW119340   2.108   3.725   2.476
 6147SOL    HW219341   1.993   3.837   2.450
 6148SOL     OW19342   6.397   6.326   4.235
 6148SOL    HW119343   6.410   6.281   4.324
 6148SOL    HW219344   6.359   6.417   4.249
 6149SOL     OW19345   3.468   5.319   2.977
 6149SOL    HW119346   3.460   5.418   2.961
 6149SOL    HW219347   3.394   5.289   3.036
 6150SOL     OW19348   4.740   6.434   6.025
 6150SOL    HW119349   4.819   6.380   5.993
 6150SOL    HW219350   4.671   6.372   6.062
 6151SOL     OW19351   5.112   2.369   5.271
 6151SOL    HW119352   5.150   2.368   5.178
 6151SOL    HW219353   5.061   2.454   5.284
 6152SOL     OW19354   5.976   4.328   6.534
 6152SOL    HW119355   6.013   4.417   6.505
 6152SOL    HW219356   5.881   4.339   6.562
 6153SOL     OW19357   4.222   3.803   1.513
 6153SOL    HW119358   4.252   3.839   1.601
 6153SOL    HW219359   4.122   3.813   1.506
 6154SOL     OW19360   5.610   2.687   3.513
 6154SOL    HW119361   5.545   2.617   3.542
 6154SOL    HW219362   5.666   2.651   3.438
 6155SOL     OW19363   0.036   3.236   5.127
 6155SOL    HW119364   7.002   3.281   5.058
 6155SOL    HW219365   0.077   3.304   5.187
 6156SOL     OW19366   5.956   6.553   2.925
 6156SOL    HW119367   5.991   6.534   2.833
 6156SOL    HW219368   5.857   6.570   2.920
 6157SOL     OW19369   2.168   1.347   4.219
 6157SOL    HW119370   2.183   1.277   4.150
 6157SOL    HW219371   2.172   1.438   4.176
 6158SOL     OW19372   5.008   0.963   6.344
 6158SOL    HW119373   5.065   1.045   6.350
 6158SOL    HW219374   5.068   0.882   6.339
 6159SOL     OW19375   5.467   2.893   0.687
 6159SOL    HW119376   5.444   2.851   0.775
 6159SOL    HW219377   5.414   2.850   0.614
 6160SOL     OW19378   5.297   6.006   1.840
 6160SOL    HW119379   5.375   6.049   1.793
 6160SOL    HW219380   5.279   6.054   1.925
 6161SOL     OW19381   5.395   0.171   6.044
 6161SOL    HW119382   5.390   0.270   6.041
 6161SOL    HW219383   5.487   0.141   6.018
 6162SOL     OW19384   0.294   5.226   4.517
 6162SOL    HW119385   0.261   5.289   4.586
 6162SOL    HW219386   0.268   5.258   4.426
 6163SOL     OW19387   6.086   4.039   0.738
 6163SOL    HW119388   6.021   3.987   0.793
 6163SOL    HW219389   6.073   4.137   0.756
 6164SOL     OW19390   3.223   1.455   0.812
 6164SOL    HW119391   3.161   1.405   0.873
 6164SOL    HW219392   3.315   1.455   0.851
 6165SOL     OW19393   3.984   6.742   6.863
 6165SOL    HW119394   3.980   6.654   6.912
 6165SOL    HW219395   3.903   6.796   6.886
 6166SOL     OW19396   2.654   1.210   5.937
 6166SOL    HW119397   2.718   1.211   5.860
 6166SOL    HW219398   2.679   1.138   6.001
 6167SOL     OW19399   0.540   4.165   3.369
 6167SOL    HW119400   0.479   4.087   3.359
 6167SOL    HW219401   0.591   4.158   3.455
 6168SOL     OW19402   0.497   4.051   2.567
 6168SOL    HW119403   0.480   4.114   2.491
 6168SOL    HW219404   0.478   4.098   2.653
 6169SOL     OW19405   2.220   4.045   2.565
 6169SOL    HW119406   2.190   4.109   2.495
 6169SOL    HW219407   2.159   3.966   2.566
 6170SOL     OW19408   0.250   3.198   5.359
 6170SOL    HW119409   0.329   3.248   5.393
 6170SOL    HW219410   0.276   3.103   5.341
 6171SOL     OW19411   0.465   0.230   6.722
 6171SOL    HW119412   0.500   0.241   6.629
 6171SOL    HW219413   0.480   0.136   6.752
 6172SOL     OW19414   0.519   3.370   2.692
 6172SOL    HW119415   0.424   3.346   2.710
 6172SOL    HW219416   0.541   3.350   2.596
 6173SOL     OW19417   6.436   6.620   2.829
 6173SOL    HW119418   6.419   6.714   2.801
 6173SOL    HW219419   6.364   6.591   2.893
 6174SOL     OW19420   5.901   4.301   2.778
 6174SOL    HW119421   5.810   4.327   2.748
 6174SOL    HW219422   5.927   4.215   2.735
 6175SOL     OW19423   2.305   1.441   5.000
 6175SOL    HW119424   2.207   1.452   5.016
 6175SOL    HW219425   2.346   1.531   4.984
 6176SOL     OW19426   4.233   4.478   5.357
 6176SOL    HW119427   4.142   4.518   5.345
 6176SOL    HW219428   4.259   4.429   5.274
 6177SOL     OW19429   6.055   1.610   1.892
 6177SOL    HW119430   6.069   1.515   1.918
 6177SOL    HW219431   5.967   1.642   1.930
 6178SOL     OW19432   5.461   4.744   1.919
 6178SOL    HW119433   5.539   4.717   1.862
 6178SOL    HW219434   5.495   4.788   2.003
 6179SOL     OW19435   6.307   4.964   2.987
 6179SOL    HW119436   6.277   5.009   3.071
 6179SOL    HW219437   6.324   5.032   2.916
 6180SOL     OW19438   3.192   4.455   0.205
 6180SOL    HW119439   3.132   4.460   0.285
 6180SOL    HW219440   3.215   4.547   0.174
 6181SOL     OW19441   4.599   5.031   6.328
 6181SOL    HW119442   4.578   4.962   6.258
 6181SOL    HW219443   4.697   5.051   6.326
 6182SOL     OW19444   3.168   3.258   0.258
 6182SOL    HW119445   3.191   3.251   0.355
 6182SOL    HW219446   3.250   3.283   0.207
 6183SOL     OW19447   0.803   1.833   1.411
 6183SOL    HW119448   0.793   1.932   1.410
 6183SOL    HW219449   0.881   1.807   1.354
 6184SOL     OW19450   2.629   0.576   5.960
 6184SOL    HW119451   2.597   0.668   5.939
 6184SOL    HW219452   2.611   0.515   5.883
 6185SOL     OW19453   3.174   2.595   5.613
 6185SOL    HW119454   3.163   2.578   5.516
 6185SOL    HW219455   3.088   2.574   5.661
 6186SOL     OW19456   6.254   1.706   1.712
 6186SOL    HW119457   6.189   1.651   1.763
 6186SOL    HW219458   6.308   1.762   1.775
 6187SOL     OW19459   5.039   1.627   5.492
 6187SOL    HW119460   5.021   1.683   5.412
 6187SOL    HW219461   5.126   1.655   5.533
 6188SOL     OW19462   1.757   2.027   5.196
 6188SOL    HW119463   1.769   2.009   5.293
 6188SOL    HW219464   1.797   2.116   5.173
 6189SOL     OW19465   5.150   6.301   2.363
 6189SOL    HW119466   5.208   6.342   2.434
 6189SOL    HW219467   5.095   6.228   2.402
 6190SOL     OW19468   0.193   2.297   5.534
 6190SOL    HW119469   0.136   2.224   5.570
 6190SOL    HW219470   0.241   2.343   5.609
 6191SOL     OW19471   3.495   3.734   6.694
 6191SOL    HW119472   3.518   3.811   6.754
 6191SOL    HW219473   3.491   3.766   6.599
 6192SOL     OW19474   2.755   1.956   0.456
 6192SOL    HW119475   2.807   1.880   0.418
 6192SOL    HW219476   2.659   1.930   0.464
 6193SOL     OW19477   4.924   5.478   6.720
 6193SOL    HW119478   4.956   5.545   6.653
 6193SOL    HW219479   4.934   5.386   6.682
 6194SOL     OW19480   6.651   0.041   6.313
 6194SOL    HW119481   6.720   0.007   6.250
 6194SOL    HW219482   6.646   7.003   6.393
 6195SOL     OW19483   6.359   6.688   5.723
 6195SOL    HW119484   6.428   6.735   5.668
 6195SOL    HW219485   6.289   6.651   5.663
 6196SOL     OW19486   5.660   3.852   3.231
 6196SOL    HW119487   5.713   3.770   3.251
 6196SOL    HW219488   5.592   3.832   3.160
 6197SOL     OW19489   3.022   5.407   1.775
 6197SOL    HW119490   3.102   5.431   1.830
 6197SOL    HW219491   2.969   5.489   1.755
 6198SOL     OW19492   6.345   6.656   6.330
 6198SOL    HW119493   6.412   6.588   6.360
 6198SOL    HW219494   6.378   6.701   6.247
 6199SOL     OW19495   1.241   0.427   0.712
 6199SOL    HW119496   1.198   0.466   0.630
 6199SOL    HW219497   1.171   0.386   0.770
 6200SOL     OW19498   1.811   2.215   2.605
 6200SOL    HW119499   1.815   2.171   2.515
 6200SOL    HW219500   1.736   2.176   2.658
 6201SOL     OW19501   6.857   3.459   4.238
 6201SOL    HW119502   6.932   3.458   4.305
 6201SOL    HW219503   6.871   3.534   4.173
 6202SOL     OW19504   6.307   1.729   2.803
 6202SOL    HW119505   6.319   1.762   2.709
 6202SOL    HW219506   6.300   1.630   2.803
 6203SOL     OW19507   6.094   5.929   1.935
 6203SOL    HW119508   6.139   5.950   1.848
 6203SOL    HW219509   6.015   5.869   1.918
 6204SOL     OW19510   2.155   0.206   5.279
 6204SOL    HW119511   2.161   0.291   5.227
 6204SOL    HW219512   2.228   0.204   5.348
 6205SOL     OW19513   5.026   4.140   3.209
 6205SOL    HW119514   5.023   4.239   3.198
 6205SOL    HW219515   4.934   4.103   3.207
 6206SOL     OW19516   4.882   2.206   3.773
 6206SOL    HW119517   4.935   2.160   3.702
 6206SOL    HW219518   4.895   2.160   3.860
 6207SOL     OW19519   2.194   5.755   4.365
 6207SOL    HW119520   2.101   5.756   4.328
 6207SOL    HW219521   2.259   5.769   4.290
 6208SOL     OW19522   3.721   2.873   5.738
 6208SOL    HW119523   3.762   2.851   5.827
 6208SOL    HW219524   3.781   2.840   5.665
 6209SOL     OW19525   3.682   3.695   1.018
 6209SOL    HW119526   3.755   3.761   1.037
 6209SOL    HW219527   3.615   3.698   1.092
 6210SOL     OW19528   4.552   2.174   3.809
 6210SOL    HW119529   4.573   2.173   3.712
 6210SOL    HW219530   4.484   2.245   3.828
 6211SOL     OW19531   5.468   5.266   4.673
 6211SOL    HW119532   5.376   5.304   4.671
 6211SOL    HW219533   5.467   5.177   4.719
 6212SOL     OW19534   4.326   4.347   5.892
 6212SOL    HW119535   4.292   4.309   5.806
 6212SOL    HW219536   4.416   4.309   5.912
 6213SOL     OW19537   4.394   5.775   0.080
 6213SOL    HW119538   4.410   5.777   7.003
 6213SOL    HW219539   4.428   5.688   0.117
 6214SOL     OW19540   5.960   5.699   6.022
 6214SOL    HW119541   5.931   5.791   6.046
 6214SOL    HW219542   5.985   5.648   6.104
 6215SOL     OW19543   5.789   2.240   5.645
 6215SOL    HW119544   5.885   2.220   5.627
 6215SOL    HW219545   5.777   2.263   5.742
 6216SOL     OW19546   4.752   2.361   3.254
 6216SOL    HW119547   4.684   2.427   3.285
 6216SOL    HW219548   4.841   2.384   3.293
 6217SOL     OW19549   0.844   4.700   2.399
 6217SOL    HW119550   0.831   4.630   2.469
 6217SOL    HW219551   0.803   4.669   2.313
 6218SOL     OW19552   4.558   6.599   6.621
 6218SOL    HW119553   4.638   6.650   6.652
 6218SOL    HW219554   4.529   6.536   6.693
 6219SOL     OW19555   0.938   1.062   6.043
 6219SOL    HW119556   0.927   1.004   6.124
 6219SOL    HW219557   0.989   1.145   6.068
 6220SOL     OW19558   4.236   0.936   1.133
 6220SOL    HW119559   4.264   0.993   1.056
 6220SOL    HW219560   4.140   0.910   1.122
 6221SOL     OW19561   6.338   5.984   6.507
 6221SOL    HW119562   6.382   5.928   6.437
 6221SOL    HW219563   6.239   5.977   6.498
 6222SOL     OW19564   6.633   1.367   2.737
 6222SOL    HW119565   6.626   1.272   2.706
 6222SOL    HW219566   6.709   1.411   2.691
 6223SOL     OW19567   0.455   4.771   3.880
 6223SOL    HW119568   0.433   4.836   3.807
 6223SOL    HW219569   0.554   4.774   3.897
 6224SOL     OW19570   4.506   1.883   6.836
 6224SOL    HW119571   4.494   1.930   6.748
 6224SOL    HW219572   4.435   1.912   6.900
 6225SOL     OW19573   4.362   0.016   6.742
 6225SOL    HW119574   4.342   0.114   6.746
 6225SOL    HW219575   4.460   0.002   6.732
 6226SOL     OW19576   1.074   1.242   4.283
 6226SOL    HW119577   1.050   1.317   4.344
 6226SOL    HW219578   1.165   1.207   4.307
 6227SOL     OW19579   2.911   3.868   4.955
 6227SOL    HW119580   2.883   3.782   4.996
 6227SOL    HW219581   2.830   3.923   4.933
 6228SOL     OW19582   2.146   2.595   3.638
 6228SOL    HW119583   2.163   2.545   3.723
 6228SOL    HW219584   2.231   2.599   3.585
 6229SOL     OW19585   0.189   3.759   3.928
 6229SOL    HW119586   0.237   3.757   4.015
 6229SOL    HW219587   0.104   3.811   3.938
 6230SOL     OW19588   0.566   1.314   2.240
 6230SOL    HW119589   0.563   1.214   2.236
 6230SOL    HW219590   0.506   1.347   2.313
 6231SOL     OW19591   0.989   5.700   0.092
 6231SOL    HW119592   0.973   5.627   0.160
 6231SOL    HW219593   1.046   5.771   0.133
 6232SOL     OW19594   4.383   1.659   6.623
 6232SOL    HW119595   4.432   1.627   6.542
 6232SOL    HW219596   4.416   1.750   6.648
 6233SOL     OW19597   0.423   3.424   1.784
 6233SOL    HW119598   0.467   3.452   1.698
 6233SOL    HW219599   0.463   3.476   1.859
 6234SOL     OW19600   5.327   0.081   4.368
 6234SOL    HW119601   5.318   0.166   4.420
 6234SOL    HW219602   5.327   0.101   4.271
 6235SOL     OW19603   6.761   0.496   2.943
 6235SOL    HW119604   6.689   0.488   2.874
 6235SOL    HW219605   6.848   0.517   2.899
 6236SOL     OW19606   0.487   4.846   1.173
 6236SOL    HW119607   0.502   4.944   1.188
 6236SOL    HW219608   0.425   4.833   1.096
 6237SOL     OW19609   3.854   1.050   1.265
 6237SOL    HW119610   3.875   0.972   1.323
 6237SOL    HW219611   3.759   1.045   1.236
 6238SOL     OW19612   2.157   6.908   4.603
 6238SOL    HW119613   2.229   6.838   4.597
 6238SOL    HW219614   2.156   6.962   4.519
 6239SOL     OW19615   4.789   1.422   3.072
 6239SOL    HW119616   4.844   1.347   3.034
 6239SOL    HW219617   4.695   1.391   3.083
 6240SOL     OW19618   4.140   3.324   4.107
 6240SOL    HW119619   4.084   3.405   4.126
 6240SOL    HW219620   4.236   3.350   4.100
 6241SOL     OW19621   3.281   6.643   3.116
 6241SOL    HW119622   3.345   6.633   3.192
 6241SOL    HW219623   3.305   6.725   3.063
 6242SOL     OW19624   2.748   2.018   3.958
 6242SOL    HW119625   2.672   2.023   3.893
 6242SOL    HW219626   2.774   2.110   3.988
 6243SOL     OW19627   5.316   1.382   5.888
 6243SOL    HW119628   5.312   1.314   5.814
 6243SOL    HW219629   5.298   1.337   5.975
 6244SOL     OW19630   4.250   4.667   2.892
 6244SOL    HW119631   4.339   4.629   2.917
 6244SOL    HW219632   4.227   4.638   2.799
 6245SOL     OW19633   0.803   4.520   2.620
 6245SOL    HW119634   0.766   4.516   2.713
 6245SOL    HW219635   0.744   4.468   2.558
 6246SOL     OW19636   6.848   6.576   4.452
 6246SOL    HW119637   6.924   6.555   4.391
 6246SOL    HW219638   6.777   6.506   4.444
 6247SOL     OW19639   6.663   6.301   2.124
 6247SOL    HW119640   6.617   6.346   2.201
 6247SOL    HW219641   6.758   6.281   2.149
 6248SOL     OW19642   3.488   3.289   6.304
 6248SOL    HW119643   3.416   3.219   6.307
 6248SOL    HW219644   3.445   3.380   6.301
 6249SOL     OW19645   5.943   3.403   1.467
 6249SOL    HW119646   5.904   3.355   1.545
 6249SOL    HW219647   6.043   3.404   1.475
 6250SOL     OW19648   7.008   0.334   0.555
 6250SOL    HW119649   0.070   0.368   0.514
 6250SOL    HW219650   6.952   0.411   0.585
 6251SOL     OW19651   2.850   6.697   4.068
 6251SOL    HW119652   2.848   6.603   4.102
 6251SOL    HW219653   2.816   6.699   3.974
 6252SOL     OW19654   2.724   5.351   0.001
 6252SOL    HW119655   2.793   5.285   6.993
 6252SOL    HW219656   2.730   5.434   6.968
 6253SOL     OW19657   3.564   4.939   5.024
 6253SOL    HW119658   3.476   4.917   5.067
 6253SOL    HW219659   3.562   4.913   4.928
 6254SOL     OW19660   0.347   6.223   1.150
 6254SOL    HW119661   0.433   6.229   1.099
 6254SOL    HW219662   0.270   6.238   1.088
 6255SOL     OW19663   0.487   1.151   1.583
 6255SOL    HW119664   0.557   1.185   1.520
 6255SOL    HW219665   0.446   1.228   1.631
 6256SOL     OW19666   5.065   5.589   2.706
 6256SOL    HW119667   5.164   5.583   2.718
 6256SOL    HW219668   5.030   5.500   2.677
 6257SOL     OW19669   3.838   4.084   1.481
 6257SOL    HW119670   3.752   4.092   1.533
 6257SOL    HW219671   3.907   4.143   1.522
 6258SOL     OW19672   4.469   6.128   5.514
 6258SOL    HW119673   4.559   6.173   5.511
 6258SOL    HW219674   4.411   6.174   5.582
 6259SOL     OW19675   2.628   0.887   4.970
 6259SOL    HW119676   2.602   0.983   4.980
 6259SOL    HW219677   2.701   0.880   4.902
 6260SOL     OW19678   1.949   1.865   0.353
 6260SOL    HW119679   2.021   1.906   0.409
 6260SOL    HW219680   1.900   1.936   0.303
 6261SOL     OW19681   4.028   6.634   0.983
 6261SOL    HW119682   4.055   6.717   1.031
 6261SOL    HW219683   4.090   6.616   0.908
 6262SOL     OW19684   6.393   0.441   1.864
 6262SOL    HW119685   6.358   0.361   1.815
 6262SOL    HW219686   6.336   0.459   1.944
 6263SOL     OW19687   6.200   6.292   5.927
 6263SOL    HW119688   6.182   6.323   6.020
 6263SOL    HW219689   6.269   6.219   5.929
 6264SOL     OW19690   1.555   6.982   0.799
 6264SOL    HW119691   1.470   6.930   0.787
 6264SOL    HW219692   1.535   0.045   0.848
 6265SOL     OW19693   4.832   1.323   0.201
 6265SOL    HW119694   4.905   1.339   0.267
 6265SOL    HW219695   4.867   1.336   0.108
 6266SOL     OW19696   2.798   5.065   3.023
 6266SOL    HW119697   2.855   5.123   3.082
 6266SOL    HW219698   2.722   5.029   3.076
 6267SOL     OW19699   1.284   6.477   4.703
 6267SOL    HW119700   1.227   6.406   4.662
 6267SOL    HW219701   1.341   6.436   4.774
 6268SOL     OW19702   3.757   0.671   1.389
 6268SOL    HW119703   3.753   0.589   1.447
 6268SOL    HW219704   3.826   0.734   1.425
 6269SOL     OW19705   5.902   5.289   0.377
 6269SOL    HW119706   5.940   5.295   0.284
 6269SOL    HW219707   5.804   5.269   0.371
 6270SOL     OW19708   2.201   6.215   0.406
 6270SOL    HW119709   2.118   6.266   0.384
 6270SOL    HW219710   2.181   6.117   0.410
 6271SOL     OW19711   5.954   3.028   6.283
 6271SOL    HW119712   5.979   3.072   6.369
 6271SOL    HW219713   5.916   3.096   6.220
 6272SOL     OW19714   0.078   6.781   0.661
 6272SOL    HW119715   0.130   6.697   0.680
 6272SOL    HW219716   0.141   6.858   0.654
 6273SOL     OW19717   7.004   0.015   1.382
 6273SOL    HW119718   0.058   0.001   1.319
 6273SOL    HW219719   0.017   0.040   1.472
 6274SOL     OW19720   3.525   5.523   4.458
 6274SOL    HW119721   3.459   5.591   4.427
 6274SOL    HW219722   3.571   5.557   4.540
 6275SOL     OW19723   2.046   5.263   6.903
 6275SOL    HW119724   2.072   5.194   6.971
 6275SOL    HW219725   2.003   5.340   6.949
 6276SOL     OW19726   1.424   5.764   2.568
 6276SOL    HW119727   1.400   5.769   2.665
 6276SOL    HW219728   1.512   5.810   2.554
 6277SOL     OW19729   5.250   3.666   1.460
 6277SOL    HW119730   5.294   3.597   1.517
 6277SOL    HW219731   5.152   3.651   1.458
 6278SOL     OW19732   2.827   0.500   6.347
 6278SOL    HW119733   2.893   0.427   6.326
 6278SOL    HW219734   2.802   0.494   6.444
 6279SOL     OW19735   2.668   0.213   1.812
 6279SOL    HW119736   2.751   0.252   1.772
 6279SOL    HW219737   2.604   0.189   1.739
 6280SOL     OW19738   6.701   1.709   0.073
 6280SOL    HW119739   6.611   1.673   0.098
 6280SOL    HW219740   6.699   1.739   7.000
 6281SOL     OW19741   5.913   3.938   5.558
 6281SOL    HW119742   5.888   3.845   5.534
 6281SOL    HW219743   5.873   3.962   5.646
 6282SOL     OW19744   0.268   3.515   5.527
 6282SOL    HW119745   0.197   3.446   5.538
 6282SOL    HW219746   0.355   3.470   5.505
 6283SOL     OW19747   1.377   5.711   4.563
 6283SOL    HW119748   1.399   5.615   4.548
 6283SOL    HW219749   1.435   5.748   4.636
 6284SOL     OW19750   2.287   4.351   6.325
 6284SOL    HW119751   2.342   4.433   6.309
 6284SOL    HW219752   2.315   4.309   6.411
 6285SOL     OW19753   0.849   4.189   3.515
 6285SOL    HW119754   0.787   4.128   3.565
 6285SOL    HW219755   0.838   4.174   3.417
 6286SOL     OW19756   0.972   2.610   5.923
 6286SOL    HW119757   0.982   2.568   5.833
 6286SOL    HW219758   1.061   2.615   5.968
 6287SOL     OW19759   4.812   4.831   4.815
 6287SOL    HW119760   4.883   4.777   4.861
 6287SOL    HW219761   4.829   4.928   4.830
 6288SOL     OW19762   3.670   3.281   6.710
 6288SOL    HW119763   3.662   3.217   6.787
 6288SOL    HW219764   3.751   3.257   6.655
 6289SOL     OW19765   2.725   4.624   5.726
 6289SOL    HW119766   2.722   4.709   5.674
 6289SOL    HW219767   2.637   4.577   5.718
 6290SOL     OW19768   5.146   5.914   4.815
 6290SOL    HW119769   5.058   5.959   4.829
 6290SOL    HW219770   5.159   5.844   4.885
 6291SOL     OW19771   3.814   3.471   3.362
 6291SOL    HW119772   3.794   3.382   3.402
 6291SOL    HW219773   3.734   3.531   3.370
 6292SOL     OW19774   1.727   3.217   4.598
 6292SOL    HW119775   1.823   3.243   4.612
 6292SOL    HW219776   1.706   3.218   4.501
 6293SOL     OW19777   4.258   1.438   6.733
 6293SOL    HW119778   4.313   1.519   6.714
 6293SOL    HW219779   4.163   1.455   6.706
 6294SOL     OW19780   1.912   1.601   3.115
 6294SOL    HW119781   1.888   1.677   3.055
 6294SOL    HW219782   1.947   1.637   3.202
 6295SOL     OW19783   5.561   3.637   5.845
 6295SOL    HW119784   5.473   3.682   5.858
 6295SOL    HW219785   5.548   3.549   5.800
 6296SOL     OW19786   0.731   2.671   6.737
 6296SOL    HW119787   0.739   2.581   6.694
 6296SOL    HW219788   0.649   2.673   6.794
 6297SOL     OW19789   5.747   0.803   3.892
 6297SOL    HW119790   5.773   0.709   3.911
 6297SOL    HW219791   5.676   0.804   3.821
 6298SOL     OW19792   6.177   5.173   0.440
 6298SOL    HW119793   6.171   5.182   0.540
 6298SOL    HW219794   6.134   5.252   0.397
 6299SOL     OW19795   4.821   1.931   2.605
 6299SOL    HW119796   4.834   1.902   2.510
 6299SOL    HW219797   4.744   1.995   2.611
 6300SOL     OW19798   2.965   0.275   6.335
 6300SOL    HW119799   3.055   0.249   6.371
 6300SOL    HW219800   2.902   0.198   6.343
 6301SOL     OW19801   3.918   6.476   6.963
 6301SOL    HW119802   4.014   6.454   6.979
 6301SOL    HW219803   3.865   6.458   0.023
 6302SOL     OW19804   2.990   1.129   5.965
 6302SOL    HW119805   2.894   1.131   5.939
 6302SOL    HW219806   3.032   1.218   5.946
 6303SOL     OW19807   0.991   5.759   5.483
 6303SOL    HW119808   0.940   5.680   5.517
 6303SOL    HW219809   1.058   5.729   5.416
 6304SOL     OW19810   4.303   0.985   3.212
 6304SOL    HW119811   4.222   1.041   3.228
 6304SOL    HW219812   4.277   0.899   3.168
 6305SOL     OW19813   1.011   6.256   6.020
 6305SOL    HW119814   0.937   6.291   6.079
 6305SOL    HW219815   1.077   6.329   6.003
 6306SOL     OW19816   0.099   4.628   3.980
 6306SOL    HW119817   0.101   4.727   3.964
 6306SOL    HW219818   0.160   4.582   3.916
 6307SOL     OW19819   3.834   3.426   3.091
 6307SOL    HW119820   3.882   3.355   3.039
 6307SOL    HW219821   3.854   3.415   3.188
 6308SOL     OW19822   0.270   2.305   0.394
 6308SOL    HW119823   0.236   2.310   0.300
 6308SOL    HW219824   0.238   2.221   0.437
 6309SOL     OW19825   1.876   6.156   4.368
 6309SOL    HW119826   1.861   6.071   4.420
 6309SOL    HW219827   1.927   6.221   4.425
 6310SOL     OW19828   1.131   6.203   3.365
 6310SOL    HW119829   1.085   6.291   3.357
 6310SOL    HW219830   1.120   6.152   3.279
 6311SOL     OW19831   4.951   1.037   5.708
 6311SOL    HW119832   4.882   1.109   5.701
 6311SOL    HW219833   4.905   0.949   5.721
 6312SOL     OW19834   3.936   6.387   6.531
 6312SOL    HW119835   3.946   6.389   6.431
 6312SOL    HW219836   3.942   6.480   6.567
 6313SOL     OW19837   6.011   6.136   4.076
 6313SOL    HW119838   5.947   6.166   4.147
 6313SOL    HW219839   6.050   6.216   4.030
 6314SOL     OW19840   1.549   6.754   2.458
 6314SOL    HW119841   1.511   6.670   2.497
 6314SOL    HW219842   1.511   6.834   2.505
 6315SOL     OW19843   2.016   2.677   4.362
 6315SOL    HW119844   1.927   2.631   4.363
 6315SOL    HW219845   2.002   2.776   4.373
 6316SOL     OW19846   5.256   0.707   4.744
 6316SOL    HW119847   5.336   0.649   4.731
 6316SOL    HW219848   5.215   0.686   4.833
 6317SOL     OW19849   4.971   4.752   1.862
 6317SOL    HW119850   4.981   4.653   1.858
 6317SOL    HW219851   5.040   4.790   1.924
 6318SOL     OW19852   6.808   6.635   6.377
 6318SOL    HW119853   6.796   6.611   6.280
 6318SOL    HW219854   6.893   6.687   6.387
 6319SOL     OW19855   5.562   1.502   4.846
 6319SOL    HW119856   5.617   1.580   4.814
 6319SOL    HW219857   5.478   1.536   4.887
 6320SOL     OW19858   6.217   0.206   5.248
 6320SOL    HW119859   6.268   0.208   5.162
 6320SOL    HW219860   6.235   0.290   5.300
 6321SOL     OW19861   5.717   2.160   0.059
 6321SOL    HW119862   5.806   2.115   0.056
 6321SOL    HW219863   5.726   2.250   0.100
 6322SOL     OW19864   1.545   1.093   2.017
 6322SOL    HW119865   1.634   1.121   1.981
 6322SOL    HW219866   1.501   1.031   1.952
 6323SOL     OW19867   2.865   3.570   1.265
 6323SOL    HW119868   2.843   3.582   1.169
 6323SOL    HW219869   2.788   3.528   1.313
 6324SOL     OW19870   4.824   1.481   0.985
 6324SOL    HW119871   4.758   1.512   1.053
 6324SOL    HW219872   4.826   1.545   0.908
 6325SOL     OW19873   1.655   2.634   3.634
 6325SOL    HW119874   1.746   2.641   3.593
 6325SOL    HW219875   1.628   2.537   3.639
 6326SOL     OW19876   5.728   4.814   5.669
 6326SOL    HW119877   5.651   4.785   5.611
 6326SOL    HW219878   5.799   4.854   5.611
 6327SOL     OW19879   0.250   0.425   3.245
 6327SOL    HW119880   0.330   0.440   3.186
 6327SOL    HW219881   0.225   0.328   3.244
 6328SOL     OW19882   4.502   3.705   5.342
 6328SOL    HW119883   4.570   3.665   5.282
 6328SOL    HW219884   4.530   3.797   5.369
 6329SOL     OW19885   1.164   2.523   5.435
 6329SOL    HW119886   1.156   2.510   5.337
 6329SOL    HW219887   1.151   2.620   5.457
 6330SOL     OW19888   5.412   1.528   3.607
 6330SOL    HW119889   5.476   1.492   3.539
 6330SOL    HW219890   5.326   1.478   3.601
 6331SOL     OW19891   0.282   3.189   3.053
 6331SOL    HW119892   0.312   3.108   3.104
 6331SOL    HW219893   0.310   3.271   3.104
 6332SOL     OW19894   2.929   1.610   0.656
 6332SOL    HW119895   2.900   1.644   0.746
 6332SOL    HW219896   3.023   1.640   0.637
 6333SOL     OW19897   5.249   1.638   0.957
 6333SOL    HW119898   5.319   1.629   1.028
 6333SOL    HW219899   5.293   1.651   0.868
 6334SOL     OW19900   1.815   1.138   1.894
 6334SOL    HW119901   1.899   1.188   1.915
 6334SOL    HW219902   1.824   1.093   1.806
 6335SOL     OW19903   6.438   1.753   0.846
 6335SOL    HW119904   6.517   1.703   0.882
 6335SOL    HW219905   6.355   1.724   0.895
 6336SOL     OW19906   0.360   2.959   5.538
 6336SOL    HW119907   0.312   2.871   5.539
 6336SOL    HW219908   0.452   2.947   5.574
 6337SOL     OW19909   4.702   5.489   4.658
 6337SOL    HW119910   4.794   5.520   4.681
 6337SOL    HW219911   4.702   5.389   4.649
 6338SOL     OW19912   3.001   1.721   3.475
 6338SOL    HW119913   3.084   1.665   3.477
 6338SOL    HW219914   2.985   1.760   3.566
 6339SOL     OW19915   0.885   4.640   3.204
 6339SOL    HW119916   0.893   4.650   3.303
 6339SOL    HW219917   0.950   4.571   3.172
 6340SOL     OW19918   2.051   4.162   1.236
 6340SOL    HW119919   2.142   4.204   1.240
 6340SOL    HW219920   1.986   4.218   1.287
 6341SOL     OW19921   0.882   4.803   3.748
 6341SOL    HW119922   0.831   4.779   3.666
 6341SOL    HW219923   0.913   4.898   3.742
 6342SOL     OW19924   1.737   1.565   1.657
 6342SOL    HW119925   1.727   1.602   1.749
 6342SOL    HW219926   1.788   1.629   1.601
 6343SOL     OW19927   1.986   5.519   0.449
 6343SOL    HW119928   2.012   5.425   0.470
 6343SOL    HW219929   1.952   5.523   0.355
 6344SOL     OW19930   6.651   1.288   3.948
 6344SOL    HW119931   6.647   1.364   3.883
 6344SOL    HW219932   6.569   1.287   4.004
 6345SOL     OW19933   5.496   3.983   2.055
 6345SOL    HW119934   5.459   3.937   2.136
 6345SOL    HW219935   5.594   3.996   2.066
 6346SOL     OW19936   6.735   4.128   5.422
 6346SOL    HW119937   6.697   4.210   5.380
 6346SOL    HW219938   6.746   4.057   5.352
 6347SOL     OW19939   2.122   1.768   2.925
 6347SOL    HW119940   2.093   1.791   3.018
 6347SOL    HW219941   2.131   1.852   2.872
 6348SOL     OW19942   0.042   2.118   5.778
 6348SOL    HW119943   0.122   2.077   5.820
 6348SOL    HW219944   0.033   2.213   5.809
 6349SOL     OW19945   6.782   1.116   6.758
 6349SOL    HW119946   6.834   1.110   6.672
 6349SOL    HW219947   6.816   1.193   6.812
 6350SOL     OW19948   1.310   5.256   1.474
 6350SOL    HW119949   1.406   5.229   1.474
 6350SOL    HW219950   1.269   5.236   1.563
 6351SOL     OW19951   5.724   3.178   2.665
 6351SOL    HW119952   5.642   3.190   2.720
 6351SOL    HW219953   5.729   3.250   2.596
 6352SOL     OW19954   2.917   0.577   4.681
 6352SOL    HW119955   2.827   0.560   4.722
 6352SOL    HW219956   2.986   0.580   4.753
 6353SOL     OW19957   4.138   6.098   5.871
 6353SOL    HW119958   4.104   6.041   5.946
 6353SOL    HW219959   4.105   6.063   5.784
 6354SOL     OW19960   4.490   5.190   2.039
 6354SOL    HW119961   4.567   5.133   2.009
 6354SOL    HW219962   4.482   5.269   1.978
 6355SOL     OW19963   2.531   4.930   0.665
 6355SOL    HW119964   2.536   4.844   0.615
 6355SOL    HW219965   2.478   4.916   0.749
 6356SOL     OW19966   6.315   4.021   6.874
 6356SOL    HW119967   6.407   4.016   6.835
 6356SOL    HW219968   6.267   4.099   6.834
 6357SOL     OW19969   6.115   1.171   1.344
 6357SOL    HW119970   6.063   1.256   1.350
 6357SOL    HW219971   6.211   1.192   1.323
 6358SOL     OW19972   1.428   2.273   6.644
 6358SOL    HW119973   1.426   2.267   6.744
 6358SOL    HW219974   1.358   2.213   6.605
 6359SOL     OW19975   5.377   6.287   0.651
 6359SOL    HW119976   5.424   6.200   0.669
 6359SOL    HW219977   5.429   6.340   0.585
 6360SOL     OW19978   1.047   2.348   2.080
 6360SOL    HW119979   1.039   2.399   1.994
 6360SOL    HW219980   1.042   2.412   2.157
 6361SOL     OW19981   0.694   0.062   6.982
 6361SOL    HW119982   0.603   0.040   6.947
 6361SOL    HW219983   0.705   0.161   6.986
 6362SOL     OW19984   1.342   5.916   6.972
 6362SOL    HW119985   1.274   5.964   6.916
 6362SOL    HW219986   1.375   5.977   0.022
 6363SOL     OW19987   2.617   4.675   3.583
 6363SOL    HW119988   2.546   4.623   3.536
 6363SOL    HW219989   2.665   4.616   3.648
 6364SOL     OW19990   2.196   2.946   4.428
 6364SOL    HW119991   2.106   2.930   4.388
 6364SOL    HW219992   2.186   2.987   4.519
 6365SOL     OW19993   5.179   5.468   3.311
 6365SOL    HW119994   5.095   5.468   3.365
 6365SOL    HW219995   5.178   5.392   3.246
 6366SOL     OW19996   5.788   6.946   4.674
 6366SOL    HW119997   5.725   7.000   4.730
 6366SOL    HW219998   5.751   6.854   4.663
 6367SOL     OW19999   1.878   2.331   2.244
 6367SOL    HW120000   1.779   2.324   2.257
 6367SOL    HW220001   1.914   2.404   2.303
 6368SOL     OW20002   4.672   2.851   4.672
 6368SOL    HW120003   4.756   2.895   4.643
 6368SOL    HW220004   4.595   2.888   4.621
 6369SOL     OW20005   3.755   5.478   6.343
 6369SOL    HW120006   3.798   5.444   6.259
 6369SOL    HW220007   3.771   5.413   6.417
 6370SOL     OW20008   5.391   3.262   4.368
 6370SOL    HW120009   5.381   3.192   4.439
 6370SOL    HW220010   5.352   3.348   4.401
 6371SOL     OW20011   4.705   4.663   1.958
 6371SOL    HW120012   4.626   4.713   1.995
 6371SOL    HW220013   4.788   4.717   1.973
 6372SOL     OW20014   6.341   1.438   2.768
 6372SOL    HW120015   6.432   1.430   2.809
 6372SOL    HW220016   6.304   1.347   2.751
 6373SOL     OW20017   4.752   4.241   1.236
 6373SOL    HW120018   4.821   4.313   1.229
 6373SOL    HW220019   4.724   4.213   1.144
 6374SOL     OW20020   4.507   3.506   0.148
 6374SOL    HW120021   4.588   3.558   0.175
 6374SOL    HW220022   4.430   3.531   0.207
 6375SOL     OW20023   6.199   2.698   1.853
 6375SOL    HW120024   6.134   2.740   1.917
 6375SOL    HW220025   6.232   2.612   1.890
 6376SOL     OW20026   3.488   1.112   6.535
 6376SOL    HW120027   3.473   1.013   6.541
 6376SOL    HW220028   3.523   1.146   6.623
 6377SOL     OW20029   6.856   0.638   0.314
 6377SOL    HW120030   6.893   0.731   0.302
 6377SOL    HW220031   6.855   0.614   0.411
 6378SOL     OW20032   5.361   5.906   2.320
 6378SOL    HW120033   5.436   5.891   2.384
 6378SOL    HW220034   5.374   5.848   2.240
 6379SOL     OW20035   2.315   6.278   0.050
 6379SOL    HW120036   2.363   6.193   0.028
 6379SOL    HW220037   2.257   6.264   0.130
 6380SOL     OW20038   1.315   3.638   5.182
 6380SOL    HW120039   1.400   3.669   5.225
 6380SOL    HW220040   1.336   3.600   5.092
 6381SOL     OW20041   4.573   2.477   0.205
 6381SOL    HW120042   4.541   2.559   0.158
 6381SOL    HW220043   4.509   2.454   0.278
 6382SOL     OW20044   1.501   1.574   1.481
 6382SOL    HW120045   1.480   1.495   1.423
 6382SOL    HW220046   1.561   1.546   1.556
 6383SOL     OW20047   2.296   2.540   2.291
 6383SOL    HW120048   2.253   2.619   2.248
 6383SOL    HW220049   2.341   2.484   2.221
 6384SOL     OW20050   5.992   2.436   2.927
 6384SOL    HW120051   5.911   2.470   2.879
 6384SOL    HW220052   5.983   2.338   2.943
 6385SOL     OW20053   6.729   3.258   1.711
 6385SOL    HW120054   6.733   3.171   1.760
 6385SOL    HW220055   6.779   3.251   1.625
 6386SOL     OW20056   2.696   3.611   0.455
 6386SOL    HW120057   2.629   3.537   0.456
 6386SOL    HW220058   2.782   3.578   0.416
 6387SOL     OW20059   0.157   0.391   6.238
 6387SOL    HW120060   0.140   0.459   6.309
 6387SOL    HW220061   0.071   0.363   6.197
 6388SOL     OW20062   6.890   5.272   2.301
 6388SOL    HW120063   6.921   5.316   2.216
 6388SOL    HW220064   6.916   5.176   2.300
 6389SOL     OW20065   0.901   0.493   6.998
 6389SOL    HW120066   0.926   0.555   6.923
 6389SOL    HW220067   0.869   0.406   6.960
 6390SOL     OW20068   6.392   1.220   6.217
 6390SOL    HW120069   6.368   1.123   6.226
 6390SOL    HW220070   6.389   1.246   6.120
 6391SOL     OW20071   0.783   1.488   5.284
 6391SOL    HW120072   0.872   1.479   5.328
 6391SOL    HW220073   0.795   1.531   5.194
 6392SOL     OW20074   4.130   6.576   3.788
 6392SOL    HW120075   4.202   6.537   3.730
 6392SOL    HW220076   4.100   6.507   3.854
 6393SOL     OW20077   6.726   5.352   0.675
 6393SOL    HW120078   6.658   5.411   0.633
 6393SOL    HW220079   6.806   5.344   0.615
 6394SOL     OW20080   1.289   5.490   1.021
 6394SOL    HW120081   1.348   5.475   1.100
 6394SOL    HW220082   1.284   5.588   1.002
 6395SOL     OW20083   2.298   4.294   3.323
 6395SOL    HW120084   2.202   4.318   3.335
 6395SOL    HW220085   2.319   4.286   3.226
 6396SOL     OW20086   0.851   3.508   6.687
 6396SOL    HW120087   0.878   3.576   6.755
 6396SOL    HW220088   0.915   3.511   6.610
 6397SOL     OW20089   5.824   3.250   3.971
 6397SOL    HW120090   5.811   3.346   3.994
 6397SOL    HW220091   5.748   3.219   3.914
 6398SOL     OW20092   1.907   0.585   1.025
 6398SOL    HW120093   1.857   0.670   1.012
 6398SOL    HW220094   1.846   0.507   1.011
 6399SOL     OW20095   3.080   1.385   5.864
 6399SOL    HW120096   3.165   1.379   5.810
 6399SOL    HW220097   3.030   1.468   5.838
 6400SOL     OW20098   1.201   6.394   2.734
 6400SOL    HW120099   1.223   6.320   2.670
 6400SOL    HW220100   1.139   6.359   2.804
 6401SOL     OW20101   3.646   6.178   3.820
 6401SOL    HW120102   3.632   6.218   3.730
 6401SOL    HW220103   3.704   6.097   3.812
 6402SOL     OW20104   1.724   5.017   5.135
 6402SOL    HW120105   1.807   5.038   5.084
 6402SOL    HW220106   1.728   5.060   5.225
 6403SOL     OW20107   4.893   5.686   4.804
 6403SOL    HW120108   4.884   5.782   4.777
 6403SOL    HW220109   4.980   5.674   4.853
 6404SOL     OW20110   3.893   0.168   2.257
 6404SOL    HW120111   3.959   0.231   2.297
 6404SOL    HW220112   3.887   0.085   2.313
 6405SOL     OW20113   5.172   1.500   2.418
 6405SOL    HW120114   5.204   1.590   2.388
 6405SOL    HW220115   5.201   1.431   2.353
 6406SOL     OW20116   0.559   2.844   3.123
 6406SOL    HW120117   0.654   2.877   3.124
 6406SOL    HW220118   0.499   2.914   3.161
 6407SOL     OW20119   1.654   5.862   2.484
 6407SOL    HW120120   1.674   5.832   2.391
 6407SOL    HW220121   1.729   5.920   2.517
 6408SOL     OW20122   6.416   0.477   1.133
 6408SOL    HW120123   6.359   0.482   1.216
 6408SOL    HW220124   6.393   0.552   1.072
 6409SOL     OW20125   5.243   5.214   3.188
 6409SOL    HW120126   5.312   5.181   3.124
 6409SOL    HW220127   5.262   5.177   3.280
 6410SOL     OW20128   2.241   1.396   5.737
 6410SOL    HW120129   2.255   1.311   5.789
 6410SOL    HW220130   2.328   1.428   5.701
 6411SOL     OW20131   0.257   2.530   2.316
 6411SOL    HW120132   0.315   2.486   2.385
 6411SOL    HW220133   0.238   2.624   2.344
 6412SOL     OW20134   3.470   0.255   0.248
 6412SOL    HW120135   3.396   0.246   0.181
 6412SOL    HW220136   3.496   0.351   0.256
 6413SOL     OW20137   5.322   6.322   3.559
 6413SOL    HW120138   5.366   6.401   3.602
 6413SOL    HW220139   5.321   6.334   3.460
 6414SOL     OW20140   1.846   0.225   0.248
 6414SOL    HW120141   1.938   0.203   0.281
 6414SOL    HW220142   1.781   0.219   0.323
 6415SOL     OW20143   0.415   2.493   3.467
 6415SOL    HW120144   0.318   2.515   3.477
 6415SOL    HW220145   0.426   2.423   3.395
 6416SOL     OW20146   2.883   6.886   0.233
 6416SOL    HW120147   2.835   6.813   0.184
 6416SOL    HW220148   2.943   6.934   0.171
 6417SOL     OW20149   3.854   1.555   0.408
 6417SOL    HW120150   3.880   1.543   0.311
 6417SOL    HW220151   3.755   1.563   0.415
 6418SOL     OW20152   4.624   5.238   0.763
 6418SOL    HW120153   4.629   5.254   0.861
 6418SOL    HW220154   4.667   5.150   0.742
 6419SOL     OW20155   1.019   6.584   6.694
 6419SOL    HW120156   1.112   6.600   6.727
 6419SOL    HW220157   1.022   6.520   6.617
 6420SOL     OW20158   2.017   3.956   4.464
 6420SOL    HW120159   2.050   4.026   4.527
 6420SOL    HW220160   1.921   3.975   4.442
 6421SOL     OW20161   4.307   0.446   2.091
 6421SOL    HW120162   4.305   0.524   2.029
 6421SOL    HW220163   4.230   0.452   2.155
 6422SOL     OW20164   6.087   1.945   5.043
 6422SOL    HW120165   5.993   1.913   5.031
 6422SOL    HW220166   6.144   1.870   5.075
 6423SOL     OW20167   2.418   4.353   4.363
 6423SOL    HW120168   2.437   4.379   4.458
 6423SOL    HW220169   2.428   4.433   4.304
 6424SOL     OW20170   6.259   4.888   4.986
 6424SOL    HW120171   6.359   4.881   4.997
 6424SOL    HW220172   6.221   4.798   4.968
 6425SOL     OW20173   0.226   5.636   3.691
 6425SOL    HW120174   0.221   5.697   3.770
 6425SOL    HW220175   0.138   5.590   3.680
 6426SOL     OW20176   4.698   4.299   4.834
 6426SOL    HW120177   4.655   4.362   4.769
 6426SOL    HW220178   4.706   4.344   4.923
 6427SOL     OW20179   3.572   2.866   3.315
 6427SOL    HW120180   3.607   2.915   3.396
 6427SOL    HW220181   3.473   2.857   3.322
 6428SOL     OW20182   5.304   3.275   0.563
 6428SOL    HW120183   5.389   3.235   0.596
 6428SOL    HW220184   5.285   3.243   0.470
 6429SOL     OW20185   2.300   0.950   5.331
 6429SOL    HW120186   2.260   0.999   5.409
 6429SOL    HW220187   2.299   1.009   5.250
 6430SOL     OW20188   6.989   0.147   5.467
 6430SOL    HW120189   7.002   0.168   5.564
 6430SOL    HW220190   0.038   0.085   5.436
 6431SOL     OW20191   3.880   4.874   1.479
 6431SOL    HW120192   3.806   4.817   1.444
 6431SOL    HW220193   3.892   4.857   1.577
 6432SOL     OW20194   4.683   4.456   6.001
 6432SOL    HW120195   4.776   4.491   6.013
 6432SOL    HW220196   4.640   4.502   5.923
 6433SOL     OW20197   2.539   5.811   6.846
 6433SOL    HW120198   2.613   5.853   6.793
 6433SOL    HW220199   2.499   5.736   6.794
 6434SOL     OW20200   3.608   5.145   5.825
 6434SOL    HW120201   3.540   5.211   5.794
 6434SOL    HW220202   3.565   5.055   5.831
 6435SOL     OW20203   4.604   1.395   0.779
 6435SOL    HW120204   4.609   1.478   0.835
 6435SOL    HW220205   4.685   1.390   0.720
 6436SOL     OW20206   7.016   4.320   4.539
 6436SOL    HW120207   7.000   4.360   4.448
 6436SOL    HW220208   6.928   4.300   4.582
 6437SOL     OW20209   0.764   2.060   5.152
 6437SOL    HW120210   0.831   2.129   5.124
 6437SOL    HW220211   0.811   1.985   5.198
 6438SOL     OW20212   0.287   5.727   0.434
 6438SOL    HW120213   0.350   5.800   0.462
 6438SOL    HW220214   0.244   5.753   0.348
 6439SOL     OW20215   5.734   0.300   3.009
 6439SOL    HW120216   5.817   0.272   2.961
 6439SOL    HW220217   5.658   0.241   2.982
 6440SOL     OW20218   2.652   1.776   6.741
 6440SOL    HW120219   2.614   1.863   6.713
 6440SOL    HW220220   2.647   1.711   6.665
 6441SOL     OW20221   0.874   1.707   2.598
 6441SOL    HW120222   0.889   1.609   2.586
 6441SOL    HW220223   0.943   1.745   2.660
 6442SOL     OW20224   3.172   2.830   5.157
 6442SOL    HW120225   3.098   2.827   5.224
 6442SOL    HW220226   3.138   2.801   5.068
 6443SOL     OW20227   5.025   2.500   0.352
 6443SOL    HW120228   5.047   2.413   0.309
 6443SOL    HW220229   4.963   2.552   0.294
 6444SOL     OW20230   6.716   3.210   5.172
 6444SOL    HW120231   6.751   3.171   5.257
 6444SOL    HW220232   6.624   3.246   5.186
 6445SOL     OW20233   3.108   3.064   3.209
 6445SOL    HW120234   3.020   3.036   3.172
 6445SOL    HW220235   3.136   3.150   3.167
 6446SOL     OW20236   2.361   0.871   6.495
 6446SOL    HW120237   2.434   0.930   6.528
 6446SOL    HW220238   2.383   0.839   6.403
 6447SOL     OW20239   6.273   3.649   1.892
 6447SOL    HW120240   6.265   3.696   1.804
 6447SOL    HW220241   6.245   3.553   1.882
 6448SOL     OW20242   3.751   5.600   1.362
 6448SOL    HW120243   3.658   5.564   1.356
 6448SOL    HW220244   3.816   5.531   1.329
 6449SOL     OW20245   2.188   4.993   0.918
 6449SOL    HW120246   2.210   5.084   0.882
 6449SOL    HW220247   2.123   5.002   0.994
 6450SOL     OW20248   0.189   4.341   1.203
 6450SOL    HW120249   0.241   4.424   1.181
 6450SOL    HW220250   0.252   4.265   1.220
 6451SOL     OW20251   4.050   2.215   1.380
 6451SOL    HW120252   4.037   2.310   1.352
 6451SOL    HW220253   4.039   2.155   1.300
 6452SOL     OW20254   4.825   2.473   3.811
 6452SOL    HW120255   4.886   2.505   3.883
 6452SOL    HW220256   4.840   2.376   3.794
 6453SOL     OW20257   3.280   0.794   1.243
 6453SOL    HW120258   3.334   0.739   1.307
 6453SOL    HW220259   3.183   0.780   1.262
 6454SOL     OW20260   5.502   2.844   3.715
 6454SOL    HW120261   5.539   2.807   3.630
 6454SOL    HW220262   5.444   2.923   3.695
 6455SOL     OW20263   6.705   3.577   3.197
 6455SOL    HW120264   6.630   3.550   3.137
 6455SOL    HW220265   6.674   3.648   3.260
 6456SOL     OW20266   6.237   1.751   3.088
 6456SOL    HW120267   6.171   1.817   3.125
 6456SOL    HW220268   6.248   1.765   2.990
 6457SOL     OW20269   3.809   0.511   2.268
 6457SOL    HW120270   3.814   0.526   2.366
 6457SOL    HW220271   3.721   0.545   2.233
 6458SOL     OW20272   0.394   4.939   3.684
 6458SOL    HW120273   0.411   4.938   3.585
 6458SOL    HW220274   0.391   5.034   3.716
 6459SOL     OW20275   6.347   3.513   2.257
 6459SOL    HW120276   6.399   3.590   2.220
 6459SOL    HW220277   6.295   3.469   2.184
 6460SOL     OW20278   0.730   5.827   5.965
 6460SOL    HW120279   0.807   5.891   5.978
 6460SOL    HW220280   0.757   5.757   5.899
 6461SOL     OW20281   2.441   5.363   1.234
 6461SOL    HW120282   2.400   5.449   1.267
 6461SOL    HW220283   2.493   5.381   1.151
 6462SOL     OW20284   1.583   3.647   5.277
 6462SOL    HW120285   1.588   3.578   5.350
 6462SOL    HW220286   1.645   3.621   5.203
 6463SOL     OW20287   4.900   2.045   1.669
 6463SOL    HW120288   4.807   2.014   1.690
 6463SOL    HW220289   4.903   2.145   1.669
 6464SOL     OW20290   1.477   5.001   4.429
 6464SOL    HW120291   1.533   5.075   4.467
 6464SOL    HW220292   1.462   4.931   4.499
 6465SOL     OW20293   3.862   0.961   3.129
 6465SOL    HW120294   3.778   1.000   3.090
 6465SOL    HW220295   3.842   0.920   3.217
 6466SOL     OW20296   0.867   2.686   0.253
 6466SOL    HW120297   0.888   2.709   0.158
 6466SOL    HW220298   0.818   2.762   0.296
 6467SOL     OW20299   3.224   1.904   0.933
 6467SOL    HW120300   3.142   1.876   0.884
 6467SOL    HW220301   3.296   1.928   0.867
 6468SOL     OW20302   2.671   0.797   0.950
 6468SOL    HW120303   2.583   0.829   0.986
 6468SOL    HW220304   2.741   0.806   1.021
 6469SOL     OW20305   3.459   2.118   3.424
 6469SOL    HW120306   3.406   2.039   3.393
 6469SOL    HW220307   3.440   2.133   3.521
 6470SOL     OW20308   6.734   1.888   6.881
 6470SOL    HW120309   6.740   1.976   6.929
 6470SOL    HW220310   6.814   1.875   6.823
 6471SOL     OW20311   0.484   6.235   5.418
 6471SOL    HW120312   0.460   6.233   5.321
 6471SOL    HW220313   0.474   6.328   5.453
 6472SOL     OW20314   6.474   6.144   2.585
 6472SOL    HW120315   6.421   6.228   2.591
 6472SOL    HW220316   6.471   6.109   2.491
 6473SOL     OW20317   2.373   1.701   3.860
 6473SOL    HW120318   2.300   1.647   3.900
 6473SOL    HW220319   2.383   1.678   3.763
 6474SOL     OW20320   3.779   5.150   5.469
 6474SOL    HW120321   3.857   5.167   5.409
 6474SOL    HW220322   3.811   5.110   5.555
 6475SOL     OW20323   5.576   4.917   2.677
 6475SOL    HW120324   5.592   4.972   2.759
 6475SOL    HW220325   5.490   4.944   2.635
 6476SOL     OW20326   3.314   1.426   6.482
 6476SOL    HW120327   3.396   1.423   6.538
 6476SOL    HW220328   3.338   1.402   6.387
 6477SOL     OW20329   6.484   6.291   1.366
 6477SOL    HW120330   6.503   6.389   1.372
 6477SOL    HW220331   6.535   6.243   1.438
 6478SOL     OW20332   3.498   5.481   1.367
 6478SOL    HW120333   3.447   5.425   1.432
 6478SOL    HW220334   3.436   5.515   1.297
 6479SOL     OW20335   3.279   6.067   4.032
 6479SOL    HW120336   3.323   6.151   4.001
 6479SOL    HW220337   3.182   6.070   4.011
 6480SOL     OW20338   3.157   1.532   6.813
 6480SOL    HW120339   3.065   1.506   6.784
 6480SOL    HW220340   3.154   1.623   6.855
 6481SOL     OW20341   3.546   2.827   1.964
 6481SOL    HW120342   3.454   2.863   1.983
 6481SOL    HW220343   3.542   2.765   1.886
 6482SOL     OW20344   5.748   3.878   5.304
 6482SOL    HW120345   5.818   3.940   5.340
 6482SOL    HW220346   5.715   3.912   5.216
 6483SOL     OW20347   1.261   5.582   5.004
 6483SOL    HW120348   1.340   5.625   5.048
 6483SOL    HW220349   1.285   5.557   4.910
 6484SOL     OW20350   2.560   0.921   4.316
 6484SOL    HW120351   2.511   0.871   4.245
 6484SOL    HW220352   2.577   0.860   4.394
 6485SOL     OW20353   1.999   6.832   4.068
 6485SOL    HW120354   1.917   6.787   4.102
 6485SOL    HW220355   2.006   6.818   3.969
 6486SOL     OW20356   1.688   4.550   3.657
 6486SOL    HW120357   1.668   4.544   3.559
 6486SOL    HW220358   1.683   4.459   3.698
 6487SOL     OW20359   5.857   4.650   3.647
 6487SOL    HW120360   5.952   4.628   3.627
 6487SOL    HW220361   5.814   4.573   3.694
 6488SOL     OW20362   4.367   5.431   4.243
 6488SOL    HW120363   4.456   5.393   4.269
 6488SOL    HW220364   4.320   5.464   4.324
 6489SOL     OW20365   4.220   3.268   5.734
 6489SOL    HW120366   4.314   3.263   5.766
 6489SOL    HW220367   4.211   3.345   5.670
 6490SOL     OW20368   1.839   2.083   0.203
 6490SOL    HW120369   1.808   2.011   0.142
 6490SOL    HW220370   1.880   2.157   0.150
 6491SOL     OW20371   2.703   0.184   1.414
 6491SOL    HW120372   2.773   0.113   1.403
 6491SOL    HW220373   2.665   0.207   1.325
 6492SOL     OW20374   3.458   3.650   4.504
 6492SOL    HW120375   3.499   3.736   4.536
 6492SOL    HW220376   3.525   3.599   4.452
 6493SOL     OW20377   0.699   3.905   5.570
 6493SOL    HW120378   0.643   3.972   5.523
 6493SOL    HW220379   0.736   3.840   5.504
 6494SOL     OW20380   5.858   0.182   1.868
 6494SOL    HW120381   5.838   0.204   1.773
 6494SOL    HW220382   5.785   0.215   1.927
 6495SOL     OW20383   6.317   0.032   3.583
 6495SOL    HW120384   6.411   0.049   3.612
 6495SOL    HW220385   6.314   6.972   3.527
 6496SOL     OW20386   3.941   1.188   1.585
 6496SOL    HW120387   4.010   1.254   1.555
 6496SOL    HW220388   3.852   1.231   1.587
 6497SOL     OW20389   0.358   1.291   1.002
 6497SOL    HW120390   0.312   1.218   0.952
 6497SOL    HW220391   0.392   1.256   1.089
 6498SOL     OW20392   1.008   4.387   4.453
 6498SOL    HW120393   0.919   4.347   4.475
 6498SOL    HW220394   1.080   4.320   4.471
 6499SOL     OW20395   4.999   3.253   3.449
 6499SOL    HW120396   4.987   3.331   3.511
 6499SOL    HW220397   5.024   3.172   3.502
 6500SOL     OW20398   1.717   4.008   3.090
 6500SOL    HW120399   1.739   4.057   3.005
 6500SOL    HW220400   1.788   4.025   3.158
 6501SOL     OW20401   6.135   2.099   0.692
 6501SOL    HW120402   6.230   2.108   0.662
 6501SOL    HW220403   6.118   2.160   0.769
 6502SOL     OW20404   6.586   4.014   1.763
 6502SOL    HW120405   6.617   4.107   1.783
 6502SOL    HW220406   6.627   3.951   1.828
 6503SOL     OW20407   6.560   3.225   5.444
 6503SOL    HW120408   6.489   3.157   5.424
 6503SOL    HW220409   6.517   3.315   5.455
 6504SOL     OW20410   4.638   6.274   6.492
 6504SOL    HW120411   4.557   6.220   6.513
 6504SOL    HW220412   4.691   6.289   6.575
 6505SOL     OW20413   6.726   5.674   0.813
 6505SOL    HW120414   6.748   5.768   0.840
 6505SOL    HW220415   6.782   5.649   0.734
 6506SOL     OW20416   0.308   3.913   2.209
 6506SOL    HW120417   0.265   3.984   2.265
 6506SOL    HW220418   0.240   3.844   2.185
 6507SOL     OW20419   4.072   4.411   6.701
 6507SOL    HW120420   4.036   4.500   6.675
 6507SOL    HW220421   4.172   4.413   6.699
 6508SOL     OW20422   0.637   6.701   2.170
 6508SOL    HW120423   0.692   6.769   2.220
 6508SOL    HW220424   0.688   6.671   2.090
 6509SOL     OW20425   2.930   1.428   6.149
 6509SOL    HW120426   2.882   1.515   6.137
 6509SOL    HW220427   2.992   1.413   6.072
 6510SOL     OW20428   4.180   5.592   5.786
 6510SOL    HW120429   4.216   5.636   5.868
 6510SOL    HW220430   4.131   5.659   5.731
 6511SOL     OW20431   2.973   1.055   0.160
 6511SOL    HW120432   3.016   1.020   0.076
 6511SOL    HW220433   2.989   0.991   0.235
 6512SOL     OW20434   4.007   1.172   0.633
 6512SOL    HW120435   3.983   1.119   0.715
 6512SOL    HW220436   3.962   1.261   0.637
 6513SOL     OW20437   2.287   5.098   3.449
 6513SOL    HW120438   2.322   5.091   3.355
 6513SOL    HW220439   2.199   5.146   3.448
 6514SOL     OW20440   5.727   6.898   5.681
 6514SOL    HW120441   5.785   6.817   5.677
 6514SOL    HW220442   5.710   6.923   5.777
 6515SOL     OW20443   2.160   5.027   1.823
 6515SOL    HW120444   2.174   4.981   1.735
 6515SOL    HW220445   2.242   5.017   1.879
 6516SOL     OW20446   6.778   3.629   1.556
 6516SOL    HW120447   6.858   3.569   1.551
 6516SOL    HW220448   6.718   3.610   1.478
 6517SOL     OW20449   6.865   2.861   0.478
 6517SOL    HW120450   6.906   2.935   0.425
 6517SOL    HW220451   6.809   2.900   0.552
 6518SOL     OW20452   1.223   2.054   3.194
 6518SOL    HW120453   1.165   2.001   3.132
 6518SOL    HW220454   1.176   2.139   3.219
 6519SOL     OW20455   1.075   1.455   3.000
 6519SOL    HW120456   1.024   1.539   3.021
 6519SOL    HW220457   1.077   1.443   2.900
 6520SOL     OW20458   0.519   5.519   0.087
 6520SOL    HW120459   0.592   5.459   0.121
 6520SOL    HW220460   0.445   5.523   0.155
 6521SOL     OW20461   1.360   3.757   4.228
 6521SOL    HW120462   1.398   3.802   4.309
 6521SOL    HW220463   1.358   3.658   4.243
 6522SOL     OW20464   2.920   3.249   5.415
 6522SOL    HW120465   2.983   3.277   5.342
 6522SOL    HW220466   2.879   3.160   5.391
 6523SOL     OW20467   5.969   0.008   6.857
 6523SOL    HW120468   6.058   0.017   6.813
 6523SOL    HW220469   5.899   7.013   6.787
 6524SOL     OW20470   2.448   2.397   2.078
 6524SOL    HW120471   2.538   2.391   2.122
 6524SOL    HW220472   2.427   2.309   2.034
 6525SOL     OW20473   1.163   4.903   3.475
 6525SOL    HW120474   1.129   4.954   3.554
 6525SOL    HW220475   1.195   4.813   3.504
 6526SOL     OW20476   0.533   7.000   0.518
 6526SOL    HW120477   0.563   0.006   0.427
 6526SOL    HW220478   0.433   7.005   0.523
 6527SOL     OW20479   0.371   2.528   0.509
 6527SOL    HW120480   0.316   2.451   0.475
 6527SOL    HW220481   0.313   2.609   0.517
 6528SOL     OW20482   5.646   0.660   6.273
 6528SOL    HW120483   5.642   0.667   6.373
 6528SOL    HW220484   5.629   0.566   6.245
 6529SOL     OW20485   6.728   1.028   2.074
 6529SOL    HW120486   6.681   1.016   1.986
 6529SOL    HW220487   6.804   0.963   2.080
 6530SOL     OW20488   1.422   3.049   2.258
 6530SOL    HW120489   1.360   2.988   2.209
 6530SOL    HW220490   1.417   3.029   2.356
 6531SOL     OW20491   4.100   3.853   5.247
 6531SOL    HW120492   4.158   3.776   5.273
 6531SOL    HW220493   4.070   3.841   5.153
 6532SOL     OW20494   1.329   0.842   0.804
 6532SOL    HW120495   1.291   0.854   0.712
 6532SOL    HW220496   1.428   0.857   0.801
 6533SOL     OW20497   4.860   3.893   0.732
 6533SOL    HW120498   4.937   3.912   0.671
 6533SOL    HW220499   4.873   3.942   0.818
 6534SOL     OW20500   0.133   4.563   3.162
 6534SOL    HW120501   0.073   4.616   3.102
 6534SOL    HW220502   0.204   4.518   3.108
 6535SOL     OW20503   6.256   3.203   5.176
 6535SOL    HW120504   6.236   3.155   5.091
 6535SOL    HW220505   6.316   3.148   5.233
 6536SOL     OW20506   0.976   3.779   4.944
 6536SOL    HW120507   1.046   3.712   4.918
 6536SOL    HW220508   0.902   3.732   4.993
 6537SOL     OW20509   5.943   5.236   4.049
 6537SOL    HW120510   5.846   5.261   4.053
 6537SOL    HW220511   5.997   5.315   4.022
 6538SOL     OW20512   2.639   3.014   5.642
 6538SOL    HW120513   2.542   3.014   5.668
 6538SOL    HW220514   2.687   3.085   5.694
 6539SOL     OW20515   5.772   1.092   5.053
 6539SOL    HW120516   5.813   1.114   5.141
 6539SOL    HW220517   5.762   0.992   5.045
 6540SOL     OW20518   5.492   2.388   5.809
 6540SOL    HW120519   5.481   2.487   5.812
 6540SOL    HW220520   5.578   2.364   5.854
 6541SOL     OW20521   5.640   0.662   4.524
 6541SOL    HW120522   5.739   0.670   4.518
 6541SOL    HW220523   5.598   0.751   4.509
 6542SOL     OW20524   1.413   4.265   3.657
 6542SOL    HW120525   1.389   4.260   3.754
 6542SOL    HW220526   1.343   4.218   3.604
 6543SOL     OW20527   3.972   2.041   5.156
 6543SOL    HW120528   4.010   2.116   5.102
 6543SOL    HW220529   3.980   1.955   5.106
 6544SOL     OW20530   1.290   6.499   1.688
 6544SOL    HW120531   1.199   6.539   1.699
 6544SOL    HW220532   1.359   6.567   1.713
 6545SOL     OW20533   4.647   0.203   0.702
 6545SOL    HW120534   4.606   0.291   0.724
 6545SOL    HW220535   4.587   0.129   0.734
 6546SOL     OW20536   4.811   3.587   6.525
 6546SOL    HW120537   4.854   3.650   6.589
 6546SOL    HW220538   4.814   3.494   6.563
 6547SOL     OW20539   6.228   5.504   0.037
 6547SOL    HW120540   6.325   5.526   0.029
 6547SOL    HW220541   6.181   5.574   0.091
 6548SOL     OW20542   0.327   1.948   5.444
 6548SOL    HW120543   0.399   1.963   5.376
 6548SOL    HW220544   0.242   1.925   5.397
 6549SOL     OW20545   4.531   0.228   1.482
 6549SOL    HW120546   4.601   0.282   1.529
 6549SOL    HW220547   4.550   0.131   1.496
 6550SOL     OW20548   6.267   0.106   2.916
 6550SOL    HW120549   6.184   0.143   2.958
 6550SOL    HW220550   6.281   0.012   2.946
 6551SOL     OW20551   2.853   3.934   0.816
 6551SOL    HW120552   2.802   3.999   0.872
 6551SOL    HW220553   2.798   3.851   0.802
 6552SOL     OW20554   2.541   6.379   0.571
 6552SOL    HW120555   2.444   6.376   0.594
 6552SOL    HW220556   2.553   6.424   0.482
 6553SOL     OW20557   0.404   1.608   3.449
 6553SOL    HW120558   0.452   1.677   3.503
 6553SOL    HW220559   0.370   1.536   3.510
 6554SOL     OW20560   2.440   1.369   4.776
 6554SOL    HW120561   2.479   1.449   4.733
 6554SOL    HW220562   2.368   1.396   4.840
 6555SOL     OW20563   6.869   3.638   4.024
 6555SOL    HW120564   6.907   3.725   4.055
 6555SOL    HW220565   6.943   3.579   3.991
 6556SOL     OW20566   4.875   2.860   3.373
 6556SOL    HW120567   4.812   2.811   3.433
 6556SOL    HW220568   4.917   2.796   3.309
 6557SOL     OW20569   1.697   0.521   2.202
 6557SOL    HW120570   1.630   0.467   2.252
 6557SOL    HW220571   1.687   0.617   2.226
 6558SOL     OW20572   5.428   5.381   0.179
 6558SOL    HW120573   5.385   5.293   0.199
 6558SOL    HW220574   5.359   5.444   0.143
 6559SOL     OW20575   0.383   2.474   6.279
 6559SOL    HW120576   0.330   2.558   6.269
 6559SOL    HW220577   0.450   2.485   6.353
 6560SOL     OW20578   5.703   4.998   0.223
 6560SOL    HW120579   5.768   4.997   0.298
 6560SOL    HW220580   5.616   5.035   0.254
 6561SOL     OW20581   3.855   4.318   0.782
 6561SOL    HW120582   3.865   4.265   0.866
 6561SOL    HW220583   3.837   4.257   0.706
 6562SOL     OW20584   5.866   3.120   1.091
 6562SOL    HW120585   5.921   3.070   1.025
 6562SOL    HW220586   5.864   3.070   1.178
 6563SOL     OW20587   5.165   6.088   5.336
 6563SOL    HW120588   5.131   6.088   5.430
 6563SOL    HW220589   5.260   6.057   5.335
 6564SOL     OW20590   6.821   3.925   3.220
 6564SOL    HW120591   6.905   3.976   3.237
 6564SOL    HW220592   6.752   3.987   3.182
 6565SOL     OW20593   5.742   0.410   3.464
 6565SOL    HW120594   5.806   0.339   3.433
 6565SOL    HW220595   5.746   0.417   3.564
 6566SOL     OW20596   4.420   6.103   2.646
 6566SOL    HW120597   4.400   6.181   2.587
 6566SOL    HW220598   4.486   6.130   2.716
 6567SOL     OW20599   4.329   0.728   0.745
 6567SOL    HW120600   4.425   0.731   0.719
 6567SOL    HW220601   4.272   0.759   0.669
 6568SOL     OW20602   4.045   1.251   1.314
 6568SOL    HW120603   4.132   1.201   1.312
 6568SOL    HW220604   3.973   1.195   1.272
 6569SOL     OW20605   0.437   4.436   5.511
 6569SOL    HW120606   0.340   4.451   5.530
 6569SOL    HW220607   0.460   4.341   5.527
 6570SOL     OW20608   4.167   6.568   1.845
 6570SOL    HW120609   4.096   6.599   1.782
 6570SOL    HW220610   4.144   6.476   1.878
 6571SOL     OW20611   3.085   6.044   2.867
 6571SOL    HW120612   3.061   6.005   2.956
 6571SOL    HW220613   3.073   5.974   2.797
 6572SOL     OW20614   1.205   5.797   3.667
 6572SOL    HW120615   1.248   5.714   3.702
 6572SOL    HW220616   1.222   5.873   3.730
 6573SOL     OW20617   1.558   1.580   3.573
 6573SOL    HW120618   1.490   1.644   3.611
 6573SOL    HW220619   1.621   1.552   3.646
 6574SOL     OW20620   1.724   6.007   1.807
 6574SOL    HW120621   1.767   6.095   1.789
 6574SOL    HW220622   1.692   6.004   1.902
 6575SOL     OW20623   6.884   0.516   2.484
 6575SOL    HW120624   6.815   0.528   2.412
 6575SOL    HW220625   6.861   0.435   2.538
 6576SOL     OW20626   4.502   6.142   0.933
 6576SOL    HW120627   4.425   6.205   0.930
 6576SOL    HW220628   4.586   6.191   0.912
 6577SOL     OW20629   2.298   1.504   3.653
 6577SOL    HW120630   2.298   1.442   3.575
 6577SOL    HW220631   2.227   1.476   3.718
 6578SOL     OW20632   1.421   4.714   1.630
 6578SOL    HW120633   1.341   4.705   1.689
 6578SOL    HW220634   1.469   4.799   1.651
 6579SOL     OW20635   6.667   0.993   4.131
 6579SOL    HW120636   6.688   0.947   4.218
 6579SOL    HW220637   6.599   1.065   4.148
 6580SOL     OW20638   1.209   0.308   0.105
 6580SOL    HW120639   1.153   0.271   0.030
 6580SOL    HW220640   1.301   0.269   0.098
 6581SOL     OW20641   1.514   1.965   6.817
 6581SOL    HW120642   1.547   2.036   6.878
 6581SOL    HW220643   1.434   1.920   6.858
 6582SOL     OW20644   6.871   1.334   3.048
 6582SOL    HW120645   6.951   1.297   3.000
 6582SOL    HW220646   6.876   1.309   3.145
 6583SOL     OW20647   4.245   6.369   6.482
 6583SOL    HW120648   4.285   6.401   6.568
 6583SOL    HW220649   4.179   6.437   6.449
 6584SOL     OW20650   3.488   2.628   1.220
 6584SOL    HW120651   3.491   2.538   1.262
 6584SOL    HW220652   3.511   2.621   1.123
 6585SOL     OW20653   5.999   6.799   0.978
 6585SOL    HW120654   5.972   6.867   0.910
 6585SOL    HW220655   6.071   6.837   1.037
 6586SOL     OW20656   6.130   2.402   6.673
 6586SOL    HW120657   6.208   2.382   6.613
 6586SOL    HW220658   6.048   2.416   6.618
 6587SOL     OW20659   1.523   4.365   5.782
 6587SOL    HW120660   1.449   4.381   5.716
 6587SOL    HW220661   1.569   4.279   5.760
 6588SOL     OW20662   0.153   3.486   0.780
 6588SOL    HW120663   0.160   3.446   0.871
 6588SOL    HW220664   0.241   3.526   0.754
 6589SOL     OW20665   0.155   1.050   1.770
 6589SOL    HW120666   0.157   1.128   1.708
 6589SOL    HW220667   0.219   0.980   1.738
 6590SOL     OW20668   1.087   7.006   3.673
 6590SOL    HW120669   1.124   6.990   3.764
 6590SOL    HW220670   1.053   0.077   3.666
 6591SOL     OW20671   5.526   4.401   4.180
 6591SOL    HW120672   5.440   4.350   4.181
 6591SOL    HW220673   5.515   4.483   4.125
 6592SOL     OW20674   5.679   6.442   2.564
 6592SOL    HW120675   5.621   6.515   2.600
 6592SOL    HW220676   5.629   6.356   2.563
 6593SOL     OW20677   2.806   2.018   2.371
 6593SOL    HW120678   2.784   2.032   2.275
 6593SOL    HW220679   2.830   1.922   2.386
 6594SOL     OW20680   4.534   1.676   6.412
 6594SOL    HW120681   4.527   1.775   6.406
 6594SOL    HW220682   4.615   1.645   6.362
 6595SOL     OW20683   1.417   2.520   5.054
 6595SOL    HW120684   1.384   2.611   5.028
 6595SOL    HW220685   1.391   2.500   5.148
 6596SOL     OW20686   5.677   5.972   2.473
 6596SOL    HW120687   5.643   5.888   2.516
 6596SOL    HW220688   5.751   6.011   2.528
 6597SOL     OW20689   1.620   4.926   1.724
 6597SOL    HW120690   1.683   4.873   1.782
 6597SOL    HW220691   1.574   4.995   1.779
 6598SOL     OW20692   2.154   4.619   4.749
 6598SOL    HW120693   2.182   4.605   4.654
 6598SOL    HW220694   2.054   4.614   4.755
 6599SOL     OW20695   6.271   5.548   6.398
 6599SOL    HW120696   6.275   5.582   6.492
 6599SOL    HW220697   6.293   5.623   6.335
 6600SOL     OW20698   4.785   7.002   4.827
 6600SOL    HW120699   4.711   7.007   4.760
 6600SOL    HW220700   4.750   0.003   4.918
 6601SOL     OW20701   1.512   1.989   1.735
 6601SOL    HW120702   1.588   2.021   1.678
 6601SOL    HW220703   1.425   2.005   1.688
 6602SOL     OW20704   2.348   6.478   1.595
 6602SOL    HW120705   2.430   6.526   1.624
 6602SOL    HW220706   2.286   6.543   1.550
 6603SOL     OW20707   0.280   2.806   3.058
 6603SOL    HW120708   0.355   2.869   3.076
 6603SOL    HW220709   0.240   2.774   3.144
 6604SOL     OW20710   1.946   6.361   2.406
 6604SOL    HW120711   1.854   6.396   2.387
 6604SOL    HW220712   1.980   6.402   2.491
 6605SOL     OW20713   0.134   5.366   1.491
 6605SOL    HW120714   0.056   5.317   1.453
 6605SOL    HW220715   0.160   5.441   1.430
 6606SOL     OW20716   1.637   3.675   3.391
 6606SOL    HW120717   1.582   3.684   3.474
 6606SOL    HW220718   1.734   3.675   3.415
 6607SOL     OW20719   5.757   4.089   3.569
 6607SOL    HW120720   5.856   4.076   3.571
 6607SOL    HW220721   5.723   4.103   3.662
 6608SOL     OW20722   0.465   6.018   5.572
 6608SOL    HW120723   0.483   6.101   5.519
 6608SOL    HW220724   0.548   5.962   5.577
 6609SOL     OW20725   4.317   2.068   6.120
 6609SOL    HW120726   4.328   1.976   6.082
 6609SOL    HW220727   4.247   2.118   6.068
 6610SOL     OW20728   2.988   5.453   1.032
 6610SOL    HW120729   2.929   5.472   1.110
 6610SOL    HW220730   3.058   5.525   1.025
 6611SOL     OW20731   4.672   1.611   4.368
 6611SOL    HW120732   4.637   1.702   4.346
 6611SOL    HW220733   4.738   1.583   4.298
 6612SOL     OW20734   6.124   1.675   5.860
 6612SOL    HW120735   6.191   1.630   5.801
 6612SOL    HW220736   6.072   1.606   5.911
 6613SOL     OW20737   4.857   6.739   6.951
 6613SOL    HW120738   4.942   6.727   6.899
 6613SOL    HW220739   4.803   6.811   6.908
 6614SOL     OW20740   4.387   5.710   1.348
 6614SOL    HW120741   4.373   5.801   1.310
 6614SOL    HW220742   4.298   5.665   1.361
 6615SOL     OW20743   3.250   4.821   6.919
 6615SOL    HW120744   3.153   4.808   6.935
 6615SOL    HW220745   3.300   4.741   6.951
 6616SOL     OW20746   4.214   1.311   5.595
 6616SOL    HW120747   4.136   1.373   5.587
 6616SOL    HW220748   4.268   1.336   5.675
 6617SOL     OW20749   3.658   0.624   4.135
 6617SOL    HW120750   3.704   0.713   4.126
 6617SOL    HW220751   3.725   0.555   4.161
 6618SOL     OW20752   6.406   2.316   2.251
 6618SOL    HW120753   6.503   2.313   2.273
 6618SOL    HW220754   6.368   2.405   2.278
 6619SOL     OW20755   5.080   6.392   3.820
 6619SOL    HW120756   5.100   6.482   3.781
 6619SOL    HW220757   4.983   6.387   3.843
 6620SOL     OW20758   0.483   3.210   3.473
 6620SOL    HW120759   0.387   3.192   3.451
 6620SOL    HW220760   0.520   3.273   3.405
 6621SOL     OW20761   3.552   3.090   4.826
 6621SOL    HW120762   3.505   3.093   4.737
 6621SOL    HW220763   3.602   3.175   4.839
 6622SOL     OW20764   0.498   5.340   0.767
 6622SOL    HW120765   0.462   5.419   0.718
 6622SOL    HW220766   0.428   5.268   0.771
 6623SOL     OW20767   3.411   4.141   5.880
 6623SOL    HW120768   3.360   4.224   5.856
 6623SOL    HW220769   3.385   4.066   5.819
 6624SOL     OW20770   1.238   2.349   4.145
 6624SOL    HW120771   1.216   2.301   4.060
 6624SOL    HW220772   1.167   2.417   4.164
 6625SOL     OW20773   5.957   2.847   5.751
 6625SOL    HW120774   5.863   2.868   5.722
 6625SOL    HW220775   6.020   2.910   5.705
 6626SOL     OW20776   2.330   6.362   4.885
 6626SOL    HW120777   2.386   6.436   4.923
 6626SOL    HW220778   2.386   6.280   4.875
 6627SOL     OW20779   1.813   5.872   4.468
 6627SOL    HW120780   1.877   5.840   4.537
 6627SOL    HW220781   1.791   5.797   4.405
 6628SOL     OW20782   4.372   5.994   3.731
 6628SOL    HW120783   4.342   5.922   3.669
 6628SOL    HW220784   4.305   6.068   3.731
 6629SOL     OW20785   5.542   6.035   6.803
 6629SOL    HW120786   5.481   5.967   6.844
 6629SOL    HW220787   5.535   6.121   6.853
 6630SOL     OW20788   2.385   1.579   1.413
 6630SOL    HW120789   2.460   1.551   1.473
 6630SOL    HW220790   2.341   1.498   1.374
 6631SOL     OW20791   2.251   4.625   6.423
 6631SOL    HW120792   2.160   4.659   6.400
 6631SOL    HW220793   2.297   4.592   6.340
 6632SOL     OW20794   1.611   0.868   0.764
 6632SOL    HW120795   1.662   0.807   0.824
 6632SOL    HW220796   1.663   0.884   0.680
 6633SOL     OW20797   3.408   5.434   6.337
 6633SOL    HW120798   3.398   5.433   6.238
 6633SOL    HW220799   3.498   5.470   6.361
 6634SOL     OW20800   4.126   2.243   4.470
 6634SOL    HW120801   4.220   2.278   4.474
 6634SOL    HW220802   4.075   2.274   4.550
 6635SOL     OW20803   5.317   4.941   2.628
 6635SOL    HW120804   5.303   4.890   2.543
 6635SOL    HW220805   5.264   4.899   2.702
 6636SOL     OW20806   3.669   0.102   0.818
 6636SOL    HW120807   3.657   0.009   0.781
 6636SOL    HW220808   3.730   0.099   0.897
 6637SOL     OW20809   1.430   1.325   0.793
 6637SOL    HW120810   1.434   1.418   0.829
 6637SOL    HW220811   1.484   1.320   0.708
 6638SOL     OW20812   2.880   3.588   3.692
 6638SOL    HW120813   2.825   3.563   3.612
 6638SOL    HW220814   2.943   3.661   3.668
 6639SOL     OW20815   5.102   2.958   1.347
 6639SOL    HW120816   5.079   2.928   1.440
 6639SOL    HW220817   5.075   3.053   1.334
 6640SOL     OW20818   0.851   3.042   4.872
 6640SOL    HW120819   0.774   2.989   4.837
 6640SOL    HW220820   0.907   2.985   4.932
 6641SOL     OW20821   4.133   2.044   1.183
 6641SOL    HW120822   4.146   1.944   1.185
 6641SOL    HW220823   4.210   2.086   1.136
 6642SOL     OW20824   1.078   5.791   0.658
 6642SOL    HW120825   1.134   5.809   0.739
 6642SOL    HW220826   1.087   5.695   0.633
 6643SOL     OW20827   4.638   6.547   0.042
 6643SOL    HW120828   4.595   6.621   7.013
 6643SOL    HW220829   4.735   6.566   0.054
 6644SOL     OW20830   1.697   6.363   3.216
 6644SOL    HW120831   1.735   6.349   3.125
 6644SOL    HW220832   1.616   6.305   3.227
 6645SOL     OW20833   6.256   2.902   0.631
 6645SOL    HW120834   6.308   2.895   0.716
 6645SOL    HW220835   6.160   2.880   0.649
 6646SOL     OW20836   4.730   0.269   6.449
 6646SOL    HW120837   4.786   0.271   6.366
 6646SOL    HW220838   4.657   0.337   6.442
 6647SOL     OW20839   4.868   5.158   1.084
 6647SOL    HW120840   4.887   5.073   1.035
 6647SOL    HW220841   4.791   5.205   1.042
 6648SOL     OW20842   2.572   6.244   5.560
 6648SOL    HW120843   2.477   6.266   5.581
 6648SOL    HW220844   2.579   6.148   5.534
 6649SOL     OW20845   6.063   2.736   0.049
 6649SOL    HW120846   6.058   2.695   6.981
 6649SOL    HW220847   6.081   2.834   0.040
 6650SOL     OW20848   2.603   1.105   5.198
 6650SOL    HW120849   2.642   1.176   5.256
 6650SOL    HW220850   2.571   1.146   5.112
 6651SOL     OW20851   0.015   2.242   6.654
 6651SOL    HW120852   0.060   2.322   6.616
 6651SOL    HW220853   6.944   2.267   6.682
 6652SOL     OW20854   0.789   4.493   0.295
 6652SOL    HW120855   0.787   4.588   0.326
 6652SOL    HW220856   0.718   4.480   0.225
 6653SOL     OW20857   5.224   3.683   0.806
 6653SOL    HW120858   5.211   3.713   0.901
 6653SOL    HW220859   5.135   3.678   0.761
 6654SOL     OW20860   0.611   4.421   3.379
 6654SOL    HW120861   0.597   4.505   3.327
 6654SOL    HW220862   0.579   4.343   3.326
 6655SOL     OW20863   6.526   5.418   1.676
 6655SOL    HW120864   6.503   5.505   1.720
 6655SOL    HW220865   6.618   5.390   1.704
 6656SOL     OW20866   4.047   1.432   2.952
 6656SOL    HW120867   3.976   1.370   2.918
 6656SOL    HW220868   4.047   1.515   2.896
 6657SOL     OW20869   5.585   1.880   3.935
 6657SOL    HW120870   5.582   1.909   4.031
 6657SOL    HW220871   5.493   1.854   3.905
 6658SOL     OW20872   6.131   6.234   4.854
 6658SOL    HW120873   6.097   6.141   4.840
 6658SOL    HW220874   6.202   6.234   4.924
 6659SOL     OW20875   1.269   5.603   2.083
 6659SOL    HW120876   1.270   5.589   2.182
 6659SOL    HW220877   1.178   5.631   2.054
 6660SOL     OW20878   0.126   6.123   3.513
 6660SOL    HW120879   0.029   6.103   3.497
 6660SOL    HW220880   0.169   6.152   3.428
 6661SOL     OW20881   3.746   6.878   4.367
 6661SOL    HW120882   3.835   6.909   4.401
 6661SOL    HW220883   3.730   6.784   4.397
 6662SOL     OW20884   3.212   6.711   2.126
 6662SOL    HW120885   3.128   6.659   2.145
 6662SOL    HW220886   3.290   6.648   2.127
 6663SOL     OW20887   1.393   4.119   6.117
 6663SOL    HW120888   1.301   4.080   6.108
 6663SOL    HW220889   1.387   4.211   6.155
 6664SOL     OW20890   3.013   0.740   1.422
 6664SOL    HW120891   2.997   0.652   1.466
 6664SOL    HW220892   3.093   0.784   1.463
 6665SOL     OW20893   2.243   0.438   5.683
 6665SOL    HW120894   2.331   0.465   5.721
 6665SOL    HW220895   2.244   0.339   5.664
 6666SOL     OW20896   4.970   6.552   5.017
 6666SOL    HW120897   4.884   6.603   5.014
 6666SOL    HW220898   5.002   6.548   5.111
 6667SOL     OW20899   0.571   6.173   6.502
 6667SOL    HW120900   0.633   6.120   6.445
 6667SOL    HW220901   0.528   6.112   6.570
 6668SOL     OW20902   0.021   5.743   0.698
 6668SOL    HW120903   6.961   5.799   0.703
 6668SOL    HW220904   0.085   5.785   0.634
 6669SOL     OW20905   1.295   1.320   3.031
 6669SOL    HW120906   1.369   1.361   3.084
 6669SOL    HW220907   1.217   1.382   3.028
 6670SOL     OW20908   3.933   2.469   0.903
 6670SOL    HW120909   3.911   2.442   0.809
 6670SOL    HW220910   3.906   2.397   0.966
 6671SOL     OW20911   5.105   5.757   0.249
 6671SOL    HW120912   5.076   5.845   0.212
 6671SOL    HW220913   5.178   5.772   0.317
 6672SOL     OW20914   1.353   1.936   1.107
 6672SOL    HW120915   1.386   1.887   1.188
 6672SOL    HW220916   1.364   2.035   1.121
 6673SOL     OW20917   5.514   4.056   4.092
 6673SOL    HW120918   5.436   4.117   4.101
 6673SOL    HW220919   5.576   4.070   4.169
 6674SOL     OW20920   0.092   2.965   0.075
 6674SOL    HW120921   0.155   2.891   0.099
 6674SOL    HW220922   0.048   2.944   7.010
 6675SOL     OW20923   4.916   2.704   6.591
 6675SOL    HW120924   4.881   2.632   6.651
 6675SOL    HW220925   4.914   2.672   6.496
 6676SOL     OW20926   1.271   3.779   3.583
 6676SOL    HW120927   1.352   3.722   3.598
 6676SOL    HW220928   1.281   3.865   3.633
 6677SOL     OW20929   0.493   1.993   0.261
 6677SOL    HW120930   0.465   1.989   0.165
 6677SOL    HW220931   0.435   1.931   0.315
 6678SOL     OW20932   1.826   4.924   0.312
 6678SOL    HW120933   1.736   4.913   0.270
 6678SOL    HW220934   1.877   4.839   0.306
 6679SOL     OW20935   2.094   1.329   3.753
 6679SOL    HW120936   2.004   1.372   3.759
 6679SOL    HW220937   2.141   1.336   3.841
 6680SOL     OW20938   5.681   6.536   0.796
 6680SOL    HW120939   5.611   6.542   0.725
 6680SOL    HW220940   5.760   6.592   0.768
 6681SOL     OW20941   3.817   5.731   1.596
 6681SOL    HW120942   3.798   5.698   1.503
 6681SOL    HW220943   3.843   5.827   1.592
 6682SOL     OW20944   3.406   5.211   6.868
 6682SOL    HW120945   3.447   5.259   6.790
 6682SOL    HW220946   3.342   5.141   6.834
 6683SOL     OW20947   6.380   3.601   6.641
 6683SOL    HW120948   6.343   3.564   6.727
 6683SOL    HW220949   6.325   3.567   6.564
 6684SOL     OW20950   2.988   6.583   1.446
 6684SOL    HW120951   2.961   6.662   1.501
 6684SOL    HW220952   3.029   6.615   1.360
 6685SOL     OW20953   4.555   3.556   6.694
 6685SOL    HW120954   4.608   3.503   6.627
 6685SOL    HW220955   4.488   3.496   6.738
 6686SOL     OW20956   5.332   5.570   3.720
 6686SOL    HW120957   5.253   5.616   3.680
 6686SOL    HW220958   5.356   5.613   3.807
 6687SOL     OW20959   6.587   2.235   1.426
 6687SOL    HW120960   6.488   2.232   1.412
 6687SOL    HW220961   6.607   2.288   1.509
 6688SOL     OW20962   3.793   5.639   0.629
 6688SOL    HW120963   3.720   5.704   0.607
 6688SOL    HW220964   3.872   5.688   0.663
 6689SOL     OW20965   2.616   4.927   6.065
 6689SOL    HW120966   2.517   4.930   6.058
 6689SOL    HW220967   2.657   4.934   5.974
 6690SOL     OW20968   1.097   0.122   6.026
 6690SOL    HW120969   1.120   0.045   5.966
 6690SOL    HW220970   1.007   0.158   6.002
 6691SOL     OW20971   2.493   2.518   3.096
 6691SOL    HW120972   2.547   2.506   3.013
 6691SOL    HW220973   2.443   2.604   3.091
 6692SOL     OW20974   4.967   5.073   1.458
 6692SOL    HW120975   5.005   5.018   1.533
 6692SOL    HW220976   4.944   5.014   1.381
 6693SOL     OW20977   4.115   1.742   4.518
 6693SOL    HW120978   4.214   1.733   4.505
 6693SOL    HW220979   4.074   1.652   4.527
 6694SOL     OW20980   3.989   5.075   0.674
 6694SOL    HW120981   4.007   5.024   0.590
 6694SOL    HW220982   3.948   5.014   0.742
 6695SOL     OW20983   2.933   2.430   6.365
 6695SOL    HW120984   2.923   2.527   6.388
 6695SOL    HW220985   2.973   2.381   6.442
 6696SOL     OW20986   3.977   3.767   4.056
 6696SOL    HW120987   3.979   3.785   3.957
 6696SOL    HW220988   3.938   3.847   4.103
 6697SOL     OW20989   4.571   2.582   2.385
 6697SOL    HW120990   4.492   2.557   2.439
 6697SOL    HW220991   4.563   2.678   2.355
 6698SOL     OW20992   3.591   3.990   1.677
 6698SOL    HW120993   3.647   3.914   1.710
 6698SOL    HW220994   3.577   4.056   1.751
 6699SOL     OW20995   1.305   4.431   5.597
 6699SOL    HW120996   1.366   4.496   5.554
 6699SOL    HW220997   1.213   4.441   5.559
 6700SOL     OW20998   5.817   0.312   0.271
 6700SOL    HW120999   5.785   0.225   0.308
 6700SOL    HW221000   5.860   0.297   0.182
 6701SOL     OW21001   6.241   6.937   1.143
 6701SOL    HW121002   6.201   0.006   1.155
 6701SOL    HW221003   6.319   6.927   1.205
 6702SOL     OW21004   3.173   2.241   0.979
 6702SOL    HW121005   3.205   2.287   1.062
 6702SOL    HW221006   3.074   2.253   0.971
 6703SOL     OW21007   1.065   1.624   6.527
 6703SOL    HW121008   1.144   1.587   6.576
 6703SOL    HW221009   1.014   1.686   6.588
 6704SOL     OW21010   3.398   1.224   5.241
 6704SOL    HW121011   3.484   1.230   5.291
 6704SOL    HW221012   3.322   1.215   5.306
 6705SOL     OW21013   6.452   3.700   2.090
 6705SOL    HW121014   6.386   3.679   2.018
 6705SOL    HW221015   6.524   3.760   2.054
 6706SOL     OW21016   0.114   6.563   1.757
 6706SOL    HW121017   0.151   6.649   1.722
 6706SOL    HW221018   0.090   6.503   1.681
 6707SOL     OW21019   5.768   0.600   2.309
 6707SOL    HW121020   5.681   0.600   2.357
 6707SOL    HW221021   5.754   0.625   2.214
 6708SOL     OW21022   0.271   4.007   1.715
 6708SOL    HW121023   0.333   4.026   1.638
 6708SOL    HW221024   0.186   3.969   1.680
 6709SOL     OW21025   1.429   4.793   2.506
 6709SOL    HW121026   1.507   4.731   2.502
 6709SOL    HW221027   1.386   4.798   2.416
 6710SOL     OW21028   4.743   1.674   1.674
 6710SOL    HW121029   4.768   1.647   1.767
 6710SOL    HW221030   4.701   1.596   1.627
 6711SOL     OW21031   4.240   6.323   6.177
 6711SOL    HW121032   4.280   6.241   6.135
 6711SOL    HW221033   4.262   6.325   6.274
 6712SOL     OW21034   6.118   3.568   1.076
 6712SOL    HW121035   6.045   3.508   1.105
 6712SOL    HW221036   6.086   3.626   1.001
 6713SOL     OW21037   1.506   6.762   4.520
 6713SOL    HW121038   1.484   6.741   4.616
 6713SOL    HW221039   1.580   6.829   4.517
 6714SOL     OW21040   6.030   0.974   0.061
 6714SOL    HW121041   6.086   0.891   0.061
 6714SOL    HW221042   6.050   1.027   0.144
 6715SOL     OW21043   1.433   0.306   0.351
 6715SOL    HW121044   1.394   0.217   0.374
 6715SOL    HW221045   1.431   0.364   0.432
 6716SOL     OW21046   6.684   5.034   2.355
 6716SOL    HW121047   6.658   4.937   2.355
 6716SOL    HW221048   6.724   5.058   2.443
 6717SOL     OW21049   3.838   2.944   6.475
 6717SOL    HW121050   3.857   3.042   6.475
 6717SOL    HW221051   3.740   2.930   6.465
 6718SOL     OW21052   2.985   0.101   2.063
 6718SOL    HW121053   2.924   0.179   2.074
 6718SOL    HW221054   3.053   0.121   1.992
 6719SOL     OW21055   2.146   1.047   0.066
 6719SOL    HW121056   2.113   0.955   0.045
 6719SOL    HW221057   2.227   1.041   0.124
 6720SOL     OW21058   2.124   0.451   5.917
 6720SOL    HW121059   2.154   0.463   5.823
 6720SOL    HW221060   2.156   0.527   5.973
 6721SOL     OW21061   0.506   1.528   0.961
 6721SOL    HW121062   0.442   1.605   0.954
 6721SOL    HW221063   0.456   1.445   0.981
 6722SOL     OW21064   6.286   3.168   0.565
 6722SOL    HW121065   6.263   3.076   0.532
 6722SOL    HW221066   6.218   3.196   0.632
 6723SOL     OW21067   1.937   2.005   6.602
 6723SOL    HW121068   1.997   1.957   6.665
 6723SOL    HW221069   1.897   2.084   6.648
 6724SOL     OW21070   2.163   3.695   5.784
 6724SOL    HW121071   2.094   3.757   5.746
 6724SOL    HW221072   2.200   3.638   5.710
 6725SOL     OW21073   5.853   2.915   3.524
 6725SOL    HW121074   5.902   2.895   3.609
 6725SOL    HW221075   5.794   2.838   3.501
 6726SOL     OW21076   6.974   1.255   5.415
 6726SOL    HW121077   6.931   1.288   5.331
 6726SOL    HW221078   0.050   1.272   5.410
 6727SOL     OW21079   0.944   4.617   6.056
 6727SOL    HW121080   0.964   4.601   6.153
 6727SOL    HW221081   1.029   4.615   6.003
 6728SOL     OW21082   3.816   1.784   3.855
 6728SOL    HW121083   3.732   1.792   3.802
 6728SOL    HW221084   3.852   1.876   3.873
 6729SOL     OW21085   4.807   1.641   1.270
 6729SOL    HW121086   4.760   1.729   1.264
 6729SOL    HW221087   4.905   1.654   1.254
 6730SOL     OW21088   0.997   0.841   1.596
 6730SOL    HW121089   1.088   0.854   1.555
 6730SOL    HW221090   0.943   0.781   1.536
 6731SOL     OW21091   3.481   6.640   0.045
 6731SOL    HW121092   3.402   6.698   0.027
 6731SOL    HW221093   3.541   6.640   6.988
 6732SOL     OW21094   5.919   5.307   4.401
 6732SOL    HW121095   6.008   5.268   4.377
 6732SOL    HW221096   5.851   5.234   4.406
 6733SOL     OW21097   3.876   5.347   6.547
 6733SOL    HW121098   3.908   5.265   6.500
 6733SOL    HW221099   3.954   5.399   6.580
 6734SOL     OW21100   5.312   1.253   4.924
 6734SOL    HW121101   5.315   1.178   4.857
 6734SOL    HW221102   5.396   1.252   4.978
 6735SOL     OW21103   6.362   3.157   3.513
 6735SOL    HW121104   6.324   3.179   3.424
 6735SOL    HW221105   6.300   3.096   3.562
 6736SOL     OW21106   3.164   4.105   1.013
 6736SOL    HW121107   3.189   4.053   1.095
 6736SOL    HW221108   3.135   4.042   0.941
 6737SOL     OW21109   1.043   3.010   0.908
 6737SOL    HW121110   0.947   3.038   0.910
 6737SOL    HW221111   1.055   2.937   0.840
 6738SOL     OW21112   2.264   5.467   3.104
 6738SOL    HW121113   2.345   5.515   3.068
 6738SOL    HW221114   2.185   5.487   3.046
 6739SOL     OW21115   6.825   0.287   4.260
 6739SOL    HW121116   6.799   0.200   4.218
 6739SOL    HW221117   6.769   0.302   4.341
 6740SOL     OW21118   6.415   6.822   4.222
 6740SOL    HW121119   6.467   6.868   4.149
 6740SOL    HW221120   6.427   6.872   4.307
 6741SOL     OW21121   4.632   2.189   5.712
 6741SOL    HW121122   4.647   2.217   5.618
 6741SOL    HW221123   4.711   2.216   5.768
 6742SOL     OW21124   5.462   4.905   3.528
 6742SOL    HW121125   5.535   4.893   3.595
 6742SOL    HW221126   5.462   4.826   3.465
 6743SOL     OW21127   4.079   4.165   0.547
 6743SOL    HW121128   4.080   4.265   0.541
 6743SOL    HW221129   4.098   4.126   0.457
 6744SOL     OW21130   6.812   5.455   5.871
 6744SOL    HW121131   6.843   5.360   5.870
 6744SOL    HW221132   6.734   5.465   5.932
 6745SOL     OW21133   6.865   6.715   4.134
 6745SOL    HW121134   6.817   6.790   4.179
 6745SOL    HW221135   6.895   6.649   4.203
 6746SOL     OW21136   1.579   1.114   2.982
 6746SOL    HW121137   1.576   1.069   2.892
 6746SOL    HW221138   1.540   1.206   2.974
 6747SOL     OW21139   1.492   6.804   6.817
 6747SOL    HW121140   1.437   6.882   6.788
 6747SOL    HW221141   1.565   6.788   6.750
 6748SOL     OW21142   2.466   2.037   4.164
 6748SOL    HW121143   2.477   1.991   4.252
 6748SOL    HW221144   2.440   2.132   4.179
 6749SOL     OW21145   3.420   4.578   0.840
 6749SOL    HW121146   3.500   4.621   0.797
 6749SOL    HW221147   3.342   4.584   0.779
 6750SOL     OW21148   3.069   2.239   4.581
 6750SOL    HW121149   3.067   2.278   4.489
 6750SOL    HW221150   3.163   2.229   4.611
 6751SOL     OW21151   4.158   6.783   3.568
 6751SOL    HW121152   4.142   6.704   3.628
 6751SOL    HW221153   4.192   6.860   3.622
 6752SOL     OW21154   1.735   6.057   2.807
 6752SOL    HW121155   1.676   6.117   2.753
 6752SOL    HW221156   1.799   6.011   2.746
 6753SOL     OW21157   3.744   2.813   5.115
 6753SOL    HW121158   3.753   2.851   5.023
 6753SOL    HW221159   3.684   2.732   5.112
 6754SOL     OW21160   6.103   1.474   1.179
 6754SOL    HW121161   6.193   1.441   1.210
 6754SOL    HW221162   6.058   1.521   1.254
 6755SOL     OW21163   2.850   4.852   0.087
 6755SOL    HW121164   2.888   4.813   0.003
 6755SOL    HW221165   2.782   4.790   0.125
 6756SOL     OW21166   2.398   1.933   5.478
 6756SOL    HW121167   2.458   1.953   5.556
 6756SOL    HW221168   2.305   1.964   5.499
 6757SOL     OW21169   3.670   0.485   0.494
 6757SOL    HW121170   3.616   0.511   0.414
 6757SOL    HW221171   3.632   0.403   0.535
 6758SOL     OW21172   6.059   2.950   1.373
 6758SOL    HW121173   6.074   2.879   1.442
 6758SOL    HW221174   5.976   3.001   1.396
 6759SOL     OW21175   0.356   3.411   3.182
 6759SOL    HW121176   0.286   3.398   3.253
 6759SOL    HW221177   0.339   3.496   3.133
 6760SOL     OW21178   5.230   3.025   3.047
 6760SOL    HW121179   5.155   2.972   3.008
 6760SOL    HW221180   5.193   3.091   3.113
 6761SOL     OW21181   4.722   1.978   4.429
 6761SOL    HW121182   4.769   1.991   4.517
 6761SOL    HW221183   4.627   1.954   4.446
 6762SOL     OW21184   6.425   5.497   3.584
 6762SOL    HW121185   6.453   5.421   3.526
 6762SOL    HW221186   6.341   5.474   3.632
 6763SOL     OW21187   4.561   5.134   4.916
 6763SOL    HW121188   4.652   5.152   4.955
 6763SOL    HW221189   4.559   5.168   4.822
 6764SOL     OW21190   1.494   5.856   1.719
 6764SOL    HW121191   1.569   5.908   1.761
 6764SOL    HW221192   1.458   5.790   1.785
 6765SOL     OW21193   6.235   4.789   3.369
 6765SOL    HW121194   6.258   4.701   3.328
 6765SOL    HW221195   6.284   4.800   3.455
 6766SOL     OW21196   5.123   6.323   0.826
 6766SOL    HW121197   5.192   6.298   0.758
 6766SOL    HW221198   5.153   6.404   0.876
 6767SOL     OW21199   2.771   0.951   0.490
 6767SOL    HW121200   2.695   0.894   0.456
 6767SOL    HW221201   2.810   0.908   0.572
 6768SOL     OW21202   2.069   0.947   0.455
 6768SOL    HW121203   2.104   1.038   0.431
 6768SOL    HW221204   1.984   0.930   0.406
 6769SOL     OW21205   3.856   2.422   1.230
 6769SOL    HW121206   3.891   2.356   1.163
 6769SOL    HW221207   3.879   2.515   1.200
 6770SOL     OW21208   6.974   0.866   1.704
 6770SOL    HW121209   0.036   0.910   1.735
 6770SOL    HW221210   6.951   0.791   1.765
 6771SOL     OW21211   4.310   2.041   2.706
 6771SOL    HW121212   4.301   2.117   2.771
 6771SOL    HW221213   4.361   1.967   2.749
 6772SOL     OW21214   3.141   1.679   2.568
 6772SOL    HW121215   3.153   1.771   2.532
 6772SOL    HW221216   3.071   1.631   2.516
 6773SOL     OW21217   6.616   3.592   1.784
 6773SOL    HW121218   6.593   3.682   1.822
 6773SOL    HW221219   6.684   3.601   1.712
 6774SOL     OW21220   0.636   2.914   6.686
 6774SOL    HW121221   0.662   2.817   6.679
 6774SOL    HW221222   0.676   2.964   6.609
 6775SOL     OW21223   2.902   3.889   1.113
 6775SOL    HW121224   2.870   3.812   1.057
 6775SOL    HW221225   2.987   3.864   1.160
 6776SOL     OW21226   5.034   4.439   0.257
 6776SOL    HW121227   5.091   4.383   0.198
 6776SOL    HW221228   4.940   4.407   0.255
 6777SOL     OW21229   4.078   4.804   6.199
 6777SOL    HW121230   4.070   4.763   6.289
 6777SOL    HW221231   4.154   4.761   6.149
 6778SOL     OW21232   0.725   4.213   2.703
 6778SOL    HW121233   0.705   4.271   2.623
 6778SOL    HW221234   0.655   4.143   2.711
 6779SOL     OW21235   6.645   4.340   0.130
 6779SOL    HW121236   6.728   4.360   0.181
 6779SOL    HW221237   6.576   4.410   0.148
 6780SOL     OW21238   0.504   2.217   3.004
 6780SOL    HW121239   0.487   2.297   2.946
 6780SOL    HW221240   0.472   2.135   2.958
 6781SOL     OW21241   5.293   6.510   5.960
 6781SOL    HW121242   5.227   6.499   5.885
 6781SOL    HW221243   5.331   6.421   5.985
 6782SOL     OW21244   0.553   1.390   2.528
 6782SOL    HW121245   0.513   1.375   2.619
 6782SOL    HW221246   0.645   1.352   2.526
 6783SOL     OW21247   0.168   6.284   5.878
 6783SOL    HW121248   0.167   6.318   5.972
 6783SOL    HW221249   0.241   6.216   5.868
 6784SOL     OW21250   3.832   4.033   6.732
 6784SOL    HW121251   3.889   4.031   6.814
 6784SOL    HW221252   3.847   4.118   6.683
 6785SOL     OW21253   5.943   5.205   1.766
 6785SOL    HW121254   5.859   5.156   1.792
 6785SOL    HW221255   5.948   5.291   1.816
 6786SOL     OW21256   1.925   2.266   6.747
 6786SOL    HW121257   1.857   2.336   6.768
 6786SOL    HW221258   2.016   2.299   6.772
 6787SOL     OW21259   2.003   3.700   1.032
 6787SOL    HW121260   2.006   3.799   1.025
 6787SOL    HW221261   1.970   3.662   0.945
 6788SOL     OW21262   2.666   3.832   1.669
 6788SOL    HW121263   2.714   3.797   1.750
 6788SOL    HW221264   2.571   3.851   1.693
 6789SOL     OW21265   0.132   6.836   2.368
 6789SOL    HW121266   0.169   6.756   2.322
 6789SOL    HW221267   0.206   6.902   2.384
 6790SOL     OW21268   2.220   3.164   0.033
 6790SOL    HW121269   2.166   3.107   0.095
 6790SOL    HW221270   2.316   3.135   0.038
 6791SOL     OW21271   4.336   2.312   0.438
 6791SOL    HW121272   4.295   2.378   0.376
 6791SOL    HW221273   4.387   2.243   0.385
 6792SOL     OW21274   6.693   5.968   6.290
 6792SOL    HW121275   6.633   6.039   6.253
 6792SOL    HW221276   6.739   6.002   6.372
 6793SOL     OW21277   0.920   1.983   0.158
 6793SOL    HW121278   1.011   1.950   0.186
 6793SOL    HW221279   0.888   2.052   0.222
 6794SOL     OW21280   5.048   0.808   4.251
 6794SOL    HW121281   4.970   0.771   4.302
 6794SOL    HW221282   5.021   0.893   4.206
 6795SOL     OW21283   2.757   5.487   0.819
 6795SOL    HW121284   2.713   5.488   0.908
 6795SOL    HW221285   2.843   5.436   0.825
 6796SOL     OW21286   5.676   0.987   2.179
 6796SOL    HW121287   5.724   0.921   2.237
 6796SOL    HW221288   5.627   0.938   2.107
 6797SOL     OW21289   5.482   3.590   2.005
 6797SOL    HW121290   5.490   3.602   1.906
 6797SOL    HW221291   5.533   3.508   2.033
 6798SOL     OW21292   5.576   5.348   3.174
 6798SOL    HW121293   5.524   5.267   3.146
 6798SOL    HW221294   5.591   5.346   3.273
 6799SOL     OW21295   5.265   5.494   0.461
 6799SOL    HW121296   5.362   5.469   0.456
 6799SOL    HW221297   5.254   5.589   0.433
 6800SOL     OW21298   1.871   4.190   0.737
 6800SOL    HW121299   1.778   4.166   0.709
 6800SOL    HW221300   1.933   4.115   0.714
 6801SOL     OW21301   1.428   1.671   2.160
 6801SOL    HW121302   1.424   1.584   2.110
 6801SOL    HW221303   1.364   1.668   2.236
 6802SOL     OW21304   2.098   5.759   0.890
 6802SOL    HW121305   2.186   5.736   0.849
 6802SOL    HW221306   2.033   5.684   0.873
 6803SOL     OW21307   4.853   2.173   6.395
 6803SOL    HW121308   4.831   2.075   6.397
 6803SOL    HW221309   4.905   2.197   6.477
 6804SOL     OW21310   2.121   6.264   3.351
 6804SOL    HW121311   2.162   6.192   3.294
 6804SOL    HW221312   2.176   6.347   3.343
 6805SOL     OW21313   5.665   6.711   4.632
 6805SOL    HW121314   5.595   6.756   4.578
 6805SOL    HW221315   5.629   6.625   4.668
 6806SOL     OW21316   5.079   1.209   4.449
 6806SOL    HW121317   5.044   1.150   4.376
 6806SOL    HW221318   5.172   1.240   4.425
 6807SOL     OW21319   2.471   3.046   0.111
 6807SOL    HW121320   2.501   3.141   0.119
 6807SOL    HW221321   2.491   2.997   0.196
 6808SOL     OW21322   0.718   2.934   5.334
 6808SOL    HW121323   0.708   2.943   5.433
 6808SOL    HW221324   0.629   2.945   5.290
 6809SOL     OW21325   1.543   4.720   6.974
 6809SOL    HW121326   1.588   4.735   6.886
 6809SOL    HW221327   1.486   4.637   6.969
 6810SOL     OW21328   1.137   0.872   2.192
 6810SOL    HW121329   1.219   0.819   2.213
 6810SOL    HW221330   1.081   0.881   2.274
 6811SOL     OW21331   5.985   4.290   0.450
 6811SOL    HW121332   6.079   4.258   0.447
 6811SOL    HW221333   5.960   4.333   0.363
 6812SOL     OW21334   4.170   3.441   3.178
 6812SOL    HW121335   4.104   3.482   3.115
 6812SOL    HW221336   4.166   3.490   3.266
 6813SOL     OW21337   5.124   1.916   1.582
 6813SOL    HW121338   5.122   1.818   1.600
 6813SOL    HW221339   5.033   1.955   1.600
 6814SOL     OW21340   3.299   2.786   1.339
 6814SOL    HW121341   3.336   2.805   1.429
 6814SOL    HW221342   3.364   2.732   1.286
 6815SOL     OW21343   2.820   7.001   1.794
 6815SOL    HW121344   2.737   6.997   1.738
 6815SOL    HW221345   2.875   0.058   1.767
 6816SOL     OW21346   6.227   5.235   6.901
 6816SOL    HW121347   6.209   5.295   6.980
 6816SOL    HW221348   6.307   5.269   6.852
 6817SOL     OW21349   6.440   1.419   5.374
 6817SOL    HW121350   6.471   1.324   5.368
 6817SOL    HW221351   6.505   1.478   5.325
 6818SOL     OW21352   3.551   6.414   1.860
 6818SOL    HW121353   3.539   6.512   1.876
 6818SOL    HW221354   3.469   6.377   1.818
 6819SOL     OW21355   2.941   0.728   3.456
 6819SOL    HW121356   2.931   0.788   3.376
 6819SOL    HW221357   3.021   0.669   3.443
 6820SOL     OW21358   1.154   4.586   3.491
 6820SOL    HW121359   1.174   4.599   3.588
 6820SOL    HW221360   1.058   4.562   3.479
 6821SOL     OW21361   2.485   2.140   5.028
 6821SOL    HW121362   2.476   2.131   5.127
 6821SOL    HW221363   2.517   2.232   5.006
 6822SOL     OW21364   5.555   1.467   5.939
 6822SOL    HW121365   5.602   1.379   5.951
 6822SOL    HW221366   5.458   1.451   5.922
 6823SOL     OW21367   3.570   3.569   3.576
 6823SOL    HW121368   3.650   3.509   3.583
 6823SOL    HW221369   3.501   3.526   3.518
 6824SOL     OW21370   0.266   3.297   6.428
 6824SOL    HW121371   0.354   3.250   6.429
 6824SOL    HW221372   0.267   3.368   6.357
 6825SOL     OW21373   4.889   0.193   2.245
 6825SOL    HW121374   4.908   0.164   2.339
 6825SOL    HW221375   4.821   0.266   2.246
 6826SOL     OW21376   2.073   3.537   2.449
 6826SOL    HW121377   1.974   3.521   2.449
 6826SOL    HW221378   2.119   3.459   2.406
 6827SOL     OW21379   4.519   5.777   6.859
 6827SOL    HW121380   4.588   5.832   6.906
 6827SOL    HW221381   4.565   5.710   6.800
 6828SOL     OW21382   1.305   2.262   2.014
 6828SOL    HW121383   1.218   2.300   2.043
 6828SOL    HW221384   1.345   2.208   2.088
 6829SOL     OW21385   5.385   6.714   3.603
 6829SOL    HW121386   5.440   6.631   3.598
 6829SOL    HW221387   5.425   6.784   3.544
 6830SOL     OW21388   5.740   1.447   2.986
 6830SOL    HW121389   5.643   1.429   3.000
 6830SOL    HW221390   5.754   1.545   2.967
 6831SOL     OW21391   0.867   0.966   6.291
 6831SOL    HW121392   0.775   0.946   6.325
 6831SOL    HW221393   0.921   1.008   6.364
 6832SOL     OW21394   2.844   4.502   1.482
 6832SOL    HW121395   2.892   4.464   1.561
 6832SOL    HW221396   2.796   4.428   1.433
 6833SOL     OW21397   3.881   5.189   6.960
 6833SOL    HW121398   3.823   5.131   7.017
 6833SOL    HW221399   3.949   5.132   6.913
 6834SOL     OW21400   4.549   6.970   1.571
 6834SOL    HW121401   4.467   6.950   1.626
 6834SOL    HW221402   4.548   6.915   1.488
 6835SOL     OW21403   3.847   0.464   4.996
 6835SOL    HW121404   3.866   0.379   5.046
 6835SOL    HW221405   3.923   0.483   4.933
 6836SOL     OW21406   3.028   6.246   0.611
 6836SOL    HW121407   2.961   6.215   0.543
 6836SOL    HW221408   3.038   6.345   0.606
 6837SOL     OW21409   1.665   3.300   1.873
 6837SOL    HW121410   1.752   3.306   1.824
 6837SOL    HW221411   1.669   3.226   1.939
 6838SOL     OW21412   2.529   0.835   0.390
 6838SOL    HW121413   2.503   0.845   0.486
 6838SOL    HW221414   2.468   0.769   0.346
 6839SOL     OW21415   4.582   1.274   1.043
 6839SOL    HW121416   4.590   1.175   1.029
 6839SOL    HW221417   4.647   1.321   0.984
 6840SOL     OW21418   2.563   1.515   6.047
 6840SOL    HW121419   2.640   1.547   6.103
 6840SOL    HW221420   2.534   1.587   5.985
 6841SOL     OW21421   6.274   3.422   5.859
 6841SOL    HW121422   6.315   3.399   5.947
 6841SOL    HW221423   6.184   3.463   5.873
 6842SOL     OW21424   1.609   5.210   1.445
 6842SOL    HW121425   1.675   5.251   1.508
 6842SOL    HW221426   1.647   5.125   1.407
 6843SOL     OW21427   5.315   7.010   6.595
 6843SOL    HW121428   5.340   6.942   6.527
 6843SOL    HW221429   5.220   0.016   6.581
 6844SOL     OW21430   5.101   1.077   3.823
 6844SOL    HW121431   5.159   1.105   3.899
 6844SOL    HW221432   5.015   1.128   3.826
 6845SOL     OW21433   4.766   2.679   3.102
 6845SOL    HW121434   4.729   2.661   3.193
 6845SOL    HW221435   4.709   2.635   3.033
 6846SOL     OW21436   2.759   4.260   0.434
 6846SOL    HW121437   2.788   4.208   0.514
 6846SOL    HW221438   2.835   4.319   0.404
 6847SOL     OW21439   6.098   4.034   4.776
 6847SOL    HW121440   6.022   4.099   4.775
 6847SOL    HW221441   6.182   4.080   4.749
 6848SOL     OW21442   5.215   3.976   3.883
 6848SOL    HW121443   5.206   4.045   3.955
 6848SOL    HW221444   5.266   3.898   3.918
 6849SOL     OW21445   3.761   3.777   5.968
 6849SOL    HW121446   3.799   3.762   5.877
 6849SOL    HW221447   3.825   3.833   6.021
 6850SOL     OW21448   4.370   2.306   3.419
 6850SOL    HW121449   4.442   2.237   3.420
 6850SOL    HW221450   4.312   2.296   3.500
 6851SOL     OW21451   1.908   2.790   2.512
 6851SOL    HW121452   1.876   2.880   2.484
 6851SOL    HW221453   1.977   2.800   2.584
 6852SOL     OW21454   2.358   5.702   0.774
 6852SOL    HW121455   2.423   5.659   0.711
 6852SOL    HW221456   2.365   5.659   0.864
 6853SOL     OW21457   5.622   3.463   6.532
 6853SOL    HW121458   5.615   3.367   6.506
 6853SOL    HW221459   5.707   3.501   6.496
 6854SOL     OW21460   4.957   6.304   5.902
 6854SOL    HW121461   5.025   6.234   5.922
 6854SOL    HW221462   5.001   6.382   5.858
 6855SOL     OW21463   3.535   5.310   3.504
 6855SOL    HW121464   3.612   5.259   3.543
 6855SOL    HW221465   3.564   5.354   3.419
 6856SOL     OW21466   0.875   2.587   6.167
 6856SOL    HW121467   0.921   2.562   6.082
 6856SOL    HW221468   0.889   2.515   6.235
 6857SOL     OW21469   1.285   3.390   6.792
 6857SOL    HW121470   1.191   3.359   6.778
 6857SOL    HW221471   1.298   3.479   6.747
 6858SOL     OW21472   3.260   4.205   1.709
 6858SOL    HW121473   3.276   4.251   1.622
 6858SOL    HW221474   3.164   4.215   1.735
 6859SOL     OW21475   0.790   1.494   1.890
 6859SOL    HW121476   0.695   1.464   1.888
 6859SOL    HW221477   0.819   1.507   1.985
 6860SOL     OW21478   0.024   5.409   2.058
 6860SOL    HW121479   6.997   5.399   1.972
 6860SOL    HW221480   0.113   5.364   2.051
 6861SOL     OW21481   5.158   3.161   5.292
 6861SOL    HW121482   5.152   3.238   5.355
 6861SOL    HW221483   5.104   3.084   5.326
 6862SOL     OW21484   0.677   4.636   6.469
 6862SOL    HW121485   0.667   4.539   6.492
 6862SOL    HW221486   0.617   4.659   6.393
 6863SOL     OW21487   6.682   6.370   4.905
 6863SOL    HW121488   6.773   6.352   4.869
 6863SOL    HW221489   6.688   6.393   5.002
 6864SOL     OW21490   1.732   3.836   5.865
 6864SOL    HW121491   1.661   3.818   5.797
 6864SOL    HW221492   1.694   3.890   5.940
 6865SOL     OW21493   1.281   0.167   4.349
 6865SOL    HW121494   1.257   0.167   4.252
 6865SOL    HW221495   1.245   0.250   4.392
 6866SOL     OW21496   6.867   4.569   2.279
 6866SOL    HW121497   6.796   4.632   2.311
 6866SOL    HW221498   6.949   4.581   2.334
 6867SOL     OW21499   2.175   3.510   0.437
 6867SOL    HW121500   2.253   3.517   0.375
 6867SOL    HW221501   2.117   3.434   0.410
 6868SOL     OW21502   2.146   5.561   5.066
 6868SOL    HW121503   2.157   5.492   4.995
 6868SOL    HW221504   2.052   5.594   5.066
 6869SOL     OW21505   3.541   6.823   5.741
 6869SOL    HW121506   3.571   6.894   5.678
 6869SOL    HW221507   3.614   6.755   5.752
 6870SOL     OW21508   0.142   2.895   0.817
 6870SOL    HW121509   0.177   2.807   0.787
 6870SOL    HW221510   0.076   2.881   0.892
 6871SOL     OW21511   6.806   3.637   2.285
 6871SOL    HW121512   6.730   3.620   2.222
 6871SOL    HW221513   6.857   3.552   2.299
 6872SOL     OW21514   1.042   2.732   2.050
 6872SOL    HW121515   1.069   2.722   1.954
 6872SOL    HW221516   0.975   2.661   2.073
 6873SOL     OW21517   1.208   4.412   4.854
 6873SOL    HW121518   1.286   4.451   4.806
 6873SOL    HW221519   1.240   4.345   4.922
 6874SOL     OW21520   5.810   5.663   2.825
 6874SOL    HW121521   5.788   5.754   2.861
 6874SOL    HW221522   5.746   5.639   2.752
 6875SOL     OW21523   1.734   2.268   0.874
 6875SOL    HW121524   1.816   2.225   0.911
 6875SOL    HW221525   1.739   2.270   0.774
 6876SOL     OW21526   3.623   6.678   3.116
 6876SOL    HW121527   3.596   6.673   3.212
 6876SOL    HW221528   3.626   6.586   3.077
 6877SOL     OW21529   2.272   4.144   1.975
 6877SOL    HW121530   2.329   4.063   1.984
 6877SOL    HW221531   2.182   4.126   2.015
 6878SOL     OW21532   2.085   0.888   3.840
 6878SOL    HW121533   2.113   0.797   3.810
 6878SOL    HW221534   2.063   0.945   3.760
 6879SOL     OW21535   2.038   2.311   0.752
 6879SOL    HW121536   2.053   2.380   0.681
 6879SOL    HW221537   1.982   2.237   0.714
 6880SOL     OW21538   1.805   5.796   6.421
 6880SOL    HW121539   1.868   5.873   6.410
 6880SOL    HW221540   1.805   5.741   6.338
 6881SOL     OW21541   2.004   3.625   0.124
 6881SOL    HW121542   2.044   3.673   0.202
 6881SOL    HW221543   1.959   3.691   0.064
 6882SOL     OW21544   3.057   6.521   0.690
 6882SOL    HW121545   3.090   6.581   0.763
 6882SOL    HW221546   3.084   6.557   0.601
 6883SOL     OW21547   5.146   0.406   6.165
 6883SOL    HW121548   5.203   0.368   6.238
 6883SOL    HW221549   5.050   0.390   6.186
 6884SOL     OW21550   2.172   4.047   3.116
 6884SOL    HW121551   2.221   3.960   3.110
 6884SOL    HW221552   2.232   4.121   3.086
 6885SOL     OW21553   4.634   5.073   3.578
 6885SOL    HW121554   4.567   5.105   3.510
 6885SOL    HW221555   4.639   4.974   3.576
 6886SOL     OW21556   5.201   0.995   5.845
 6886SOL    HW121557   5.203   0.918   5.909
 6886SOL    HW221558   5.108   1.006   5.809
 6887SOL     OW21559   5.147   6.516   6.574
 6887SOL    HW121560   5.138   6.543   6.478
 6887SOL    HW221561   5.179   6.422   6.580
 6888SOL     OW21562   5.657   4.625   6.551
 6888SOL    HW121563   5.557   4.629   6.555
 6888SOL    HW221564   5.687   4.652   6.459
 6889SOL     OW21565   0.811   2.752   5.645
 6889SOL    HW121566   0.716   2.730   5.670
 6889SOL    HW221567   0.844   2.827   5.701
 6890SOL     OW21568   3.414   5.174   2.756
 6890SOL    HW121569   3.398   5.076   2.764
 6890SOL    HW221570   3.401   5.218   2.845
 6891SOL     OW21571   2.371   2.666   0.928
 6891SOL    HW121572   2.303   2.595   0.946
 6891SOL    HW221573   2.390   2.715   1.013
 6892SOL     OW21574   3.153   1.273   4.228
 6892SOL    HW121575   3.168   1.179   4.196
 6892SOL    HW221576   3.191   1.283   4.320
 6893SOL     OW21577   6.145   3.037   6.860
 6893SOL    HW121578   6.233   3.005   6.895
 6893SOL    HW221579   6.080   3.045   6.936
 6894SOL     OW21580   5.453   4.598   0.944
 6894SOL    HW121581   5.355   4.615   0.937
 6894SOL    HW221582   5.503   4.685   0.938
 6895SOL     OW21583   1.704   5.948   1.005
 6895SOL    HW121584   1.789   5.900   1.028
 6895SOL    HW221585   1.687   6.021   1.071
 6896SOL     OW21586   3.700   1.941   4.325
 6896SOL    HW121587   3.701   1.977   4.232
 6896SOL    HW221588   3.694   2.017   4.390
 6897SOL     OW21589   4.924   3.723   5.278
 6897SOL    HW121590   4.843   3.699   5.224
 6897SOL    HW221591   5.000   3.743   5.216
 6898SOL     OW21592   2.534   1.350   1.583
 6898SOL    HW121593   2.586   1.365   1.499
 6898SOL    HW221594   2.504   1.255   1.587
 6899SOL     OW21595   6.316   5.695   2.467
 6899SOL    HW121596   6.220   5.699   2.495
 6899SOL    HW221597   6.368   5.642   2.534
 6900SOL     OW21598   6.873   4.193   6.345
 6900SOL    HW121599   6.852   4.287   6.317
 6900SOL    HW221600   6.872   4.133   6.265
 6901SOL     OW21601   4.468   4.840   6.779
 6901SOL    HW121602   4.565   4.826   6.758
 6901SOL    HW221603   4.452   4.937   6.796
 6902SOL     OW21604   0.060   6.098   6.156
 6902SOL    HW121605   0.130   6.047   6.206
 6902SOL    HW221606   0.024   6.042   6.082
 6903SOL     OW21607   3.038   5.083   5.162
 6903SOL    HW121608   3.035   5.069   5.261
 6903SOL    HW221609   3.003   5.174   5.139
 6904SOL     OW21610   0.496   5.662   4.865
 6904SOL    HW121611   0.536   5.620   4.783
 6904SOL    HW221612   0.431   5.598   4.907
 6905SOL     OW21613   5.199   5.695   6.041
 6905SOL    HW121614   5.255   5.613   6.056
 6905SOL    HW221615   5.173   5.700   5.945
 6906SOL     OW21616   3.962   1.049   3.520
 6906SOL    HW121617   3.916   1.137   3.533
 6906SOL    HW221618   4.011   1.050   3.433
 6907SOL     OW21619   6.137   1.828   1.484
 6907SOL    HW121620   6.038   1.838   1.487
 6907SOL    HW221621   6.167   1.775   1.563
 6908SOL     OW21622   2.587   4.349   6.573
 6908SOL    HW121623   2.521   4.274   6.568
 6908SOL    HW221624   2.646   4.346   6.492
 6909SOL     OW21625   5.381   4.929   1.740
 6909SOL    HW121626   5.375   4.864   1.816
 6909SOL    HW221627   5.439   5.006   1.767
 6910SOL     OW21628   1.541   2.954   2.550
 6910SOL    HW121629   1.445   2.935   2.529
 6910SOL    HW221630   1.571   2.895   2.625
 6911SOL     OW21631   3.460   0.023   5.366
 6911SOL    HW121632   3.367   0.038   5.400
 6911SOL    HW221633   3.510   6.988   5.431
 6912SOL     OW21634   2.052   3.209   6.819
 6912SOL    HW121635   2.074   3.298   6.778
 6912SOL    HW221636   2.089   3.205   6.912
 6913SOL     OW21637   4.742   5.945   5.753
 6913SOL    HW121638   4.659   5.989   5.788
 6913SOL    HW221639   4.820   5.974   5.808
 6914SOL     OW21640   6.196   3.334   2.089
 6914SOL    HW121641   6.193   3.337   1.989
 6914SOL    HW221642   6.103   3.320   2.125
 6915SOL     OW21643   0.899   3.595   2.181
 6915SOL    HW121644   0.972   3.609   2.114
 6915SOL    HW221645   0.934   3.612   2.273
 6916SOL     OW21646   4.590   0.038   6.150
 6916SOL    HW121647   4.517   0.038   6.082
 6916SOL    HW221648   4.670   0.085   6.112
 6917SOL     OW21649   5.127   5.533   1.880
 6917SOL    HW121650   5.124   5.437   1.907
 6917SOL    HW221651   5.216   5.553   1.839
 6918SOL     OW21652   1.021   3.101   1.723
 6918SOL    HW121653   0.961   3.092   1.643
 6918SOL    HW221654   0.966   3.120   1.804
 6919SOL     OW21655   6.102   6.996   2.416
 6919SOL    HW121656   6.184   6.954   2.378
 6919SOL    HW221657   6.058   6.933   2.480
 6920SOL     OW21658   4.644   0.325   5.487
 6920SOL    HW121659   4.619   0.259   5.557
 6920SOL    HW221660   4.620   0.417   5.518
 6921SOL     OW21661   3.450   0.147   4.674
 6921SOL    HW121662   3.492   0.172   4.761
 6921SOL    HW221663   3.513   0.170   4.599
 6922SOL     OW21664   1.822   5.916   4.820
 6922SOL    HW121665   1.818   6.000   4.766
 6922SOL    HW221666   1.882   5.850   4.774
 6923SOL     OW21667   6.310   6.950   2.029
 6923SOL    HW121668   6.316   6.872   2.092
 6923SOL    HW221669   6.357   0.006   2.069
 6924SOL     OW21670   3.675   6.484   0.684
 6924SOL    HW121671   3.587   6.531   0.681
 6924SOL    HW221672   3.678   6.423   0.764
 6925SOL     OW21673   5.378   6.277   6.576
 6925SOL    HW121674   5.431   6.332   6.641
 6925SOL    HW221675   5.437   6.206   6.536
 6926SOL     OW21676   2.868   1.464   1.036
 6926SOL    HW121677   2.883   1.397   0.963
 6926SOL    HW221678   2.909   1.432   1.121
 6927SOL     OW21679   3.834   0.724   0.498
 6927SOL    HW121680   3.846   0.785   0.576
 6927SOL    HW221681   3.764   0.656   0.519
 6928SOL     OW21682   4.995   5.175   0.671
 6928SOL    HW121683   4.908   5.130   0.654
 6928SOL    HW221684   5.061   5.109   0.707
 6929SOL     OW21685   5.112   4.904   1.651
 6929SOL    HW121686   5.208   4.894   1.680
 6929SOL    HW221687   5.052   4.868   1.722
 6930SOL     OW21688   0.382   1.144   0.285
 6930SOL    HW121689   0.478   1.158   0.263
 6930SOL    HW221690   0.328   1.219   0.246
 6931SOL     OW21691   2.495   2.314   1.330
 6931SOL    HW121692   2.448   2.256   1.264
 6931SOL    HW221693   2.446   2.401   1.338
 6932SOL     OW21694   4.945   5.400   0.004
 6932SOL    HW121695   4.918   5.416   6.931
 6932SOL    HW221696   4.904   5.315   0.036
 6933SOL     OW21697   3.117   5.949   6.323
 6933SOL    HW121698   3.216   5.952   6.330
 6933SOL    HW221699   3.076   5.972   6.411
 6934SOL     OW21700   5.057   4.049   6.553
 6934SOL    HW121701   5.148   4.043   6.594
 6934SOL    HW221702   5.009   3.962   6.566
 6935SOL     OW21703   5.406   5.441   1.864
 6935SOL    HW121704   5.374   5.437   1.959
 6935SOL    HW221705   5.466   5.520   1.852
 6936SOL     OW21706   1.137   1.661   4.724
 6936SOL    HW121707   1.135   1.678   4.625
 6936SOL    HW221708   1.046   1.679   4.762
 6937SOL     OW21709   5.406   5.803   0.337
 6937SOL    HW121710   5.456   5.886   0.360
 6937SOL    HW221711   5.443   5.726   0.390
 6938SOL     OW21712   0.368   0.893   4.574
 6938SOL    HW121713   0.340   0.957   4.647
 6938SOL    HW221714   0.315   0.912   4.492
 6939SOL     OW21715   6.439   4.397   3.639
 6939SOL    HW121716   6.498   4.351   3.706
 6939SOL    HW221717   6.399   4.478   3.681
 6940SOL     OW21718   4.805   6.805   0.793
 6940SOL    HW121719   4.747   6.805   0.711
 6940SOL    HW221720   4.838   6.897   0.811
 6941SOL     OW21721   2.861   3.603   3.143
 6941SOL    HW121722   2.829   3.556   3.060
 6941SOL    HW221723   2.929   3.672   3.118
 6942SOL     OW21724   6.324   6.124   1.608
 6942SOL    HW121725   6.403   6.081   1.564
 6942SOL    HW221726   6.256   6.054   1.631
 6943SOL     OW21727   3.832   4.539   6.999
 6943SOL    HW121728   3.785   4.457   6.964
 6943SOL    HW221729   3.891   4.576   6.928
 6944SOL     OW21730   1.107   3.857   5.919
 6944SOL    HW121731   1.144   3.777   5.872
 6944SOL    HW221732   1.030   3.894   5.867
 6945SOL     OW21733   6.014   2.780   0.590
 6945SOL    HW121734   5.917   2.771   0.612
 6945SOL    HW221735   6.059   2.692   0.604
 6946SOL     OW21736   3.890   5.884   2.215
 6946SOL    HW121737   3.927   5.820   2.283
 6946SOL    HW221738   3.902   5.847   2.123
 6947SOL     OW21739   4.857   4.775   5.925
 6947SOL    HW121740   4.798   4.796   6.003
 6947SOL    HW221741   4.941   4.733   5.958
 6948SOL     OW21742   0.252   5.808   0.871
 6948SOL    HW121743   0.197   5.748   0.930
 6948SOL    HW221744   0.201   5.891   0.852
 6949SOL     OW21745   2.748   2.248   3.609
 6949SOL    HW121746   2.678   2.212   3.672
 6949SOL    HW221747   2.744   2.197   3.523
 6950SOL     OW21748   0.854   6.787   4.519
 6950SOL    HW121749   0.912   6.850   4.469
 6950SOL    HW221750   0.822   6.830   4.604
 6951SOL     OW21751   6.901   4.990   6.968
 6951SOL    HW121752   6.813   4.955   6.936
 6951SOL    HW221753   6.954   5.022   6.889
 6952SOL     OW21754   3.109   4.938   2.550
 6952SOL    HW121755   3.121   4.995   2.631
 6952SOL    HW221756   3.125   4.843   2.573
 6953SOL     OW21757   5.697   0.608   0.787
 6953SOL    HW121758   5.679   0.588   0.690
 6953SOL    HW221759   5.611   0.617   0.836
 6954SOL     OW21760   0.411   3.598   0.718
 6954SOL    HW121761   0.450   3.635   0.803
 6954SOL    HW221762   0.360   3.669   0.671
 6955SOL     OW21763   5.038   0.090   2.456
 6955SOL    HW121764   5.124   0.129   2.489
 6955SOL    HW221765   4.981   0.064   2.533
 6956SOL     OW21766   5.583   5.889   2.029
 6956SOL    HW121767   5.585   5.989   2.019
 6956SOL    HW221768   5.490   5.860   2.054
 6957SOL     OW21769   5.527   5.445   6.305
 6957SOL    HW121770   5.445   5.413   6.353
 6957SOL    HW221771   5.599   5.464   6.372
 6958SOL     OW21772   3.426   2.892   3.972
 6958SOL    HW121773   3.421   2.838   4.056
 6958SOL    HW221774   3.334   2.927   3.950
 6959SOL     OW21775   1.632   4.360   2.948
 6959SOL    HW121776   1.564   4.419   2.990
 6959SOL    HW221777   1.609   4.264   2.966
 6960SOL     OW21778   1.993   4.693   0.371
 6960SOL    HW121779   2.004   4.688   0.470
 6960SOL    HW221780   2.012   4.604   0.330
 6961SOL     OW21781   4.002   1.739   5.090
 6961SOL    HW121782   4.090   1.693   5.082
 6961SOL    HW221783   3.937   1.680   5.139
 6962SOL     OW21784   3.556   6.831   6.314
 6962SOL    HW121785   3.641   6.807   6.360
 6962SOL    HW221786   3.480   6.829   6.380
 6963SOL     OW21787   5.080   6.539   1.131
 6963SOL    HW121788   5.009   6.535   1.201
 6963SOL    HW221789   5.063   6.617   1.070
 6964SOL     OW21790   2.091   0.176   5.999
 6964SOL    HW121791   2.088   0.267   5.958
 6964SOL    HW221792   2.057   0.181   6.093
 6965SOL     OW21793   0.595   2.121   0.514
 6965SOL    HW121794   0.578   2.122   0.416
 6965SOL    HW221795   0.636   2.034   0.540
 6966SOL     OW21796   0.863   0.779   2.041
 6966SOL    HW121797   0.891   0.866   2.082
 6966SOL    HW221798   0.904   0.704   2.093
 6967SOL     OW21799   3.866   2.143   6.355
 6967SOL    HW121800   3.789   2.119   6.296
 6967SOL    HW221801   3.932   2.067   6.356
 6968SOL     OW21802   3.570   6.946   2.850
 6968SOL    HW121803   3.650   6.955   2.909
 6968SOL    HW221804   3.494   6.997   2.890
 6969SOL     OW21805   2.134   2.020   1.966
 6969SOL    HW121806   2.122   1.923   1.944
 6969SOL    HW221807   2.209   2.057   1.911
 6970SOL     OW21808   3.356   4.685   6.244
 6970SOL    HW121809   3.428   4.751   6.224
 6970SOL    HW221810   3.346   4.675   6.343
 6971SOL     OW21811   6.023   4.544   0.647
 6971SOL    HW121812   6.025   4.540   0.746
 6971SOL    HW221813   6.022   4.451   0.610
 6972SOL     OW21814   5.212   3.601   2.617
 6972SOL    HW121815   5.191   3.698   2.625
 6972SOL    HW221816   5.128   3.549   2.608
 6973SOL     OW21817   1.186   1.989   2.313
 6973SOL    HW121818   1.146   2.001   2.222
 6973SOL    HW221819   1.191   2.078   2.358
 6974SOL     OW21820   3.362   3.611   2.936
 6974SOL    HW121821   3.422   3.691   2.926
 6974SOL    HW221822   3.328   3.584   2.845
 6975SOL     OW21823   3.156   5.693   5.082
 6975SOL    HW121824   3.240   5.641   5.097
 6975SOL    HW221825   3.114   5.715   5.170
 6976SOL     OW21826   5.019   4.140   5.273
 6976SOL    HW121827   4.939   4.081   5.286
 6976SOL    HW221828   5.037   4.149   5.175
 6977SOL     OW21829   4.064   4.633   1.707
 6977SOL    HW121830   3.976   4.585   1.699
 6977SOL    HW221831   4.125   4.605   1.633
 6978SOL     OW21832   5.612   3.330   1.713
 6978SOL    HW121833   5.603   3.350   1.615
 6978SOL    HW221834   5.682   3.390   1.753
 6979SOL     OW21835   1.357   4.037   1.568
 6979SOL    HW121836   1.388   4.130   1.552
 6979SOL    HW221837   1.333   4.026   1.665
 6980SOL     OW21838   1.437   6.803   3.073
 6980SOL    HW121839   1.516   6.791   3.012
 6980SOL    HW221840   1.354   6.816   3.018
 6981SOL     OW21841   3.579   3.462   6.953
 6981SOL    HW121842   3.591   3.396   0.004
 6981SOL    HW221843   3.610   3.553   6.983
 6982SOL     OW21844   0.779   1.373   4.111
 6982SOL    HW121845   0.688   1.388   4.074
 6982SOL    HW221846   0.816   1.459   4.147
 6983SOL     OW21847   4.819   0.720   4.384
 6983SOL    HW121848   4.862   0.655   4.447
 6983SOL    HW221849   4.728   0.687   4.360
 6984SOL     OW21850   0.800   2.626   3.085
 6984SOL    HW121851   0.808   2.643   2.987
 6984SOL    HW221852   0.723   2.566   3.103
 6985SOL     OW21853   6.742   3.998   6.981
 6985SOL    HW121854   6.779   3.905   6.976
 6985SOL    HW221855   6.671   4.010   6.912
 6986SOL     OW21856   3.877   5.306   5.739
 6986SOL    HW121857   3.823   5.224   5.757
 6986SOL    HW221858   3.954   5.310   5.802
 6987SOL     OW21859   0.370   1.931   6.267
 6987SOL    HW121860   0.342   1.892   6.355
 6987SOL    HW221861   0.374   1.858   6.199
 6988SOL     OW21862   2.660   1.005   6.126
 6988SOL    HW121863   2.647   1.062   6.208
 6988SOL    HW221864   2.728   0.935   6.145
 6989SOL     OW21865   0.215   4.306   2.764
 6989SOL    HW121866   0.191   4.246   2.687
 6989SOL    HW221867   0.134   4.324   2.819
 6990SOL     OW21868   3.784   2.991   1.985
 6990SOL    HW121869   3.697   2.943   1.973
 6990SOL    HW221870   3.831   2.956   2.067
 6991SOL     OW21871   5.586   4.245   2.698
 6991SOL    HW121872   5.499   4.284   2.727
 6991SOL    HW221873   5.589   4.242   2.598
 6992SOL     OW21874   1.284   0.351   6.730
 6992SOL    HW121875   1.271   0.449   6.747
 6992SOL    HW221876   1.252   0.329   6.638
 6993SOL     OW21877   5.567   1.196   1.897
 6993SOL    HW121878   5.545   1.192   1.799
 6993SOL    HW221879   5.661   1.164   1.911
 6994SOL     OW21880   1.948   0.165   3.999
 6994SOL    HW121881   2.022   0.153   3.934
 6994SOL    HW221882   1.957   0.253   4.045
 6995SOL     OW21883   0.590   3.138   0.652
 6995SOL    HW121884   0.623   3.192   0.575
 6995SOL    HW221885   0.647   3.056   0.662
 6996SOL     OW21886   1.669   0.660   0.125
 6996SOL    HW121887   1.708   0.666   0.034
 6996SOL    HW221888   1.717   0.589   0.178
 6997SOL     OW21889   0.138   5.086   5.063
 6997SOL    HW121890   0.209   5.154   5.080
 6997SOL    HW221891   0.169   4.996   5.096
 6998SOL     OW21892   0.644   1.277   1.377
 6998SOL    HW121893   0.675   1.319   1.293
 6998SOL    HW221894   0.698   1.194   1.395
 6999SOL     OW21895   1.157   2.773   6.924
 6999SOL    HW121896   1.215   2.822   6.859
 6999SOL    HW221897   1.210   2.699   6.967
 7000SOL     OW21898   6.698   6.770   2.696
 7000SOL    HW121899   6.718   6.801   2.789
 7000SOL    HW221900   6.782   6.765   2.643
 7001SOL     OW21901   1.143   1.736   4.404
 7001SOL    HW121902   1.117   1.821   4.358
 7001SOL    HW221903   1.210   1.687   4.349
 7002SOL     OW21904   0.726   5.707   3.475
 7002SOL    HW121905   0.753   5.681   3.383
 7002SOL    HW221906   0.677   5.794   3.473
 7003SOL     OW21907   6.149   4.007   1.495
 7003SOL    HW121908   6.057   4.032   1.526
 7003SOL    HW221909   6.148   3.914   1.458
 7004SOL     OW21910   1.871   5.844   6.974
 7004SOL    HW121911   1.961   5.851   7.018
 7004SOL    HW221912   1.880   5.864   6.876
 7005SOL     OW21913   1.621   0.581   6.801
 7005SOL    HW121914   1.543   0.519   6.799
 7005SOL    HW221915   1.687   0.550   6.870
 7006SOL     OW21916   6.951   0.589   3.614
 7006SOL    HW121917   6.879   0.571   3.682
 7006SOL    HW221918   6.988   0.681   3.630
 7007SOL     OW21919   3.829   0.825   6.009
 7007SOL    HW121920   3.805   0.728   6.012
 7007SOL    HW221921   3.917   0.836   5.964
 7008SOL     OW21922   6.771   4.255   3.431
 7008SOL    HW121923   6.671   4.247   3.424
 7008SOL    HW221924   6.803   4.206   3.512
 7009SOL     OW21925   4.448   6.067   2.106
 7009SOL    HW121926   4.433   6.164   2.122
 7009SOL    HW221927   4.531   6.037   2.154
 7010SOL     OW21928   5.215   3.909   1.964
 7010SOL    HW121929   5.251   3.826   2.007
 7010SOL    HW221930   5.288   3.977   1.957
 7011SOL     OW21931   3.951   6.778   0.284
 7011SOL    HW121932   3.885   6.842   0.246
 7011SOL    HW221933   3.937   6.769   0.383
 7012SOL     OW21934   0.776   2.473   0.863
 7012SOL    HW121935   0.677   2.487   0.851
 7012SOL    HW221936   0.800   2.490   0.958
 7013SOL     OW21937   2.445   1.715   0.170
 7013SOL    HW121938   2.370   1.781   0.163
 7013SOL    HW221939   2.467   1.700   0.266
 7014SOL     OW21940   6.295   3.994   1.961
 7014SOL    HW121941   6.282   3.897   1.978
 7014SOL    HW221942   6.306   4.042   2.048
 7015SOL     OW21943   5.148   4.824   2.045
 7015SOL    HW121944   5.241   4.791   2.065
 7015SOL    HW221945   5.086   4.796   2.118
 7016SOL     OW21946   3.108   4.900   0.921
 7016SOL    HW121947   3.108   4.999   0.933
 7016SOL    HW221948   3.015   4.869   0.898
 7017SOL     OW21949   4.293   4.982   3.789
 7017SOL    HW121950   4.302   4.902   3.730
 7017SOL    HW221951   4.384   5.018   3.810
 7018SOL     OW21952   4.706   2.598   4.485
 7018SOL    HW121953   4.716   2.662   4.561
 7018SOL    HW221954   4.795   2.563   4.458
 7019SOL     OW21955   4.914   5.253   2.162
 7019SOL    HW121956   4.890   5.157   2.144
 7019SOL    HW221957   4.833   5.302   2.193
 7020SOL     OW21958   0.774   3.491   0.062
 7020SOL    HW121959   0.825   3.405   0.064
 7020SOL    HW221960   0.704   3.487   7.014
 7021SOL     OW21961   1.290   2.444   4.613
 7021SOL    HW121962   1.230   2.513   4.573
 7021SOL    HW221963   1.245   2.355   4.611
 7022SOL     OW21964   4.226   0.802   0.477
 7022SOL    HW121965   4.319   0.832   0.456
 7022SOL    HW221966   4.163   0.879   0.469
 7023SOL     OW21967   0.504   1.690   1.751
 7023SOL    HW121968   0.570   1.670   1.678
 7023SOL    HW221969   0.520   1.628   1.828
 7024SOL     OW21970   4.024   3.115   3.487
 7024SOL    HW121971   3.971   3.088   3.568
 7024SOL    HW221972   3.967   3.106   3.405
 7025SOL     OW21973   2.989   0.082   0.546
 7025SOL    HW121974   2.953   0.016   0.612
 7025SOL    HW221975   3.089   0.080   0.548
 7026SOL     OW21976   3.198   2.058   1.510
 7026SOL    HW121977   3.106   2.092   1.530
 7026SOL    HW221978   3.205   2.032   1.414
 7027SOL     OW21979   2.413   5.124   1.971
 7027SOL    HW121980   2.416   5.152   1.875
 7027SOL    HW221981   2.486   5.171   2.021
 7028SOL     OW21982   3.042   0.653   3.940
 7028SOL    HW121983   3.024   0.675   4.036
 7028SOL    HW221984   2.964   0.678   3.884
 7029SOL     OW21985   3.094   3.454   5.233
 7029SOL    HW121986   3.182   3.476   5.192
 7029SOL    HW221987   3.057   3.371   5.190
 7030SOL     OW21988   6.793   1.237   4.640
 7030SOL    HW121989   6.803   1.139   4.659
 7030SOL    HW221990   6.697   1.262   4.642
 7031SOL     OW21991   4.306   5.908   0.960
 7031SOL    HW121992   4.311   5.820   0.913
 7031SOL    HW221993   4.373   5.971   0.921
 7032SOL     OW21994   3.879   0.234   4.374
 7032SOL    HW121995   3.865   0.332   4.356
 7032SOL    HW221996   3.923   0.192   4.295
 7033SOL     OW21997   1.536   2.286   5.280
 7033SOL    HW121998   1.509   2.201   5.326
 7033SOL    HW221999   1.523   2.276   5.181
 7034SOL     OW22000   6.738   1.744   3.484
 7034SOL    HW122001   6.773   1.701   3.567
 7034SOL    HW222002   6.787   1.710   3.405
 7035SOL     OW22003   2.088   0.233   1.555
 7035SOL    HW122004   2.103   0.330   1.535
 7035SOL    HW222005   2.000   0.204   1.518
 7036SOL     OW22006   0.097   1.293   2.192
 7036SOL    HW122007   0.141   1.274   2.280
 7036SOL    HW222008   0.076   1.391   2.185
 7037SOL     OW22009   0.543   0.028   5.805
 7037SOL    HW122010   0.592   0.002   5.721
 7037SOL    HW222011   0.608   0.065   5.871
 7038SOL     OW22012   2.315   3.981   6.236
 7038SOL    HW122013   2.346   4.062   6.187
 7038SOL    HW222014   2.215   3.977   6.233
 7039SOL     OW22015   1.017   5.429   3.066
 7039SOL    HW122016   0.927   5.418   3.024
 7039SOL    HW222017   1.066   5.342   3.065
 7040SOL     OW22018   4.323   2.256   5.733
 7040SOL    HW122019   4.304   2.180   5.671
 7040SOL    HW222020   4.421   2.258   5.752
 7041SOL     OW22021   1.238   0.940   4.230
 7041SOL    HW122022   1.231   0.996   4.148
 7041SOL    HW222023   1.281   0.993   4.303
 7042SOL     OW22024   4.471   6.096   5.085
 7042SOL    HW122025   4.433   6.026   5.024
 7042SOL    HW222026   4.570   6.086   5.091
 7043SOL     OW22027   2.813   4.788   3.226
 7043SOL    HW122028   2.892   4.849   3.229
 7043SOL    HW222029   2.805   4.748   3.135
 7044SOL     OW22030   5.383   6.239   4.133
 7044SOL    HW122031   5.464   6.258   4.188
 7044SOL    HW222032   5.369   6.314   4.068
 7045SOL     OW22033   6.249   5.680   2.003
 7045SOL    HW122034   6.215   5.599   1.955
 7045SOL    HW222035   6.189   5.758   1.985
 7046SOL     OW22036   2.997   2.194   4.294
 7046SOL    HW122037   2.948   2.215   4.209
 7046SOL    HW222038   2.939   2.138   4.353
 7047SOL     OW22039   0.666   0.032   0.792
 7047SOL    HW122040   0.621   0.026   0.703
 7047SOL    HW222041   0.669   6.963   0.833
 7048SOL     OW22042   6.815   5.349   4.856
 7048SOL    HW122043   6.869   5.372   4.937
 7048SOL    HW222044   6.814   5.426   4.792
 7049SOL     OW22045   3.647   1.521   2.011
 7049SOL    HW122046   3.708   1.589   2.051
 7049SOL    HW222047   3.634   1.446   2.076
 7050SOL     OW22048   4.077   4.784   1.144
 7050SOL    HW122049   4.174   4.766   1.129
 7050SOL    HW222050   4.023   4.713   1.099
 7051SOL     OW22051   0.387   6.807   1.179
 7051SOL    HW122052   0.325   6.734   1.209
 7051SOL    HW222053   0.473   6.799   1.229
 7052SOL     OW22054   5.915   0.041   2.779
 7052SOL    HW122055   5.962   0.110   2.724
 7052SOL    HW222056   5.983   7.013   2.834
 7053SOL     OW22057   1.518   2.981   3.421
 7053SOL    HW122058   1.513   2.981   3.322
 7053SOL    HW222059   1.467   2.903   3.458
 7054SOL     OW22060   6.526   0.110   0.704
 7054SOL    HW122061   6.440   0.101   0.654
 7054SOL    HW222062   6.581   0.182   0.662
 7055SOL     OW22063   2.255   1.129   6.850
 7055SOL    HW122064   2.352   1.136   6.873
 7055SOL    HW222065   2.204   1.097   6.930
 7056SOL     OW22066   6.924   5.248   1.381
 7056SOL    HW122067   6.906   5.168   1.324
 7056SOL    HW222068   6.860   5.321   1.358
 7057SOL     OW22069   2.962   4.891   4.596
 7057SOL    HW122070   3.027   4.908   4.671
 7057SOL    HW222071   2.870   4.885   4.633
 7058SOL     OW22072   5.195   2.202   6.340
 7058SOL    HW122073   5.233   2.173   6.251
 7058SOL    HW222074   5.264   2.253   6.390
 7059SOL     OW22075   2.080   0.922   4.421
 7059SOL    HW122076   2.097   1.008   4.467
 7059SOL    HW222077   2.086   0.847   4.487
 7060SOL     OW22078   3.203   6.781   2.484
 7060SOL    HW122079   3.204   6.880   2.469
 7060SOL    HW222080   3.261   6.759   2.563
 7061SOL     OW22081   0.727   2.074   3.015
 7061SOL    HW122082   0.647   2.132   3.031
 7061SOL    HW222083   0.782   2.111   2.941
 7062SOL     OW22084   4.423   1.875   3.614
 7062SOL    HW122085   4.454   1.821   3.692
 7062SOL    HW222086   4.404   1.815   3.537
 7063SOL     OW22087   0.350   0.276   2.052
 7063SOL    HW122088   0.433   0.224   2.073
 7063SOL    HW222089   0.344   0.356   2.112
 7064SOL     OW22090   4.644   1.995   5.371
 7064SOL    HW122091   4.677   2.083   5.405
 7064SOL    HW222092   4.695   1.969   5.289
 7065SOL     OW22093   3.536   4.365   5.583
 7065SOL    HW122094   3.494   4.417   5.508
 7065SOL    HW222095   3.567   4.277   5.549
 7066SOL     OW22096   3.900   0.704   0.225
 7066SOL    HW122097   3.907   0.698   0.324
 7066SOL    HW222098   3.825   0.767   0.201
 7067SOL     OW22099   1.837   2.997   0.156
 7067SOL    HW122100   1.806   2.909   0.122
 7067SOL    HW222101   1.758   3.057   0.169
 7068SOL     OW22102   5.035   4.217   4.219
 7068SOL    HW122103   5.044   4.173   4.308
 7068SOL    HW222104   4.984   4.157   4.157
 7069SOL     OW22105   6.241   0.324   6.015
 7069SOL    HW122106   6.147   0.349   6.039
 7069SOL    HW222107   6.263   0.236   6.057
 7070SOL     OW22108   0.288   6.770   4.749
 7070SOL    HW122109   0.339   6.744   4.667
 7070SOL    HW222110   0.196   6.798   4.724
 7071SOL     OW22111   5.043   6.474   0.028
 7071SOL    HW122112   4.996   6.389   0.009
 7071SOL    HW222113   5.029   6.538   6.975
 7072SOL     OW22114   0.579   3.844   6.766
 7072SOL    HW122115   0.647   3.877   6.831
 7072SOL    HW222116   0.611   3.863   6.673
 7073SOL     OW22117   5.224   1.046   2.873
 7073SOL    HW122118   5.210   1.096   2.959
 7073SOL    HW222119   5.219   1.109   2.796
 7074SOL     OW22120   6.132   4.496   3.067
 7074SOL    HW122121   6.152   4.449   2.982
 7074SOL    HW222122   6.038   4.475   3.096
 7075SOL     OW22123   3.116   4.963   4.814
 7075SOL    HW122124   3.199   4.996   4.858
 7075SOL    HW222125   3.052   4.930   4.883
 7076SOL     OW22126   5.913   3.685   2.935
 7076SOL    HW122127   5.880   3.605   2.985
 7076SOL    HW222128   5.838   3.724   2.881
 7077SOL     OW22129   2.597   4.963   1.415
 7077SOL    HW122130   2.619   4.936   1.509
 7077SOL    HW222131   2.564   4.883   1.364
 7078SOL     OW22132   5.327   6.556   0.854
 7078SOL    HW122133   5.395   6.530   0.786
 7078SOL    HW222134   5.239   6.571   0.809
 7079SOL     OW22135   1.049   6.886   4.187
 7079SOL    HW122136   1.142   6.908   4.158
 7079SOL    HW222137   1.048   6.801   4.239
 7080SOL     OW22138   3.731   2.150   5.206
 7080SOL    HW122139   3.818   2.102   5.198
 7080SOL    HW222140   3.661   2.100   5.154
 7081SOL     OW22141   1.407   0.824   6.739
 7081SOL    HW122142   1.496   0.786   6.714
 7081SOL    HW222143   1.405   0.922   6.719
 7082SOL     OW22144   6.676   4.303   2.494
 7082SOL    HW122145   6.676   4.395   2.532
 7082SOL    HW222146   6.753   4.251   2.532
 7083SOL     OW22147   6.597   3.391   2.424
 7083SOL    HW122148   6.586   3.396   2.524
 7083SOL    HW222149   6.647   3.472   2.393
 7084SOL     OW22150   1.016   6.134   0.130
 7084SOL    HW122151   1.079   6.210   0.144
 7084SOL    HW222152   1.013   6.077   0.212
 7085SOL     OW22153   0.501   2.955   2.500
 7085SOL    HW122154   0.508   2.883   2.432
 7085SOL    HW222155   0.405   2.972   2.521
 7086SOL     OW22156   5.906   0.714   5.580
 7086SOL    HW122157   5.955   0.686   5.498
 7086SOL    HW222158   5.823   0.763   5.555
 7087SOL     OW22159   5.321   3.360   3.542
 7087SOL    HW122160   5.224   3.338   3.538
 7087SOL    HW222161   5.374   3.275   3.554
 7088SOL     OW22162   5.591   1.885   5.336
 7088SOL    HW122163   5.491   1.873   5.339
 7088SOL    HW222164   5.635   1.800   5.364
 7089SOL     OW22165   3.656   5.438   1.646
 7089SOL    HW122166   3.618   5.374   1.579
 7089SOL    HW222167   3.731   5.489   1.604
 7090SOL     OW22168   3.868   1.933   1.478
 7090SOL    HW122169   3.964   1.904   1.481
 7090SOL    HW222170   3.864   2.030   1.452
 7091SOL     OW22171   0.631   6.619   6.998
 7091SOL    HW122172   0.669   6.705   6.963
 7091SOL    HW222173   0.704   6.552   7.008
 7092SOL     OW22174   4.863   2.436   6.618
 7092SOL    HW122175   4.806   2.386   6.683
 7092SOL    HW222176   4.849   2.398   6.526
 7093SOL     OW22177   3.330   4.281   0.637
 7093SOL    HW122178   3.415   4.304   0.684
 7093SOL    HW222179   3.340   4.297   0.538
 7094SOL     OW22180   2.198   6.576   5.630
 7094SOL    HW122181   2.252   6.656   5.654
 7094SOL    HW222182   2.106   6.605   5.604
 7095SOL     OW22183   3.134   4.292   5.562
 7095SOL    HW122184   3.040   4.321   5.581
 7095SOL    HW222185   3.133   4.200   5.523
 7096SOL     OW22186   6.917   0.765   0.949
 7096SOL    HW122187   6.986   0.835   0.968
 7096SOL    HW222188   6.912   0.750   0.850
 7097SOL     OW22189   4.944   0.817   1.564
 7097SOL    HW122190   4.893   0.859   1.638
 7097SOL    HW222191   5.013   0.881   1.529
 7098SOL     OW22192   0.785   6.680   5.008
 7098SOL    HW122193   0.819   6.718   5.094
 7098SOL    HW222194   0.703   6.730   4.980
 7099SOL     OW22195   2.867   2.259   4.029
 7099SOL    HW122196   2.803   2.334   4.049
 7099SOL    HW222197   2.912   2.276   3.942
 7100SOL     OW22198   6.913   3.422   0.949
 7100SOL    HW122199   6.951   3.418   1.042
 7100SOL    HW222200   6.951   3.501   0.901
 7101SOL     OW22201   2.030   6.446   5.302
 7101SOL    HW122202   1.981   6.376   5.249
 7101SOL    HW222203   2.081   6.403   5.375
 7102SOL     OW22204   5.443   0.719   0.897
 7102SOL    HW122205   5.423   0.701   0.993
 7102SOL    HW222206   5.453   0.818   0.883
 7103SOL     OW22207   4.994   5.026   2.893
 7103SOL    HW122208   5.065   4.960   2.870
 7103SOL    HW222209   4.916   4.978   2.934
 7104SOL     OW22210   5.048   3.492   3.613
 7104SOL    HW122211   5.121   3.507   3.681
 7104SOL    HW222212   5.029   3.578   3.565
 7105SOL     OW22213   3.188   4.072   3.676
 7105SOL    HW122214   3.149   4.125   3.752
 7105SOL    HW222215   3.288   4.073   3.682
 7106SOL     OW22216   3.404   3.046   1.274
 7106SOL    HW122217   3.355   2.960   1.290
 7106SOL    HW222218   3.382   3.111   1.346
 7107SOL     OW22219   4.022   0.574   0.026
 7107SOL    HW122220   4.104   0.525   0.055
 7107SOL    HW222221   3.969   0.601   0.106
 7108SOL     OW22222   3.132   6.883   2.820
 7108SOL    HW122223   3.072   6.914   2.747
 7108SOL    HW222224   3.078   6.840   2.892
 7109SOL     OW22225   1.886   6.766   5.959
 7109SOL    HW122226   1.862   6.795   6.051
 7109SOL    HW222227   1.816   6.704   5.924
 7110SOL     OW22228   3.462   6.065   4.974
 7110SOL    HW122229   3.461   6.070   5.073
 7110SOL    HW222230   3.410   5.985   4.943
 7111SOL     OW22231   0.493   0.749   3.607
 7111SOL    HW122232   0.465   0.654   3.620
 7111SOL    HW222233   0.413   0.808   3.604
 7112SOL     OW22234   2.138   5.153   4.412
 7112SOL    HW122235   2.227   5.131   4.453
 7112SOL    HW222236   2.139   5.249   4.382
 7113SOL     OW22237   3.328   4.854   5.209
 7113SOL    HW122238   3.301   4.919   5.138
 7113SOL    HW222239   3.250   4.796   5.232
 7114SOL     OW22240   4.470   5.176   0.060
 7114SOL    HW122241   4.371   5.193   0.068
 7114SOL    HW222242   4.494   5.167   6.986
 7115SOL     OW22243   6.193   4.607   6.982
 7115SOL    HW122244   6.210   4.519   6.938
 7115SOL    HW222245   6.221   4.603   0.055
 7116SOL     OW22246   6.707   3.503   4.536
 7116SOL    HW122247   6.753   3.528   4.622
 7116SOL    HW222248   6.747   3.419   4.501
 7117SOL     OW22249   6.115   6.979   3.295
 7117SOL    HW122250   6.119   6.976   3.395
 7117SOL    HW222251   6.207   6.992   3.258
 7118SOL     OW22252   4.360   4.521   5.626
 7118SOL    HW122253   4.293   4.563   5.688
 7118SOL    HW222254   4.315   4.495   5.541
 7119SOL     OW22255   4.425   0.043   4.885
 7119SOL    HW122256   4.385   7.005   4.955
 7119SOL    HW222257   4.421   7.021   4.796
 7120SOL     OW22258   5.047   1.330   1.011
 7120SOL    HW122259   4.965   1.387   1.013
 7120SOL    HW222260   5.125   1.380   1.049
 7121SOL     OW22261   0.823   6.152   3.179
 7121SOL    HW122262   0.807   6.138   3.277
 7121SOL    HW222263   0.740   6.188   3.137
 7122SOL     OW22264   2.594   0.115   5.986
 7122SOL    HW122265   2.568   0.035   5.933
 7122SOL    HW222266   2.692   0.133   5.973
 7123SOL     OW22267   5.491   5.233   5.628
 7123SOL    HW122268   5.431   5.274   5.560
 7123SOL    HW222269   5.485   5.285   5.713
 7124SOL     OW22270   0.828   2.095   1.693
 7124SOL    HW122271   0.840   2.172   1.756
 7124SOL    HW222272   0.750   2.040   1.724
 7125SOL     OW22273   1.176   0.326   1.184
 7125SOL    HW122274   1.273   0.318   1.160
 7125SOL    HW222275   1.136   0.235   1.195
 7126SOL     OW22276   4.330   5.982   1.568
 7126SOL    HW122277   4.347   5.948   1.475
 7126SOL    HW222278   4.381   5.928   1.634
 7127SOL     OW22279   3.267   6.325   5.381
 7127SOL    HW122280   3.343   6.385   5.355
 7127SOL    HW222281   3.183   6.355   5.336
 7128SOL     OW22282   3.715   4.130   6.069
 7128SOL    HW122283   3.628   4.101   6.109
 7128SOL    HW222284   3.698   4.200   6.000
 7129SOL     OW22285   0.340   0.157   0.844
 7129SOL    HW122286   0.345   0.194   0.937
 7129SOL    HW222287   0.358   0.230   0.778
 7130SOL     OW22288   3.419   6.431   4.202
 7130SOL    HW122289   3.421   6.383   4.115
 7130SOL    HW222290   3.400   6.528   4.187
 7131SOL     OW22291   4.054   1.034   2.381
 7131SOL    HW122292   4.153   1.019   2.377
 7131SOL    HW222293   4.014   1.020   2.290
 7132SOL     OW22294   5.307   3.982   0.356
 7132SOL    HW122295   5.208   3.987   0.374
 7132SOL    HW222296   5.355   3.970   0.443
 7133SOL     OW22297   3.633   5.904   3.572
 7133SOL    HW122298   3.541   5.917   3.535
 7133SOL    HW222299   3.658   5.807   3.564
 7134SOL     OW22300   5.696   5.336   1.404
 7134SOL    HW122301   5.793   5.355   1.414
 7134SOL    HW222302   5.678   5.240   1.424
 7135SOL     OW22303   2.289   3.008   1.817
 7135SOL    HW122304   2.227   2.931   1.802
 7135SOL    HW222305   2.240   3.094   1.801
 7136SOL     OW22306   3.095   1.477   2.014
 7136SOL    HW122307   3.061   1.506   1.925
 7136SOL    HW222308   3.020   1.477   2.080
 7137SOL     OW22309   2.646   1.915   1.595
 7137SOL    HW122310   2.590   1.996   1.575
 7137SOL    HW222311   2.645   1.854   1.516
 7138SOL     OW22312   1.388   2.175   0.500
 7138SOL    HW122313   1.437   2.222   0.573
 7138SOL    HW222314   1.345   2.092   0.537
 7139SOL     OW22315   6.172   5.926   1.366
 7139SOL    HW122316   6.113   5.847   1.348
 7139SOL    HW222317   6.260   5.914   1.320
 7140SOL     OW22318   6.690   3.314   0.659
 7140SOL    HW122319   6.614   3.258   0.690
 7140SOL    HW222320   6.665   3.410   0.663
 7141SOL     OW22321   4.092   6.962   1.783
 7141SOL    HW122322   4.032   0.011   1.748
 7141SOL    HW222323   4.084   6.880   1.727
 7142SOL     OW22324   3.004   0.364   5.135
 7142SOL    HW122325   2.955   0.298   5.191
 7142SOL    HW222326   3.081   0.402   5.187
 7143SOL     OW22327   2.266   4.511   6.793
 7143SOL    HW122328   2.343   4.516   6.729
 7143SOL    HW222329   2.277   4.433   6.854
 7144SOL     OW22330   6.382   0.608   5.000
 7144SOL    HW122331   6.476   0.596   5.032
 7144SOL    HW222332   6.381   0.603   4.900
 7145SOL     OW22333   4.936   2.504   6.877
 7145SOL    HW122334   4.938   2.468   6.784
 7145SOL    HW222335   4.886   2.441   6.936
 7146SOL     OW22336   1.908   1.188   5.301
 7146SOL    HW122337   1.855   1.136   5.368
 7146SOL    HW222338   1.901   1.145   5.211
 7147SOL     OW22339   5.674   5.287   1.903
 7147SOL    HW122340   5.587   5.336   1.912
 7147SOL    HW222341   5.749   5.352   1.893
 7148SOL     OW22342   0.105   6.286   0.993
 7148SOL    HW122343   0.023   6.285   1.049
 7148SOL    HW222344   0.111   6.373   0.944
 7149SOL     OW22345   6.319   5.041   4.176
 7149SOL    HW122346   6.393   5.054   4.243
 7149SOL    HW222347   6.345   5.085   4.090
 7150SOL     OW22348   4.105   3.432   6.968
 7150SOL    HW122349   4.120   3.526   7.000
 7150SOL    HW222350   4.086   3.374   0.025
 7151SOL     OW22351   3.979   0.868   1.057
 7151SOL    HW122352   3.948   0.944   0.999
 7151SOL    HW222353   3.919   0.789   1.043
 7152SOL     OW22354   6.963   1.629   6.368
 7152SOL    HW122355   0.033   1.617   6.405
 7152SOL    HW222356   6.896   1.615   6.441
 7153SOL     OW22357   3.842   6.284   0.939
 7153SOL    HW122358   3.941   6.277   0.930
 7153SOL    HW222359   3.802   6.192   0.933
 7154SOL     OW22360   4.191   1.561   1.881
 7154SOL    HW122361   4.289   1.583   1.883
 7154SOL    HW222362   4.139   1.635   1.923
 7155SOL     OW22363   2.628   1.680   2.322
 7155SOL    HW122364   2.655   1.610   2.389
 7155SOL    HW222365   2.560   1.642   2.259
 7156SOL     OW22366   6.323   4.089   0.128
 7156SOL    HW122367   6.423   4.085   0.129
 7156SOL    HW222368   6.292   4.101   0.034
 7157SOL     OW22369   6.224   4.482   6.484
 7157SOL    HW122370   6.173   4.539   6.548
 7157SOL    HW222371   6.319   4.477   6.514
 7158SOL     OW22372   4.827   6.968   3.644
 7158SOL    HW122373   4.768   0.004   3.700
 7158SOL    HW222374   4.793   6.967   3.550
 7159SOL     OW22375   0.605   6.154   3.468
 7159SOL    HW122376   0.535   6.171   3.537
 7159SOL    HW222377   0.575   6.189   3.380
 7160SOL     OW22378   6.235   6.561   3.032
 7160SOL    HW122379   6.139   6.568   3.003
 7160SOL    HW222380   6.239   6.556   3.132
 7161SOL     OW22381   4.054   3.369   3.618
 7161SOL    HW122382   4.051   3.292   3.554
 7161SOL    HW222383   4.078   3.453   3.568
 7162SOL     OW22384   6.975   5.022   2.253
 7162SOL    HW122385   6.904   4.953   2.266
 7162SOL    HW222386   7.012   5.013   2.160
 7163SOL     OW22387   1.204   1.162   2.424
 7163SOL    HW122388   1.272   1.148   2.495
 7163SOL    HW222389   1.194   1.260   2.406
 7164SOL     OW22390   1.633   0.971   6.504
 7164SOL    HW122391   1.702   0.898   6.503
 7164SOL    HW222392   1.588   0.975   6.415
 7165SOL     OW22393   6.653   0.518   0.202
 7165SOL    HW122394   6.570   0.564   0.233
 7165SOL    HW222395   6.732   0.558   0.248
 7166SOL     OW22396   5.946   6.193   5.899
 7166SOL    HW122397   6.036   6.234   5.917
 7166SOL    HW222398   5.876   6.246   5.947
 7167SOL     OW22399   5.575   2.351   4.915
 7167SOL    HW122400   5.488   2.332   4.961
 7167SOL    HW222401   5.613   2.437   4.951
 7168SOL     OW22402   2.836   0.818   2.111
 7168SOL    HW122403   2.871   0.840   2.020
 7168SOL    HW222404   2.812   0.903   2.159
 7169SOL     OW22405   1.630   4.344   6.430
 7169SOL    HW122406   1.713   4.394   6.454
 7169SOL    HW222407   1.645   4.291   6.347
 7170SOL     OW22408   4.026   1.348   1.912
 7170SOL    HW122409   4.106   1.408   1.904
 7170SOL    HW222410   3.957   1.376   1.845
 7171SOL     OW22411   6.352   4.518   0.439
 7171SOL    HW122412   6.339   4.424   0.408
 7171SOL    HW222413   6.275   4.574   0.410
 7172SOL     OW22414   0.961   1.359   3.919
 7172SOL    HW122415   0.883   1.340   3.979
 7172SOL    HW222416   1.002   1.447   3.943
 7173SOL     OW22417   4.779   6.103   6.062
 7173SOL    HW122418   4.696   6.114   6.006
 7173SOL    HW222419   4.853   6.069   6.004
 7174SOL     OW22420   6.148   4.750   1.866
 7174SOL    HW122421   6.110   4.827   1.917
 7174SOL    HW222422   6.078   4.712   1.806
 7175SOL     OW22423   5.689   3.765   6.027
 7175SOL    HW122424   5.722   3.686   6.079
 7175SOL    HW222425   5.637   3.733   5.948
 7176SOL     OW22426   0.579   0.743   5.479
 7176SOL    HW122427   0.653   0.677   5.485
 7176SOL    HW222428   0.498   0.697   5.442
 7177SOL     OW22429   1.836   4.625   4.381
 7177SOL    HW122430   1.821   4.544   4.324
 7177SOL    HW222431   1.904   4.603   4.452
 7178SOL     OW22432   1.425   1.153   5.545
 7178SOL    HW122433   1.479   1.214   5.603
 7178SOL    HW222434   1.484   1.085   5.503
 7179SOL     OW22435   3.403   5.965   6.350
 7179SOL    HW122436   3.428   5.911   6.430
 7179SOL    HW222437   3.468   5.947   6.276
 7180SOL     OW22438   0.997   3.917   0.997
 7180SOL    HW122439   0.935   3.873   0.931
 7180SOL    HW222440   0.945   3.982   1.052
 7181SOL     OW22441   2.205   1.228   6.186
 7181SOL    HW122442   2.195   1.165   6.110
 7181SOL    HW222443   2.183   1.321   6.156
 7182SOL     OW22444   1.255   3.005   4.155
 7182SOL    HW122445   1.178   3.045   4.106
 7182SOL    HW222446   1.322   2.971   4.089
 7183SOL     OW22447   0.699   6.339   1.685
 7183SOL    HW122448   0.652   6.426   1.700
 7183SOL    HW222449   0.650   6.286   1.616
 7184SOL     OW22450   6.359   0.089   3.254
 7184SOL    HW122451   6.336   0.185   3.237
 7184SOL    HW222452   6.411   0.082   3.339
 7185SOL     OW22453   4.876   0.849   5.017
 7185SOL    HW122454   4.941   0.924   5.024
 7185SOL    HW222455   4.802   0.874   4.954
 7186SOL     OW22456   0.473   6.980   6.426
 7186SOL    HW122457   0.426   0.045   6.420
 7186SOL    HW222458   0.554   6.989   6.483
 7187SOL     OW22459   3.089   3.141   4.430
 7187SOL    HW122460   3.118   3.063   4.486
 7187SOL    HW222461   3.153   3.216   4.441
 7188SOL     OW22462   3.975   4.512   0.344
 7188SOL    HW122463   4.007   4.471   0.429
 7188SOL    HW222464   3.966   4.441   0.274
 7189SOL     OW22465   6.139   2.633   5.307
 7189SOL    HW122466   6.044   2.604   5.301
 7189SOL    HW222467   6.162   2.652   5.403
 7190SOL     OW22468   5.867   5.553   1.133
 7190SOL    HW122469   5.865   5.539   1.034
 7190SOL    HW222470   5.776   5.582   1.164
 7191SOL     OW22471   0.582   4.106   3.675
 7191SOL    HW122472   0.563   4.199   3.707
 7191SOL    HW222473   0.574   4.043   3.752
 7192SOL     OW22474   1.674   4.682   6.739
 7192SOL    HW122475   1.658   4.584   6.751
 7192SOL    HW222476   1.649   4.709   6.646
 7193SOL     OW22477   2.499   2.534   2.499
 7193SOL    HW122478   2.414   2.481   2.497
 7193SOL    HW222479   2.478   2.631   2.490
 7194SOL     OW22480   2.923   2.542   5.707
 7194SOL    HW122481   2.870   2.613   5.660
 7194SOL    HW222482   2.898   2.541   5.804
 7195SOL     OW22483   0.018   3.582   6.466
 7195SOL    HW122484   0.080   3.562   6.390
 7195SOL    HW222485   0.061   3.555   6.552
 7196SOL     OW22486   2.924   3.711   2.142
 7196SOL    HW122487   2.875   3.720   2.055
 7196SOL    HW222488   3.022   3.723   2.127
 7197SOL     OW22489   2.213   3.507   5.575
 7197SOL    HW122490   2.312   3.505   5.563
 7197SOL    HW222491   2.168   3.498   5.486
 7198SOL     OW22492   6.720   0.891   1.597
 7198SOL    HW122493   6.712   0.939   1.510
 7198SOL    HW222494   6.813   0.901   1.633
 7199SOL     OW22495   0.957   1.064   2.151
 7199SOL    HW122496   1.031   0.997   2.141
 7199SOL    HW222497   0.992   1.156   2.133
 7200SOL     OW22498   1.045   2.186   0.518
 7200SOL    HW122499   1.012   2.209   0.427
 7200SOL    HW222500   0.977   2.213   0.586
 7201SOL     OW22501   5.970   5.709   4.241
 7201SOL    HW122502   6.012   5.757   4.318
 7201SOL    HW222503   5.871   5.721   4.245
 7202SOL     OW22504   4.731   0.390   5.884
 7202SOL    HW122505   4.823   0.426   5.898
 7202SOL    HW222506   4.671   0.462   5.850
 7203SOL     OW22507   0.405   1.833   1.988
 7203SOL    HW122508   0.342   1.795   1.920
 7203SOL    HW222509   0.447   1.758   2.039
 7204SOL     OW22510   0.014   0.759   1.447
 7204SOL    HW122511   0.008   0.810   1.532
 7204SOL    HW222512   6.992   0.670   1.458
 7205SOL     OW22513   2.268   2.104   4.858
 7205SOL    HW122514   2.226   2.022   4.896
 7205SOL    HW222515   2.364   2.109   4.887
 7206SOL     OW22516   1.978   2.614   1.035
 7206SOL    HW122517   1.988   2.560   1.118
 7206SOL    HW222518   2.002   2.709   1.053
 7207SOL     OW22519   1.498   2.047   3.795
 7207SOL    HW122520   1.550   2.119   3.841
 7207SOL    HW222521   1.560   1.984   3.749
 7208SOL     OW22522   2.993   0.691   4.216
 7208SOL    HW122523   3.086   0.668   4.245
 7208SOL    HW222524   2.937   0.709   4.297
 7209SOL     OW22525   3.230   1.485   2.254
 7209SOL    HW122526   3.295   1.556   2.282
 7209SOL    HW222527   3.220   1.488   2.154
 7210SOL     OW22528   2.528   1.337   3.276
 7210SOL    HW122529   2.455   1.341   3.208
 7210SOL    HW222530   2.547   1.242   3.299
 7211SOL     OW22531   3.298   5.416   5.321
 7211SOL    HW122532   3.340   5.464   5.244
 7211SOL    HW222533   3.332   5.322   5.325
 7212SOL     OW22534   5.761   4.491   6.009
 7212SOL    HW122535   5.698   4.545   5.952
 7212SOL    HW222536   5.851   4.489   5.965
 7213SOL     OW22537   3.699   1.253   0.939
 7213SOL    HW122538   3.615   1.242   0.992
 7213SOL    HW222539   3.754   1.326   0.979
 7214SOL     OW22540   0.056   1.498   6.961
 7214SOL    HW122541   0.079   1.554   6.881
 7214SOL    HW222542   0.135   1.495   0.001
 7215SOL     OW22543   6.508   2.633   2.975
 7215SOL    HW122544   6.419   2.677   2.988
 7215SOL    HW222545   6.519   2.559   3.042
 7216SOL     OW22546   2.644   6.368   2.894
 7216SOL    HW122547   2.705   6.423   2.952
 7216SOL    HW222548   2.664   6.387   2.798
 7217SOL     OW22549   1.208   4.176   3.187
 7217SOL    HW122550   1.244   4.176   3.281
 7217SOL    HW222551   1.190   4.082   3.159
 7218SOL     OW22552   6.011   3.849   4.558
 7218SOL    HW122553   6.051   3.892   4.477
 7218SOL    HW222554   6.065   3.873   4.639
 7219SOL     OW22555   3.794   6.209   1.655
 7219SOL    HW122556   3.778   6.196   1.753
 7219SOL    HW222557   3.718   6.262   1.616
 7220SOL     OW22558   6.085   4.914   4.238
 7220SOL    HW122559   6.090   4.865   4.151
 7220SOL    HW222560   6.148   4.992   4.235
 7221SOL     OW22561   3.640   5.651   5.195
 7221SOL    HW122562   3.712   5.646   5.126
 7221SOL    HW222563   3.681   5.662   5.285
 7222SOL     OW22564   6.761   0.088   4.102
 7222SOL    HW122565   6.793   0.128   4.016
 7222SOL    HW222566   6.661   0.091   4.104
 7223SOL     OW22567   1.266   2.025   0.738
 7223SOL    HW122568   1.193   2.014   0.670
 7223SOL    HW222569   1.257   2.115   0.782
 7224SOL     OW22570   4.223   2.050   3.670
 7224SOL    HW122571   4.296   1.983   3.652
 7224SOL    HW222572   4.136   2.013   3.638
 7225SOL     OW22573   1.722   6.881   1.219
 7225SOL    HW122574   1.668   6.811   1.267
 7225SOL    HW222575   1.730   6.855   1.123
 7226SOL     OW22576   6.344   0.335   7.004
 7226SOL    HW122577   6.423   0.297   6.955
 7226SOL    HW222578   6.271   0.354   6.938
 7227SOL     OW22579   3.095   0.854   2.279
 7227SOL    HW122580   3.048   0.942   2.274
 7227SOL    HW222581   3.030   0.784   2.308
 7228SOL     OW22582   0.874   2.868   2.471
 7228SOL    HW122583   0.843   2.943   2.412
 7228SOL    HW222584   0.826   2.784   2.447
 7229SOL     OW22585   6.921   0.237   4.563
 7229SOL    HW122586   6.824   0.252   4.585
 7229SOL    HW222587   6.929   0.158   4.503
 7230SOL     OW22588   1.946   5.066   4.214
 7230SOL    HW122589   1.891   5.149   4.204
 7230SOL    HW222590   2.012   5.079   4.288
 7231SOL     OW22591   4.850   1.498   6.680
 7231SOL    HW122592   4.789   1.535   6.749
 7231SOL    HW222593   4.812   1.513   6.589
 7232SOL     OW22594   5.757   6.755   2.735
 7232SOL    HW122595   5.676   6.711   2.697
 7232SOL    HW222596   5.730   6.826   2.799
 7233SOL     OW22597   6.296   1.061   5.192
 7233SOL    HW122598   6.258   0.983   5.143
 7233SOL    HW222599   6.248   1.144   5.166
 7234SOL     OW22600   5.145   3.878   2.718
 7234SOL    HW122601   5.131   3.950   2.651
 7234SOL    HW222602   5.058   3.858   2.764
 7235SOL     OW22603   6.804   5.672   1.511
 7235SOL    HW122604   6.790   5.578   1.481
 7235SOL    HW222605   6.900   5.696   1.500
 7236SOL     OW22606   2.568   2.394   3.458
 7236SOL    HW122607   2.639   2.338   3.502
 7236SOL    HW222608   2.518   2.339   3.391
 7237SOL     OW22609   5.212   0.436   6.856
 7237SOL    HW122610   5.232   0.472   6.947
 7237SOL    HW222611   5.258   0.348   6.845
 7238SOL     OW22612   4.497   3.173   6.912
 7238SOL    HW122613   4.592   3.200   6.922
 7238SOL    HW222614   4.445   3.202   6.992
 7239SOL     OW22615   0.671   3.708   2.231
 7239SOL    HW122616   0.758   3.680   2.192
 7239SOL    HW222617   0.683   3.727   2.329
 7240SOL     OW22618   6.603   1.610   6.135
 7240SOL    HW122619   6.575   1.567   6.221
 7240SOL    HW222620   6.599   1.710   6.145
 7241SOL     OW22621   2.787   1.142   1.792
 7241SOL    HW122622   2.694   1.170   1.814
 7241SOL    HW222623   2.786   1.084   1.711
 7242SOL     OW22624   0.451   5.169   3.795
 7242SOL    HW122625   0.548   5.172   3.821
 7242SOL    HW222626   0.405   5.250   3.831
 7243SOL     OW22627   6.333   3.930   6.397
 7243SOL    HW122628   6.259   3.997   6.392
 7243SOL    HW222629   6.419   3.977   6.420
 7244SOL     OW22630   0.438   6.364   6.751
 7244SOL    HW122631   0.396   6.384   6.839
 7244SOL    HW222632   0.369   6.327   6.689
 7245SOL     OW22633   1.713   2.609   6.506
 7245SOL    HW122634   1.782   2.680   6.495
 7245SOL    HW222635   1.646   2.616   6.431
 7246SOL     OW22636   2.938   0.170   4.007
 7246SOL    HW122637   2.869   0.195   4.074
 7246SOL    HW222638   2.970   0.077   4.025
 7247SOL     OW22639   2.728   2.486   5.260
 7247SOL    HW122640   2.769   2.575   5.281
 7247SOL    HW222641   2.779   2.413   5.306
 7248SOL     OW22642   3.318   0.381   4.801
 7248SOL    HW122643   3.369   0.303   4.764
 7248SOL    HW222644   3.331   0.461   4.742
 7249SOL     OW22645   3.925   5.100   1.826
 7249SOL    HW122646   3.895   5.008   1.799
 7249SOL    HW222647   3.912   5.112   1.924
 7250SOL     OW22648   5.316   5.582   5.626
 7250SOL    HW122649   5.408   5.594   5.664
 7250SOL    HW222650   5.313   5.498   5.572
 7251SOL     OW22651   0.585   5.970   5.124
 7251SOL    HW122652   0.621   5.939   5.037
 7251SOL    HW222653   0.602   5.900   5.194
 7252SOL     OW22654   3.124   4.016   2.180
 7252SOL    HW122655   3.076   4.027   2.267
 7252SOL    HW222656   3.120   3.921   2.151
 7253SOL     OW22657   1.242   5.735   5.364
 7253SOL    HW122658   1.269   5.783   5.281
 7253SOL    HW222659   1.299   5.765   5.441
 7254SOL     OW22660   5.422   4.727   3.750
 7254SOL    HW122661   5.508   4.774   3.728
 7254SOL    HW222662   5.418   4.641   3.699
 7255SOL     OW22663   5.318   3.059   6.683
 7255SOL    HW122664   5.275   3.145   6.653
 7255SOL    HW222665   5.251   2.986   6.680
 7256SOL     OW22666   3.521   6.985   6.109
 7256SOL    HW122667   3.607   0.010   6.130
 7256SOL    HW222668   3.511   6.906   6.170
 7257SOL     OW22669   0.341   1.486   4.568
 7257SOL    HW122670   0.347   1.443   4.658
 7257SOL    HW222671   0.353   1.417   4.497
 7258SOL     OW22672   5.721   2.185   2.378
 7258SOL    HW122673   5.632   2.216   2.346
 7258SOL    HW222674   5.780   2.263   2.396
 7259SOL     OW22675   0.928   3.766   3.236
 7259SOL    HW122676   0.843   3.792   3.190
 7259SOL    HW222677   0.907   3.727   3.326
 7260SOL     OW22678   5.862   2.444   0.767
 7260SOL    HW122679   5.858   2.355   0.811
 7260SOL    HW222680   5.789   2.502   0.804
 7261SOL     OW22681   0.360   3.984   0.804
 7261SOL    HW122682   0.390   4.069   0.760
 7261SOL    HW222683   0.276   4.001   0.855
 7262SOL     OW22684   5.427   1.730   5.934
 7262SOL    HW122685   5.481   1.803   5.891
 7262SOL    HW222686   5.482   1.648   5.942
 7263SOL     OW22687   0.033   6.572   0.318
 7263SOL    HW122688   0.106   6.583   0.386
 7263SOL    HW222689   6.971   6.546   0.364
 7264SOL     OW22690   5.428   1.706   0.359
 7264SOL    HW122691   5.508   1.668   0.405
 7264SOL    HW222692   5.359   1.634   0.348
 7265SOL     OW22693   5.044   6.384   4.816
 7265SOL    HW122694   5.024   6.438   4.898
 7265SOL    HW222695   4.983   6.305   4.813
 7266SOL     OW22696   7.015   0.716   4.145
 7266SOL    HW122697   6.941   0.673   4.196
 7266SOL    HW222698   0.066   0.651   4.131
 7267SOL     OW22699   6.609   6.145   5.355
 7267SOL    HW122700   6.551   6.074   5.316
 7267SOL    HW222701   6.562   6.233   5.352
 7268SOL     OW22702   6.130   5.843   4.408
 7268SOL    HW122703   6.117   5.941   4.424
 7268SOL    HW222704   6.191   5.830   4.330
 7269SOL     OW22705   1.902   5.036   5.763
 7269SOL    HW122706   1.904   5.015   5.861
 7269SOL    HW222707   1.981   5.090   5.738
 7270SOL     OW22708   0.431   1.269   4.423
 7270SOL    HW122709   0.373   1.256   4.342
 7270SOL    HW222710   0.523   1.235   4.404
 7271SOL     OW22711   1.206   5.113   4.297
 7271SOL    HW122712   1.127   5.111   4.357
 7271SOL    HW222713   1.281   5.061   4.338
 7272SOL     OW22714   5.931   6.137   2.074
 7272SOL    HW122715   5.993   6.208   2.106
 7272SOL    HW222716   5.983   6.065   2.027
 7273SOL     OW22717   6.188   2.728   5.798
 7273SOL    HW122718   6.233   2.780   5.870
 7273SOL    HW222719   6.099   2.769   5.777
 7274SOL     OW22720   1.025   4.260   6.970
 7274SOL    HW122721   1.013   4.335   0.012
 7274SOL    HW222722   1.109   4.275   6.917
 7275SOL     OW22723   6.859   0.083   2.983
 7275SOL    HW122724   6.916   0.149   2.934
 7275SOL    HW222725   6.775   0.066   2.931
 7276SOL     OW22726   5.466   6.854   3.375
 7276SOL    HW122727   5.454   6.798   3.293
 7276SOL    HW222728   5.400   6.929   3.374
 7277SOL     OW22729   4.204   1.020   5.601
 7277SOL    HW122730   4.142   0.981   5.669
 7277SOL    HW222731   4.209   1.120   5.614
 7278SOL     OW22732   3.041   4.007   1.910
 7278SOL    HW122733   3.027   4.073   1.836
 7278SOL    HW222734   3.050   4.056   1.997
 7279SOL     OW22735   3.877   6.091   0.214
 7279SOL    HW122736   3.919   6.139   0.137
 7279SOL    HW222737   3.903   6.136   0.299
 7280SOL     OW22738   5.060   6.987   4.538
 7280SOL    HW122739   5.121   6.996   4.459
 7280SOL    HW222740   4.973   6.947   4.509
 7281SOL     OW22741   3.642   2.327   6.705
 7281SOL    HW122742   3.706   2.402   6.689
 7281SOL    HW222743   3.564   2.336   6.643
 7282SOL     OW22744   5.419   5.177   2.464
 7282SOL    HW122745   5.364   5.255   2.435
 7282SOL    HW222746   5.450   5.190   2.558
 7283SOL     OW22747   2.698   1.165   2.492
 7283SOL    HW122748   2.690   1.092   2.559
 7283SOL    HW222749   2.794   1.185   2.474
 7284SOL     OW22750   6.990   4.192   5.541
 7284SOL    HW122751   0.028   4.147   5.475
 7284SOL    HW222752   6.895   4.178   5.514
 7285SOL     OW22753   4.703   5.139   2.462
 7285SOL    HW122754   4.794   5.098   2.462
 7285SOL    HW222755   4.659   5.121   2.550
 7286SOL     OW22756   2.391   2.103   1.196
 7286SOL    HW122757   2.366   2.088   1.100
 7286SOL    HW222758   2.319   2.067   1.255
 7287SOL     OW22759   6.863   1.305   6.920
 7287SOL    HW122760   6.923   1.378   6.888
 7287SOL    HW222761   6.882   1.285   7.016
 7288SOL     OW22762   3.762   0.911   6.270
 7288SOL    HW122763   3.732   0.998   6.309
 7288SOL    HW222764   3.792   0.926   6.176
 7289SOL     OW22765   6.091   1.527   3.111
 7289SOL    HW122766   6.147   1.596   3.067
 7289SOL    HW222767   6.059   1.461   3.042
 7290SOL     OW22768   2.690   5.693   5.621
 7290SOL    HW122769   2.683   5.721   5.525
 7290SOL    HW222770   2.599   5.672   5.656
 7291SOL     OW22771   2.179   6.978   1.621
 7291SOL    HW122772   2.160   0.053   1.609
 7291SOL    HW222773   2.199   6.937   1.532
 7292SOL     OW22774   3.113   0.031   3.541
 7292SOL    HW122775   3.081   6.983   3.477
 7292SOL    HW222776   3.101   7.021   3.635
 7293SOL     OW22777   2.048   1.451   4.971
 7293SOL    HW122778   2.008   1.514   5.037
 7293SOL    HW222779   2.043   1.491   4.879
 7294SOL     OW22780   2.649   5.114   0.122
 7294SOL    HW122781   2.735   5.082   0.160
 7294SOL    HW222782   2.667   5.192   0.061
 7295SOL     OW22783   0.698   1.858   0.563
 7295SOL    HW122784   0.732   1.838   0.472
 7295SOL    HW222785   0.615   1.805   0.580
 7296SOL     OW22786   2.969   4.922   1.171
 7296SOL    HW122787   3.049   4.897   1.117
 7296SOL    HW222788   2.998   4.955   1.261
 7297SOL     OW22789   3.882   5.885   0.764
 7297SOL    HW122790   3.820   5.955   0.728
 7297SOL    HW222791   3.969   5.927   0.788
 7298SOL     OW22792   5.621   4.443   5.071
 7298SOL    HW122793   5.686   4.467   4.999
 7298SOL    HW222794   5.658   4.367   5.125
 7299SOL     OW22795   0.443   2.335   6.860
 7299SOL    HW122796   0.529   2.378   6.835
 7299SOL    HW222797   0.382   2.403   6.901
 7300SOL     OW22798   5.241   5.248   1.143
 7300SOL    HW122799   5.322   5.282   1.190
 7300SOL    HW222800   5.159   5.277   1.192
 7301SOL     OW22801   6.909   0.373   5.281
 7301SOL    HW122802   6.965   0.332   5.353
 7301SOL    HW222803   6.842   0.436   5.322
 7302SOL     OW22804   0.358   1.468   0.026
 7302SOL    HW122805   0.318   1.388   0.069
 7302SOL    HW222806   0.439   1.441   6.996
 7303SOL     OW22807   4.806   0.688   6.784
 7303SOL    HW122808   4.886   0.629   6.790
 7303SOL    HW222809   4.833   0.783   6.796
 7304SOL     OW22810   3.900   4.241   6.551
 7304SOL    HW122811   3.962   4.294   6.608
 7304SOL    HW222812   3.911   4.268   6.456
 7305SOL     OW22813   5.128   1.979   0.410
 7305SOL    HW122814   5.178   1.906   0.362
 7305SOL    HW222815   5.189   2.055   0.430
 7306SOL     OW22816   4.980   3.552   1.685
 7306SOL    HW122817   4.940   3.508   1.765
 7306SOL    HW222818   5.022   3.639   1.711
 7307SOL     OW22819   2.870   6.768   1.626
 7307SOL    HW122820   2.811   6.692   1.655
 7307SOL    HW222821   2.852   6.848   1.685
 7308SOL     OW22822   6.709   3.721   5.458
 7308SOL    HW122823   6.789   3.753   5.508
 7308SOL    HW222824   6.729   3.631   5.418
 7309SOL     OW22825   4.864   5.611   0.171
 7309SOL    HW122826   4.934   5.650   0.230
 7309SOL    HW222827   4.906   5.580   0.085
 7310SOL     OW22828   1.711   4.508   1.202
 7310SOL    HW122829   1.773   4.458   1.262
 7310SOL    HW222830   1.754   4.523   1.113
 7311SOL     OW22831   3.153   1.915   2.429
 7311SOL    HW122832   3.238   1.915   2.375
 7311SOL    HW222833   3.080   1.959   2.377
 7312SOL     OW22834   6.873   2.357   5.379
 7312SOL    HW122835   6.848   2.385   5.471
 7312SOL    HW222836   6.796   2.371   5.317
 7313SOL     OW22837   4.677   2.555   6.235
 7313SOL    HW122838   4.648   2.478   6.292
 7313SOL    HW222839   4.703   2.522   6.145
 7314SOL     OW22840   6.405   3.971   4.982
 7314SOL    HW122841   6.430   4.024   5.063
 7314SOL    HW222842   6.339   3.901   5.006
 7315SOL     OW22843   6.231   0.474   3.561
 7315SOL    HW122844   6.158   0.525   3.515
 7315SOL    HW222845   6.311   0.533   3.571
 7316SOL     OW22846   3.176   3.350   5.541
 7316SOL    HW122847   3.080   3.324   5.525
 7316SOL    HW222848   3.189   3.445   5.514
 7317SOL     OW22849   4.267   0.595   1.855
 7317SOL    HW122850   4.344   0.592   1.791
 7317SOL    HW222851   4.181   0.586   1.805
 7318SOL     OW22852   1.179   1.444   0.848
 7318SOL    HW122853   1.237   1.379   0.800
 7318SOL    HW222854   1.095   1.458   0.796
 7319SOL     OW22855   6.494   4.562   6.908
 7319SOL    HW122856   6.502   4.463   6.916
 7319SOL    HW222857   6.485   4.602   6.999
 7320SOL     OW22858   6.651   3.486   2.059
 7320SOL    HW122859   6.639   3.480   1.960
 7320SOL    HW222860   6.576   3.539   2.098
 7321SOL     OW22861   2.562   0.683   5.132
 7321SOL    HW122862   2.569   0.761   5.070
 7321SOL    HW222863   2.492   0.702   5.201
 7322SOL     OW22864   1.225   3.411   2.263
 7322SOL    HW122865   1.216   3.412   2.163
 7322SOL    HW222866   1.170   3.485   2.302
 7323SOL     OW22867   2.130   1.850   2.549
 7323SOL    HW122868   2.180   1.932   2.577
 7323SOL    HW222869   2.039   1.875   2.516
 7324SOL     OW22870   5.724   6.949   2.913
 7324SOL    HW122871   5.642   7.006   2.922
 7324SOL    HW222872   5.789   6.994   2.851
 7325SOL     OW22873   3.983   0.589   6.134
 7325SOL    HW122874   3.971   0.490   6.145
 7325SOL    HW222875   4.005   0.609   6.039
 7326SOL     OW22876   2.404   6.096   5.204
 7326SOL    HW122877   2.444   6.181   5.239
 7326SOL    HW222878   2.475   6.041   5.161
 7327SOL     OW22879   6.845   2.670   5.641
 7327SOL    HW122880   6.753   2.710   5.643
 7327SOL    HW222881   6.895   2.705   5.562
 7328SOL     OW22882   3.703   0.443   6.927
 7328SOL    HW122883   3.757   0.376   6.978
 7328SOL    HW222884   3.611   0.447   6.966
 7329SOL     OW22885   4.258   4.278   1.409
 7329SOL    HW122886   4.332   4.284   1.476
 7329SOL    HW222887   4.261   4.189   1.364
 7330SOL     OW22888   3.070   1.949   0.430
 7330SOL    HW122889   3.108   1.921   0.518
 7330SOL    HW222890   2.986   2.001   0.444
 7331SOL     OW22891   5.771   0.855   1.731
 7331SOL    HW122892   5.710   0.923   1.690
 7331SOL    HW222893   5.854   0.900   1.764
 7332SOL     OW22894   2.756   5.797   0.212
 7332SOL    HW122895   2.845   5.756   0.193
 7332SOL    HW222896   2.685   5.747   0.161
 7333SOL     OW22897   0.192   3.561   3.710
 7333SOL    HW122898   0.286   3.531   3.697
 7333SOL    HW222899   0.189   3.634   3.777
 7334SOL     OW22900   4.336   6.071   6.091
 7334SOL    HW122901   4.382   5.995   6.137
 7334SOL    HW222902   4.273   6.035   6.023
 7335SOL     OW22903   1.636   2.696   2.142
 7335SOL    HW122904   1.644   2.794   2.160
 7335SOL    HW222905   1.638   2.646   2.229
 7336SOL     OW22906   1.395   6.587   3.254
 7336SOL    HW122907   1.440   6.653   3.195
 7336SOL    HW222908   1.377   6.628   3.343
 7337SOL     OW22909   1.036   3.225   2.286
 7337SOL    HW122910   1.021   3.200   2.382
 7337SOL    HW222911   1.110   3.293   2.281
 7338SOL     OW22912   6.450   2.567   1.024
 7338SOL    HW122913   6.497   2.484   1.053
 7338SOL    HW222914   6.391   2.599   1.098
 7339SOL     OW22915   5.775   6.348   3.777
 7339SOL    HW122916   5.689   6.386   3.812
 7339SOL    HW222917   5.782   6.252   3.803
 7340SOL     OW22918   1.992   0.433   0.779
 7340SOL    HW122919   2.002   0.500   0.852
 7340SOL    HW222920   1.897   0.402   0.774
 7341SOL     OW22921   6.801   2.304   6.768
 7341SOL    HW122922   6.768   2.248   6.844
 7341SOL    HW222923   6.764   2.397   6.777
 7342SOL     OW22924   6.458   0.064   2.213
 7342SOL    HW122925   6.452   0.161   2.237
 7342SOL    HW222926   6.535   0.023   2.262
 7343SOL     OW22927   4.664   2.955   0.075
 7343SOL    HW122928   4.608   3.019   0.022
 7343SOL    HW222929   4.609   2.875   0.099
 7344SOL     OW22930   1.138   6.915   5.851
 7344SOL    HW122931   1.184   6.855   5.917
 7344SOL    HW222932   1.207   6.957   5.792
 7345SOL     OW22933   3.640   3.412   5.283
 7345SOL    HW122934   3.739   3.397   5.293
 7345SOL    HW222935   3.601   3.338   5.228
 7346SOL     OW22936   3.770   6.719   2.559
 7346SOL    HW122937   3.676   6.685   2.562
 7346SOL    HW222938   3.818   6.692   2.643
 7347SOL     OW22939   0.248   2.295   0.125
 7347SOL    HW122940   0.315   2.221   0.122
 7347SOL    HW222941   0.168   2.270   0.070
 7348SOL     OW22942   1.526   3.648   3.651
 7348SOL    HW122943   1.520   3.677   3.746
 7348SOL    HW222944   1.583   3.566   3.644
 7349SOL     OW22945   4.247   0.146   0.923
 7349SOL    HW122946   4.290   0.166   0.835
 7349SOL    HW222947   4.286   0.062   0.961
 7350SOL     OW22948   2.539   0.493   5.699
 7350SOL    HW122949   2.559   0.395   5.699
 7350SOL    HW222950   2.564   0.532   5.611
 7351SOL     OW22951   5.047   4.855   4.109
 7351SOL    HW122952   5.003   4.804   4.182
 7351SOL    HW222953   4.984   4.865   4.032
 7352SOL     OW22954   0.468   2.007   3.237
 7352SOL    HW122955   0.475   1.908   3.232
 7352SOL    HW222956   0.457   2.045   3.146
 7353SOL     OW22957   6.486   0.551   6.700
 7353SOL    HW122958   6.526   0.467   6.665
 7353SOL    HW222959   6.556   0.604   6.749
 7354SOL     OW22960   1.765   0.489   3.844
 7354SOL    HW122961   1.779   0.580   3.806
 7354SOL    HW222962   1.849   0.435   3.835
 7355SOL     OW22963   6.961   2.191   6.186
 7355SOL    HW122964   6.994   2.104   6.151
 7355SOL    HW222965   6.861   2.190   6.189
 7356SOL     OW22966   3.783   3.491   6.077
 7356SOL    HW122967   3.687   3.518   6.064
 7356SOL    HW222968   3.837   3.571   6.100
 7357SOL     OW22969   4.048   6.048   1.263
 7357SOL    HW122970   4.009   6.051   1.171
 7357SOL    HW222971   4.146   6.027   1.257
 7358SOL     OW22972   6.011   2.606   2.231
 7358SOL    HW122973   5.935   2.671   2.220
 7358SOL    HW222974   5.975   2.513   2.233
 7359SOL     OW22975   4.003   1.737   6.047
 7359SOL    HW122976   3.951   1.758   6.129
 7359SOL    HW222977   4.096   1.710   6.073
 7360SOL     OW22978   2.486   3.405   5.592
 7360SOL    HW122979   2.465   3.336   5.523
 7360SOL    HW222980   2.578   3.441   5.577
 7361SOL     OW22981   5.331   0.511   2.186
 7361SOL    HW122982   5.379   0.433   2.147
 7361SOL    HW222983   5.275   0.480   2.263
 7362SOL     OW22984   4.102   4.968   5.791
 7362SOL    HW122985   4.169   5.029   5.748
 7362SOL    HW222986   4.090   4.995   5.886
 7363SOL     OW22987   4.210   1.322   1.611
 7363SOL    HW122988   4.294   1.367   1.643
 7363SOL    HW222989   4.193   1.240   1.667
 7364SOL     OW22990   4.341   0.200   1.835
 7364SOL    HW122991   4.259   0.211   1.892
 7364SOL    HW222992   4.338   0.112   1.789
 7365SOL     OW22993   6.382   5.662   2.790
 7365SOL    HW122994   6.335   5.615   2.864
 7365SOL    HW222995   6.381   5.761   2.807
 7366SOL     OW22996   2.314   0.234   4.512
 7366SOL    HW122997   2.382   0.165   4.485
 7366SOL    HW222998   2.295   0.225   4.610
 7367SOL     OW22999   4.610   1.592   0.319
 7367SOL    HW123000   4.577   1.647   0.242
 7367SOL    HW223001   4.581   1.497   0.306
 7368SOL     OW23002   3.514   3.490   2.383
 7368SOL    HW123003   3.512   3.404   2.434
 7368SOL    HW223004   3.433   3.496   2.325
 7369SOL     OW23005   4.253   2.511   0.925
 7369SOL    HW123006   4.293   2.602   0.915
 7369SOL    HW223007   4.153   2.518   0.920
 7370SOL     OW23008   2.618   1.941   4.862
 7370SOL    HW123009   2.596   2.003   4.937
 7370SOL    HW223010   2.685   1.874   4.894
 7371SOL     OW23011   3.395   0.031   3.760
 7371SOL    HW123012   3.469   0.095   3.777
 7371SOL    HW223013   3.431   6.961   3.754
 7372SOL     OW23014   3.763   6.649   4.780
 7372SOL    HW123015   3.716   6.731   4.749
 7372SOL    HW223016   3.721   6.568   4.740
 7373SOL     OW23017   4.522   2.004   4.726
 7373SOL    HW123018   4.494   1.969   4.816
 7373SOL    HW223019   4.526   2.103   4.729
 7374SOL     OW23020   1.421   1.820   5.157
 7374SOL    HW123021   1.453   1.745   5.216
 7374SOL    HW223022   1.377   1.890   5.213
 7375SOL     OW23023   2.029   3.113   2.239
 7375SOL    HW123024   2.030   3.067   2.151
 7375SOL    HW223025   2.034   3.212   2.225
 7376SOL     OW23026   1.357   3.691   0.797
 7376SOL    HW123027   1.264   3.722   0.777
 7376SOL    HW223028   1.373   3.696   0.896
 7377SOL     OW23029   3.492   5.005   0.211
 7377SOL    HW123030   3.437   5.042   0.286
 7377SOL    HW223031   3.466   4.910   0.195
 7378SOL     OW23032   1.770   6.783   4.260
 7378SOL    HW123033   1.695   6.723   4.235
 7378SOL    HW223034   1.736   6.876   4.272
 7379SOL     OW23035   3.657   0.264   1.301
 7379SOL    HW123036   3.573   0.302   1.262
 7379SOL    HW223037   3.695   0.329   1.367
 7380SOL     OW23038   6.383   4.308   3.386
 7380SOL    HW123039   6.375   4.352   3.475
 7380SOL    HW223040   6.400   4.210   3.399
 7381SOL     OW23041   4.374   1.870   0.913
 7381SOL    HW123042   4.404   1.900   1.004
 7381SOL    HW223043   4.275   1.880   0.905
 7382SOL     OW23044   6.568   1.750   5.446
 7382SOL    HW123045   6.592   1.676   5.383
 7382SOL    HW223046   6.586   1.721   5.540
 7383SOL     OW23047   1.573   6.534   1.564
 7383SOL    HW123048   1.565   6.594   1.643
 7383SOL    HW223049   1.587   6.588   1.481
 7384SOL     OW23050   0.665   6.634   1.263
 7384SOL    HW123051   0.674   6.718   1.316
 7384SOL    HW223052   0.749   6.580   1.272
 7385SOL     OW23053   3.471   5.180   2.230
 7385SOL    HW123054   3.411   5.144   2.159
 7385SOL    HW223055   3.441   5.145   2.319
 7386SOL     OW23056   6.920   3.542   0.234
 7386SOL    HW123057   6.929   3.449   0.271
 7386SOL    HW223058   6.905   3.537   0.135
 7387SOL     OW23059   6.219   4.449   5.702
 7387SOL    HW123060   6.207   4.415   5.609
 7387SOL    HW223061   6.306   4.498   5.710
 7388SOL     OW23062   1.407   6.225   2.206
 7388SOL    HW123063   1.400   6.171   2.290
 7388SOL    HW223064   1.325   6.212   2.151
 7389SOL     OW23065   0.201   3.213   0.598
 7389SOL    HW123066   0.183   3.116   0.585
 7389SOL    HW223067   0.116   3.261   0.618
 7390SOL     OW23068   2.862   2.031   2.965
 7390SOL    HW123069   2.898   2.026   3.058
 7390SOL    HW223070   2.914   1.969   2.905
 7391SOL     OW23071   4.122   3.329   2.506
 7391SOL    HW123072   4.106   3.230   2.503
 7391SOL    HW223073   4.060   3.375   2.442
 7392SOL     OW23074   4.107   5.942   6.509
 7392SOL    HW123075   4.105   6.028   6.559
 7392SOL    HW223076   4.095   5.866   6.573
 7393SOL     OW23077   6.392   4.601   3.846
 7393SOL    HW123078   6.317   4.660   3.878
 7393SOL    HW223079   6.424   4.545   3.922
 7394SOL     OW23080   2.095   2.468   6.133
 7394SOL    HW123081   2.034   2.411   6.188
 7394SOL    HW223082   2.154   2.522   6.193
 7395SOL     OW23083   2.203   3.461   1.480
 7395SOL    HW123084   2.167   3.521   1.551
 7395SOL    HW223085   2.152   3.474   1.395
 7396SOL     OW23086   2.837   5.270   1.382
 7396SOL    HW123087   2.884   5.190   1.418
 7396SOL    HW223088   2.740   5.264   1.404
 7397SOL     OW23089   5.070   4.333   4.574
 7397SOL    HW123090   4.982   4.300   4.608
 7397SOL    HW223091   5.119   4.258   4.529
 7398SOL     OW23092   1.615   4.476   3.404
 7398SOL    HW123093   1.686   4.488   3.334
 7398SOL    HW223094   1.616   4.381   3.435
 7399SOL     OW23095   5.876   2.877   4.723
 7399SOL    HW123096   5.947   2.812   4.697
 7399SOL    HW223097   5.870   2.883   4.822
 7400SOL     OW23098   5.464   2.295   5.315
 7400SOL    HW123099   5.442   2.366   5.248
 7400SOL    HW223100   5.415   2.312   5.400
 7401SOL     OW23101   1.629   3.093   2.855
 7401SOL    HW123102   1.717   3.120   2.893
 7401SOL    HW223103   1.609   3.149   2.774
 7402SOL     OW23104   3.095   5.388   5.053
 7402SOL    HW123105   3.073   5.344   4.965
 7402SOL    HW223106   3.138   5.476   5.036
 7403SOL     OW23107   1.923   3.256   3.532
 7403SOL    HW123108   1.906   3.300   3.444
 7403SOL    HW223109   1.946   3.160   3.517
 7404SOL     OW23110   2.955   3.829   1.556
 7404SOL    HW123111   2.856   3.841   1.565
 7404SOL    HW223112   2.995   3.910   1.513
 7405SOL     OW23113   3.032   5.695   5.339
 7405SOL    HW123114   3.023   5.596   5.347
 7405SOL    HW223115   2.954   5.739   5.383
 7406SOL     OW23116   0.511   1.255   5.398
 7406SOL    HW123117   0.559   1.336   5.433
 7406SOL    HW223118   0.567   1.174   5.413
 7407SOL     OW23119   0.570   5.879   6.694
 7407SOL    HW123120   0.655   5.832   6.670
 7407SOL    HW223121   0.591   5.969   6.733
 7408SOL     OW23122   3.434   4.157   5.181
 7408SOL    HW123123   3.360   4.200   5.232
 7408SOL    HW223124   3.396   4.091   5.116
 7409SOL     OW23125   5.862   4.029   0.397
 7409SOL    HW123126   5.882   3.967   0.473
 7409SOL    HW223127   5.942   4.086   0.380
 7410SOL     OW23128   0.150   0.331   1.030
 7410SOL    HW123129   0.237   0.382   1.029
 7410SOL    HW223130   0.075   0.395   1.015
 7411SOL     OW23131   1.199   1.934   5.773
 7411SOL    HW123132   1.232   1.913   5.681
 7411SOL    HW223133   1.109   1.978   5.767
 7412SOL     OW23134   3.522   7.013   0.223
 7412SOL    HW123135   3.499   0.087   0.238
 7412SOL    HW223136   3.443   6.965   0.185
 7413SOL     OW23137   4.110   5.114   3.641
 7413SOL    HW123138   4.139   5.126   3.546
 7413SOL    HW223139   4.182   5.068   3.692
 7414SOL     OW23140   2.464   1.890   4.441
 7414SOL    HW123141   2.383   1.863   4.493
 7414SOL    HW223142   2.528   1.939   4.501
 7415SOL     OW23143   3.378   0.119   6.572
 7415SOL    HW123144   3.378   0.092   6.668
 7415SOL    HW223145   3.471   0.144   6.545
 7416SOL     OW23146   0.933   1.845   2.239
 7416SOL    HW123147   1.015   1.850   2.296
 7416SOL    HW223148   0.955   1.881   2.148
 7417SOL     OW23149   0.996   2.604   3.249
 7417SOL    HW123150   1.051   2.538   3.199
 7417SOL    HW223151   0.913   2.625   3.197
 7418SOL     OW23152   1.870   4.467   6.466
 7418SOL    HW123153   1.918   4.448   6.552
 7418SOL    HW223154   1.935   4.463   6.390
 7419SOL     OW23155   6.297   3.961   3.659
 7419SOL    HW123156   6.240   3.887   3.625
 7419SOL    HW223157   6.378   3.923   3.705
 7420SOL     OW23158   0.014   6.586   2.013
 7420SOL    HW123159   0.055   6.553   1.928
 7420SOL    HW223160   6.956   6.641   1.992
 7421SOL     OW23161   4.596   3.404   1.714
 7421SOL    HW123162   4.570   3.311   1.688
 7421SOL    HW223163   4.535   3.470   1.670
 7422SOL     OW23164   5.826   2.802   2.213
 7422SOL    HW123165   5.808   2.869   2.141
 7422SOL    HW223166   5.753   2.806   2.281
 7423SOL     OW23167   5.931   1.900   5.446
 7423SOL    HW123168   5.890   1.844   5.519
 7423SOL    HW223169   5.860   1.951   5.398
 7424SOL     OW23170   0.247   1.334   5.416
 7424SOL    HW123171   0.298   1.398   5.358
 7424SOL    HW223172   0.307   1.260   5.446
 7425SOL     OW23173   5.412   6.824   0.612
 7425SOL    HW123174   5.386   6.876   0.693
 7425SOL    HW223175   5.332   6.776   0.575
 7426SOL     OW23176   3.587   2.646   6.179
 7426SOL    HW123177   3.664   2.684   6.128
 7426SOL    HW223178   3.533   2.721   6.219
 7427SOL     OW23179   3.303   1.190   3.879
 7427SOL    HW123180   3.384   1.205   3.823
 7427SOL    HW223181   3.303   1.255   3.956
 7428SOL     OW23182   4.110   6.683   5.790
 7428SOL    HW123183   4.016   6.712   5.771
 7428SOL    HW223184   4.123   6.672   5.888
 7429SOL     OW23185   1.445   7.011   2.600
 7429SOL    HW123186   1.390   0.068   2.625
 7429SOL    HW223187   1.415   6.931   2.652
 7430SOL     OW23188   0.240   4.732   3.381
 7430SOL    HW123189   0.214   4.648   3.334
 7430SOL    HW223190   0.214   4.725   3.478
 7431SOL     OW23191   2.002   2.381   4.602
 7431SOL    HW123192   2.037   2.288   4.589
 7431SOL    HW223193   2.076   2.447   4.587
 7432SOL     OW23194   2.147   0.206   3.366
 7432SOL    HW123195   2.108   0.263   3.294
 7432SOL    HW223196   2.216   0.259   3.416
 7433SOL     OW23197   3.225   6.609   6.306
 7433SOL    HW123198   3.150   6.660   6.265
 7433SOL    HW223199   3.189   6.532   6.359
 7434SOL     OW23200   4.553   6.097   5.885
 7434SOL    HW123201   4.531   6.141   5.798
 7434SOL    HW223202   4.474   6.104   5.947
 7435SOL     OW23203   4.608   6.616   2.183
 7435SOL    HW123204   4.601   6.680   2.259
 7435SOL    HW223205   4.701   6.579   2.179
 7436SOL     OW23206   5.057   3.436   6.620
 7436SOL    HW123207   5.011   3.524   6.603
 7436SOL    HW223208   5.128   3.449   6.688
 7437SOL     OW23209   3.316   6.009   1.144
 7437SOL    HW123210   3.238   6.064   1.114
 7437SOL    HW223211   3.287   5.914   1.157
 7438SOL     OW23212   2.526   0.864   0.677
 7438SOL    HW123213   2.432   0.837   0.656
 7438SOL    HW223214   2.560   0.809   0.754
 7439SOL     OW23215   1.790   5.092   6.401
 7439SOL    HW123216   1.731   5.135   6.334
 7439SOL    HW223217   1.751   5.004   6.429
 7440SOL     OW23218   4.840   2.989   4.277
 7440SOL    HW123219   4.847   2.997   4.377
 7440SOL    HW223220   4.840   3.080   4.236
 7441SOL     OW23221   5.687   6.196   2.000
 7441SOL    HW123222   5.782   6.187   2.028
 7441SOL    HW223223   5.653   6.287   2.023
 7442SOL     OW23224   5.560   0.671   5.733
 7442SOL    HW123225   5.614   0.588   5.736
 7442SOL    HW223226   5.463   0.648   5.729
 7443SOL     OW23227   0.515   6.052   2.131
 7443SOL    HW123228   0.551   6.002   2.052
 7443SOL    HW223229   0.577   6.039   2.209
 7444SOL     OW23230   0.638   0.454   5.948
 7444SOL    HW123231   0.577   0.434   5.872
 7444SOL    HW223232   0.660   0.370   5.997
 7445SOL     OW23233   4.138   6.360   2.267
 7445SOL    HW123234   4.202   6.361   2.190
 7445SOL    HW223235   4.111   6.453   2.289
 7446SOL     OW23236   4.825   3.554   0.464
 7446SOL    HW123237   4.823   3.532   0.367
 7446SOL    HW223238   4.896   3.501   0.509
 7447SOL     OW23239   1.034   3.922   0.576
 7447SOL    HW123240   0.980   3.915   0.492
 7447SOL    HW223241   1.131   3.935   0.553
 7448SOL     OW23242   4.912   5.639   6.094
 7448SOL    HW123243   4.883   5.568   6.030
 7448SOL    HW223244   5.012   5.650   6.088
 7449SOL     OW23245   0.598   4.355   0.100
 7449SOL    HW123246   0.534   4.408   0.156
 7449SOL    HW223247   0.548   4.310   0.026
 7450SOL     OW23248   5.252   1.818   5.663
 7450SOL    HW123249   5.299   1.907   5.660
 7450SOL    HW223250   5.169   1.826   5.717
 7451SOL     OW23251   5.695   5.319   2.240
 7451SOL    HW123252   5.762   5.271   2.183
 7451SOL    HW223253   5.610   5.266   2.243
 7452SOL     OW23254   5.293   6.379   5.238
 7452SOL    HW123255   5.263   6.312   5.170
 7452SOL    HW223256   5.215   6.409   5.292
 7453SOL     OW23257   4.609   5.482   6.441
 7453SOL    HW123258   4.688   5.543   6.442
 7453SOL    HW223259   4.597   5.443   6.350
 7454SOL     OW23260   3.569   1.886   0.555
 7454SOL    HW123261   3.560   1.831   0.472
 7454SOL    HW223262   3.630   1.839   0.619
 7455SOL     OW23263   6.016   2.693   2.967
 7455SOL    HW123264   6.004   2.686   3.066
 7455SOL    HW223265   6.028   2.601   2.929
 7456SOL     OW23266   2.409   2.465   5.351
 7456SOL    HW123267   2.391   2.494   5.256
 7456SOL    HW223268   2.482   2.521   5.389
 7457SOL     OW23269   2.333   6.910   3.117
 7457SOL    HW123270   2.359   6.823   3.075
 7457SOL    HW223271   2.304   6.894   3.211
 7458SOL     OW23272   1.031   6.543   4.950
 7458SOL    HW123273   0.941   6.586   4.962
 7458SOL    HW223274   1.048   6.528   4.853
 7459SOL     OW23275   6.478   1.005   2.832
 7459SOL    HW123276   6.508   1.068   2.904
 7459SOL    HW223277   6.536   1.016   2.752
 7460SOL     OW23278   1.041   6.918   0.670
 7460SOL    HW123279   1.097   6.954   0.595
 7460SOL    HW223280   1.101   6.888   0.744
 7461SOL     OW23281   0.910   5.589   5.869
 7461SOL    HW123282   0.986   5.607   5.807
 7461SOL    HW223283   0.932   5.509   5.925
 7462SOL     OW23284   1.002   5.419   1.225
 7462SOL    HW123285   1.065   5.400   1.149
 7462SOL    HW223286   1.025   5.360   1.302
 7463SOL     OW23287   4.156   4.475   7.006
 7463SOL    HW123288   4.059   4.486   0.006
 7463SOL    HW223289   4.167   4.399   6.942
 7464SOL     OW23290   6.897   5.093   4.779
 7464SOL    HW123291   6.875   5.185   4.809
 7464SOL    HW223292   6.928   5.095   4.684
 7465SOL     OW23293   2.375   5.107   0.108
 7465SOL    HW123294   2.475   5.101   0.100
 7465SOL    HW223295   2.343   5.185   0.054
 7466SOL     OW23296   0.993   0.388   5.101
 7466SOL    HW123297   0.970   0.465   5.042
 7466SOL    HW223298   0.986   0.303   5.049
 7467SOL     OW23299   0.269   3.315   6.046
 7467SOL    HW123300   0.172   3.332   6.025
 7467SOL    HW223301   0.296   3.227   6.008
 7468SOL     OW23302   5.490   2.627   5.520
 7468SOL    HW123303   5.571   2.570   5.505
 7468SOL    HW223304   5.452   2.609   5.610
 7469SOL     OW23305   6.790   2.190   0.244
 7469SOL    HW123306   6.750   2.141   0.321
 7469SOL    HW223307   6.749   2.281   0.236
 7470SOL     OW23308   5.700   4.132   4.272
 7470SOL    HW123309   5.749   4.140   4.359
 7470SOL    HW223310   5.745   4.189   4.203
 7471SOL     OW23311   5.522   5.618   6.621
 7471SOL    HW123312   5.603   5.561   6.602
 7471SOL    HW223313   5.531   5.705   6.574
 7472SOL     OW23314   6.420   6.982   5.001
 7472SOL    HW123315   6.485   6.996   5.076
 7472SOL    HW223316   6.408   6.884   4.985
 7473SOL     OW23317   4.182   0.172   3.784
 7473SOL    HW123318   4.188   0.171   3.685
 7473SOL    HW223319   4.162   0.265   3.816
 7474SOL     OW23320   5.720   2.191   6.256
 7474SOL    HW123321   5.765   2.204   6.167
 7474SOL    HW223322   5.664   2.108   6.253
 7475SOL     OW23323   4.529   2.066   1.573
 7475SOL    HW123324   4.509   2.076   1.670
 7475SOL    HW223325   4.526   1.969   1.549
 7476SOL     OW23326   2.081   1.421   2.984
 7476SOL    HW123327   2.095   1.350   3.053
 7476SOL    HW223328   2.040   1.502   3.028
 7477SOL     OW23329   0.400   3.574   4.908
 7477SOL    HW123330   0.410   3.637   4.985
 7477SOL    HW223331   0.395   3.625   4.823
 7478SOL     OW23332   6.831   2.084   4.927
 7478SOL    HW123333   6.884   2.169   4.918
 7478SOL    HW223334   6.807   2.050   4.836
 7479SOL     OW23335   5.707   3.686   6.725
 7479SOL    HW123336   5.684   3.593   6.696
 7479SOL    HW223337   5.799   3.709   6.692
 7480SOL     OW23338   3.025   5.102   2.060
 7480SOL    HW123339   3.047   5.008   2.088
 7480SOL    HW223340   2.962   5.142   2.127
 7481SOL     OW23341   6.465   4.478   6.632
 7481SOL    HW123342   6.529   4.402   6.625
 7481SOL    HW223343   6.471   4.519   6.723
 7482SOL     OW23344   3.867   2.173   2.379
 7482SOL    HW123345   3.936   2.229   2.425
 7482SOL    HW223346   3.887   2.169   2.282
 7483SOL     OW23347   4.516   2.551   5.464
 7483SOL    HW123348   4.492   2.470   5.411
 7483SOL    HW223349   4.445   2.620   5.454
 7484SOL     OW23350   2.562   6.525   4.647
 7484SOL    HW123351   2.606   6.611   4.622
 7484SOL    HW223352   2.465   6.528   4.622
 7485SOL     OW23353   3.025   6.928   4.040
 7485SOL    HW123354   2.961   6.857   4.069
 7485SOL    HW223355   3.069   6.968   4.120
 7486SOL     OW23356   0.776   6.127   7.021
 7486SOL    HW123357   0.864   6.160   0.034
 7486SOL    HW223358   0.777   6.027   7.017
 7487SOL     OW23359   4.497   0.035   3.278
 7487SOL    HW123360   4.453   7.015   3.199
 7487SOL    HW223361   4.524   0.129   3.254
 7488SOL     OW23362   0.859   5.875   4.128
 7488SOL    HW123363   0.901   5.856   4.217
 7488SOL    HW223364   0.864   5.793   4.071
 7489SOL     OW23365   6.213   4.204   6.670
 7489SOL    HW123366   6.141   4.253   6.622
 7489SOL    HW223367   6.293   4.196   6.611
 7490SOL     OW23368   0.944   2.140   2.815
 7490SOL    HW123369   0.911   2.121   2.722
 7490SOL    HW223370   0.946   2.238   2.830
 7491SOL     OW23371   4.451   3.186   0.436
 7491SOL    HW123372   4.526   3.127   0.464
 7491SOL    HW223373   4.408   3.226   0.516
 7492SOL     OW23374   1.242   0.572   4.082
 7492SOL    HW123375   1.146   0.578   4.108
 7492SOL    HW223376   1.249   0.550   3.985
 7493SOL     OW23377   6.240   3.885   5.689
 7493SOL    HW123378   6.335   3.887   5.721
 7493SOL    HW223379   6.233   3.938   5.604
 7494SOL     OW23380   6.296   1.185   3.163
 7494SOL    HW123381   6.311   1.087   3.172
 7494SOL    HW223382   6.247   1.204   3.078
 7495SOL     OW23383   2.110   3.081   4.708
 7495SOL    HW123384   2.032   3.070   4.769
 7495SOL    HW223385   2.189   3.035   4.747
 7496SOL     OW23386   6.351   3.761   3.034
 7496SOL    HW123387   6.415   3.830   3.000
 7496SOL    HW223388   6.258   3.785   3.008
 7497SOL     OW23389   0.696   6.287   0.458
 7497SOL    HW123390   0.730   6.213   0.515
 7497SOL    HW223391   0.619   6.254   0.403
 7498SOL     OW23392   3.209   0.491   2.966
 7498SOL    HW123393   3.123   0.509   3.015
 7498SOL    HW223394   3.279   0.554   2.998
 7499SOL     OW23395   3.914   2.050   3.863
 7499SOL    HW123396   3.834   2.104   3.889
 7499SOL    HW223397   3.991   2.073   3.922
 7500SOL     OW23398   4.163   0.179   3.505
 7500SOL    HW123399   4.115   0.264   3.482
 7500SOL    HW223400   4.106   0.101   3.480
 7501SOL     OW23401   6.248   2.525   4.652
 7501SOL    HW123402   6.295   2.573   4.578
 7501SOL    HW223403   6.314   2.500   4.723
 7502SOL     OW23404   3.100   6.931   4.540
 7502SOL    HW123405   3.170   6.888   4.597
 7502SOL    HW223406   3.009   6.899   4.569
 7503SOL     OW23407   2.195   6.110   1.266
 7503SOL    HW123408   2.222   6.040   1.333
 7503SOL    HW223409   2.098   6.099   1.245
 7504SOL     OW23410   6.929   6.576   2.970
 7504SOL    HW123411   7.013   6.537   2.934
 7504SOL    HW223412   6.933   6.580   3.070
 7505SOL     OW23413   6.863   0.505   5.065
 7505SOL    HW123414   6.843   0.457   4.979
 7505SOL    HW223415   6.861   0.440   5.141
 7506SOL     OW23416   3.579   1.727   3.400
 7506SOL    HW123417   3.491   1.775   3.399
 7506SOL    HW223418   3.583   1.663   3.324
 7507SOL     OW23419   6.245   3.548   4.418
 7507SOL    HW123420   6.289   3.622   4.470
 7507SOL    HW223421   6.176   3.588   4.357
 7508SOL     OW23422   1.814   6.149   0.294
 7508SOL    HW123423   1.733   6.146   0.353
 7508SOL    HW223424   1.806   6.224   0.229
 7509SOL     OW23425   5.036   4.006   0.350
 7509SOL    HW123426   5.029   3.966   0.441
 7509SOL    HW223427   4.954   4.059   0.330
 7510SOL     OW23428   3.643   3.984   3.821
 7510SOL    HW123429   3.719   3.991   3.886
 7510SOL    HW223430   3.565   3.940   3.866
 7511SOL     OW23431   3.062   5.796   2.744
 7511SOL    HW123432   3.037   5.795   2.841
 7511SOL    HW223433   3.132   5.727   2.727
 7512SOL     OW23434   3.346   6.738   6.524
 7512SOL    HW123435   3.309   6.663   6.469
 7512SOL    HW223436   3.401   6.701   6.599
 7513SOL     OW23437   1.828   2.132   3.676
 7513SOL    HW123438   1.772   2.058   3.639
 7513SOL    HW223439   1.900   2.156   3.610
 7514SOL     OW23440   2.568   4.637   3.249
 7514SOL    HW123441   2.597   4.541   3.259
 7514SOL    HW223442   2.648   4.696   3.248
 7515SOL     OW23443   6.970   3.869   5.115
 7515SOL    HW123444   6.888   3.898   5.164
 7515SOL    HW223445   6.972   3.769   5.112
 7516SOL     OW23446   1.115   4.874   5.372
 7516SOL    HW123447   1.206   4.859   5.334
 7516SOL    HW223448   1.053   4.804   5.338
 7517SOL     OW23449   0.697   1.937   6.899
 7517SOL    HW123450   0.793   1.963   6.897
 7517SOL    HW223451   0.655   1.959   6.810
 7518SOL     OW23452   4.702   2.734   4.224
 7518SOL    HW123453   4.721   2.671   4.299
 7518SOL    HW223454   4.748   2.821   4.241
 7519SOL     OW23455   4.406   6.769   5.001
 7519SOL    HW123456   4.335   6.827   5.043
 7519SOL    HW223457   4.367   6.722   4.922
 7520SOL     OW23458   1.977   2.085   2.186
 7520SOL    HW123459   2.055   2.073   2.125
 7520SOL    HW223460   1.954   2.182   2.194
 7521SOL     OW23461   4.951   1.001   4.646
 7521SOL    HW123462   5.011   0.929   4.611
 7521SOL    HW223463   4.967   1.085   4.594
 7522SOL     OW23464   1.448   5.890   3.189
 7522SOL    HW123465   1.503   5.864   3.110
 7522SOL    HW223466   1.381   5.819   3.208
 7523SOL     OW23467   5.650   1.407   6.492
 7523SOL    HW123468   5.683   1.326   6.444
 7523SOL    HW223469   5.710   1.426   6.570
 7524SOL     OW23470   0.120   2.432   4.571
 7524SOL    HW123471   0.070   2.346   4.583
 7524SOL    HW223472   0.179   2.426   4.491
 7525SOL     OW23473   4.769   6.583   6.239
 7525SOL    HW123474   4.679   6.562   6.279
 7525SOL    HW223475   4.779   6.534   6.153
 7526SOL     OW23476   2.139   3.678   2.035
 7526SOL    HW123477   2.043   3.649   2.024
 7526SOL    HW223478   2.199   3.599   2.022
 7527SOL     OW23479   4.028   6.188   3.429
 7527SOL    HW123480   3.933   6.218   3.440
 7527SOL    HW223481   4.033   6.124   3.352
 7528SOL     OW23482   6.172   2.825   6.495
 7528SOL    HW123483   6.158   2.771   6.413
 7528SOL    HW223484   6.256   2.878   6.486
 7529SOL     OW23485   5.892   2.193   3.951
 7529SOL    HW123486   5.872   2.109   4.001
 7529SOL    HW223487   5.991   2.204   3.944
 7530SOL     OW23488   6.709   1.520   1.881
 7530SOL    HW123489   6.617   1.485   1.896
 7530SOL    HW223490   6.773   1.469   1.938
 7531SOL     OW23491   4.325   2.403   3.792
 7531SOL    HW123492   4.246   2.374   3.739
 7531SOL    HW223493   4.294   2.438   3.881
 7532SOL     OW23494   4.413   6.090   6.842
 7532SOL    HW123495   4.459   6.015   6.890
 7532SOL    HW223496   4.318   6.095   6.872
 7533SOL     OW23497   4.522   3.148   1.695
 7533SOL    HW123498   4.523   3.108   1.787
 7533SOL    HW223499   4.512   3.074   1.628
 7534SOL     OW23500   4.708   0.222   4.010
 7534SOL    HW123501   4.779   0.278   3.966
 7534SOL    HW223502   4.692   0.141   3.954
 7535SOL     OW23503   0.958   6.137   4.246
 7535SOL    HW123504   1.015   6.106   4.322
 7535SOL    HW223505   0.928   6.057   4.193
 7536SOL     OW23506   4.752   5.911   4.238
 7536SOL    HW123507   4.750   5.925   4.139
 7536SOL    HW223508   4.731   5.997   4.285
 7537SOL     OW23509   2.528   5.843   2.170
 7537SOL    HW123510   2.586   5.893   2.106
 7537SOL    HW223511   2.586   5.790   2.233
 7538SOL     OW23512   0.731   3.345   1.659
 7538SOL    HW123513   0.769   3.419   1.604
 7538SOL    HW223514   0.738   3.368   1.756
 7539SOL     OW23515   0.329   5.430   3.548
 7539SOL    HW123516   0.427   5.413   3.564
 7539SOL    HW223517   0.302   5.515   3.593
 7540SOL     OW23518   5.713   5.716   4.219
 7540SOL    HW123519   5.689   5.811   4.238
 7540SOL    HW223520   5.707   5.699   4.120
 7541SOL     OW23521   1.032   3.486   6.472
 7541SOL    HW123522   1.061   3.581   6.466
 7541SOL    HW223523   1.109   3.429   6.501
 7542SOL     OW23524   6.419   6.119   5.871
 7542SOL    HW123525   6.476   6.180   5.815
 7542SOL    HW223526   6.401   6.035   5.819
 7543SOL     OW23527   2.667   0.341   5.384
 7543SOL    HW123528   2.759   0.319   5.414
 7543SOL    HW223529   2.671   0.387   5.295
 7544SOL     OW23530   6.856   3.175   4.063
 7544SOL    HW123531   6.888   3.261   4.105
 7544SOL    HW223532   6.798   3.197   3.985
 7545SOL     OW23533   0.651   5.612   6.905
 7545SOL    HW123534   0.606   5.560   6.833
 7545SOL    HW223535   0.617   5.583   6.994
 7546SOL     OW23536   3.266   2.868   1.974
 7546SOL    HW123537   3.210   2.790   1.946
 7546SOL    HW223538   3.237   2.899   2.065
 7547SOL     OW23539   4.481   0.591   1.606
 7547SOL    HW123540   4.542   0.513   1.615
 7547SOL    HW223541   4.400   0.565   1.554
 7548SOL     OW23542   4.553   2.135   6.020
 7548SOL    HW123543   4.466   2.114   6.064
 7548SOL    HW223544   4.545   2.224   5.973
 7549SOL     OW23545   4.555   2.574   5.757
 7549SOL    HW123546   4.570   2.672   5.766
 7549SOL    HW223547   4.580   2.544   5.665
 7550SOL     OW23548   1.686   3.984   3.687
 7550SOL    HW123549   1.766   3.985   3.628
 7550SOL    HW223550   1.716   3.991   3.783
 7551SOL     OW23551   5.293   1.821   5.378
 7551SOL    HW123552   5.323   1.791   5.468
 7551SOL    HW223553   5.223   1.893   5.388
 7552SOL     OW23554   1.854   6.165   4.688
 7552SOL    HW123555   1.905   6.247   4.664
 7552SOL    HW223556   1.784   6.188   4.756
 7553SOL     OW23557   5.719   6.357   6.595
 7553SOL    HW123558   5.669   6.443   6.607
 7553SOL    HW223559   5.810   6.366   6.634
 7554SOL     OW23560   5.240   1.474   0.305
 7554SOL    HW123561   5.326   1.423   0.309
 7554SOL    HW223562   5.165   1.417   0.338
 7555SOL     OW23563   2.965   6.270   6.722
 7555SOL    HW123564   3.063   6.249   6.718
 7555SOL    HW223565   2.948   6.357   6.676
 7556SOL     OW23566   0.779   0.795   0.837
 7556SOL    HW123567   0.694   0.752   0.806
 7556SOL    HW223568   0.831   0.731   0.892
 7557SOL     OW23569   5.239   0.488   0.119
 7557SOL    HW123570   5.310   0.552   0.087
 7557SOL    HW223571   5.246   0.477   0.218
 7558SOL     OW23572   1.476   2.872   4.122
 7558SOL    HW123573   1.502   2.809   4.050
 7558SOL    HW223574   1.514   2.840   4.209
 7559SOL     OW23575   3.771   2.101   4.760
 7559SOL    HW123576   3.688   2.124   4.810
 7559SOL    HW223577   3.799   2.007   4.783
 7560SOL     OW23578   0.153   0.585   6.423
 7560SOL    HW123579   0.136   0.679   6.393
 7560SOL    HW223580   0.096   0.564   6.502
 7561SOL     OW23581   4.947   2.041   5.594
 7561SOL    HW123582   4.904   2.129   5.608
 7561SOL    HW223583   4.972   2.001   5.682
 7562SOL     OW23584   1.154   5.093   4.774
 7562SOL    HW123585   1.105   5.168   4.729
 7562SOL    HW223586   1.178   5.121   4.867
 7563SOL     OW23587   3.566   6.210   2.103
 7563SOL    HW123588   3.526   6.267   2.031
 7563SOL    HW223589   3.605   6.270   2.173
 7564SOL     OW23590   4.299   1.233   4.110
 7564SOL    HW123591   4.279   1.330   4.127
 7564SOL    HW223592   4.351   1.196   4.187
 7565SOL     OW23593   5.449   3.704   6.410
 7565SOL    HW123594   5.458   3.671   6.504
 7565SOL    HW223595   5.418   3.630   6.351
 7566SOL     OW23596   4.831   4.772   1.578
 7566SOL    HW123597   4.877   4.751   1.664
 7566SOL    HW223598   4.732   4.774   1.592
 7567SOL     OW23599   0.443   0.604   4.641
 7567SOL    HW123600   0.423   0.700   4.623
 7567SOL    HW223601   0.456   0.556   4.554
 7568SOL     OW23602   6.268   5.446   1.098
 7568SOL    HW123603   6.194   5.398   1.143
 7568SOL    HW223604   6.240   5.471   1.005
 7569SOL     OW23605   3.973   3.879   6.373
 7569SOL    HW123606   3.903   3.867   6.443
 7569SOL    HW223607   4.061   3.847   6.408
 7570SOL     OW23608   6.718   2.893   3.188
 7570SOL    HW123609   6.681   2.806   3.221
 7570SOL    HW223610   6.667   2.969   3.228
 7571SOL     OW23611   5.387   3.582   2.393
 7571SOL    HW123612   5.457   3.511   2.396
 7571SOL    HW223613   5.354   3.600   2.485
 7572SOL     OW23614   5.165   6.698   2.786
 7572SOL    HW123615   5.150   6.690   2.688
 7572SOL    HW223616   5.087   6.743   2.829
 7573SOL     OW23617   5.915   6.438   5.661
 7573SOL    HW123618   5.827   6.392   5.656
 7573SOL    HW223619   5.983   6.375   5.698
 7574SOL     OW23620   6.423   0.890   4.413
 7574SOL    HW123621   6.431   0.837   4.329
 7574SOL    HW223622   6.497   0.865   4.475
 7575SOL     OW23623   6.807   6.532   0.957
 7575SOL    HW123624   6.886   6.592   0.950
 7575SOL    HW223625   6.763   6.544   1.046
 7576SOL     OW23626   5.741   2.781   0.702
 7576SOL    HW123627   5.698   2.871   0.697
 7576SOL    HW223628   5.670   2.711   0.714
 7577SOL     OW23629   0.813   6.825   0.000
 7577SOL    HW123630   0.761   6.910   7.013
 7577SOL    HW223631   0.882   6.835   0.072
 7578SOL     OW23632   0.003   5.856   3.327
 7578SOL    HW123633   0.100   5.835   3.342
 7578SOL    HW223634   7.011   5.881   3.232
 7579SOL     OW23635   6.674   1.638   0.935
 7579SOL    HW123636   6.718   1.561   0.982
 7579SOL    HW223637   6.724   1.657   0.851
 7580SOL     OW23638   2.067   4.346   3.653
 7580SOL    HW123639   2.037   4.269   3.710
 7580SOL    HW223640   2.030   4.431   3.690
 7581SOL     OW23641   0.266   1.040   1.456
 7581SOL    HW123642   0.289   0.958   1.403
 7581SOL    HW223643   0.344   1.066   1.513
 7582SOL     OW23644   3.494   1.555   4.297
 7582SOL    HW123645   3.578   1.574   4.347
 7582SOL    HW223646   3.437   1.638   4.295
 7583SOL     OW23647   4.947   3.325   3.848
 7583SOL    HW123648   4.958   3.367   3.758
 7583SOL    HW223649   4.920   3.395   3.915
 7584SOL     OW23650   0.955   1.305   3.297
 7584SOL    HW123651   0.947   1.353   3.210
 7584SOL    HW223652   0.888   1.343   3.362
 7585SOL     OW23653   1.332   2.316   6.941
 7585SOL    HW123654   1.276   2.310   0.001
 7585SOL    HW223655   1.318   2.406   6.898
 7586SOL     OW23656   1.400   1.160   2.647
 7586SOL    HW123657   1.445   1.100   2.581
 7586SOL    HW223658   1.461   1.236   2.669
 7587SOL     OW23659   3.584   0.537   1.017
 7587SOL    HW123660   3.546   0.482   0.942
 7587SOL    HW223661   3.523   0.615   1.034
 7588SOL     OW23662   1.399   2.476   4.345
 7588SOL    HW123663   1.349   2.460   4.430
 7588SOL    HW223664   1.377   2.405   4.279
 7589SOL     OW23665   0.483   1.282   2.809
 7589SOL    HW123666   0.500   1.234   2.895
 7589SOL    HW223667   0.416   1.355   2.824
 7590SOL     OW23668   6.870   1.936   0.169
 7590SOL    HW123669   6.838   2.030   0.181
 7590SOL    HW223670   6.802   1.873   0.206
 7591SOL     OW23671   4.344   3.460   6.510
 7591SOL    HW123672   4.372   3.506   6.425
 7591SOL    HW223673   4.402   3.490   6.585
 7592SOL     OW23674   6.445   6.234   4.843
 7592SOL    HW123675   6.397   6.196   4.922
 7592SOL    HW223676   6.533   6.271   4.872
 7593SOL     OW23677   0.381   1.455   6.009
 7593SOL    HW123678   0.481   1.465   6.011
 7593SOL    HW223679   0.357   1.370   5.963
 7594SOL     OW23680   0.353   4.111   1.264
 7594SOL    HW123681   0.400   4.091   1.350
 7594SOL    HW223682   0.265   4.062   1.262
 7595SOL     OW23683   6.136   2.839   6.192
 7595SOL    HW123684   6.070   2.903   6.231
 7595SOL    HW223685   6.226   2.881   6.189
 7596SOL     OW23686   3.121   0.799   5.235
 7596SOL    HW123687   3.183   0.849   5.175
 7596SOL    HW223688   3.029   0.837   5.227
 7597SOL     OW23689   1.908   4.933   1.865
 7597SOL    HW123690   1.997   4.976   1.853
 7597SOL    HW223691   1.913   4.868   1.941
 7598SOL     OW23692   6.139   0.840   3.002
 7598SOL    HW123693   6.048   0.881   3.001
 7598SOL    HW223694   6.141   0.765   3.068
 7599SOL     OW23695   4.291   3.695   0.711
 7599SOL    HW123696   4.351   3.731   0.782
 7599SOL    HW223697   4.210   3.654   0.753
 7600SOL     OW23698   1.121   1.606   3.958
 7600SOL    HW123699   1.127   1.701   3.989
 7600SOL    HW223700   1.195   1.553   4.000
 7601SOL     OW23701   3.841   5.658   2.000
 7601SOL    HW123702   3.863   5.618   2.088
 7601SOL    HW223703   3.835   5.586   1.931
 7602SOL     OW23704   0.121   1.744   0.509
 7602SOL    HW123705   0.107   1.812   0.437
 7602SOL    HW223706   0.086   1.780   0.596
 7603SOL     OW23707   2.299   0.377   6.177
 7603SOL    HW123708   2.238   0.445   6.138
 7603SOL    HW223709   2.379   0.422   6.217
 7604SOL     OW23710   1.288   2.282   4.971
 7604SOL    HW123711   1.361   2.216   4.989
 7604SOL    HW223712   1.312   2.370   5.013
 7605SOL     OW23713   3.034   0.171   6.889
 7605SOL    HW123714   3.047   0.181   6.790
 7605SOL    HW223715   2.982   0.249   6.924
 7606SOL     OW23716   6.265   1.317   3.868
 7606SOL    HW123717   6.210   1.296   3.948
 7606SOL    HW223718   6.225   1.394   3.818
 7607SOL     OW23719   3.254   6.168   6.069
 7607SOL    HW123720   3.200   6.116   6.003
 7607SOL    HW223721   3.277   6.257   6.031
 7608SOL     OW23722   5.682   2.546   6.020
 7608SOL    HW123723   5.766   2.540   6.075
 7608SOL    HW223724   5.669   2.640   5.989
 7609SOL     OW23725   0.642   2.511   4.516
 7609SOL    HW123726   0.579   2.585   4.493
 7609SOL    HW223727   0.599   2.450   4.582
 7610SOL     OW23728   3.391   4.699   6.545
 7610SOL    HW123729   3.344   4.645   6.614
 7610SOL    HW223730   3.455   4.762   6.589
 7611SOL     OW23731   4.733   3.157   1.427
 7611SOL    HW123732   4.646   3.162   1.379
 7611SOL    HW223733   4.746   3.066   1.465
 7612SOL     OW23734   2.988   1.945   3.182
 7612SOL    HW123735   3.066   1.882   3.183
 7612SOL    HW223736   2.906   1.897   3.214
 7613SOL     OW23737   1.225   1.718   2.397
 7613SOL    HW123738   1.217   1.816   2.376
 7613SOL    HW223739   1.272   1.707   2.484
 7614SOL     OW23740   4.971   3.373   0.601
 7614SOL    HW123741   4.937   3.359   0.694
 7614SOL    HW223742   5.064   3.410   0.604
 7615SOL     OW23743   5.332   3.019   4.832
 7615SOL    HW123744   5.373   2.928   4.840
 7615SOL    HW223745   5.287   3.043   4.918
 7616SOL     OW23746   6.108   6.832   3.565
 7616SOL    HW123747   6.052   6.890   3.623
 7616SOL    HW223748   6.082   6.736   3.579
 7617SOL     OW23749   4.831   5.361   3.179
 7617SOL    HW123750   4.877   5.431   3.124
 7617SOL    HW223751   4.881   5.275   3.171
 7618SOL     OW23752   2.954   2.290   0.217
 7618SOL    HW123753   2.857   2.315   0.215
 7618SOL    HW223754   3.010   2.373   0.227
 7619SOL     OW23755   0.830   2.289   4.177
 7619SOL    HW123756   0.882   2.354   4.232
 7619SOL    HW223757   0.738   2.325   4.160
 7620SOL     OW23758   3.762   4.054   1.217
 7620SOL    HW123759   3.795   4.076   1.309
 7620SOL    HW223760   3.694   3.982   1.222
 7621SOL     OW23761   0.509   5.699   1.024
 7621SOL    HW123762   0.425   5.738   0.985
 7621SOL    HW223763   0.489   5.607   1.059
 7622SOL     OW23764   3.974   4.668   0.755
 7622SOL    HW123765   4.063   4.703   0.728
 7622SOL    HW223766   3.933   4.617   0.680
 7623SOL     OW23767   4.663   5.106   1.490
 7623SOL    HW123768   4.751   5.152   1.505
 7623SOL    HW223769   4.663   5.061   1.401
 7624SOL     OW23770   0.351   2.655   2.006
 7624SOL    HW123771   0.434   2.603   1.987
 7624SOL    HW223772   0.315   2.694   1.922
 7625SOL     OW23773   5.377   2.255   0.078
 7625SOL    HW123774   5.442   2.327   0.101
 7625SOL    HW223775   5.303   2.253   0.146
 7626SOL     OW23776   5.406   0.368   4.985
 7626SOL    HW123777   5.315   0.360   4.944
 7626SOL    HW223778   5.418   0.461   5.021
 7627SOL     OW23779   2.682   1.558   0.164
 7627SOL    HW123780   2.741   1.612   0.103
 7627SOL    HW223781   2.588   1.590   0.156
 7628SOL     OW23782   3.664   2.490   0.519
 7628SOL    HW123783   3.569   2.477   0.544
 7628SOL    HW223784   3.723   2.453   0.591
 7629SOL     OW23785   6.003   3.166   4.157
 7629SOL    HW123786   5.984   3.217   4.241
 7629SOL    HW223787   5.943   3.198   4.084
 7630SOL     OW23788   1.756   0.393   5.044
 7630SOL    HW123789   1.721   0.352   5.128
 7630SOL    HW223790   1.701   0.362   4.967
 7631SOL     OW23791   1.909   0.098   5.369
 7631SOL    HW123792   1.998   0.135   5.341
 7631SOL    HW223793   1.849   0.173   5.396
 7632SOL     OW23794   4.448   5.519   1.006
 7632SOL    HW123795   4.412   5.537   1.098
 7632SOL    HW223796   4.534   5.568   0.993
 7633SOL     OW23797   6.062   0.838   0.907
 7633SOL    HW123798   5.975   0.793   0.923
 7633SOL    HW223799   6.069   0.919   0.965
 7634SOL     OW23800   1.064   1.901   0.523
 7634SOL    HW123801   1.075   1.997   0.498
 7634SOL    HW223802   0.984   1.863   0.475
 7635SOL     OW23803   2.822   5.152   5.684
 7635SOL    HW123804   2.913   5.156   5.727
 7635SOL    HW223805   2.829   5.183   5.589
 7636SOL     OW23806   0.662   4.138   4.936
 7636SOL    HW123807   0.595   4.087   4.989
 7636SOL    HW223808   0.755   4.111   4.964
 7637SOL     OW23809   0.225   6.293   4.409
 7637SOL    HW123810   0.261   6.386   4.400
 7637SOL    HW223811   0.133   6.297   4.448
 7638SOL     OW23812   0.927   5.673   1.766
 7638SOL    HW123813   0.873   5.756   1.776
 7638SOL    HW223814   1.013   5.694   1.719
 7639SOL     OW23815   1.081   1.293   0.254
 7639SOL    HW123816   1.015   1.221   0.234
 7639SOL    HW223817   1.158   1.286   0.191
 7640SOL     OW23818   3.189   1.141   6.580
 7640SOL    HW123819   3.136   1.219   6.545
 7640SOL    HW223820   3.226   1.164   6.670
 7641SOL     OW23821   6.909   3.969   2.817
 7641SOL    HW123822   6.977   3.993   2.886
 7641SOL    HW223823   6.950   3.905   2.751
 7642SOL     OW23824   5.925   1.743   3.193
 7642SOL    HW123825   5.935   1.779   3.285
 7642SOL    HW223826   5.985   1.664   3.181
 7643SOL     OW23827   4.761   2.914   2.945
 7643SOL    HW123828   4.726   3.003   2.974
 7643SOL    HW223829   4.783   2.859   3.025
 7644SOL     OW23830   4.915   3.217   1.643
 7644SOL    HW123831   4.834   3.217   1.584
 7644SOL    HW223832   4.962   3.129   1.635
 7645SOL     OW23833   3.472   3.736   6.389
 7645SOL    HW123834   3.416   3.738   6.305
 7645SOL    HW223835   3.480   3.829   6.425
 7646SOL     OW23836   0.959   2.414   2.722
 7646SOL    HW123837   0.967   2.359   2.639
 7646SOL    HW223838   0.863   2.418   2.750
 7647SOL     OW23839   0.097   2.981   5.228
 7647SOL    HW123840   0.072   2.997   5.323
 7647SOL    HW223841   0.058   3.054   5.171
 7648SOL     OW23842   2.295   2.199   2.973
 7648SOL    HW123843   2.340   2.109   2.975
 7648SOL    HW223844   2.354   2.265   2.926
 7649SOL     OW23845   6.631   0.640   5.082
 7649SOL    HW123846   6.712   0.581   5.074
 7649SOL    HW223847   6.632   0.684   5.172
 7650SOL     OW23848   4.227   0.831   1.674
 7650SOL    HW123849   4.262   0.861   1.586
 7650SOL    HW223850   4.166   0.900   1.712
 7651SOL     OW23851   2.499   5.015   4.941
 7651SOL    HW123852   2.573   4.999   4.876
 7651SOL    HW223853   2.419   4.959   4.916
 7652SOL     OW23854   5.575   1.481   4.560
 7652SOL    HW123855   5.480   1.513   4.561
 7652SOL    HW223856   5.596   1.437   4.647
 7653SOL     OW23857   0.536   2.029   6.692
 7653SOL    HW123858   0.441   2.060   6.686
 7653SOL    HW223859   0.593   2.086   6.631
 7654SOL     OW23860   6.086   3.294   5.360
 7654SOL    HW123861   6.146   3.274   5.282
 7654SOL    HW223862   6.135   3.280   5.445
 7655SOL     OW23863   2.671   0.567   3.503
 7655SOL    HW123864   2.578   0.568   3.465
 7655SOL    HW223865   2.711   0.658   3.494
 7656SOL     OW23866   6.906   3.751   6.956
 7656SOL    HW123867   6.993   3.794   6.935
 7656SOL    HW223868   6.916   3.651   6.953
 7657SOL     OW23869   1.512   3.627   4.955
 7657SOL    HW123870   1.574   3.577   5.015
 7657SOL    HW223871   1.559   3.708   4.919
 7658SOL     OW23872   2.203   0.532   0.650
 7658SOL    HW123873   2.128   0.470   0.673
 7658SOL    HW223874   2.175   0.593   0.576
 7659SOL     OW23875   4.449   3.994   5.475
 7659SOL    HW123876   4.378   4.032   5.535
 7659SOL    HW223877   4.480   4.064   5.411
 7660SOL     OW23878   6.439   4.729   4.208
 7660SOL    HW123879   6.375   4.658   4.177
 7660SOL    HW223880   6.402   4.819   4.186
 7661SOL     OW23881   4.780   2.529   5.600
 7661SOL    HW123882   4.718   2.574   5.536
 7661SOL    HW223883   4.842   2.598   5.640
 7662SOL     OW23884   1.079   2.018   2.060
 7662SOL    HW123885   1.090   2.116   2.047
 7662SOL    HW223886   1.055   1.975   1.972
 7663SOL     OW23887   6.183   5.061   5.559
 7663SOL    HW123888   6.216   5.083   5.468
 7663SOL    HW223889   6.176   5.144   5.613
 7664SOL     OW23890   3.875   1.722   3.197
 7664SOL    HW123891   3.866   1.803   3.254
 7664SOL    HW223892   3.970   1.690   3.200
 7665SOL     OW23893   4.390   1.708   4.458
 7665SOL    HW123894   4.433   1.787   4.414
 7665SOL    HW223895   4.435   1.689   4.545
 7666SOL     OW23896   6.086   5.710   3.505
 7666SOL    HW123897   6.108   5.717   3.408
 7666SOL    HW223898   5.991   5.678   3.515
 7667SOL     OW23899   4.914   6.135   2.454
 7667SOL    HW123900   4.983   6.068   2.425
 7667SOL    HW223901   4.848   6.091   2.515
 7668SOL     OW23902   2.123   5.210   1.341
 7668SOL    HW123903   2.208   5.159   1.349
 7668SOL    HW223904   2.130   5.296   1.391
 7669SOL     OW23905   2.905   6.525   5.874
 7669SOL    HW123906   2.993   6.570   5.861
 7669SOL    HW223907   2.833   6.595   5.877
 7670SOL     OW23908   0.353   6.419   0.007
 7670SOL    HW123909   0.277   6.484   0.014
 7670SOL    HW223910   0.396   6.409   0.097
 7671SOL     OW23911   5.085   1.054   1.440
 7671SOL    HW123912   5.026   1.132   1.419
 7671SOL    HW223913   5.181   1.079   1.425
 7672SOL     OW23914   5.069   4.551   2.654
 7672SOL    HW123915   5.042   4.460   2.625
 7672SOL    HW223916   5.168   4.554   2.669
 7673SOL     OW23917   0.777   5.141   3.862
 7673SOL    HW123918   0.793   5.233   3.827
 7673SOL    HW223919   0.845   5.119   3.932
 7674SOL     OW23920   4.084   0.172   4.675
 7674SOL    HW123921   4.013   0.170   4.604
 7674SOL    HW223922   4.067   0.100   4.742
 7675SOL     OW23923   3.514   6.633   2.572
 7675SOL    HW123924   3.447   6.560   2.557
 7675SOL    HW223925   3.469   6.711   2.616
 7676SOL     OW23926   2.978   2.942   5.731
 7676SOL    HW123927   3.064   2.916   5.687
 7676SOL    HW223928   2.973   3.042   5.738
 7677SOL     OW23929   5.977   4.639   1.694
 7677SOL    HW123930   5.984   4.551   1.646
 7677SOL    HW223931   5.957   4.711   1.628
 7678SOL     OW23932   1.248   1.514   5.774
 7678SOL    HW123933   1.169   1.576   5.775
 7678SOL    HW223934   1.310   1.540   5.700
 7679SOL     OW23935   1.821   5.335   5.077
 7679SOL    HW123936   1.855   5.429   5.071
 7679SOL    HW223937   1.812   5.309   5.173
 7680SOL     OW23938   1.605   0.625   5.326
 7680SOL    HW123939   1.606   0.601   5.229
 7680SOL    HW223940   1.697   0.654   5.354
 7681SOL     OW23941   2.629   3.196   6.489
 7681SOL    HW123942   2.602   3.186   6.585
 7681SOL    HW223943   2.565   3.258   6.443
 7682SOL     OW23944   2.733   2.058   3.373
 7682SOL    HW123945   2.719   2.133   3.307
 7682SOL    HW223946   2.694   1.974   3.336
 7683SOL     OW23947   0.292   1.130   4.726
 7683SOL    HW123948   0.325   1.202   4.787
 7683SOL    HW223949   0.209   1.161   4.680
 7684SOL     OW23950   4.155   2.232   1.637
 7684SOL    HW123951   4.100   2.243   1.554
 7684SOL    HW223952   4.152   2.136   1.665
 7685SOL     OW23953   3.056   0.963   0.420
 7685SOL    HW123954   3.098   0.990   0.507
 7685SOL    HW223955   2.957   0.975   0.427
 7686SOL     OW23956   5.477   0.835   4.105
 7686SOL    HW123957   5.547   0.853   4.174
 7686SOL    HW223958   5.520   0.829   4.015
 7687SOL     OW23959   5.876   5.466   4.848
 7687SOL    HW123960   5.874   5.460   4.748
 7687SOL    HW223961   5.834   5.384   4.887
 7688SOL     OW23962   1.105   5.195   6.464
 7688SOL    HW123963   1.145   5.254   6.533
 7688SOL    HW223964   1.154   5.108   6.462
 7689SOL     OW23965   4.524   0.288   2.121
 7689SOL    HW123966   4.553   0.246   2.035
 7689SOL    HW223967   4.463   0.365   2.103
 7690SOL     OW23968   6.427   4.885   0.662
 7690SOL    HW123969   6.343   4.885   0.609
 7690SOL    HW223970   6.478   4.969   0.644
 7691SOL     OW23971   4.594   4.655   3.362
 7691SOL    HW123972   4.664   4.670   3.292
 7691SOL    HW223973   4.582   4.557   3.376
 7692SOL     OW23974   1.249   6.638   2.281
 7692SOL    HW123975   1.200   6.630   2.194
 7692SOL    HW223976   1.339   6.596   2.273
 7693SOL     OW23977   2.749   1.143   1.111
 7693SOL    HW123978   2.664   1.147   1.059
 7693SOL    HW223979   2.766   1.232   1.153
 7694SOL     OW23980   6.135   2.365   4.903
 7694SOL    HW123981   6.114   2.300   4.977
 7694SOL    HW223982   6.066   2.357   4.832
 7695SOL     OW23983   6.501   0.464   2.831
 7695SOL    HW123984   6.402   0.453   2.822
 7695SOL    HW223985   6.524   0.562   2.831
 7696SOL     OW23986   0.487   2.727   6.868
 7696SOL    HW123987   0.402   2.689   6.904
 7696SOL    HW223988   0.485   2.826   6.876
 7697SOL     OW23989   3.999   0.498   2.778
 7697SOL    HW123990   4.018   0.575   2.838
 7697SOL    HW223991   3.941   0.432   2.827
 7698SOL     OW23992   6.548   1.763   6.721
 7698SOL    HW123993   6.484   1.727   6.789
 7698SOL    HW223994   6.615   1.821   6.767
 7699SOL     OW23995   3.429   5.452   6.040
 7699SOL    HW123996   3.413   5.361   6.079
 7699SOL    HW223997   3.347   5.484   5.993
 7700SOL     OW23998   4.923   5.786   2.810
 7700SOL    HW123999   4.834   5.769   2.768
 7700SOL    HW224000   4.989   5.719   2.776
 7701SOL     OW24001   0.025   2.396   5.782
 7701SOL    HW124002   0.091   2.394   5.856
 7701SOL    HW224003   6.978   2.466   5.802
 7702SOL     OW24004   4.259   0.036   4.385
 7702SOL    HW124005   4.221   6.993   4.320
 7702SOL    HW224006   4.288   0.119   4.336
 7703SOL     OW24007   6.787   6.830   4.549
 7703SOL    HW124008   6.759   6.875   4.464
 7703SOL    HW224009   6.809   6.735   4.530
 7704SOL     OW24010   6.079   1.324   4.136
 7704SOL    HW124011   6.112   1.327   4.231
 7704SOL    HW224012   6.063   1.417   4.104
 7705SOL     OW24013   2.223   4.858   0.499
 7705SOL    HW124014   2.142   4.872   0.555
 7705SOL    HW224015   2.267   4.771   0.523
 7706SOL     OW24016   3.606   3.138   2.327
 7706SOL    HW124017   3.633   3.046   2.352
 7706SOL    HW224018   3.588   3.142   2.229
 7707SOL     OW24019   6.946   5.880   6.678
 7707SOL    HW124020   6.916   5.933   6.598
 7707SOL    HW224021   6.867   5.835   6.719
 7708SOL     OW24022   2.238   6.814   4.959
 7708SOL    HW124023   2.187   6.792   4.876
 7708SOL    HW224024   2.229   6.740   5.025
 7709SOL     OW24025   0.032   4.794   1.265
 7709SOL    HW124026   0.005   4.797   1.361
 7709SOL    HW224027   6.973   4.790   1.207
 7710SOL     OW24028   1.787   3.341   0.668
 7710SOL    HW124029   1.694   3.304   0.668
 7710SOL    HW224030   1.819   3.351   0.574
 7711SOL     OW24031   6.171   4.347   5.435
 7711SOL    HW124032   6.084   4.326   5.391
 7711SOL    HW224033   6.239   4.371   5.366
 7712SOL     OW24034   6.652   4.567   6.058
 7712SOL    HW124035   6.586   4.611   5.997
 7712SOL    HW224036   6.745   4.591   6.030
 7713SOL     OW24037   1.755   5.159   0.422
 7713SOL    HW124038   1.703   5.201   0.348
 7713SOL    HW224039   1.806   5.081   0.387
 7714SOL     OW24040   6.681   0.577   4.599
 7714SOL    HW124041   6.753   0.575   4.669
 7714SOL    HW224042   6.683   0.493   4.546
 7715SOL     OW24043   2.156   2.573   5.685
 7715SOL    HW124044   2.071   2.602   5.641
 7715SOL    HW224045   2.163   2.616   5.775
 7716SOL     OW24046   0.947   5.374   6.037
 7716SOL    HW124047   0.921   5.410   6.127
 7716SOL    HW224048   0.995   5.287   6.048
 7717SOL     OW24049   1.673   1.738   6.740
 7717SOL    HW124050   1.649   1.689   6.656
 7717SOL    HW224051   1.607   1.812   6.756
 7718SOL     OW24052   1.479   4.380   2.713
 7718SOL    HW124053   1.517   4.407   2.801
 7718SOL    HW224054   1.392   4.334   2.727
 7719SOL     OW24055   1.916   3.724   4.598
 7719SOL    HW124056   1.941   3.810   4.553
 7719SOL    HW224057   1.874   3.743   4.686
 7720SOL     OW24058   6.561   1.526   6.391
 7720SOL    HW124059   6.655   1.494   6.395
 7720SOL    HW224060   6.501   1.462   6.439
 7721SOL     OW24061   0.838   0.669   2.667
 7721SOL    HW124062   0.919   0.615   2.643
 7721SOL    HW224063   0.818   0.733   2.592
 7722SOL     OW24064   2.119   5.850   4.011
 7722SOL    HW124065   2.080   5.795   3.937
 7722SOL    HW224066   2.045   5.893   4.063
 7723SOL     OW24067   4.787   3.843   0.457
 7723SOL    HW124068   4.709   3.821   0.516
 7723SOL    HW224069   4.842   3.760   0.442
 7724SOL     OW24070   2.738   4.110   1.592
 7724SOL    HW124071   2.718   4.161   1.508
 7724SOL    HW224072   2.700   4.018   1.585
 7725SOL     OW24073   5.530   3.240   3.274
 7725SOL    HW124074   5.443   3.253   3.228
 7725SOL    HW224075   5.604   3.243   3.207
 7726SOL     OW24076   0.191   3.524   6.267
 7726SOL    HW124077   0.202   3.471   6.182
 7726SOL    HW224078   0.264   3.592   6.273
 7727SOL     OW24079   4.617   2.407   2.150
 7727SOL    HW124080   4.616   2.482   2.216
 7727SOL    HW224081   4.585   2.323   2.195
 7728SOL     OW24082   2.223   3.192   5.017
 7728SOL    HW124083   2.279   3.117   5.051
 7728SOL    HW224084   2.280   3.255   4.964
 7729SOL     OW24085   5.633   2.285   3.615
 7729SOL    HW124086   5.660   2.365   3.667
 7729SOL    HW224087   5.675   2.203   3.654
 7730SOL     OW24088   6.563   4.430   5.028
 7730SOL    HW124089   6.484   4.398   5.080
 7730SOL    HW224090   6.617   4.493   5.084
 7731SOL     OW24091   5.682   6.873   0.616
 7731SOL    HW124092   5.764   6.820   0.636
 7731SOL    HW224093   5.605   6.811   0.601
 7732SOL     OW24094   4.501   0.406   6.420
 7732SOL    HW124095   4.413   0.372   6.452
 7732SOL    HW224096   4.488   0.459   6.336
 7733SOL     OW24097   6.606   6.183   1.877
 7733SOL    HW124098   6.615   6.215   1.972
 7733SOL    HW224099   6.547   6.245   1.826
 7734SOL     OW24100   3.192   4.100   5.332
 7734SOL    HW124101   3.183   4.016   5.280
 7734SOL    HW224102   3.136   4.172   5.290
 7735SOL     OW24103   6.648   6.229   0.131
 7735SOL    HW124104   6.668   6.136   0.101
 7735SOL    HW224105   6.727   6.287   0.112
 7736SOL     OW24106   3.308   2.949   0.425
 7736SOL    HW124107   3.304   2.966   0.523
 7736SOL    HW224108   3.215   2.937   0.389
 7737SOL     OW24109   4.145   4.763   1.429
 7737SOL    HW124110   4.057   4.805   1.407
 7737SOL    HW224111   4.179   4.713   1.349
 7738SOL     OW24112   2.639   6.455   6.870
 7738SOL    HW124113   2.704   6.470   6.796
 7738SOL    HW224114   2.551   6.425   6.833
 7739SOL     OW24115   1.292   2.232   1.128
 7739SOL    HW124116   1.362   2.302   1.140
 7739SOL    HW224117   1.246   2.245   1.040
 7740SOL     OW24118   1.084   1.125   4.036
 7740SOL    HW124119   1.059   1.203   3.979
 7740SOL    HW224120   1.099   1.157   4.130
 7741SOL     OW24121   1.726   4.707   6.452
 7741SOL    HW124122   1.792   4.636   6.477
 7741SOL    HW224123   1.685   4.684   6.364
 7742SOL     OW24124   3.606   1.479   3.977
 7742SOL    HW124125   3.644   1.566   4.008
 7742SOL    HW224126   3.536   1.448   4.041
 7743SOL     OW24127   5.340   1.263   6.166
 7743SOL    HW124128   5.245   1.289   6.185
 7743SOL    HW224129   5.401   1.330   6.207
 7744SOL     OW24130   0.821   5.767   4.608
 7744SOL    HW124131   0.816   5.864   4.631
 7744SOL    HW224132   0.883   5.721   4.671
 7745SOL     OW24133   1.815   6.346   0.101
 7745SOL    HW124134   1.822   6.440   0.136
 7745SOL    HW224135   1.889   6.330   0.036
 7746SOL     OW24136   1.328   6.495   1.017
 7746SOL    HW124137   1.285   6.496   0.927
 7746SOL    HW224138   1.427   6.504   1.007
 7747SOL     OW24139   0.468   5.914   0.742
 7747SOL    HW124140   0.391   5.864   0.781
 7747SOL    HW224141   0.478   5.891   0.646
 7748SOL     OW24142   4.165   2.851   5.691
 7748SOL    HW124143   4.095   2.920   5.672
 7748SOL    HW224144   4.129   2.760   5.672
 7749SOL     OW24145   3.666   3.406   4.023
 7749SOL    HW124146   3.654   3.315   3.983
 7749SOL    HW224147   3.581   3.457   4.015
 7750SOL     OW24148   6.032   4.835   5.498
 7750SOL    HW124149   6.038   4.782   5.582
 7750SOL    HW224150   6.071   4.926   5.512
 7751SOL     OW24151   0.126   1.185   5.064
 7751SOL    HW124152   0.117   1.222   4.971
 7751SOL    HW224153   0.148   1.088   5.058
 7752SOL     OW24154   6.065   5.465   5.154
 7752SOL    HW124155   6.105   5.463   5.063
 7752SOL    HW224156   6.138   5.459   5.223
 7753SOL     OW24157   1.881   0.955   4.241
 7753SOL    HW124158   1.939   0.924   4.315
 7753SOL    HW224159   1.792   0.982   4.277
 7754SOL     OW24160   5.710   0.291   1.016
 7754SOL    HW124161   5.679   0.260   0.926
 7754SOL    HW224162   5.660   0.241   1.087
 7755SOL     OW24163   0.289   6.103   4.899
 7755SOL    HW124164   0.204   6.124   4.947
 7755SOL    HW224165   0.364   6.158   4.937
 7756SOL     OW24166   2.757   4.946   2.215
 7756SOL    HW124167   2.800   4.909   2.133
 7756SOL    HW224168   2.812   4.923   2.295
 7757SOL     OW24169   4.684   6.307   5.495
 7757SOL    HW124170   4.701   6.378   5.563
 7757SOL    HW224171   4.626   6.344   5.422
 7758SOL     OW24172   2.398   2.283   6.108
 7758SOL    HW124173   2.465   2.351   6.081
 7758SOL    HW224174   2.325   2.279   6.040
 7759SOL     OW24175   2.238   0.298   4.261
 7759SOL    HW124176   2.258   0.393   4.237
 7759SOL    HW224177   2.274   0.278   4.352
 7760SOL     OW24178   5.332   3.032   2.024
 7760SOL    HW124179   5.267   3.106   2.036
 7760SOL    HW224180   5.396   3.056   1.951
 7761SOL     OW24181   2.875   6.778   6.442
 7761SOL    HW124182   2.938   6.722   6.496
 7761SOL    HW224183   2.883   6.754   6.345
 7762SOL     OW24184   4.226   1.539   0.320
 7762SOL    HW124185   4.267   1.528   0.230
 7762SOL    HW224186   4.223   1.636   0.344
 7763SOL     OW24187   1.723   1.970   1.064
 7763SOL    HW124188   1.652   2.014   1.009
 7763SOL    HW224189   1.810   1.976   1.016
 7764SOL     OW24190   3.868   2.963   2.238
 7764SOL    HW124191   3.908   3.054   2.226
 7764SOL    HW224192   3.892   2.929   2.329
 7765SOL     OW24193   6.197   3.418   3.026
 7765SOL    HW124194   6.242   3.333   2.999
 7765SOL    HW224195   6.175   3.471   2.944
 7766SOL     OW24196   6.200   1.674   6.819
 7766SOL    HW124197   6.103   1.668   6.845
 7766SOL    HW224198   6.246   1.739   6.879
 7767SOL     OW24199   3.799   6.274   4.047
 7767SOL    HW124200   3.763   6.332   4.120
 7767SOL    HW224201   3.729   6.265   3.975
 7768SOL     OW24202   3.691   4.981   2.173
 7768SOL    HW124203   3.662   4.903   2.117
 7768SOL    HW224204   3.616   5.047   2.181
 7769SOL     OW24205   5.172   1.943   0.823
 7769SOL    HW124206   5.106   1.922   0.895
 7769SOL    HW224207   5.217   1.859   0.793
 7770SOL     OW24208   2.995   4.722   1.424
 7770SOL    HW124209   2.907   4.674   1.426
 7770SOL    HW224210   3.060   4.675   1.483
 7771SOL     OW24211   2.832   2.037   5.264
 7771SOL    HW124212   2.733   2.053   5.273
 7771SOL    HW224213   2.868   2.093   5.190
 7772SOL     OW24214   4.691   0.875   4.070
 7772SOL    HW124215   4.689   0.864   4.170
 7772SOL    HW224216   4.654   0.965   4.046
 7773SOL     OW24217   4.404   3.778   5.734
 7773SOL    HW124218   4.494   3.757   5.773
 7773SOL    HW224219   4.416   3.814   5.642
 7774SOL     OW24220   5.591   1.649   6.395
 7774SOL    HW124221   5.495   1.673   6.408
 7774SOL    HW224222   5.611   1.564   6.444
 7775SOL     OW24223   3.560   6.975   2.551
 7775SOL    HW124224   3.578   6.913   2.475
 7775SOL    HW224225   3.519   6.923   2.626
 7776SOL     OW24226   3.776   3.306   6.255
 7776SOL    HW124227   3.677   3.292   6.253
 7776SOL    HW224228   3.802   3.373   6.185
 7777SOL     OW24229   2.447   1.277   6.668
 7777SOL    HW124230   2.460   1.337   6.589
 7777SOL    HW224231   2.350   1.253   6.675
 7778SOL     OW24232   5.781   0.009   6.647
 7778SOL    HW124233   5.790   6.980   6.562
 7778SOL    HW224234   5.748   0.101   6.627
 7779SOL     OW24235   3.654   2.375   0.925
 7779SOL    HW124236   3.631   2.319   1.005
 7779SOL    HW224237   3.676   2.316   0.848
 7780SOL     OW24238   1.277   6.371   4.113
 7780SOL    HW124239   1.200   6.326   4.067
 7780SOL    HW224240   1.353   6.379   4.049
 7781SOL     OW24241   1.555   3.561   5.813
 7781SOL    HW124242   1.599   3.498   5.748
 7781SOL    HW224243   1.597   3.550   5.903
 7782SOL     OW24244   2.461   3.930   6.594
 7782SOL    HW124245   2.490   3.838   6.623
 7782SOL    HW224246   2.508   3.954   6.509
 7783SOL     OW24247   2.390   6.388   6.763
 7783SOL    HW124248   2.324   6.357   6.831
 7783SOL    HW224249   2.366   6.480   6.732
 7784SOL     OW24250   0.881   2.762   7.020
 7784SOL    HW124251   0.821   2.842   7.020
 7784SOL    HW224252   0.940   2.764   6.940
 7785SOL     OW24253   2.186   6.576   4.315
 7785SOL    HW124254   2.207   6.512   4.241
 7785SOL    HW224255   2.230   6.664   4.297
 7786SOL     OW24256   3.133   4.689   5.337
 7786SOL    HW124257   3.080   4.713   5.418
 7786SOL    HW224258   3.071   4.657   5.265
 7787SOL     OW24259   2.300   2.932   4.811
 7787SOL    HW124260   2.345   2.939   4.900
 7787SOL    HW224261   2.362   2.888   4.745
 7788SOL     OW24262   1.105   1.686   1.577
 7788SOL    HW124263   1.141   1.778   1.585
 7788SOL    HW224264   1.092   1.663   1.480
 7789SOL     OW24265   2.606   0.271   1.133
 7789SOL    HW124266   2.624   0.305   1.041
 7789SOL    HW224267   2.591   0.348   1.194
 7790SOL     OW24268   6.597   4.016   3.127
 7790SOL    HW124269   6.544   3.995   3.209
 7790SOL    HW224270   6.590   4.114   3.107
 7791SOL     OW24271   2.752   5.200   4.655
 7791SOL    HW124272   2.744   5.105   4.687
 7791SOL    HW224273   2.677   5.254   4.693
 7792SOL     OW24274   2.370   6.272   6.388
 7792SOL    HW124275   2.347   6.255   6.293
 7792SOL    HW224276   2.393   6.186   6.433
 7793SOL     OW24277   1.460   1.111   5.951
 7793SOL    HW124278   1.420   1.193   5.909
 7793SOL    HW224279   1.392   1.068   6.010
 7794SOL     OW24280   5.166   5.651   4.537
 7794SOL    HW124281   5.103   5.697   4.474
 7794SOL    HW224282   5.239   5.714   4.563
 7795SOL     OW24283   2.054   3.960   5.510
 7795SOL    HW124284   1.969   4.006   5.485
 7795SOL    HW224285   2.034   3.882   5.569
 7796SOL     OW24286   3.819   3.871   3.354
 7796SOL    HW124287   3.743   3.880   3.418
 7796SOL    HW224288   3.905   3.885   3.403
 7797SOL     OW24289   0.182   6.415   2.987
 7797SOL    HW124290   0.147   6.374   2.903
 7797SOL    HW224291   0.280   6.398   2.993
 7798SOL     OW24292   3.604   5.268   0.266
 7798SOL    HW124293   3.683   5.210   0.243
 7798SOL    HW224294   3.627   5.364   0.250
 7799SOL     OW24295   0.074   5.633   1.064
 7799SOL    HW124296   0.063   5.730   1.086
 7799SOL    HW224297   7.009   5.595   1.035
 7800SOL     OW24298   0.228   4.761   1.856
 7800SOL    HW124299   0.201   4.803   1.769
 7800SOL    HW224300   0.326   4.740   1.854
 7801SOL     OW24301   2.305   1.523   0.422
 7801SOL    HW124302   2.365   1.599   0.447
 7801SOL    HW224303   2.357   1.437   0.425
 7802SOL     OW24304   5.810   2.550   1.560
 7802SOL    HW124305   5.806   2.623   1.629
 7802SOL    HW224306   5.866   2.475   1.595
 7803SOL     OW24307   3.889   3.805   5.731
 7803SOL    HW124308   3.881   3.887   5.674
 7803SOL    HW224309   3.907   3.725   5.674
 7804SOL     OW24310   5.275   1.535   4.860
 7804SOL    HW124311   5.261   1.578   4.949
 7804SOL    HW224312   5.267   1.435   4.869
 7805SOL     OW24313   5.362   2.485   2.326
 7805SOL    HW124314   5.441   2.524   2.279
 7805SOL    HW224315   5.353   2.525   2.417
 7806SOL     OW24316   5.266   2.919   6.074
 7806SOL    HW124317   5.343   2.886   6.128
 7806SOL    HW224318   5.181   2.898   6.122
 7807SOL     OW24319   0.016   4.605   6.491
 7807SOL    HW124320   6.971   4.541   6.454
 7807SOL    HW224321   0.096   4.605   6.432
 7808SOL     OW24322   0.382   1.336   4.876
 7808SOL    HW124323   0.463   1.339   4.817
 7808SOL    HW224324   0.410   1.316   4.969
 7809SOL     OW24325   2.173   5.415   4.373
 7809SOL    HW124326   2.197   5.472   4.294
 7809SOL    HW224327   2.204   5.460   4.457
 7810SOL     OW24328   3.120   0.684   5.672
 7810SOL    HW124329   3.043   0.735   5.708
 7810SOL    HW224330   3.170   0.640   5.747
 7811SOL     OW24331   5.158   4.846   3.391
 7811SOL    HW124332   5.179   4.938   3.422
 7811SOL    HW224333   5.214   4.780   3.441
 7812SOL     OW24334   1.729   1.773   4.417
 7812SOL    HW124335   1.806   1.710   4.422
 7812SOL    HW224336   1.743   1.848   4.482
 7813SOL     OW24337   6.003   2.917   6.666
 7813SOL    HW124338   6.079   2.868   6.624
 7813SOL    HW224339   6.039   2.993   6.720
 7814SOL     OW24340   6.897   2.951   3.476
 7814SOL    HW124341   6.955   2.941   3.557
 7814SOL    HW224342   6.801   2.956   3.503
 7815SOL     OW24343   5.650   1.731   6.839
 7815SOL    HW124344   5.625   1.804   6.902
 7815SOL    HW224345   5.640   1.763   6.745
 7816SOL     OW24346   0.563   3.604   5.659
 7816SOL    HW124347   0.645   3.592   5.714
 7816SOL    HW224348   0.558   3.532   5.590
 7817SOL     OW24349   5.583   4.355   4.519
 7817SOL    HW124350   5.600   4.378   4.423
 7817SOL    HW224351   5.670   4.330   4.562
 7818SOL     OW24352   6.422   6.546   1.447
 7818SOL    HW124353   6.397   6.582   1.358
 7818SOL    HW224354   6.397   6.612   1.518
 7819SOL     OW24355   6.892   2.648   1.412
 7819SOL    HW124356   6.808   2.674   1.461
 7819SOL    HW224357   6.887   2.552   1.384
 7820SOL     OW24358   1.815   1.825   6.006
 7820SOL    HW124359   1.773   1.778   6.084
 7820SOL    HW224360   1.830   1.921   6.029
 7821SOL     OW24361   3.811   5.733   1.045
 7821SOL    HW124362   3.827   5.688   1.134
 7821SOL    HW224363   3.887   5.714   0.984
 7822SOL     OW24364   0.929   5.766   5.074
 7822SOL    HW124365   1.001   5.827   5.040
 7822SOL    HW224366   0.900   5.795   5.165
 7823SOL     OW24367   2.230   4.230   5.010
 7823SOL    HW124368   2.233   4.133   5.036
 7823SOL    HW224369   2.200   4.285   5.088
 7824SOL     OW24370   0.115   2.561   5.322
 7824SOL    HW124371   0.136   2.546   5.225
 7824SOL    HW224372   0.056   2.488   5.355
 7825SOL     OW24373   2.239   2.122   6.562
 7825SOL    HW124374   2.266   2.030   6.590
 7825SOL    HW224375   2.140   2.128   6.554
 7826SOL     OW24376   6.545   2.460   6.933
 7826SOL    HW124377   6.529   2.383   6.995
 7826SOL    HW224378   6.549   2.545   6.986
 7827SOL     OW24379   6.713   6.234   2.734
 7827SOL    HW124380   6.705   6.334   2.731
 7827SOL    HW224381   6.623   6.193   2.719
 7828SOL     OW24382   7.017   3.506   6.935
 7828SOL    HW124383   0.023   3.414   6.958
 7828SOL    HW224384   0.059   3.546   6.870
 7829SOL     OW24385   3.458   2.830   1.557
 7829SOL    HW124386   3.550   2.806   1.589
 7829SOL    HW224387   3.420   2.902   1.616
 7830SOL     OW24388   3.064   5.504   4.709
 7830SOL    HW124389   2.995   5.435   4.730
 7830SOL    HW224390   3.054   5.534   4.615
 7831SOL     OW24391   1.894   1.753   1.358
 7831SOL    HW124392   1.925   1.791   1.271
 7831SOL    HW224393   1.828   1.816   1.400
 7832SOL     OW24394   5.980   0.586   5.335
 7832SOL    HW124395   5.883   0.563   5.345
 7832SOL    HW224396   6.005   0.585   5.239
 7833SOL     OW24397   1.960   0.418   4.125
 7833SOL    HW124398   1.888   0.437   4.193
 7833SOL    HW224399   2.049   0.439   4.164
 7834SOL     OW24400   6.461   2.540   4.219
 7834SOL    HW124401   6.530   2.558   4.148
 7834SOL    HW224402   6.492   2.578   4.306
 7835SOL     OW24403   4.218   1.976   5.370
 7835SOL    HW124404   4.122   1.982   5.343
 7835SOL    HW224405   4.257   1.891   5.336
 7836SOL     OW24406   3.686   4.239   5.124
 7836SOL    HW124407   3.726   4.149   5.141
 7836SOL    HW224408   3.588   4.236   5.142
 7837SOL     OW24409   6.141   6.484   0.270
 7837SOL    HW124410   6.067   6.447   0.214
 7837SOL    HW224411   6.215   6.417   0.274
 7838SOL     OW24412   5.429   5.391   1.272
 7838SOL    HW124413   5.403   5.485   1.294
 7838SOL    HW224414   5.514   5.368   1.320
 7839SOL     OW24415   6.319   4.507   4.600
 7839SOL    HW124416   6.268   4.454   4.531
 7839SOL    HW224417   6.371   4.445   4.658
 7840SOL     OW24418   1.922   4.099   3.236
 7840SOL    HW124419   1.936   4.188   3.280
 7840SOL    HW224420   2.002   4.077   3.180
 7841SOL     OW24421   5.048   2.033   6.031
 7841SOL    HW124422   5.034   2.115   5.976
 7841SOL    HW224423   5.135   2.041   6.080
 7842SOL     OW24424   1.822   1.417   2.709
 7842SOL    HW124425   1.871   1.333   2.687
 7842SOL    HW224426   1.887   1.490   2.730
 7843SOL     OW24427   0.364   6.661   4.096
 7843SOL    HW124428   0.351   6.566   4.122
 7843SOL    HW224429   0.460   6.675   4.068
 7844SOL     OW24430   3.494   1.102   2.546
 7844SOL    HW124431   3.417   1.039   2.540
 7844SOL    HW224432   3.579   1.049   2.552
 7845SOL     OW24433   5.996   1.394   1.537
 7845SOL    HW124434   5.968   1.463   1.470
 7845SOL    HW224435   5.927   1.322   1.542
 7846SOL     OW24436   1.199   2.550   0.082
 7846SOL    HW124437   1.134   2.473   0.079
 7846SOL    HW224438   1.281   2.522   0.131
 7847SOL     OW24439   5.897   2.495   4.362
 7847SOL    HW124440   5.990   2.464   4.381
 7847SOL    HW224441   5.836   2.417   4.353
 7848SOL     OW24442   2.771   5.050   0.689
 7848SOL    HW124443   2.756   5.099   0.775
 7848SOL    HW224444   2.693   4.990   0.672
 7849SOL     OW24445   5.268   3.678   5.618
 7849SOL    HW124446   5.219   3.652   5.701
 7849SOL    HW224447   5.230   3.630   5.540
 7850SOL     OW24448   6.499   1.406   3.677
 7850SOL    HW124449   6.543   1.480   3.727
 7850SOL    HW224450   6.403   1.399   3.705
 7851SOL     OW24451   0.909   4.458   1.441
 7851SOL    HW124452   0.954   4.454   1.351
 7851SOL    HW224453   0.828   4.399   1.440
 7852SOL     OW24454   2.184   1.904   0.519
 7852SOL    HW124455   2.211   1.873   0.428
 7852SOL    HW224456   2.216   1.840   0.588
 7853SOL     OW24457   3.950   3.065   1.098
 7853SOL    HW124458   3.912   3.018   1.019
 7853SOL    HW224459   3.894   3.047   1.179
 7854SOL     OW24460   4.372   1.848   5.901
 7854SOL    HW124461   4.455   1.846   5.845
 7854SOL    HW224462   4.321   1.931   5.882
 7855SOL     OW24463   5.372   0.102   4.107
 7855SOL    HW124464   5.316   0.035   4.058
 7855SOL    HW224465   5.342   0.194   4.082
 7856SOL     OW24466   2.145   5.380   4.823
 7856SOL    HW124467   2.214   5.396   4.752
 7856SOL    HW224468   2.058   5.418   4.794
 7857SOL     OW24469   5.427   3.804   0.143
 7857SOL    HW124470   5.524   3.820   0.159
 7857SOL    HW224471   5.375   3.831   0.224
 7858SOL     OW24472   0.417   4.969   5.835
 7858SOL    HW124473   0.474   5.046   5.862
 7858SOL    HW224474   0.368   4.934   5.914
 7859SOL     OW24475   5.299   2.704   6.395
 7859SOL    HW124476   5.327   2.750   6.479
 7859SOL    HW224477   5.352   2.740   6.318
 7860SOL     OW24478   2.815   0.870   5.180
 7860SOL    HW124479   2.747   0.860   5.108
 7860SOL    HW224480   2.846   0.965   5.185
 7861SOL     OW24481   2.540   6.038   1.321
 7861SOL    HW124482   2.451   6.056   1.363
 7861SOL    HW224483   2.556   5.940   1.317
 7862SOL     OW24484   2.945   6.127   1.329
 7862SOL    HW124485   2.941   6.135   1.429
 7862SOL    HW224486   2.943   6.030   1.304
 7863SOL     OW24487   6.886   4.563   3.598
 7863SOL    HW124488   6.952   4.522   3.536
 7863SOL    HW224489   6.838   4.637   3.552
 7864SOL     OW24490   2.545   5.962   5.761
 7864SOL    HW124491   2.504   5.871   5.756
 7864SOL    HW224492   2.594   5.981   5.677
 7865SOL     OW24493   6.543   6.364   4.003
 7865SOL    HW124494   6.560   6.461   4.021
 7865SOL    HW224495   6.492   6.324   4.080
 7866SOL     OW24496   1.783   0.611   6.254
 7866SOL    HW124497   1.706   0.675   6.251
 7866SOL    HW224498   1.802   0.585   6.348
 7867SOL     OW24499   5.466   0.493   3.639
 7867SOL    HW124500   5.430   0.437   3.564
 7867SOL    HW224501   5.565   0.483   3.643
 7868SOL     OW24502   4.105   6.327   0.834
 7868SOL    HW124503   4.180   6.366   0.887
 7868SOL    HW224504   4.061   6.399   0.781
 7869SOL     OW24505   5.553   3.769   5.564
 7869SOL    HW124506   5.466   3.760   5.613
 7869SOL    HW224507   5.598   3.679   5.561
 7870SOL     OW24508   4.630   6.281   4.880
 7870SOL    HW124509   4.570   6.318   4.809
 7870SOL    HW224510   4.603   6.318   4.969
 7871SOL     OW24511   5.286   1.352   2.225
 7871SOL    HW124512   5.197   1.352   2.179
 7871SOL    HW224513   5.310   1.258   2.249
 7872SOL     OW24514   1.570   5.551   2.331
 7872SOL    HW124515   1.474   5.577   2.321
 7872SOL    HW224516   1.595   5.553   2.428
 7873SOL     OW24517   0.073   1.280   0.684
 7873SOL    HW124518   6.995   1.283   0.681
 7873SOL    HW224519   0.110   1.371   0.663
 7874SOL     OW24520   5.771   2.707   1.214
 7874SOL    HW124521   5.715   2.789   1.230
 7874SOL    HW224522   5.711   2.629   1.197
 7875SOL     OW24523   4.145   4.115   6.290
 7875SOL    HW124524   4.080   4.060   6.343
 7875SOL    HW224525   4.137   4.092   6.193
 7876SOL     OW24526   0.621   0.131   2.735
 7876SOL    HW124527   0.557   0.166   2.666
 7876SOL    HW224528   0.575   0.064   2.793
 7877SOL     OW24529   6.575   1.522   2.981
 7877SOL    HW124530   6.587   1.620   2.998
 7877SOL    HW224531   6.627   1.496   2.899
 7878SOL     OW24532   4.690   4.788   3.581
 7878SOL    HW124533   4.774   4.835   3.552
 7878SOL    HW224534   4.657   4.730   3.507
 7879SOL     OW24535   2.853   4.774   3.483
 7879SOL    HW124536   2.766   4.760   3.529
 7879SOL    HW224537   2.839   4.771   3.384
 7880SOL     OW24538   1.861   3.572   1.653
 7880SOL    HW124539   1.954   3.583   1.688
 7880SOL    HW224540   1.824   3.661   1.627
 7881SOL     OW24541   4.852   3.643   4.272
 7881SOL    HW124542   4.786   3.679   4.338
 7881SOL    HW224543   4.890   3.557   4.306
 7882SOL     OW24544   2.102   3.173   1.244
 7882SOL    HW124545   2.137   3.156   1.336
 7882SOL    HW224546   2.016   3.224   1.249
 7883SOL     OW24547   0.871   1.237   4.899
 7883SOL    HW124548   0.853   1.321   4.848
 7883SOL    HW224549   0.827   1.242   4.988
 7884SOL     OW24550   0.637   2.868   4.831
 7884SOL    HW124551   0.551   2.918   4.839
 7884SOL    HW224552   0.631   2.782   4.881
 7885SOL     OW24553   6.028   5.287   0.122
 7885SOL    HW124554   6.084   5.358   0.080
 7885SOL    HW224555   6.063   5.197   0.095
 7886SOL     OW24556   4.693   5.621   6.709
 7886SOL    HW124557   4.695   5.685   6.633
 7886SOL    HW224558   4.786   5.589   6.728
 7887SOL     OW24559   4.987   2.279   0.174
 7887SOL    HW124560   4.908   2.329   0.139
 7887SOL    HW224561   4.958   2.194   0.217
 7888SOL     OW24562   4.747   0.493   4.794
 7888SOL    HW124563   4.676   0.429   4.823
 7888SOL    HW224564   4.710   0.586   4.794
 7889SOL     OW24565   0.232   5.825   2.247
 7889SOL    HW124566   0.178   5.741   2.239
 7889SOL    HW224567   0.204   5.890   2.177
 7890SOL     OW24568   1.835   4.012   2.512
 7890SOL    HW124569   1.803   3.962   2.431
 7890SOL    HW224570   1.904   4.080   2.485
 7891SOL     OW24571   2.546   4.617   1.981
 7891SOL    HW124572   2.524   4.715   1.988
 7891SOL    HW224573   2.640   4.607   1.948
 7892SOL     OW24574   2.141   2.073   5.567
 7892SOL    HW124575   2.143   2.085   5.468
 7892SOL    HW224576   2.154   2.161   5.612
 7893SOL     OW24577   6.005   6.368   0.998
 7893SOL    HW124578   6.052   6.431   1.059
 7893SOL    HW224579   5.907   6.368   1.018
 7894SOL     OW24580   2.331   6.414   1.864
 7894SOL    HW124581   2.322   6.390   1.767
 7894SOL    HW224582   2.376   6.503   1.872
 7895SOL     OW24583   5.983   1.199   4.471
 7895SOL    HW124584   5.968   1.185   4.569
 7895SOL    HW224585   5.985   1.297   4.451
 7896SOL     OW24586   5.278   4.069   5.363
 7896SOL    HW124587   5.296   4.104   5.455
 7896SOL    HW224588   5.185   4.094   5.335
 7897SOL     OW24589   2.535   3.698   6.673
 7897SOL    HW124590   2.463   3.680   6.739
 7897SOL    HW224591   2.556   3.614   6.623
 7898SOL     OW24592   4.110   2.276   3.713
 7898SOL    HW124593   4.023   2.248   3.753
 7898SOL    HW224594   4.166   2.195   3.696
 7899SOL     OW24595   5.736   2.477   2.854
 7899SOL    HW124596   5.706   2.382   2.858
 7899SOL    HW224597   5.679   2.532   2.915
 7900SOL     OW24598   1.930   5.826   1.104
 7900SOL    HW124599   1.880   5.745   1.134
 7900SOL    HW224600   2.000   5.799   1.038
 7901SOL     OW24601   6.566   6.513   6.391
 7901SOL    HW124602   6.643   6.576   6.376
 7901SOL    HW224603   6.582   6.428   6.340
 7902SOL     OW24604   4.500   4.402   0.727
 7902SOL    HW124605   4.507   4.396   0.627
 7902SOL    HW224606   4.444   4.326   0.760
 7903SOL     OW24607   6.415   1.601   0.095
 7903SOL    HW124608   6.408   1.695   0.130
 7903SOL    HW224609   6.327   1.555   0.107
 7904SOL     OW24610   0.101   1.369   2.474
 7904SOL    HW124611   0.137   1.445   2.530
 7904SOL    HW224612   0.006   1.389   2.449
 7905SOL     OW24613   4.110   0.646   1.191
 7905SOL    HW124614   4.150   0.585   1.123
 7905SOL    HW224615   4.065   0.722   1.145
 7906SOL     OW24616   5.342   5.932   7.002
 7906SOL    HW124617   5.305   5.840   7.015
 7906SOL    HW224618   5.267   5.998   6.996
 7907SOL     OW24619   0.035   2.849   3.700
 7907SOL    HW124620   0.128   2.831   3.734
 7907SOL    HW224621   6.998   2.870   3.777
 7908SOL     OW24622   6.456   1.843   3.669
 7908SOL    HW124623   6.507   1.831   3.584
 7908SOL    HW224624   6.495   1.919   3.721
 7909SOL     OW24625   4.753   4.077   5.013
 7909SOL    HW124626   4.698   4.132   4.949
 7909SOL    HW224627   4.847   4.109   5.011
 7910SOL     OW24628   4.864   3.254   5.636
 7910SOL    HW124629   4.824   3.346   5.640
 7910SOL    HW224630   4.847   3.214   5.546
 7911SOL     OW24631   6.603   4.658   0.422
 7911SOL    HW124632   6.670   4.639   0.494
 7911SOL    HW224633   6.516   4.615   0.445
 7912SOL     OW24634   5.871   4.451   6.258
 7912SOL    HW124635   5.967   4.461   6.231
 7912SOL    HW224636   5.816   4.432   6.177
 7913SOL     OW24637   6.603   5.540   6.993
 7913SOL    HW124638   6.625   5.567   0.064
 7913SOL    HW224639   6.637   5.448   6.975
 7914SOL     OW24640   6.218   3.815   1.259
 7914SOL    HW124641   6.266   3.782   1.340
 7914SOL    HW224642   6.158   3.742   1.225
 7915SOL     OW24643   4.047   1.671   3.554
 7915SOL    HW124644   3.951   1.645   3.566
 7915SOL    HW224645   4.057   1.769   3.569
 7916SOL     OW24646   5.629   3.009   5.696
 7916SOL    HW124647   5.536   3.037   5.720
 7916SOL    HW224648   5.627   2.954   5.613
 7917SOL     OW24649   3.816   3.703   4.567
 7917SOL    HW124650   3.852   3.788   4.604
 7917SOL    HW224651   3.844   3.693   4.471
 7918SOL     OW24652   6.245   1.209   2.654
 7918SOL    HW124653   6.310   1.151   2.605
 7918SOL    HW224654   6.210   1.161   2.734
 7919SOL     OW24655   5.094   5.451   2.203
 7919SOL    HW124656   5.032   5.373   2.218
 7919SOL    HW224657   5.058   5.531   2.251
 7920SOL     OW24658   0.283   5.132   1.791
 7920SOL    HW124659   0.237   5.064   1.733
 7920SOL    HW224660   0.381   5.109   1.797
 7921SOL     OW24661   2.082   6.656   1.738
 7921SOL    HW124662   2.110   6.749   1.719
 7921SOL    HW224663   2.118   6.595   1.667
 7922SOL     OW24664   0.889   5.486   6.295
 7922SOL    HW124665   0.968   5.507   6.354
 7922SOL    HW224666   0.828   5.565   6.292
 7923SOL     OW24667   1.226   1.413   3.460
 7923SOL    HW124668   1.323   1.402   3.439
 7923SOL    HW224669   1.172   1.379   3.383
 7924SOL     OW24670   2.938   0.335   3.766
 7924SOL    HW124671   2.968   0.273   3.839
 7924SOL    HW224672   2.854   0.381   3.794
 7925SOL     OW24673   6.152   1.238   6.403
 7925SOL    HW124674   6.238   1.273   6.366
 7925SOL    HW224675   6.094   1.315   6.430
 7926SOL     OW24676   3.195   0.485   2.253
 7926SOL    HW124677   3.229   0.524   2.339
 7926SOL    HW224678   3.103   0.448   2.268
 7927SOL     OW24679   4.008   4.845   5.211
 7927SOL    HW124680   4.019   4.919   5.278
 7927SOL    HW224681   4.081   4.851   5.143
 7928SOL     OW24682   1.736   5.314   2.309
 7928SOL    HW124683   1.655   5.373   2.305
 7928SOL    HW224684   1.723   5.244   2.378
 7929SOL     OW24685   4.040   3.767   4.369
 7929SOL    HW124686   4.069   3.684   4.417
 7929SOL    HW224687   4.101   3.784   4.292
 7930SOL     OW24688   4.305   5.553   3.820
 7930SOL    HW124689   4.252   5.472   3.847
 7930SOL    HW224690   4.242   5.623   3.786
 7931SOL     OW24691   2.424   2.074   0.709
 7931SOL    HW124692   2.379   2.027   0.785
 7931SOL    HW224693   2.355   2.103   0.642
 7932SOL     OW24694   2.188   6.822   6.940
 7932SOL    HW124695   2.153   6.764   7.014
 7932SOL    HW224696   2.165   6.780   6.852
 7933SOL     OW24697   1.330   7.002   6.635
 7933SOL    HW124698   1.253   0.028   6.594
 7933SOL    HW224699   1.296   6.935   6.701
 7934SOL     OW24700   3.369   3.917   0.344
 7934SOL    HW124701   3.290   3.954   0.394
 7934SOL    HW224702   3.451   3.927   0.400
 7935SOL     OW24703   4.826   6.547   1.284
 7935SOL    HW124704   4.745   6.493   1.262
 7935SOL    HW224705   4.810   6.598   1.369
 7936SOL     OW24706   4.243   6.128   2.982
 7936SOL    HW124707   4.295   6.081   2.911
 7936SOL    HW224708   4.146   6.129   2.957
 7937SOL     OW24709   6.185   6.258   5.644
 7937SOL    HW124710   6.206   6.295   5.735
 7937SOL    HW224711   6.211   6.161   5.641
 7938SOL     OW24712   4.368   5.376   4.808
 7938SOL    HW124713   4.386   5.348   4.903
 7938SOL    HW224714   4.445   5.432   4.776
 7939SOL     OW24715   1.200   1.031   5.612
 7939SOL    HW124716   1.287   1.060   5.571
 7939SOL    HW224717   1.216   0.950   5.670
 7940SOL     OW24718   2.166   5.668   1.467
 7940SOL    HW124719   2.226   5.687   1.545
 7940SOL    HW224720   2.114   5.751   1.445
 7941SOL     OW24721   0.499   0.945   0.579
 7941SOL    HW124722   0.408   0.945   0.536
 7941SOL    HW224723   0.510   1.029   0.632
 7942SOL     OW24724   0.302   0.074   1.790
 7942SOL    HW124725   0.256   0.100   1.875
 7942SOL    HW224726   0.390   0.120   1.784
 7943SOL     OW24727   5.771   2.173   0.810
 7943SOL    HW124728   5.674   2.184   0.788
 7943SOL    HW224729   5.819   2.139   0.729
 7944SOL     OW24730   0.579   4.095   1.117
 7944SOL    HW124731   0.495   4.093   1.170
 7944SOL    HW224732   0.580   4.177   1.059
 7945SOL     OW24733   5.462   6.369   2.781
 7945SOL    HW124734   5.364   6.389   2.776
 7945SOL    HW224735   5.485   6.296   2.716
 7946SOL     OW24736   1.862   2.411   5.673
 7946SOL    HW124737   1.895   2.501   5.644
 7946SOL    HW224738   1.843   2.413   5.771
 7947SOL     OW24739   4.139   2.742   6.514
 7947SOL    HW124740   4.230   2.704   6.526
 7947SOL    HW224741   4.090   2.740   6.602
 7948SOL     OW24742   6.960   6.867   0.264
 7948SOL    HW124743   6.958   6.771   0.291
 7948SOL    HW224744   6.910   6.922   0.331
 7949SOL     OW24745   5.128   5.222   3.642
 7949SOL    HW124746   5.081   5.242   3.556
 7949SOL    HW224747   5.100   5.288   3.712
 7950SOL     OW24748   4.405   4.764   4.338
 7950SOL    HW124749   4.313   4.775   4.299
 7950SOL    HW224750   4.442   4.853   4.363
 7951SOL     OW24751   3.719   3.377   0.683
 7951SOL    HW124752   3.666   3.292   0.691
 7951SOL    HW224753   3.661   3.449   0.645
 7952SOL     OW24754   6.212   3.317   0.805
 7952SOL    HW124755   6.288   3.382   0.805
 7952SOL    HW224756   6.125   3.367   0.814
 7953SOL     OW24757   2.363   2.626   3.474
 7953SOL    HW124758   2.331   2.683   3.399
 7953SOL    HW224759   2.437   2.567   3.441
 7954SOL     OW24760   4.191   5.470   4.467
 7954SOL    HW124761   4.219   5.547   4.524
 7954SOL    HW224762   4.128   5.412   4.519
 7955SOL     OW24763   0.361   6.514   6.464
 7955SOL    HW124764   0.349   6.613   6.460
 7955SOL    HW224765   0.304   6.475   6.536
 7956SOL     OW24766   6.769   6.209   3.929
 7956SOL    HW124767   6.688   6.245   3.976
 7956SOL    HW224768   6.752   6.206   3.830
 7957SOL     OW24769   1.508   1.559   0.936
 7957SOL    HW124770   1.474   1.625   0.869
 7957SOL    HW224771   1.544   1.607   1.016
 7958SOL     OW24772   3.133   4.979   3.684
 7958SOL    HW124773   3.050   5.013   3.640
 7958SOL    HW224774   3.121   4.978   3.783
 7959SOL     OW24775   6.242   4.724   0.281
 7959SOL    HW124776   6.257   4.784   0.360
 7959SOL    HW224777   6.149   4.737   0.246
 7960SOL     OW24778   2.710   1.359   1.371
 7960SOL    HW124779   2.768   1.433   1.405
 7960SOL    HW224780   2.755   1.271   1.386
 7961SOL     OW24781   1.469   5.655   5.955
 7961SOL    HW124782   1.408   5.667   5.876
 7961SOL    HW224783   1.536   5.729   5.957
 7962SOL     OW24784   2.155   0.803   2.035
 7962SOL    HW124785   2.182   0.898   2.022
 7962SOL    HW224786   2.236   0.745   2.038
 7963SOL     OW24787   0.982   0.904   5.816
 7963SOL    HW124788   0.914   0.832   5.832
 7963SOL    HW224789   0.982   0.967   5.894
 7964SOL     OW24790   5.581   5.386   3.426
 7964SOL    HW124791   5.570   5.483   3.447
 7964SOL    HW224792   5.521   5.332   3.484
 7965SOL     OW24793   4.901   2.657   0.176
 7965SOL    HW124794   4.919   2.649   0.078
 7965SOL    HW224795   4.865   2.748   0.196
 7966SOL     OW24796   6.917   5.277   4.031
 7966SOL    HW124797   6.958   5.206   3.974
 7966SOL    HW224798   6.940   5.367   3.994
 7967SOL     OW24799   3.357   6.407   2.554
 7967SOL    HW124800   3.300   6.396   2.636
 7967SOL    HW224801   3.369   6.318   2.510
 7968SOL     OW24802   2.255   2.326   3.745
 7968SOL    HW124803   2.330   2.383   3.711
 7968SOL    HW224804   2.212   2.371   3.824
 7969SOL     OW24805   3.912   1.355   3.279
 7969SOL    HW124806   3.844   1.336   3.208
 7969SOL    HW224807   3.897   1.447   3.316
 7970SOL     OW24808   0.311   4.190   3.039
 7970SOL    HW124809   0.312   4.278   3.086
 7970SOL    HW224810   0.405   4.159   3.024
 7971SOL     OW24811   3.683   6.875   1.200
 7971SOL    HW124812   3.704   6.967   1.165
 7971SOL    HW224813   3.735   6.859   1.284
 7972SOL     OW24814   6.851   4.476   1.533
 7972SOL    HW124815   6.786   4.502   1.604
 7972SOL    HW224816   6.944   4.480   1.570
 7973SOL     OW24817   5.130   3.143   3.836
 7973SOL    HW124818   5.055   3.205   3.860
 7973SOL    HW224819   5.096   3.067   3.781
 7974SOL     OW24820   4.954   0.453   4.256
 7974SOL    HW124821   4.929   0.487   4.165
 7974SOL    HW224822   4.961   0.531   4.319
 7975SOL     OW24823   3.130   0.823   4.547
 7975SOL    HW124824   3.157   0.755   4.478
 7975SOL    HW224825   3.031   0.822   4.558
 7976SOL     OW24826   1.255   6.147   5.161
 7976SOL    HW124827   1.332   6.085   5.169
 7976SOL    HW224828   1.283   6.239   5.189
 7977SOL     OW24829   4.809   5.994   1.984
 7977SOL    HW124830   4.712   5.979   1.966
 7977SOL    HW224831   4.862   5.917   1.948
 7978SOL     OW24832   4.717   3.519   5.654
 7978SOL    HW124833   4.628   3.527   5.609
 7978SOL    HW224834   4.713   3.564   5.743
 7979SOL     OW24835   2.738   0.152   4.485
 7979SOL    HW124836   2.802   0.180   4.557
 7979SOL    HW224837   2.646   0.183   4.509
 7980SOL     OW24838   3.555   6.014   6.969
 7980SOL    HW124839   3.543   5.997   0.045
 7980SOL    HW224840   3.650   5.996   6.944
 7981SOL     OW24841   1.554   5.149   1.956
 7981SOL    HW124842   1.529   5.161   2.052
 7981SOL    HW224843   1.642   5.192   1.939
 7982SOL     OW24844   6.710   2.172   0.528
 7982SOL    HW124845   6.797   2.178   0.576
 7982SOL    HW224846   6.670   2.081   0.542
 7983SOL     OW24847   5.253   1.764   2.356
 7983SOL    HW124848   5.346   1.785   2.325
 7983SOL    HW224849   5.191   1.769   2.278
 7984SOL     OW24850   0.182   2.818   2.360
 7984SOL    HW124851   0.094   2.771   2.351
 7984SOL    HW224852   0.169   2.902   2.412
 7985SOL     OW24853   0.790   0.698   2.375
 7985SOL    HW124854   0.701   0.668   2.341
 7985SOL    HW224855   0.862   0.636   2.343
 7986SOL     OW24856   4.138   1.044   6.573
 7986SOL    HW124857   4.086   1.099   6.639
 7986SOL    HW224858   4.119   0.947   6.589
 7987SOL     OW24859   0.292   2.688   5.488
 7987SOL    HW124860   0.377   2.685   5.435
 7987SOL    HW224861   0.228   2.619   5.452
 7988SOL     OW24862   2.826   2.030   4.440
 7988SOL    HW124863   2.734   2.039   4.477
 7988SOL    HW224864   2.891   2.018   4.515
 7989SOL     OW24865   3.224   2.245   5.678
 7989SOL    HW124866   3.262   2.202   5.596
 7989SOL    HW224867   3.241   2.344   5.675
 7990SOL     OW24868   1.092   2.898   4.409
 7990SOL    HW124869   1.155   2.914   4.333
 7990SOL    HW224870   1.021   2.969   4.409
 7991SOL     OW24871   0.185   2.797   5.936
 7991SOL    HW124872   0.243   2.735   5.885
 7991SOL    HW224873   0.222   2.809   6.029
 7992SOL     OW24874   1.808   0.076   0.722
 7992SOL    HW124875   1.838   0.136   0.796
 7992SOL    HW224876   1.716   0.043   0.741
 7993SOL     OW24877   2.230   5.601   6.891
 7993SOL    HW124878   2.272   5.607   6.801
 7993SOL    HW224879   2.232   5.507   6.923
 7994SOL     OW24880   4.767   1.151   3.217
 7994SOL    HW124881   4.674   1.150   3.254
 7994SOL    HW224882   4.824   1.213   3.272
 7995SOL     OW24883   3.296   5.324   3.950
 7995SOL    HW124884   3.310   5.420   3.974
 7995SOL    HW224885   3.199   5.303   3.955
 7996SOL     OW24886   3.759   6.951   5.002
 7996SOL    HW124887   3.750   6.965   5.101
 7996SOL    HW224888   3.707   6.870   4.975
 7997SOL     OW24889   6.074   2.591   1.154
 7997SOL    HW124890   5.981   2.606   1.187
 7997SOL    HW224891   6.110   2.676   1.115
 7998SOL     OW24892   5.699   4.252   0.308
 7998SOL    HW124893   5.643   4.194   0.249
 7998SOL    HW224894   5.777   4.199   0.342
 7999SOL     OW24895   1.631   6.871   5.559
 7999SOL    HW124896   1.730   6.860   5.570
 7999SOL    HW224897   1.612   6.930   5.481
 8000SOL     OW24898   6.575   6.994   5.713
 8000SOL    HW124899   6.512   6.926   5.677
 8000SOL    HW224900   6.583   0.048   5.648
 8001SOL     OW24901   1.853   6.773   1.483
 8001SOL    HW124902   1.926   6.716   1.446
 8001SOL    HW224903   1.770   6.759   1.429
 8002SOL     OW24904   6.047   3.406   4.991
 8002SOL    HW124905   5.977   3.337   5.008
 8002SOL    HW224906   6.074   3.449   5.077
 8003SOL     OW24907   3.686   4.928   3.258
 8003SOL    HW124908   3.724   4.910   3.349
 8003SOL    HW224909   3.586   4.926   3.263
 8004SOL     OW24910   2.333   4.643   3.066
 8004SOL    HW124911   2.360   4.705   2.993
 8004SOL    HW224912   2.405   4.640   3.135
 8005SOL     OW24913   3.534   0.549   1.559
 8005SOL    HW124914   3.530   0.459   1.604
 8005SOL    HW224915   3.613   0.599   1.592
 8006SOL     OW24916   2.836   5.911   0.613
 8006SOL    HW124917   2.814   5.991   0.670
 8006SOL    HW224918   2.752   5.871   0.577
 8007SOL     OW24919   0.415   0.500   4.396
 8007SOL    HW124920   0.465   0.414   4.397
 8007SOL    HW224921   0.399   0.528   4.302
 8008SOL     OW24922   6.220   6.719   0.138
 8008SOL    HW124923   6.189   6.662   0.215
 8008SOL    HW224924   6.153   6.791   0.121
 8009SOL     OW24925   6.804   0.487   3.221
 8009SOL    HW124926   6.799   0.502   3.122
 8009SOL    HW224927   6.899   0.470   3.247
 8010SOL     OW24928   2.189   2.172   0.560
 8010SOL    HW124929   2.115   2.216   0.509
 8010SOL    HW224930   2.165   2.077   0.578
 8011SOL     OW24931   3.144   2.340   1.316
 8011SOL    HW124932   3.115   2.435   1.302
 8011SOL    HW224933   3.117   2.310   1.407
 8012SOL     OW24934   2.188   6.649   1.464
 8012SOL    HW124935   2.119   6.609   1.403
 8012SOL    HW224936   2.230   6.728   1.420
 8013SOL     OW24937   5.495   5.205   4.346
 8013SOL    HW124938   5.434   5.232   4.420
 8013SOL    HW224939   5.489   5.272   4.271
 8014SOL     OW24940   1.890   6.569   6.601
 8014SOL    HW124941   1.889   6.476   6.637
 8014SOL    HW224942   1.901   6.566   6.502
 8015SOL     OW24943   2.742   2.636   0.723
 8015SOL    HW124944   2.677   2.579   0.774
 8015SOL    HW224945   2.835   2.617   0.754
 8016SOL     OW24946   4.388   6.930   0.553
 8016SOL    HW124947   4.338   7.010   0.587
 8016SOL    HW224948   4.324   6.853   0.543
 8017SOL     OW24949   6.739   4.067   4.663
 8017SOL    HW124950   6.744   4.167   4.653
 8017SOL    HW224951   6.800   4.038   4.737
 8018SOL     OW24952   4.364   1.594   5.627
 8018SOL    HW124953   4.443   1.541   5.658
 8018SOL    HW224954   4.394   1.683   5.593
 8019SOL     OW24955   1.714   5.758   0.317
 8019SOL    HW124956   1.771   5.825   0.364
 8019SOL    HW224957   1.627   5.801   0.292
 8020SOL     OW24958   5.231   5.419   6.701
 8020SOL    HW124959   5.287   5.412   6.783
 8020SOL    HW224960   5.189   5.510   6.698
 8021SOL     OW24961   1.157   1.240   1.348
 8021SOL    HW124962   1.139   1.166   1.283
 8021SOL    HW224963   1.212   1.310   1.302
 8022SOL     OW24964   4.078   6.805   3.039
 8022SOL    HW124965   4.158   6.782   2.984
 8022SOL    HW224966   4.050   6.725   3.093
 8023SOL     OW24967   6.080   5.823   2.245
 8023SOL    HW124968   6.088   5.736   2.195
 8023SOL    HW224969   6.154   5.884   2.215
 8024SOL     OW24970   4.621   5.468   5.878
 8024SOL    HW124971   4.684   5.504   5.947
 8024SOL    HW224972   4.548   5.417   5.923
 8025SOL     OW24973   3.797   5.990   6.095
 8025SOL    HW124974   3.884   5.949   6.069
 8025SOL    HW224975   3.728   5.918   6.104
 8026SOL     OW24976   1.725   3.285   6.347
 8026SOL    HW124977   1.793   3.358   6.341
 8026SOL    HW224978   1.717   3.240   6.258
 8027SOL     OW24979   4.554   2.047   4.999
 8027SOL    HW124980   4.495   2.088   5.068
 8027SOL    HW224981   4.649   2.047   5.032
 8028SOL     OW24982   4.838   5.239   6.340
 8028SOL    HW124983   4.922   5.186   6.323
 8028SOL    HW224984   4.859   5.336   6.336
 8029SOL     OW24985   4.037   4.435   0.587
 8029SOL    HW124986   4.076   4.527   0.580
 8029SOL    HW224987   3.979   4.430   0.669
 8030SOL     OW24988   5.808   4.187   5.960
 8030SOL    HW124989   5.709   4.198   5.953
 8030SOL    HW224990   5.853   4.273   5.933
 8031SOL     OW24991   3.940   5.194   1.528
 8031SOL    HW124992   3.962   5.159   1.437
 8031SOL    HW224993   3.843   5.175   1.548
 8032SOL     OW24994   5.434   4.222   5.200
 8032SOL    HW124995   5.359   4.172   5.243
 8032SOL    HW224996   5.415   4.234   5.103
 8033SOL     OW24997   5.680   2.607   6.889
 8033SOL    HW124998   5.750   2.591   6.959
 8033SOL    HW224999   5.706   2.685   6.832
 8034SOL     OW25000   5.041   6.927   4.814
 8034SOL    HW125001   5.051   6.955   4.719
 8034SOL    HW225002   4.946   6.939   4.843
 8035SOL     OW25003   5.310   6.409   6.966
 8035SOL    HW125004   5.335   6.472   6.893
 8035SOL    HW225005   5.214   6.423   6.990
 8036SOL     OW25006   2.162   3.843   1.821
 8036SOL    HW125007   2.078   3.893   1.800
 8036SOL    HW225008   2.159   3.811   1.916
 8037SOL     OW25009   1.511   2.477   0.601
 8037SOL    HW125010   1.531   2.561   0.650
 8037SOL    HW225011   1.450   2.496   0.524
 8038SOL     OW25012   0.189   2.153   3.582
 8038SOL    HW125013   0.134   2.236   3.591
 8038SOL    HW225014   0.140   2.085   3.528
 8039SOL     OW25015   2.306   0.391   2.924
 8039SOL    HW125016   2.296   0.374   2.826
 8039SOL    HW225017   2.330   0.306   2.971
 8040SOL     OW25018   0.499   5.459   1.146
 8040SOL    HW125019   0.422   5.399   1.126
 8040SOL    HW225020   0.581   5.404   1.166
 8041SOL     OW25021   3.916   1.469   0.931
 8041SOL    HW125022   3.935   1.462   0.833
 8041SOL    HW225023   3.999   1.447   0.983
 8042SOL     OW25024   3.345   2.962   2.582
 8042SOL    HW125025   3.264   2.994   2.533
 8042SOL    HW225026   3.318   2.924   2.670
 8043SOL     OW25027   3.015   0.722   1.758
 8043SOL    HW125028   3.089   0.761   1.704
 8043SOL    HW225029   2.979   0.790   1.821
 8044SOL     OW25030   3.069   3.227   1.632
 8044SOL    HW125031   3.138   3.166   1.673
 8044SOL    HW225032   3.114   3.310   1.600
 8045SOL     OW25033   5.926   2.721   3.240
 8045SOL    HW125034   5.840   2.684   3.205
 8045SOL    HW225035   5.919   2.820   3.249
 8046SOL     OW25036   5.641   4.401   5.724
 8046SOL    HW125037   5.734   4.409   5.690
 8046SOL    HW225038   5.605   4.492   5.745
 8047SOL     OW25039   3.947   5.912   4.469
 8047SOL    HW125040   3.899   5.991   4.508
 8047SOL    HW225041   3.964   5.928   4.372
 8048SOL     OW25042   6.659   0.403   5.387
 8048SOL    HW125043   6.586   0.372   5.327
 8048SOL    HW225044   6.647   0.501   5.405
 8049SOL     OW25045   1.318   6.710   1.373
 8049SOL    HW125046   1.225   6.674   1.358
 8049SOL    HW225047   1.312   6.798   1.421
 8050SOL     OW25048   1.911   3.348   0.910
 8050SOL    HW125049   1.850   3.343   0.831
 8050SOL    HW225050   1.887   3.277   0.975
 8051SOL     OW25051   4.823   0.869   2.887
 8051SOL    HW125052   4.745   0.825   2.930
 8051SOL    HW225053   4.857   0.942   2.946
 8052SOL     OW25054   2.746   1.392   3.063
 8052SOL    HW125055   2.781   1.485   3.053
 8052SOL    HW225056   2.646   1.394   3.063
 8053SOL     OW25057   3.833   3.991   2.587
 8053SOL    HW125058   3.901   4.007   2.515
 8053SOL    HW225059   3.879   3.983   2.675
 8054SOL     OW25060   5.020   0.158   4.056
 8054SOL    HW125061   5.027   0.245   4.006
 8054SOL    HW225062   4.959   0.169   4.134
 8055SOL     OW25063   1.508   6.905   6.079
 8055SOL    HW125064   1.605   6.886   6.098
 8055SOL    HW225065   1.494   6.906   5.980
 8056SOL     OW25066   4.630   1.771   3.237
 8056SOL    HW125067   4.541   1.741   3.272
 8056SOL    HW225068   4.683   1.812   3.311
 8057SOL     OW25069   2.932   7.005   3.128
 8057SOL    HW125070   2.974   0.048   3.191
 8057SOL    HW225071   2.861   0.028   3.075
 8058SOL     OW25072   3.196   0.767   2.565
 8058SOL    HW125073   3.212   0.866   2.565
 8058SOL    HW225074   3.229   0.728   2.480
 8059SOL     OW25075   3.280   2.141   4.783
 8059SOL    HW125076   3.275   2.042   4.798
 8059SOL    HW225077   3.250   2.189   4.865
 8060SOL     OW25078   6.740   0.785   4.869
 8060SOL    HW125079   6.664   0.767   4.931
 8060SOL    HW225080   6.826   0.775   4.918
 8061SOL     OW25081   6.638   5.507   2.731
 8061SOL    HW125082   6.555   5.562   2.728
 8061SOL    HW225083   6.713   5.558   2.689
 8062SOL     OW25084   1.098   4.045   3.773
 8062SOL    HW125085   1.068   4.139   3.786
 8062SOL    HW225086   1.191   4.034   3.806
 8063SOL     OW25087   2.952   3.304   6.688
 8063SOL    HW125088   2.982   3.393   6.655
 8063SOL    HW225089   2.961   3.236   6.615
 8064SOL     OW25090   0.653   3.543   0.561
 8064SOL    HW125091   0.560   3.566   0.590
 8064SOL    HW225092   0.682   3.608   0.490
 8065SOL     OW25093   4.540   0.240   4.237
 8065SOL    HW125094   4.545   0.158   4.294
 8065SOL    HW225095   4.604   0.233   4.161
 8066SOL     OW25096   1.763   0.911   1.295
 8066SOL    HW125097   1.684   0.856   1.323
 8066SOL    HW225098   1.757   0.931   1.197
 8067SOL     OW25099   4.665   2.702   1.448
 8067SOL    HW125100   4.588   2.751   1.408
 8067SOL    HW225101   4.633   2.615   1.487
 8068SOL     OW25102   1.026   4.259   4.739
 8068SOL    HW125103   1.082   4.323   4.792
 8068SOL    HW225104   0.996   4.184   4.798
 8069SOL     OW25105   1.538   6.075   1.226
 8069SOL    HW125106   1.559   6.061   1.323
 8069SOL    HW225107   1.458   6.134   1.218
 8070SOL     OW25108   3.998   6.372   1.550
 8070SOL    HW125109   3.971   6.436   1.479
 8070SOL    HW225110   3.920   6.355   1.611
 8071SOL     OW25111   3.396   6.623   5.873
 8071SOL    HW125112   3.431   6.702   5.822
 8071SOL    HW225113   3.447   6.613   5.958
 8072SOL     OW25114   4.760   1.330   0.561
 8072SOL    HW125115   4.805   1.241   0.563
 8072SOL    HW225116   4.689   1.330   0.490
 8073SOL     OW25117   4.334   6.229   5.738
 8073SOL    HW125118   4.272   6.183   5.802
 8073SOL    HW225119   4.293   6.315   5.708
 8074SOL     OW25120   3.516   3.522   0.259
 8074SOL    HW125121   3.576   3.602   0.251
 8074SOL    HW225122   3.558   3.445   0.212
 8075SOL     OW25123   0.031   1.299   2.751
 8075SOL    HW125124   0.019   1.271   2.656
 8075SOL    HW225125   0.094   1.235   2.796
 8076SOL     OW25126   5.675   2.433   5.448
 8076SOL    HW125127   5.617   2.381   5.384
 8076SOL    HW225128   5.716   2.370   5.514
 8077SOL     OW25129   0.928   0.421   1.097
 8077SOL    HW125130   0.853   0.365   1.131
 8077SOL    HW225131   1.015   0.389   1.136
 8078SOL     OW25132   6.226   2.546   0.868
 8078SOL    HW125133   6.221   2.634   0.916
 8078SOL    HW225134   6.321   2.514   0.868
 8079SOL     OW25135   6.605   2.190   2.824
 8079SOL    HW125136   6.633   2.111   2.771
 8079SOL    HW225137   6.683   2.222   2.879
 8080SOL     OW25138   2.901   4.148   0.648
 8080SOL    HW125139   2.952   4.219   0.696
 8080SOL    HW225140   2.891   4.068   0.707
 8081SOL     OW25141   5.928   0.812   4.770
 8081SOL    HW125142   5.902   0.905   4.748
 8081SOL    HW225143   5.876   0.781   4.850
 8082SOL     OW25144   0.084   2.414   3.657
 8082SOL    HW125145   0.091   2.425   3.756
 8082SOL    HW225146   7.019   2.372   3.634
 8083SOL     OW25147   4.588   2.586   3.306
 8083SOL    HW125148   4.559   2.649   3.378
 8083SOL    HW225149   4.512   2.570   3.244
 8084SOL     OW25150   0.019   6.544   1.451
 8084SOL    HW125151   6.953   6.522   1.411
 8084SOL    HW225152   0.051   6.467   1.505
 8085SOL     OW25153   5.831   0.673   1.035
 8085SOL    HW125154   5.883   0.600   1.078
 8085SOL    HW225155   5.796   0.641   0.947
 8086SOL     OW25156   4.020   0.815   5.047
 8086SOL    HW125157   4.013   0.831   4.949
 8086SOL    HW225158   3.941   0.855   5.094
 8087SOL     OW25159   2.773   2.306   1.363
 8087SOL    HW125160   2.681   2.312   1.325
 8087SOL    HW225161   2.806   2.398   1.386
 8088SOL     OW25162   5.322   1.103   2.009
 8088SOL    HW125163   5.394   1.158   1.968
 8088SOL    HW225164   5.345   1.083   2.105
 8089SOL     OW25165   5.574   3.146   0.621
 8089SOL    HW125166   5.625   3.136   0.536
 8089SOL    HW225167   5.526   3.060   0.641
 8090SOL     OW25168   5.012   1.872   5.823
 8090SOL    HW125169   4.961   1.793   5.859
 8090SOL    HW225170   5.032   1.936   5.897
 8091SOL     OW25171   3.075   4.625   6.582
 8091SOL    HW125172   2.976   4.610   6.575
 8091SOL    HW225173   3.094   4.724   6.580
 8092SOL     OW25174   1.621   1.455   5.136
 8092SOL    HW125175   1.579   1.384   5.191
 8092SOL    HW225176   1.594   1.545   5.171
 8093SOL     OW25177   5.847   5.492   0.862
 8093SOL    HW125178   5.840   5.407   0.811
 8093SOL    HW225179   5.917   5.551   0.821
 8094SOL     OW25180   1.346   3.864   6.295
 8094SOL    HW125181   1.347   3.899   6.201
 8094SOL    HW225182   1.436   3.879   6.337
 8095SOL     OW25183   5.686   3.615   4.681
 8095SOL    HW125184   5.728   3.588   4.594
 8095SOL    HW225185   5.691   3.714   4.691
 8096SOL     OW25186   3.399   6.263   1.625
 8096SOL    HW125187   3.342   6.340   1.596
 8096SOL    HW225188   3.480   6.258   1.567
 8097SOL     OW25189   5.087   1.255   3.405
 8097SOL    HW125190   5.024   1.308   3.347
 8097SOL    HW225191   5.181   1.276   3.379
 8098SOL     OW25192   2.763   6.006   4.178
 8098SOL    HW125193   2.771   6.057   4.264
 8098SOL    HW225194   2.797   5.913   4.191
 8099SOL     OW25195   5.012   6.656   4.663
 8099SOL    HW125196   5.033   6.565   4.699
 8099SOL    HW225197   5.005   6.721   4.738
 8100SOL     OW25198   6.888   6.678   0.532
 8100SOL    HW125199   6.846   6.621   0.603
 8100SOL    HW225200   6.966   6.728   0.570
 8101SOL     OW25201   1.497   6.004   3.626
 8101SOL    HW125202   1.409   6.037   3.592
 8101SOL    HW225203   1.567   6.073   3.609
 8102SOL     OW25204   6.865   5.711   5.788
 8102SOL    HW125205   6.815   5.631   5.819
 8102SOL    HW225206   6.874   5.708   5.688
 8103SOL     OW25207   3.612   1.822   2.676
 8103SOL    HW125208   3.534   1.879   2.651
 8103SOL    HW225209   3.605   1.797   2.773
 8104SOL     OW25210   2.378   6.814   5.993
 8104SOL    HW125211   2.331   6.811   5.904
 8104SOL    HW225212   2.457   6.754   5.991
 8105SOL     OW25213   2.369   1.930   3.523
 8105SOL    HW125214   2.440   1.920   3.593
 8105SOL    HW225215   2.410   1.917   3.432
 8106SOL     OW25216   0.804   4.242   3.919
 8106SOL    HW125217   0.812   4.270   4.015
 8106SOL    HW225218   0.728   4.177   3.909
 8107SOL     OW25219   2.220   6.171   5.773
 8107SOL    HW125220   2.218   6.076   5.742
 8107SOL    HW225221   2.251   6.174   5.868
 8108SOL     OW25222   0.913   3.714   4.090
 8108SOL    HW125223   0.920   3.812   4.072
 8108SOL    HW225224   0.894   3.666   4.005
 8109SOL     OW25225   1.434   4.584   4.919
 8109SOL    HW125226   1.525   4.549   4.899
 8109SOL    HW225227   1.438   4.683   4.932
 8110SOL     OW25228   2.167   6.197   0.830
 8110SOL    HW125229   2.081   6.245   0.850
 8110SOL    HW225230   2.226   6.201   0.910
 8111SOL     OW25231   2.972   5.249   4.832
 8111SOL    HW125232   3.017   5.160   4.836
 8111SOL    HW225233   2.889   5.242   4.777
 8112SOL     OW25234   2.369   0.691   5.348
 8112SOL    HW125235   2.344   0.788   5.347
 8112SOL    HW225236   2.445   0.677   5.411
 8113SOL     OW25237   3.412   2.544   6.444
 8113SOL    HW125238   3.353   2.624   6.439
 8113SOL    HW225239   3.472   2.542   6.364
 8114SOL     OW25240   2.228   2.772   2.170
 8114SOL    HW125241   2.226   2.867   2.201
 8114SOL    HW225242   2.149   2.754   2.112
 8115SOL     OW25243   3.285   0.986   1.065
 8115SOL    HW125244   3.298   0.910   1.129
 8115SOL    HW225245   3.207   0.967   1.005
 8116SOL     OW25246   5.978   0.304   5.163
 8116SOL    HW125247   5.941   0.293   5.255
 8116SOL    HW225248   6.058   0.245   5.152
 8117SOL     OW25249   1.804   1.799   5.052
 8117SOL    HW125250   1.786   1.884   5.101
 8117SOL    HW225251   1.740   1.791   4.975
 8118SOL     OW25252   0.822   3.841   5.327
 8118SOL    HW125253   0.873   3.923   5.353
 8118SOL    HW225254   0.791   3.850   5.233
 8119SOL     OW25255   0.850   5.987   2.791
 8119SOL    HW125256   0.781   5.915   2.793
 8119SOL    HW225257   0.907   5.982   2.873
 8120SOL     OW25258   4.299   4.478   0.945
 8120SOL    HW125259   4.331   4.385   0.927
 8120SOL    HW225260   4.199   4.480   0.937
 8121SOL     OW25261   6.725   0.876   2.504
 8121SOL    HW125262   6.678   0.878   2.415
 8121SOL    HW225263   6.821   0.853   2.490
 8122SOL     OW25264   6.252   6.251   1.831
 8122SOL    HW125265   6.283   6.200   1.751
 8122SOL    HW225266   6.233   6.346   1.805
 8123SOL     OW25267   1.635   6.347   6.755
 8123SOL    HW125268   1.616   6.407   6.833
 8123SOL    HW225269   1.714   6.289   6.777
 8124SOL     OW25270   1.125   6.014   1.698
 8124SOL    HW125271   1.088   6.076   1.629
 8124SOL    HW225272   1.098   5.920   1.678
 8125SOL     OW25273   5.977   4.839   2.953
 8125SOL    HW125274   5.927   4.753   2.940
 8125SOL    HW225275   6.005   4.847   3.048
 8126SOL     OW25276   5.642   4.198   2.417
 8126SOL    HW125277   5.649   4.098   2.422
 8126SOL    HW225278   5.587   4.224   2.337
 8127SOL     OW25279   2.052   5.044   0.213
 8127SOL    HW125280   2.034   5.039   0.114
 8127SOL    HW225281   1.972   5.009   0.263
 8128SOL     OW25282   3.509   2.627   5.510
 8128SOL    HW125283   3.438   2.622   5.439
 8128SOL    HW225284   3.567   2.707   5.493
 8129SOL     OW25285   5.888   0.730   5.898
 8129SOL    HW125286   5.902   0.777   5.986
 8129SOL    HW225287   5.929   0.784   5.825
 8130SOL     OW25288   1.552   5.805   6.755
 8130SOL    HW125289   1.649   5.780   6.749
 8130SOL    HW225290   1.528   5.862   6.676
 8131SOL     OW25291   2.868   0.816   0.728
 8131SOL    HW125292   2.790   0.814   0.791
 8131SOL    HW225293   2.886   0.724   0.693
 8132SOL     OW25294   6.046   5.489   3.968
 8132SOL    HW125295   6.030   5.558   4.039
 8132SOL    HW225296   6.110   5.525   3.900
 8133SOL     OW25297   2.465   5.239   2.389
 8133SOL    HW125298   2.507   5.329   2.401
 8133SOL    HW225299   2.368   5.250   2.367
 8134SOL     OW25300   2.076   2.145   3.985
 8134SOL    HW125301   2.040   2.114   3.897
 8134SOL    HW225302   2.172   2.172   3.975
 8135SOL     OW25303   4.154   5.277   2.106
 8135SOL    HW125304   4.118   5.186   2.088
 8135SOL    HW225305   4.228   5.270   2.174
 8136SOL     OW25306   3.958   5.656   2.379
 8136SOL    HW125307   3.986   5.647   2.475
 8136SOL    HW225308   3.876   5.601   2.363
 8137SOL     OW25309   2.141   4.227   4.748
 8137SOL    HW125310   2.179   4.233   4.840
 8137SOL    HW225311   2.041   4.230   4.752
 8138SOL     OW25312   5.217   1.248   2.656
 8138SOL    HW125313   5.171   1.197   2.584
 8138SOL    HW225314   5.150   1.300   2.709
 8139SOL     OW25315   1.889   2.097   3.191
 8139SOL    HW125316   1.906   2.164   3.118
 8139SOL    HW225317   1.879   2.145   3.278
 8140SOL     OW25318   4.864   0.629   0.706
 8140SOL    HW125319   4.928   0.554   0.726
 8140SOL    HW225320   4.792   0.630   0.775
 8141SOL     OW25321   4.974   1.562   5.946
 8141SOL    HW125322   4.880   1.580   5.975
 8141SOL    HW225323   4.974   1.504   5.865
 8142SOL     OW25324   2.132   5.741   0.087
 8142SOL    HW125325   2.046   5.714   0.130
 8142SOL    HW225326   2.164   5.666   0.028
 8143SOL     OW25327   5.827   4.710   0.510
 8143SOL    HW125328   5.890   4.659   0.569
 8143SOL    HW225329   5.736   4.709   0.551
 8144SOL     OW25330   0.049   4.882   5.834
 8144SOL    HW125331   0.125   4.816   5.834
 8144SOL    HW225332   0.084   4.972   5.860
 8145SOL     OW25333   5.247   5.654   6.846
 8145SOL    HW125334   5.214   5.594   6.920
 8145SOL    HW225335   5.345   5.669   6.857
 8146SOL     OW25336   5.830   0.336   4.355
 8146SOL    HW125337   5.767   0.266   4.387
 8146SOL    HW225338   5.784   0.393   4.287
 8147SOL     OW25339   1.498   0.815   5.708
 8147SOL    HW125340   1.403   0.823   5.737
 8147SOL    HW225341   1.559   0.837   5.785
 8148SOL     OW25342   3.796   4.605   0.525
 8148SOL    HW125343   3.862   4.589   0.453
 8148SOL    HW225344   3.761   4.699   0.517
 8149SOL     OW25345   1.380   6.082   4.032
 8149SOL    HW125346   1.382   6.173   4.075
 8149SOL    HW225347   1.471   6.060   3.998
 8150SOL     OW25348   0.929   3.263   0.757
 8150SOL    HW125349   0.873   3.344   0.775
 8150SOL    HW225350   0.894   3.185   0.809
 8151SOL     OW25351   5.964   4.281   3.801
 8151SOL    HW125352   5.999   4.332   3.879
 8151SOL    HW225353   6.036   4.222   3.765
 8152SOL     OW25354   4.691   2.092   3.182
 8152SOL    HW125355   4.701   2.192   3.182
 8152SOL    HW225356   4.705   2.057   3.274
 8153SOL     OW25357   0.129   2.256   3.960
 8153SOL    HW125358   0.212   2.308   3.942
 8153SOL    HW225359   0.071   2.307   4.023
 8154SOL     OW25360   1.884   1.351   3.363
 8154SOL    HW125361   1.897   1.450   3.367
 8154SOL    HW225362   1.826   1.328   3.285
 8155SOL     OW25363   1.339   5.500   1.670
 8155SOL    HW125364   1.281   5.443   1.729
 8155SOL    HW225365   1.299   5.505   1.579
 8156SOL     OW25366   5.989   5.287   1.477
 8156SOL    HW125367   5.945   5.259   1.562
 8156SOL    HW225368   6.084   5.311   1.494
 8157SOL     OW25369   6.822   3.024   6.095
 8157SOL    HW125370   6.838   3.094   6.164
 8157SOL    HW225371   6.874   2.941   6.119
 8158SOL     OW25372   5.729   4.720   6.288
 8158SOL    HW125373   5.656   4.746   6.226
 8158SOL    HW225374   5.752   4.624   6.275
 8159SOL     OW25375   3.209   6.257   5.645
 8159SOL    HW125376   3.228   6.260   5.546
 8159SOL    HW225377   3.288   6.216   5.692
 8160SOL     OW25378   5.351   1.303   3.329
 8160SOL    HW125379   5.431   1.361   3.313
 8160SOL    HW225380   5.380   1.207   3.332
 8161SOL     OW25381   5.624   3.294   1.069
 8161SOL    HW125382   5.652   3.332   0.981
 8161SOL    HW225383   5.699   3.239   1.107
 8162SOL     OW25384   0.358   4.944   6.605
 8162SOL    HW125385   0.422   4.884   6.655
 8162SOL    HW225386   0.307   4.999   6.671
 8163SOL     OW25387   4.631   4.614   4.902
 8163SOL    HW125388   4.594   4.570   4.820
 8163SOL    HW225389   4.701   4.681   4.874
 8164SOL     OW25390   6.177   1.085   6.892
 8164SOL    HW125391   6.200   1.017   6.822
 8164SOL    HW225392   6.105   1.049   6.951
 8165SOL     OW25393   0.525   2.159   6.339
 8165SOL    HW125394   0.493   2.210   6.419
 8165SOL    HW225395   0.466   2.080   6.323
 8166SOL     OW25396   1.490   2.248   4.750
 8166SOL    HW125397   1.426   2.314   4.789
 8166SOL    HW225398   1.573   2.296   4.720
 8167SOL     OW25399   0.126   2.945   4.188
 8167SOL    HW125400   0.031   2.977   4.187
 8167SOL    HW225401   0.128   2.847   4.172
 8168SOL     OW25402   2.759   0.596   1.732
 8168SOL    HW125403   2.750   0.546   1.646
 8168SOL    HW225404   2.844   0.649   1.730
 8169SOL     OW25405   5.176   2.254   1.274
 8169SOL    HW125406   5.119   2.275   1.354
 8169SOL    HW225407   5.257   2.203   1.303
 8170SOL     OW25408   6.358   5.012   2.302
 8170SOL    HW125409   6.402   5.061   2.377
 8170SOL    HW225410   6.419   5.008   2.223
 8171SOL     OW25411   2.069   1.159   0.746
 8171SOL    HW125412   1.971   1.140   0.739
 8171SOL    HW225413   2.094   1.233   0.683
 8172SOL     OW25414   0.770   2.846   1.967
 8172SOL    HW125415   0.736   2.905   2.041
 8172SOL    HW225416   0.865   2.822   1.985
 8173SOL     OW25417   5.662   1.410   2.074
 8173SOL    HW125418   5.606   1.478   2.120
 8173SOL    HW225419   5.603   1.345   2.025
 8174SOL     OW25420   2.294   5.427   2.627
 8174SOL    HW125421   2.289   5.525   2.609
 8174SOL    HW225422   2.202   5.388   2.626
 8175SOL     OW25423   0.604   2.077   4.238
 8175SOL    HW125424   0.594   2.142   4.163
 8175SOL    HW225425   0.557   2.113   4.319
 8176SOL     OW25426   1.835   4.379   0.945
 8176SOL    HW125427   1.829   4.307   1.014
 8176SOL    HW225428   1.862   4.338   0.857
 8177SOL     OW25429   3.515   1.690   2.902
 8177SOL    HW125430   3.475   1.646   2.822
 8177SOL    HW225431   3.607   1.654   2.917
 8178SOL     OW25432   1.886   6.578   1.162
 8178SOL    HW125433   1.830   6.656   1.135
 8178SOL    HW225434   1.968   6.573   1.104
 8179SOL     OW25435   5.633   0.964   3.274
 8179SOL    HW125436   5.564   0.995   3.340
 8179SOL    HW225437   5.720   0.951   3.321
 8180SOL     OW25438   4.770   5.925   6.910
 8180SOL    HW125439   4.842   5.860   6.887
 8180SOL    HW225440   4.750   5.920   7.008
 8181SOL     OW25441   0.769   1.038   1.227
 8181SOL    HW125442   0.858   1.052   1.182
 8181SOL    HW225443   0.783   1.019   1.324
 8182SOL     OW25444   2.893   3.368   4.491
 8182SOL    HW125445   2.974   3.327   4.449
 8182SOL    HW225446   2.826   3.391   4.420
 8183SOL     OW25447   6.831   0.137   5.173
 8183SOL    HW125448   6.830   0.230   5.210
 8183SOL    HW225449   6.902   0.083   5.219
 8184SOL     OW25450   0.594   6.137   6.817
 8184SOL    HW125451   0.653   6.138   6.897
 8184SOL    HW225452   0.536   6.219   6.816
 8185SOL     OW25453   0.640   0.104   0.281
 8185SOL    HW125454   0.704   0.121   0.207
 8185SOL    HW225455   0.547   0.100   0.244
 8186SOL     OW25456   1.425   5.571   6.636
 8186SOL    HW125457   1.454   5.634   6.565
 8186SOL    HW225458   1.502   5.515   6.665
 8187SOL     OW25459   1.239   0.826   5.805
 8187SOL    HW125460   1.274   0.867   5.889
 8187SOL    HW225461   1.139   0.837   5.802
 8188SOL     OW25462   2.970   1.854   4.036
 8188SOL    HW125463   2.906   1.917   3.992
 8188SOL    HW225464   2.923   1.769   4.059
 8189SOL     OW25465   4.563   4.791   3.820
 8189SOL    HW125466   4.519   4.871   3.861
 8189SOL    HW225467   4.606   4.818   3.733
 8190SOL     OW25468   6.095   3.873   3.059
 8190SOL    HW125469   6.079   3.964   3.023
 8190SOL    HW225470   6.025   3.810   3.026
 8191SOL     OW25471   4.190   5.202   1.651
 8191SOL    HW125472   4.287   5.180   1.635
 8191SOL    HW225473   4.138   5.186   1.567
 8192SOL     OW25474   1.775   4.811   3.689
 8192SOL    HW125475   1.727   4.725   3.702
 8192SOL    HW225476   1.872   4.798   3.707
 8193SOL     OW25477   0.151   4.167   4.861
 8193SOL    HW125478   0.196   4.256   4.873
 8193SOL    HW225479   0.176   4.106   4.936
 8194SOL     OW25480   4.707   6.822   1.941
 8194SOL    HW125481   4.714   6.733   1.896
 8194SOL    HW225482   4.612   6.838   1.967
 8195SOL     OW25483   5.539   6.447   3.033
 8195SOL    HW125484   5.517   6.421   2.939
 8195SOL    HW225485   5.578   6.369   3.082
 8196SOL     OW25486   4.663   0.353   0.121
 8196SOL    HW125487   4.639   0.321   0.213
 8196SOL    HW225488   4.678   0.452   0.124
 8197SOL     OW25489   5.310   2.117   1.693
 8197SOL    HW125490   5.262   2.036   1.661
 8197SOL    HW225491   5.260   2.199   1.664
 8198SOL     OW25492   2.173   0.684   2.554
 8198SOL    HW125493   2.194   0.775   2.590
 8198SOL    HW225494   2.111   0.693   2.476
 8199SOL     OW25495   5.420   2.649   5.818
 8199SOL    HW125496   5.328   2.670   5.853
 8199SOL    HW225497   5.483   2.722   5.846
 8200SOL     OW25498   4.649   3.288   1.150
 8200SOL    HW125499   4.626   3.284   1.053
 8200SOL    HW225500   4.712   3.365   1.166
 8201SOL     OW25501   0.236   6.756   5.154
 8201SOL    HW125502   0.200   6.791   5.240
 8201SOL    HW225503   0.247   6.832   5.090
 8202SOL     OW25504   0.408   6.355   2.532
 8202SOL    HW125505   0.333   6.308   2.485
 8202SOL    HW225506   0.494   6.306   2.515
 8203SOL     OW25507   1.733   2.932   1.163
 8203SOL    HW125508   1.766   2.952   1.256
 8203SOL    HW225509   1.634   2.917   1.166
 8204SOL     OW25510   4.487   3.485   1.326
 8204SOL    HW125511   4.567   3.433   1.298
 8204SOL    HW225512   4.419   3.423   1.366
 8205SOL     OW25513   1.366   3.445   0.645
 8205SOL    HW125514   1.353   3.526   0.702
 8205SOL    HW225515   1.295   3.377   0.666
 8206SOL     OW25516   4.300   1.262   6.923
 8206SOL    HW125517   4.376   1.201   6.900
 8206SOL    HW225518   4.274   1.316   6.844
 8207SOL     OW25519   3.970   3.145   4.241
 8207SOL    HW125520   3.972   3.062   4.186
 8207SOL    HW225521   4.023   3.217   4.196
 8208SOL     OW25522   1.270   1.304   0.078
 8208SOL    HW125523   1.254   1.213   0.041
 8208SOL    HW225524   1.366   1.313   0.105
 8209SOL     OW25525   6.876   0.928   5.284
 8209SOL    HW125526   6.830   1.016   5.273
 8209SOL    HW225527   6.901   0.891   5.195
 8210SOL     OW25528   1.673   2.946   0.584
 8210SOL    HW125529   1.644   2.859   0.623
 8210SOL    HW225530   1.763   2.971   0.621
 8211SOL     OW25531   2.921   4.156   1.178
 8211SOL    HW125532   2.919   4.062   1.145
 8211SOL    HW225533   2.881   4.216   1.110
 8212SOL     OW25534   2.075   2.059   2.894
 8212SOL    HW125535   2.154   2.112   2.928
 8212SOL    HW225536   1.991   2.099   2.930
 8213SOL     OW25537   0.198   4.917   1.630
 8213SOL    HW125538   0.274   4.916   1.564
 8213SOL    HW225539   0.114   4.891   1.584
 8214SOL     OW25540   5.707   4.493   3.436
 8214SOL    HW125541   5.728   4.462   3.529
 8214SOL    HW225542   5.670   4.585   3.439
 8215SOL     OW25543   3.820   4.930   4.812
 8215SOL    HW125544   3.812   4.973   4.902
 8215SOL    HW225545   3.916   4.924   4.786
 8216SOL     OW25546   5.257   4.547   4.125
 8216SOL    HW125547   5.198   4.561   4.045
 8216SOL    HW225548   5.203   4.509   4.200
 8217SOL     OW25549   1.742   5.865   0.724
 8217SOL    HW125550   1.748   5.935   0.794
 8217SOL    HW225551   1.782   5.899   0.639
 8218SOL     OW25552   0.328   1.734   0.135
 8218SOL    HW125553   0.344   1.650   0.084
 8218SOL    HW225554   0.359   1.723   0.229
 8219SOL     OW25555   5.680   2.047   6.723
 8219SOL    HW125556   5.613   2.097   6.778
 8219SOL    HW225557   5.634   2.003   6.646
 8220SOL     OW25558   3.443   3.664   2.565
 8220SOL    HW125559   3.460   3.595   2.495
 8220SOL    HW225560   3.531   3.700   2.598
 8221SOL     OW25561   5.062   5.850   3.879
 8221SOL    HW125562   5.030   5.944   3.890
 8221SOL    HW225563   5.151   5.839   3.924
 8222SOL     OW25564   6.117   1.886   1.967
 8222SOL    HW125565   6.125   1.790   1.938
 8222SOL    HW225566   6.201   1.934   1.943
 8223SOL     OW25567   0.698   4.168   6.327
 8223SOL    HW125568   0.693   4.248   6.387
 8223SOL    HW225569   0.657   4.190   6.239
 8224SOL     OW25570   0.686   2.885   2.701
 8224SOL    HW125571   0.655   2.932   2.619
 8224SOL    HW225572   0.775   2.843   2.685
 8225SOL     OW25573   4.941   1.048   6.071
 8225SOL    HW125574   5.003   1.043   6.150
 8225SOL    HW225575   4.889   1.133   6.076
 8226SOL     OW25576   5.107   0.879   1.197
 8226SOL    HW125577   5.080   0.922   1.283
 8226SOL    HW225578   5.160   0.945   1.143
 8227SOL     OW25579   6.617   3.201   3.280
 8227SOL    HW125580   6.608   3.266   3.356
 8227SOL    HW225581   6.531   3.152   3.268
 8228SOL     OW25582   0.617   1.877   4.804
 8228SOL    HW125583   0.559   1.915   4.731
 8228SOL    HW225584   0.696   1.831   4.763
 8229SOL     OW25585   2.954   5.713   6.846
 8229SOL    HW125586   3.013   5.706   6.766
 8229SOL    HW225587   2.882   5.780   6.829
 8230SOL     OW25588   4.650   0.006   5.064
 8230SOL    HW125589   4.559   7.019   5.022
 8230SOL    HW225590   4.662   0.100   5.096
 8231SOL     OW25591   5.173   5.547   1.569
 8231SOL    HW125592   5.223   5.629   1.597
 8231SOL    HW225593   5.075   5.565   1.571
 8232SOL     OW25594   4.019   1.413   0.156
 8232SOL    HW125595   4.055   1.323   0.132
 8232SOL    HW225596   4.088   1.464   0.208
 8233SOL     OW25597   0.619   5.232   5.979
 8233SOL    HW125598   0.621   5.308   5.914
 8233SOL    HW225599   0.622   5.268   6.072
 8234SOL     OW25600   2.634   2.461   0.008
 8234SOL    HW125601   2.631   2.375   0.059
 8234SOL    HW225602   2.611   2.536   0.069
 8235SOL     OW25603   3.762   3.299   0.979
 8235SOL    HW125604   3.703   3.220   0.995
 8235SOL    HW225605   3.718   3.361   0.915
 8236SOL     OW25606   6.672   2.914   0.147
 8236SOL    HW125607   6.603   2.945   0.213
 8236SOL    HW225608   6.728   2.843   0.190
 8237SOL     OW25609   4.452   5.681   5.280
 8237SOL    HW125610   4.547   5.657   5.302
 8237SOL    HW225611   4.416   5.743   5.349
 8238SOL     OW25612   2.057   3.764   0.363
 8238SOL    HW125613   2.026   3.817   0.442
 8238SOL    HW225614   2.089   3.675   0.394
 8239SOL     OW25615   6.299   2.082   5.347
 8239SOL    HW125616   6.340   2.056   5.435
 8239SOL    HW225617   6.237   2.009   5.316
 8240SOL     OW25618   3.073   3.927   2.483
 8240SOL    HW125619   3.120   3.850   2.439
 8240SOL    HW225620   3.038   3.898   2.572
 8241SOL     OW25621   3.299   0.037   0.832
 8241SOL    HW125622   3.311   0.002   0.739
 8241SOL    HW225623   3.383   0.024   0.884
 8242SOL     OW25624   0.780   4.470   5.889
 8242SOL    HW125625   0.743   4.544   5.833
 8242SOL    HW225626   0.825   4.508   5.969
 8243SOL     OW25627   0.173   3.091   5.911
 8243SOL    HW125628   0.147   2.994   5.913
 8243SOL    HW225629   0.097   3.147   5.943
 8244SOL     OW25630   0.413   0.003   4.003
 8244SOL    HW125631   0.368   0.087   3.973
 8244SOL    HW225632   0.350   6.949   3.995
 8245SOL     OW25633   4.470   1.967   1.134
 8245SOL    HW125634   4.563   1.930   1.144
 8245SOL    HW225635   4.467   2.060   1.171
 8246SOL     OW25636   6.170   4.062   5.967
 8246SOL    HW125637   6.120   4.149   5.966
 8246SOL    HW225638   6.105   3.986   5.960
 8247SOL     OW25639   0.879   0.627   1.466
 8247SOL    HW125640   0.835   0.606   1.553
 8247SOL    HW225641   0.918   0.544   1.427
 8248SOL     OW25642   5.662   4.829   3.690
 8248SOL    HW125643   5.749   4.781   3.674
 8248SOL    HW225644   5.665   4.872   3.780
 8249SOL     OW25645   2.141   4.653   4.446
 8249SOL    HW125646   2.237   4.676   4.463
 8249SOL    HW225647   2.096   4.730   4.401
 8250SOL     OW25648   3.811   3.998   3.064
 8250SOL    HW125649   3.718   4.035   3.076
 8250SOL    HW225650   3.833   3.937   3.140
 8251SOL     OW25651   5.098   2.112   4.910
 8251SOL    HW125652   5.165   2.149   4.846
 8251SOL    HW225653   5.127   2.131   5.004
 8252SOL     OW25654   2.736   3.167   5.855
 8252SOL    HW125655   2.729   3.161   5.955
 8252SOL    HW225656   2.776   3.256   5.831
 8253SOL     OW25657   3.403   2.956   5.212
 8253SOL    HW125658   3.334   2.888   5.189
 8253SOL    HW225659   3.359   3.036   5.253
 8254SOL     OW25660   4.124   4.797   4.572
 8254SOL    HW125661   4.147   4.762   4.481
 8254SOL    HW225662   4.178   4.749   4.641
 8255SOL     OW25663   4.162   5.705   4.057
 8255SOL    HW125664   4.103   5.683   3.979
 8255SOL    HW225665   4.238   5.762   4.027
 8256SOL     OW25666   5.441   1.214   3.668
 8256SOL    HW125667   5.345   1.240   3.678
 8256SOL    HW225668   5.487   1.277   3.606
 8257SOL     OW25669   5.786   5.044   3.145
 8257SOL    HW125670   5.710   5.037   3.210
 8257SOL    HW225671   5.872   5.032   3.193
 8258SOL     OW25672   4.814   1.087   0.433
 8258SOL    HW125673   4.873   1.040   0.368
 8258SOL    HW225674   4.840   1.063   0.526
 8259SOL     OW25675   3.587   1.469   3.700
 8259SOL    HW125676   3.591   1.472   3.800
 8259SOL    HW225677   3.494   1.449   3.671
 8260SOL     OW25678   2.453   6.676   2.124
 8260SOL    HW125679   2.385   6.610   2.157
 8260SOL    HW225680   2.451   6.679   2.024
 8261SOL     OW25681   5.536   1.440   0.827
 8261SOL    HW125682   5.476   1.419   0.903
 8261SOL    HW225683   5.630   1.413   0.849
 8262SOL     OW25684   1.125   2.424   1.482
 8262SOL    HW125685   1.164   2.434   1.574
 8262SOL    HW225686   1.161   2.340   1.440
 8263SOL     OW25687   7.009   1.098   1.462
 8263SOL    HW125688   0.079   1.061   1.457
 8263SOL    HW225689   6.987   1.120   1.557
 8264SOL     OW25690   1.162   6.294   2.079
 8264SOL    HW125691   1.185   6.272   1.984
 8264SOL    HW225692   1.145   6.392   2.088
 8265SOL     OW25693   1.736   0.387   1.956
 8265SOL    HW125694   1.759   0.290   1.947
 8265SOL    HW225695   1.764   0.419   2.047
 8266SOL     OW25696   2.274   6.538   3.031
 8266SOL    HW125697   2.220   6.565   3.111
 8266SOL    HW225698   2.243   6.588   2.951
 8267SOL     OW25699   1.832   3.342   1.300
 8267SOL    HW125700   1.787   3.293   1.225
 8267SOL    HW225701   1.763   3.370   1.367
 8268SOL     OW25702   2.235   6.508   6.134
 8268SOL    HW125703   2.249   6.592   6.187
 8268SOL    HW225704   2.172   6.527   6.059
 8269SOL     OW25705   5.815   1.658   0.871
 8269SOL    HW125706   5.907   1.689   0.849
 8269SOL    HW225707   5.749   1.730   0.849
 8270SOL     OW25708   3.342   6.689   4.143
 8270SOL    HW125709   3.255   6.658   4.104
 8270SOL    HW225710   3.326   6.729   4.233
 8271SOL     OW25711   6.730   1.562   3.238
 8271SOL    HW125712   6.804   1.530   3.178
 8271SOL    HW225713   6.670   1.486   3.261
 8272SOL     OW25714   4.542   0.629   2.403
 8272SOL    HW125715   4.485   0.608   2.482
 8272SOL    HW225716   4.589   0.716   2.418
 8273SOL     OW25717   2.051   6.835   1.085
 8273SOL    HW125718   2.050   6.845   0.985
 8273SOL    HW225719   2.107   6.756   1.110
 8274SOL     OW25720   4.289   5.000   3.182
 8274SOL    HW125721   4.316   5.092   3.156
 8274SOL    HW225722   4.202   4.977   3.138
 8275SOL     OW25723   4.162   2.437   5.844
 8275SOL    HW125724   4.202   2.460   5.933
 8275SOL    HW225725   4.212   2.360   5.804
 8276SOL     OW25726   0.559   2.355   4.119
 8276SOL    HW125727   0.565   2.453   4.135
 8276SOL    HW225728   0.490   2.336   4.049
 8277SOL     OW25729   6.735   0.825   6.474
 8277SOL    HW125730   6.789   0.756   6.426
 8277SOL    HW225731   6.763   0.827   6.570
 8278SOL     OW25732   2.552   2.099   6.983
 8278SOL    HW125733   2.622   2.079   6.914
 8278SOL    HW225734   2.595   2.114   0.049
 8279SOL     OW25735   0.767   6.257   4.737
 8279SOL    HW125736   0.764   6.355   4.756
 8279SOL    HW225737   0.760   6.242   4.638
 8280SOL     OW25738   3.087   2.475   6.776
 8280SOL    HW125739   3.006   2.533   6.789
 8280SOL    HW225740   3.070   2.411   6.701
 8281SOL     OW25741   1.099   5.764   1.351
 8281SOL    HW125742   1.024   5.712   1.310
 8281SOL    HW225743   1.118   5.845   1.296
 8282SOL     OW25744   5.731   2.879   6.156
 8282SOL    HW125745   5.685   2.966   6.135
 8282SOL    HW225746   5.808   2.896   6.217
 8283SOL     OW25747   1.267   4.656   6.232
 8283SOL    HW125748   1.232   4.570   6.195
 8283SOL    HW225749   1.322   4.637   6.313
 8284SOL     OW25750   0.296   4.371   2.101
 8284SOL    HW125751   0.225   4.382   2.031
 8284SOL    HW225752   0.386   4.370   2.058
 8285SOL     OW25753   3.866   3.143   5.104
 8285SOL    HW125754   3.918   3.116   5.185
 8285SOL    HW225755   3.862   3.066   5.040
 8286SOL     OW25756   6.259   2.659   5.552
 8286SOL    HW125757   6.304   2.570   5.560
 8286SOL    HW225758   6.232   2.690   5.643
 8287SOL     OW25759   1.000   5.322   4.683
 8287SOL    HW125760   0.949   5.362   4.759
 8287SOL    HW225761   1.044   5.395   4.630
 8288SOL     OW25762   2.464   2.267   3.239
 8288SOL    HW125763   2.513   2.192   3.195
 8288SOL    HW225764   2.481   2.352   3.189
 8289SOL     OW25765   0.732   0.263   0.497
 8289SOL    HW125766   0.703   0.202   0.423
 8289SOL    HW225767   0.802   0.218   0.552
 8290SOL     OW25768   6.800   1.711   0.679
 8290SOL    HW125769   6.796   1.776   0.603
 8290SOL    HW225770   6.895   1.690   0.700
 8291SOL     OW25771   4.816   0.139   6.986
 8291SOL    HW125772   4.771   0.186   0.040
 8291SOL    HW225773   4.913   0.130   7.006
 8292SOL     OW25774   2.818   6.505   0.354
 8292SOL    HW125775   2.773   6.565   0.419
 8292SOL    HW225776   2.770   6.509   0.266
 8293SOL     OW25777   4.165   0.100   6.559
 8293SOL    HW125778   4.192   0.197   6.554
 8293SOL    HW225779   4.240   0.047   6.598
 8294SOL     OW25780   6.034   3.265   6.472
 8294SOL    HW125781   6.055   3.329   6.399
 8294SOL    HW225782   6.113   3.256   6.533
 8295SOL     OW25783   5.386   5.121   2.120
 8295SOL    HW125784   5.455   5.080   2.179
 8295SOL    HW225785   5.311   5.156   2.177
 8296SOL     OW25786   1.505   6.334   6.514
 8296SOL    HW125787   1.535   6.412   6.459
 8296SOL    HW225788   1.548   6.338   6.604
 8297SOL     OW25789   6.369   2.571   3.470
 8297SOL    HW125790   6.427   2.507   3.420
 8297SOL    HW225791   6.276   2.569   3.433
 8298SOL     OW25792   5.062   1.442   1.509
 8298SOL    HW125793   5.010   1.363   1.478
 8298SOL    HW225794   5.150   1.412   1.546
 8299SOL     OW25795   0.334   3.033   1.853
 8299SOL    HW125796   0.330   2.934   1.861
 8299SOL    HW225797   0.421   3.060   1.812
 8300SOL     OW25798   0.642   4.617   5.410
 8300SOL    HW125799   0.685   4.614   5.320
 8300SOL    HW225800   0.606   4.527   5.433
 8301SOL     OW25801   4.324   2.262   1.080
 8301SOL    HW125802   4.338   2.275   1.179
 8301SOL    HW225803   4.281   2.343   1.042
 8302SOL     OW25804   5.774   6.612   6.859
 8302SOL    HW125805   5.742   6.647   6.947
 8302SOL    HW225806   5.853   6.665   6.828
 8303SOL     OW25807   0.088   0.124   4.702
 8303SOL    HW125808   0.177   0.141   4.659
 8303SOL    HW225809   0.016   0.166   4.646
 8304SOL     OW25810   1.064   3.388   6.080
 8304SOL    HW125811   1.107   3.476   6.102
 8304SOL    HW225812   1.071   3.371   5.981
 8305SOL     OW25813   3.723   5.487   3.974
 8305SOL    HW125814   3.670   5.481   4.058
 8305SOL    HW225815   3.751   5.395   3.946
 8306SOL     OW25816   0.538   2.568   5.374
 8306SOL    HW125817   0.630   2.593   5.343
 8306SOL    HW225818   0.506   2.489   5.321
 8307SOL     OW25819   3.861   5.369   1.179
 8307SOL    HW125820   3.801   5.367   1.099
 8307SOL    HW225821   3.956   5.375   1.149
 8308SOL     OW25822   4.302   6.794   1.553
 8308SOL    HW125823   4.350   6.706   1.557
 8308SOL    HW225824   4.206   6.781   1.576
 8309SOL     OW25825   5.546   5.479   2.920
 8309SOL    HW125826   5.615   5.550   2.911
 8309SOL    HW225827   5.563   5.427   3.005
 8310SOL     OW25828   1.018   4.295   0.527
 8310SOL    HW125829   1.088   4.242   0.576
 8310SOL    HW225830   0.948   4.325   0.591
 8311SOL     OW25831   0.429   0.645   6.540
 8311SOL    HW125832   0.381   0.585   6.476
 8311SOL    HW225833   0.472   0.720   6.489
 8312SOL     OW25834   4.876   6.359   1.540
 8312SOL    HW125835   4.816   6.300   1.595
 8312SOL    HW225836   4.826   6.441   1.514
 8313SOL     OW25837   3.925   1.950   2.998
 8313SOL    HW125838   3.863   1.891   3.049
 8313SOL    HW225839   3.992   1.894   2.950
 8314SOL     OW25840   5.050   6.781   0.978
 8314SOL    HW125841   5.062   6.759   0.882
 8314SOL    HW225842   5.053   6.881   0.990
 8315SOL     OW25843   4.240   3.245   0.835
 8315SOL    HW125844   4.151   3.257   0.879
 8315SOL    HW225845   4.262   3.325   0.780
 8316SOL     OW25846   0.404   3.751   1.339
 8316SOL    HW125847   0.313   3.779   1.371
 8316SOL    HW225848   0.402   3.738   1.240
 8317SOL     OW25849   2.069   3.417   2.695
 8317SOL    HW125850   2.011   3.341   2.665
 8317SOL    HW225851   2.095   3.473   2.616
 8318SOL     OW25852   4.253   1.941   4.996
 8318SOL    HW125853   4.323   1.872   5.015
 8318SOL    HW225854   4.218   1.928   4.903
 8319SOL     OW25855   3.267   1.479   5.663
 8319SOL    HW125856   3.252   1.571   5.699
 8319SOL    HW225857   3.250   1.478   5.565
 8320SOL     OW25858   3.253   4.776   1.281
 8320SOL    HW125859   3.318   4.778   1.357
 8320SOL    HW225860   3.160   4.778   1.317
 8321SOL     OW25861   0.414   1.507   6.673
 8321SOL    HW125862   0.482   1.581   6.673
 8321SOL    HW225863   0.376   1.497   6.581
 8322SOL     OW25864   6.929   0.046   6.963
 8322SOL    HW125865   6.920   6.976   6.999
 8322SOL    HW225866   6.912   0.113   0.013
 8323SOL     OW25867   0.498   0.336   2.465
 8323SOL    HW125868   0.558   0.400   2.512
 8323SOL    HW225869   0.422   0.386   2.423
 8324SOL     OW25870   6.473   0.658   2.095
 8324SOL    HW125871   6.504   0.690   2.005
 8324SOL    HW225872   6.385   0.612   2.087
 8325SOL     OW25873   4.152   3.515   4.476
 8325SOL    HW125874   4.252   3.519   4.473
 8325SOL    HW225875   4.124   3.421   4.491
 8326SOL     OW25876   4.475   3.524   5.540
 8326SOL    HW125877   4.486   3.584   5.460
 8326SOL    HW225878   4.398   3.556   5.595
 8327SOL     OW25879   4.890   2.288   5.723
 8327SOL    HW125880   4.947   2.334   5.792
 8327SOL    HW225881   4.845   2.357   5.666
 8328SOL     OW25882   2.548   3.741   6.047
 8328SOL    HW125883   2.504   3.824   6.015
 8328SOL    HW225884   2.628   3.765   6.103
 8329SOL     OW25885   6.962   2.751   5.409
 8329SOL    HW125886   0.001   2.679   5.377
 8329SOL    HW225887   7.016   2.821   5.457
 8330SOL     OW25888   1.769   6.657   0.680
 8330SOL    HW125889   1.866   6.672   0.702
 8330SOL    HW225890   1.755   6.665   0.581
 8331SOL     OW25891   2.998   0.102   1.182
 8331SOL    HW125892   3.020   0.198   1.201
 8331SOL    HW225893   2.979   0.055   1.268
 8332SOL     OW25894   4.712   5.360   2.315
 8332SOL    HW125895   4.702   5.285   2.380
 8332SOL    HW225896   4.641   5.354   2.246
 8333SOL     OW25897   6.948   5.705   0.239
 8333SOL    HW125898   6.958   5.606   0.248
 8333SOL    HW225899   0.016   5.747   0.229
 8334SOL     OW25900   5.523   1.245   3.958
 8334SOL    HW125901   5.561   1.337   3.957
 8334SOL    HW225902   5.514   1.211   3.864
 8335SOL     OW25903   6.482   5.258   6.061
 8335SOL    HW125904   6.447   5.257   6.155
 8335SOL    HW225905   6.515   5.350   6.039
 8336SOL     OW25906   6.608   1.200   3.021
 8336SOL    HW125907   6.617   1.273   2.953
 8336SOL    HW225908   6.655   1.227   3.105
 8337SOL     OW25909   0.777   6.416   3.978
 8337SOL    HW125910   0.740   6.440   3.888
 8337SOL    HW225911   0.730   6.335   4.012
 8338SOL     OW25912   1.974   4.758   1.670
 8338SOL    HW125913   2.056   4.791   1.624
 8338SOL    HW225914   1.942   4.826   1.736
 8339SOL     OW25915   6.790   0.933   2.872
 8339SOL    HW125916   6.881   0.902   2.902
 8339SOL    HW225917   6.739   0.968   2.951
 8340SOL     OW25918   4.652   3.762   1.102
 8340SOL    HW125919   4.620   3.787   1.193
 8340SOL    HW225920   4.703   3.839   1.062
 8341SOL     OW25921   1.597   6.890   0.557
 8341SOL    HW125922   1.608   6.791   0.545
 8341SOL    HW225923   1.605   6.913   0.654
 8342SOL     OW25924   3.765   0.095   1.082
 8342SOL    HW125925   3.862   0.114   1.063
 8342SOL    HW225926   3.730   0.166   1.143
 8343SOL     OW25927   1.976   5.247   6.123
 8343SOL    HW125928   1.959   5.149   6.118
 8343SOL    HW225929   1.935   5.284   6.206
 8344SOL     OW25930   4.533   6.574   5.854
 8344SOL    HW125931   4.461   6.624   5.901
 8344SOL    HW225932   4.603   6.546   5.920
 8345SOL     OW25933   5.759   2.030   3.695
 8345SOL    HW125934   5.718   1.951   3.650
 8345SOL    HW225935   5.711   2.049   3.781
 8346SOL     OW25936   2.473   4.840   0.296
 8346SOL    HW125937   2.546   4.832   0.364
 8346SOL    HW225938   2.507   4.809   0.207
 8347SOL     OW25939   2.655   0.006   5.244
 8347SOL    HW125940   2.563   7.014   5.279
 8347SOL    HW225941   2.661   0.096   5.201
 8348SOL     OW25942   1.315   0.315   1.599
 8348SOL    HW125943   1.386   0.303   1.669
 8348SOL    HW225944   1.328   0.247   1.527
 8349SOL     OW25945   5.473   3.556   1.068
 8349SOL    HW125946   5.433   3.464   1.071
 8349SOL    HW225947   5.572   3.550   1.066
 8350SOL     OW25948   5.754   0.820   5.020
 8350SOL    HW125949   5.664   0.826   5.064
 8350SOL    HW225950   5.765   0.729   4.980
 8351SOL     OW25951   3.600   5.445   4.209
 8351SOL    HW125952   3.578   5.486   4.297
 8351SOL    HW225953   3.657   5.364   4.223
 8352SOL     OW25954   6.655   0.148   2.026
 8352SOL    HW125955   6.574   0.140   2.084
 8352SOL    HW225956   6.711   0.066   2.036
 8353SOL     OW25957   5.922   4.065   2.257
 8353SOL    HW125958   5.983   4.140   2.230
 8353SOL    HW225959   5.845   4.102   2.310
 8354SOL     OW25960   3.043   1.385   6.534
 8354SOL    HW125961   3.139   1.403   6.511
 8354SOL    HW225962   2.984   1.418   6.460
 8355SOL     OW25963   3.050   0.902   6.964
 8355SOL    HW125964   3.041   0.941   6.872
 8355SOL    HW225965   2.990   0.823   6.972
 8356SOL     OW25966   0.766   6.535   0.375
 8356SOL    HW125967   0.744   6.602   0.446
 8356SOL    HW225968   0.725   6.447   0.399
 8357SOL     OW25969   4.054   5.465   5.106
 8357SOL    HW125970   4.134   5.460   5.165
 8357SOL    HW225971   4.078   5.506   5.019
 8358SOL     OW25972   2.006   2.409   5.361
 8358SOL    HW125973   2.065   2.378   5.436
 8358SOL    HW225974   2.027   2.357   5.278
 8359SOL     OW25975   4.238   5.955   4.583
 8359SOL    HW125976   4.142   5.975   4.565
 8359SOL    HW225977   4.288   5.945   4.497
 8360SOL     OW25978   3.737   0.373   2.734
 8360SOL    HW125979   3.747   0.301   2.666
 8360SOL    HW225980   3.642   0.404   2.738
 8361SOL     OW25981   1.825   1.381   2.258
 8361SOL    HW125982   1.925   1.377   2.264
 8361SOL    HW225983   1.790   1.435   2.335
 8362SOL     OW25984   3.087   2.402   0.649
 8362SOL    HW125985   3.176   2.361   0.669
 8362SOL    HW225986   3.066   2.471   0.718
 8363SOL     OW25987   0.907   2.634   0.682
 8363SOL    HW125988   0.825   2.685   0.653
 8363SOL    HW225989   0.879   2.554   0.735
 8364SOL     OW25990   6.841   3.176   2.791
 8364SOL    HW125991   6.764   3.186   2.855
 8364SOL    HW225992   6.813   3.120   2.714
 8365SOL     OW25993   2.205   3.638   0.678
 8365SOL    HW125994   2.229   3.561   0.737
 8365SOL    HW225995   2.207   3.608   0.583
 8366SOL     OW25996   4.674   6.008   2.236
 8366SOL    HW125997   4.751   5.987   2.176
 8366SOL    HW225998   4.708   6.039   2.325
 8367SOL     OW25999   4.807   6.363   3.891
 8367SOL    HW126000   4.764   6.396   3.975
 8367SOL    HW226001   4.740   6.313   3.837
 8368SOL     OW26002   2.893   5.582   6.312
 8368SOL    HW126003   2.953   5.640   6.257
 8368SOL    HW226004   2.820   5.546   6.255
 8369SOL     OW26005   1.859   0.794   0.319
 8369SOL    HW126006   1.805   0.849   0.382
 8369SOL    HW226007   1.802   0.765   0.242
 8370SOL     OW26008   2.715   1.976   5.855
 8370SOL    HW126009   2.750   2.038   5.925
 8370SOL    HW226010   2.790   1.948   5.795
 8371SOL     OW26011   1.462   3.556   0.104
 8371SOL    HW126012   1.443   3.525   0.197
 8371SOL    HW226013   1.390   3.618   0.074
 8372SOL     OW26014   0.512   6.959   2.861
 8372SOL    HW126015   0.536   6.948   2.957
 8372SOL    HW226016   0.513   6.869   2.816
 8373SOL     OW26017   0.805   6.335   5.408
 8373SOL    HW126018   0.707   6.327   5.388
 8373SOL    HW226019   0.857   6.289   5.336
 8374SOL     OW26020   0.354   1.075   0.004
 8374SOL    HW126021   0.281   1.129   6.984
 8374SOL    HW226022   0.325   1.045   0.094
 8375SOL     OW26023   3.317   5.810   5.934
 8375SOL    HW126024   3.255   5.884   5.907
 8375SOL    HW226025   3.369   5.780   5.854
 8376SOL     OW26026   2.507   0.474   4.437
 8376SOL    HW126027   2.525   0.426   4.351
 8376SOL    HW226028   2.440   0.422   4.491
 8377SOL     OW26029   5.609   5.659   1.200
 8377SOL    HW126030   5.509   5.661   1.202
 8377SOL    HW226031   5.644   5.667   1.293
 8378SOL     OW26032   5.461   3.857   3.036
 8378SOL    HW126033   5.463   3.757   3.033
 8378SOL    HW226034   5.378   3.888   3.082
 8379SOL     OW26035   6.654   3.862   2.019
 8379SOL    HW126036   6.615   3.912   2.097
 8379SOL    HW226037   6.748   3.892   2.004
 8380SOL     OW26038   5.871   1.274   2.335
 8380SOL    HW126039   5.907   1.181   2.325
 8380SOL    HW226040   5.810   1.277   2.415
 8381SOL     OW26041   0.745   5.127   4.628
 8381SOL    HW126042   0.773   5.068   4.703
 8381SOL    HW226043   0.765   5.222   4.650
 8382SOL     OW26044   1.684   1.761   2.281
 8382SOL    HW126045   1.733   1.799   2.202
 8382SOL    HW226046   1.593   1.732   2.252
 8383SOL     OW26047   2.686   2.095   6.748
 8383SOL    HW126048   2.705   2.193   6.748
 8383SOL    HW226049   2.645   2.069   6.661
 8384SOL     OW26050   0.116   6.574   0.989
 8384SOL    HW126051   0.163   6.560   1.076
 8384SOL    HW226052   0.084   6.668   0.983
 8385SOL     OW26053   5.582   2.598   2.195
 8385SOL    HW126054   5.603   2.657   2.273
 8385SOL    HW226055   5.581   2.651   2.111
 8386SOL     OW26056   0.971   4.235   2.552
 8386SOL    HW126057   0.893   4.241   2.615
 8386SOL    HW226058   1.028   4.157   2.578
 8387SOL     OW26059   1.515   1.141   0.994
 8387SOL    HW126060   1.471   1.197   0.924
 8387SOL    HW226061   1.463   1.146   1.079
 8388SOL     OW26062   2.938   6.125   1.609
 8388SOL    HW126063   2.853   6.171   1.637
 8388SOL    HW226064   3.007   6.137   1.680
 8389SOL     OW26065   5.827   3.127   2.083
 8389SOL    HW126066   5.833   3.218   2.041
 8389SOL    HW226067   5.779   3.065   2.020
 8390SOL     OW26068   3.585   2.342   6.280
 8390SOL    HW126069   3.547   2.348   6.188
 8390SOL    HW226070   3.546   2.263   6.327
 8391SOL     OW26071   6.133   0.125   0.682
 8391SOL    HW126072   6.203   0.116   0.611
 8391SOL    HW226073   6.115   0.221   0.700
 8392SOL     OW26074   6.314   3.721   4.662
 8392SOL    HW126075   6.242   3.711   4.730
 8392SOL    HW226076   6.379   3.646   4.672
 8393SOL     OW26077   4.731   0.478   2.145
 8393SOL    HW126078   4.647   0.427   2.161
 8393SOL    HW226079   4.775   0.445   2.062
 8394SOL     OW26080   6.197   3.935   2.385
 8394SOL    HW126081   6.215   3.900   2.478
 8394SOL    HW226082   6.149   4.022   2.391
 8395SOL     OW26083   2.205   0.485   5.233
 8395SOL    HW126084   2.133   0.479   5.303
 8395SOL    HW226085   2.272   0.554   5.260
 8396SOL     OW26086   4.319   5.196   4.105
 8396SOL    HW126087   4.337   5.287   4.142
 8396SOL    HW226088   4.224   5.170   4.124
 8397SOL     OW26089   6.509   1.485   4.166
 8397SOL    HW126090   6.481   1.555   4.100
 8397SOL    HW226091   6.429   1.451   4.215
 8398SOL     OW26092   5.160   1.963   6.460
 8398SOL    HW126093   5.113   1.976   6.547
 8398SOL    HW226094   5.191   2.051   6.425
 8399SOL     OW26095   6.756   6.251   6.741
 8399SOL    HW126096   6.722   6.336   6.701
 8399SOL    HW226097   6.679   6.192   6.765
 8400SOL     OW26098   1.359   2.175   4.308
 8400SOL    HW126099   1.296   2.234   4.257
 8400SOL    HW226100   1.390   2.101   4.248
 8401SOL     OW26101   2.357   0.189   5.455
 8401SOL    HW126102   2.293   0.181   5.532
 8401SOL    HW226103   2.426   0.258   5.476
 8402SOL     OW26104   4.825   0.835   5.939
 8402SOL    HW126105   4.858   0.916   5.988
 8402SOL    HW226106   4.731   0.850   5.909
 8403SOL     OW26107   6.365   4.372   3.990
 8403SOL    HW126108   6.411   4.349   4.076
 8403SOL    HW226109   6.267   4.382   4.006
 8404SOL     OW26110   2.347   1.901   6.122
 8404SOL    HW126111   2.427   1.879   6.066
 8404SOL    HW226112   2.369   1.978   6.182
 8405SOL     OW26113   3.669   1.572   5.576
 8405SOL    HW126114   3.684   1.474   5.587
 8405SOL    HW226115   3.757   1.620   5.583
 8406SOL     OW26116   5.105   0.969   6.645
 8406SOL    HW126117   5.108   0.871   6.625
 8406SOL    HW226118   5.154   1.018   6.574
 8407SOL     OW26119   3.905   6.689   3.297
 8407SOL    HW126120   3.846   6.689   3.378
 8407SOL    HW226121   3.848   6.683   3.215
 8408SOL     OW26122   5.292   6.769   1.170
 8408SOL    HW126123   5.373   6.772   1.111
 8408SOL    HW226124   5.212   6.748   1.114
 8409SOL     OW26125   4.432   2.399   1.952
 8409SOL    HW126126   4.513   2.430   2.002
 8409SOL    HW226127   4.412   2.462   1.878
 8410SOL     OW26128   6.970   2.044   1.638
 8410SOL    HW126129   7.010   2.135   1.630
 8410SOL    HW226130   0.002   1.979   1.585
 8411SOL     OW26131   0.285   6.032   1.320
 8411SOL    HW126132   0.308   6.123   1.288
 8411SOL    HW226133   0.362   5.970   1.302
 8412SOL     OW26134   3.256   3.003   0.694
 8412SOL    HW126135   3.351   3.013   0.723
 8412SOL    HW226136   3.196   3.055   0.755
 8413SOL     OW26137   4.095   5.385   5.955
 8413SOL    HW126138   4.118   5.467   5.904
 8413SOL    HW226139   4.177   5.330   5.969
 8414SOL     OW26140   1.656   0.945   2.780
 8414SOL    HW126141   1.637   0.938   2.682
 8414SOL    HW226142   1.689   0.856   2.813
 8415SOL     OW26143   3.134   0.011   4.273
 8415SOL    HW126144   3.161   0.108   4.280
 8415SOL    HW226145   3.120   6.996   4.365
 8416SOL     OW26146   5.848   1.793   5.076
 8416SOL    HW126147   5.919   1.722   5.074
 8416SOL    HW226148   5.777   1.767   5.140
 8417SOL     OW26149   1.149   3.319   5.099
 8417SOL    HW126150   1.062   3.295   5.055
 8417SOL    HW226151   1.222   3.265   5.058
 8418SOL     OW26152   0.771   5.551   2.323
 8418SOL    HW126153   0.737   5.602   2.243
 8418SOL    HW226154   0.870   5.564   2.331
 8419SOL     OW26155   5.446   0.904   2.925
 8419SOL    HW126156   5.353   0.939   2.912
 8419SOL    HW226157   5.511   0.980   2.925
 8420SOL     OW26158   3.762   6.862   2.343
 8420SOL    HW126159   3.674   6.852   2.296
 8420SOL    HW226160   3.760   6.812   2.429
 8421SOL     OW26161   3.961   6.303   5.897
 8421SOL    HW126162   3.934   6.273   5.989
 8421SOL    HW226163   4.044   6.255   5.869
 8422SOL     OW26164   4.787   2.570   2.557
 8422SOL    HW126165   4.730   2.575   2.475
 8422SOL    HW226166   4.745   2.623   2.630
 8423SOL     OW26167   5.428   4.415   5.379
 8423SOL    HW126168   5.334   4.416   5.413
 8423SOL    HW226169   5.440   4.338   5.315
 8424SOL     OW26170   1.979   0.193   3.595
 8424SOL    HW126171   2.034   0.177   3.513
 8424SOL    HW226172   2.031   0.164   3.676
 8425SOL     OW26173   3.164   3.607   3.450
 8425SOL    HW126174   3.072   3.582   3.419
 8425SOL    HW226175   3.157   3.671   3.526
 8426SOL     OW26176   3.837   3.308   2.433
 8426SOL    HW126177   3.760   3.322   2.370
 8426SOL    HW226178   3.842   3.212   2.458
 8427SOL     OW26179   2.986   3.201   3.470
 8427SOL    HW126180   2.938   3.114   3.480
 8427SOL    HW226181   3.084   3.184   3.457
 8428SOL     OW26182   0.241   0.437   0.521
 8428SOL    HW126183   0.313   0.380   0.561
 8428SOL    HW226184   0.242   0.527   0.565
 8429SOL     OW26185   2.031   5.738   6.194
 8429SOL    HW126186   2.085   5.762   6.114
 8429SOL    HW226187   1.991   5.821   6.234
 8430SOL     OW26188   4.361   5.869   3.983
 8430SOL    HW126189   4.450   5.857   4.028
 8430SOL    HW226190   4.373   5.923   3.900
 8431SOL     OW26191   2.502   2.765   6.519
 8431SOL    HW126192   2.574   2.793   6.456
 8431SOL    HW226193   2.422   2.824   6.507
 8432SOL     OW26194   6.760   5.350   5.515
 8432SOL    HW126195   6.712   5.334   5.601
 8432SOL    HW226196   6.858   5.352   5.531
 8433SOL     OW26197   4.665   2.267   1.487
 8433SOL    HW126198   4.678   2.266   1.388
 8433SOL    HW226199   4.614   2.185   1.514
 8434SOL     OW26200   1.905   5.493   4.728
 8434SOL    HW126201   1.866   5.475   4.638
 8434SOL    HW226202   1.845   5.457   4.799
 8435SOL     OW26203   5.124   0.623   2.637
 8435SOL    HW126204   5.141   0.709   2.686
 8435SOL    HW226205   5.083   0.557   2.699
 8436SOL     OW26206   2.390   6.608   3.555
 8436SOL    HW126207   2.313   6.615   3.619
 8436SOL    HW226208   2.472   6.580   3.605
 8437SOL     OW26209   2.205   2.967   2.409
 8437SOL    HW126210   2.144   3.029   2.360
 8437SOL    HW226211   2.218   3.000   2.502
 8438SOL     OW26212   1.636   3.734   3.115
 8438SOL    HW126213   1.636   3.726   3.215
 8438SOL    HW226214   1.675   3.822   3.089
 8439SOL     OW26215   6.022   4.883   3.552
 8439SOL    HW126216   6.085   4.851   3.482
 8439SOL    HW226217   5.938   4.914   3.509
 8440SOL     OW26218   2.049   1.702   3.322
 8440SOL    HW126219   2.049   1.795   3.283
 8440SOL    HW226220   2.046   1.708   3.421
 8441SOL     OW26221   5.535   5.977   5.311
 8441SOL    HW126222   5.608   6.007   5.373
 8441SOL    HW226223   5.573   5.913   5.244
 8442SOL     OW26224   3.728   0.879   5.172
 8442SOL    HW126225   3.663   0.943   5.132
 8442SOL    HW226226   3.751   0.908   5.265
 8443SOL     OW26227   2.107   4.757   3.283
 8443SOL    HW126228   2.018   4.780   3.324
 8443SOL    HW226229   2.094   4.734   3.186
 8444SOL     OW26230   4.432   6.633   2.909
 8444SOL    HW126231   4.438   6.625   3.009
 8444SOL    HW226232   4.345   6.674   2.884
 8445SOL     OW26233   2.986   6.771   6.905
 8445SOL    HW126234   2.959   6.686   6.950
 8445SOL    HW226235   3.068   6.755   6.850
 8446SOL     OW26236   0.280   6.426   5.166
 8446SOL    HW126237   0.238   6.508   5.126
 8446SOL    HW226238   0.340   6.384   5.098
 8447SOL     OW26239   4.458   1.821   2.898
 8447SOL    HW126240   4.546   1.775   2.909
 8447SOL    HW226241   4.448   1.890   2.970
 8448SOL     OW26242   5.125   6.789   3.479
 8448SOL    HW126243   5.114   6.835   3.568
 8448SOL    HW226244   5.215   6.745   3.476
 8449SOL     OW26245   1.837   2.594   2.940
 8449SOL    HW126246   1.773   2.526   2.904
 8449SOL    HW226247   1.810   2.619   3.033
 8450SOL     OW26248   6.886   0.970   0.072
 8450SOL    HW126249   6.791   0.971   0.040
 8450SOL    HW226250   6.891   0.923   0.160
 8451SOL     OW26251   3.714   1.565   1.104
 8451SOL    HW126252   3.748   1.643   1.157
 8451SOL    HW226253   3.789   1.525   1.052
 8452SOL     OW26254   4.970   1.873   5.025
 8452SOL    HW126255   5.016   1.827   5.102
 8452SOL    HW226256   5.028   1.947   4.991
 8453SOL     OW26257   0.874   6.068   6.686
 8453SOL    HW126258   0.792   6.109   6.725
 8453SOL    HW226259   0.862   5.969   6.679
 8454SOL     OW26260   0.766   4.169   6.994
 8454SOL    HW126261   0.745   4.213   0.059
 8454SOL    HW226262   0.858   4.193   6.965
 8455SOL     OW26263   1.016   0.396   2.444
 8455SOL    HW126264   1.097   0.392   2.386
 8455SOL    HW226265   1.037   0.447   2.527
 8456SOL     OW26266   5.223   0.772   3.141
 8456SOL    HW126267   5.191   0.772   3.046
 8456SOL    HW226268   5.319   0.742   3.143
 8457SOL     OW26269   6.042   6.639   4.340
 8457SOL    HW126270   5.998   6.624   4.251
 8457SOL    HW226271   5.983   6.605   4.413
 8458SOL     OW26272   0.427   0.139   0.126
 8458SOL    HW126273   0.339   0.126   0.170
 8458SOL    HW226274   0.423   0.108   0.031
 8459SOL     OW26275   1.252   5.782   3.381
 8459SOL    HW126276   1.255   5.793   3.481
 8459SOL    HW226277   1.158   5.786   3.350
 8460SOL     OW26278   3.740   4.090   4.850
 8460SOL    HW126279   3.684   4.012   4.879
 8460SOL    HW226280   3.724   4.166   4.913
 8461SOL     OW26281   6.831   3.252   4.684
 8461SOL    HW126282   6.827   3.307   4.767
 8461SOL    HW226283   6.830   3.155   4.708
 8462SOL     OW26284   2.941   1.887   1.606
 8462SOL    HW126285   2.844   1.902   1.623
 8462SOL    HW226286   2.987   1.865   1.692
 8463SOL     OW26287   6.277   0.520   2.388
 8463SOL    HW126288   6.251   0.611   2.421
 8463SOL    HW226289   6.260   0.452   2.459
 8464SOL     OW26290   5.968   3.351   4.694
 8464SOL    HW126291   5.970   3.443   4.656
 8464SOL    HW226292   5.947   3.355   4.791
 8465SOL     OW26293   1.289   1.745   0.786
 8465SOL    HW126294   1.235   1.701   0.715
 8465SOL    HW226295   1.284   1.844   0.776
 8466SOL     OW26296   0.978   5.816   3.275
 8466SOL    HW126297   0.921   5.877   3.330
 8466SOL    HW226298   0.927   5.733   3.254
 8467SOL     OW26299   2.535   5.255   0.935
 8467SOL    HW126300   2.630   5.226   0.941
 8467SOL    HW226301   2.527   5.329   0.868
 8468SOL     OW26302   4.011   2.096   6.865
 8468SOL    HW126303   3.986   2.166   6.798
 8468SOL    HW226304   4.085   2.040   6.827
 8469SOL     OW26305   3.312   2.935   6.582
 8469SOL    HW126306   3.347   3.011   6.528
 8469SOL    HW226307   3.212   2.938   6.582
 8470SOL     OW26308   2.594   2.851   0.606
 8470SOL    HW126309   2.654   2.925   0.638
 8470SOL    HW226310   2.623   2.765   0.647
 8471SOL     OW26311   3.122   0.402   4.070
 8471SOL    HW126312   3.042   0.350   4.097
 8471SOL    HW226313   3.096   0.471   4.002
 8472SOL     OW26314   0.622   6.845   4.685
 8472SOL    HW126315   0.599   6.832   4.782
 8472SOL    HW226316   0.563   6.786   4.630
 8473SOL     OW26317   6.450   5.359   6.814
 8473SOL    HW126318   6.523   5.301   6.776
 8473SOL    HW226319   6.491   5.426   6.876
 8474SOL     OW26320   3.668   3.145   1.585
 8474SOL    HW126321   3.704   3.234   1.615
 8474SOL    HW226322   3.573   3.156   1.557
 8475SOL     OW26323   6.004   1.833   2.826
 8475SOL    HW126324   6.089   1.885   2.835
 8475SOL    HW226325   5.940   1.862   2.897
 8476SOL     OW26326   4.824   0.944   1.774
 8476SOL    HW126327   4.854   0.960   1.868
 8476SOL    HW226328   4.724   0.949   1.770
 8477SOL     OW26329   2.591   6.752   1.216
 8477SOL    HW126330   2.574   6.660   1.249
 8477SOL    HW226331   2.686   6.777   1.234
 8478SOL     OW26332   1.667   0.564   5.667
 8478SOL    HW126333   1.637   0.517   5.750
 8478SOL    HW226334   1.596   0.629   5.638
 8479SOL     OW26335   6.056   0.990   0.568
 8479SOL    HW126336   6.155   0.975   0.573
 8479SOL    HW226337   6.026   0.980   0.473
 8480SOL     OW26338   3.344   0.534   1.359
 8480SOL    HW126339   3.426   0.557   1.412
 8480SOL    HW226340   3.370   0.487   1.275
 8481SOL     OW26341   3.354   1.379   4.710
 8481SOL    HW126342   3.321   1.467   4.676
 8481SOL    HW226343   3.286   1.309   4.694
 8482SOL     OW26344   1.082   0.083   2.271
 8482SOL    HW126345   1.014   0.051   2.336
 8482SOL    HW226346   1.145   0.009   2.248
 8483SOL     OW26347   3.375   5.677   1.810
 8483SOL    HW126348   3.420   5.748   1.864
 8483SOL    HW226349   3.408   5.681   1.715
 8484SOL     OW26350   0.967   5.098   4.439
 8484SOL    HW126351   0.894   5.140   4.493
 8484SOL    HW226352   0.949   5.000   4.429
 8485SOL     OW26353   2.286   4.208   6.806
 8485SOL    HW126354   2.360   4.166   6.859
 8485SOL    HW226355   2.206   4.221   6.864
 8486SOL     OW26356   5.874   0.853   2.333
 8486SOL    HW126357   5.867   0.754   2.335
 8486SOL    HW226358   5.878   0.889   2.426
 8487SOL     OW26359   5.292   0.600   1.625
 8487SOL    HW126360   5.334   0.512   1.649
 8487SOL    HW226361   5.246   0.637   1.705
 8488SOL     OW26362   5.127   4.500   4.338
 8488SOL    HW126363   5.101   4.418   4.389
 8488SOL    HW226364   5.159   4.570   4.402
 8489SOL     OW26365   5.188   4.530   1.312
 8489SOL    HW126366   5.181   4.477   1.397
 8489SOL    HW226367   5.177   4.627   1.332
 8490SOL     OW26368   4.131   5.424   3.086
 8490SOL    HW126369   4.201   5.488   3.118
 8490SOL    HW226370   4.040   5.460   3.107
 8491SOL     OW26371   2.566   0.542   2.187
 8491SOL    HW126372   2.631   0.555   2.111
 8491SOL    HW226373   2.612   0.493   2.261
 8492SOL     OW26374   6.340   2.413   5.275
 8492SOL    HW126375   6.265   2.480   5.282
 8492SOL    HW226376   6.336   2.350   5.353
 8493SOL     OW26377   4.276   1.498   0.051
 8493SOL    HW126378   4.365   1.538   0.070
 8493SOL    HW226379   4.285   1.425   7.006
 8494SOL     OW26380   2.509   5.666   0.087
 8494SOL    HW126381   2.535   5.720   0.007
 8494SOL    HW226382   2.455   5.722   0.150
 8495SOL     OW26383   6.533   2.451   0.748
 8495SOL    HW126384   6.544   2.407   0.837
 8495SOL    HW226385   6.566   2.546   0.754
 8496SOL     OW26386   0.162   2.306   2.951
 8496SOL    HW126387   0.105   2.325   2.871
 8496SOL    HW226388   0.190   2.209   2.950
 8497SOL     OW26389   6.157   4.982   3.767
 8497SOL    HW126390   6.197   5.072   3.784
 8497SOL    HW226391   6.124   4.979   3.672
 8498SOL     OW26392   0.370   0.492   1.068
 8498SOL    HW126393   0.297   0.549   1.106
 8498SOL    HW226394   0.459   0.527   1.097
 8499SOL     OW26395   3.035   4.207   6.766
 8499SOL    HW126396   3.085   4.261   6.834
 8499SOL    HW226397   3.072   4.115   6.762
 8500SOL     OW26398   2.328   6.941   6.237
 8500SOL    HW126399   2.336   6.889   6.152
 8500SOL    HW226400   2.409   7.000   6.247
 8501SOL     OW26401   2.180   3.514   6.441
 8501SOL    HW126402   2.108   3.499   6.373
 8501SOL    HW226403   2.252   3.570   6.401
 8502SOL     OW26404   0.091   6.342   1.605
 8502SOL    HW126405   0.047   6.277   1.543
 8502SOL    HW226406   0.088   6.306   1.699
 8503SOL     OW26407   2.710   5.248   3.406
 8503SOL    HW126408   2.686   5.263   3.310
 8503SOL    HW226409   2.626   5.248   3.461
 8504SOL     OW26410   1.648   5.573   3.150
 8504SOL    HW126411   1.555   5.557   3.184
 8504SOL    HW226412   1.711   5.573   3.227
 8505SOL     OW26413   5.090   4.176   3.664
 8505SOL    HW126414   5.082   4.080   3.691
 8505SOL    HW226415   5.117   4.231   3.743
 8506SOL     OW26416   1.134   6.508   0.388
 8506SOL    HW126417   1.095   6.542   0.302
 8506SOL    HW226418   1.068   6.448   0.434
 8507SOL     OW26419   1.922   1.061   6.326
 8507SOL    HW126420   1.916   1.155   6.359
 8507SOL    HW226421   1.979   1.007   6.389
 8508SOL     OW26422   0.511   2.074   5.631
 8508SOL    HW126423   0.491   2.163   5.671
 8508SOL    HW226424   0.433   2.042   5.578
 8509SOL     OW26425   5.888   1.436   4.354
 8509SOL    HW126426   5.906   1.427   4.452
 8509SOL    HW226427   5.790   1.423   4.336
 8510SOL     OW26428   5.305   5.777   3.029
 8510SOL    HW126429   5.209   5.783   3.056
 8510SOL    HW226430   5.356   5.727   3.100
 8511SOL     OW26431   6.532   4.316   1.166
 8511SOL    HW126432   6.446   4.365   1.177
 8511SOL    HW226433   6.527   4.258   1.084
 8512SOL     OW26434   4.322   2.016   6.991
 8512SOL    HW126435   4.302   2.091   6.928
 8512SOL    HW226436   4.327   2.051   0.062
 8513SOL     OW26437   5.538   3.858   0.860
 8513SOL    HW126438   5.540   3.941   0.915
 8513SOL    HW226439   5.475   3.792   0.901
 8514SOL     OW26440   2.852   1.737   4.641
 8514SOL    HW126441   2.930   1.796   4.662
 8514SOL    HW226442   2.868   1.690   4.554
 8515SOL     OW26443   0.585   1.428   6.905
 8515SOL    HW126444   0.542   1.454   6.819
 8515SOL    HW226445   0.642   1.503   6.939
 8516SOL     OW26446   5.941   3.387   2.667
 8516SOL    HW126447   5.971   3.313   2.608
 8516SOL    HW226448   5.911   3.350   2.755
 8517SOL     OW26449   2.039   2.670   5.309
 8517SOL    HW126450   2.137   2.684   5.318
 8517SOL    HW226451   2.018   2.572   5.316
 8518SOL     OW26452   4.973   4.666   6.277
 8518SOL    HW126453   5.010   4.737   6.217
 8518SOL    HW226454   5.015   4.674   6.368
 8519SOL     OW26455   1.568   4.482   0.886
 8519SOL    HW126456   1.649   4.445   0.932
 8519SOL    HW226457   1.514   4.534   0.952
 8520SOL     OW26458   3.975   3.851   5.011
 8520SOL    HW126459   4.018   3.908   4.941
 8520SOL    HW226460   3.956   3.760   4.974
 8521SOL     OW26461   1.258   6.504   5.586
 8521SOL    HW126462   1.306   6.569   5.528
 8521SOL    HW226463   1.161   6.503   5.561
 8522SOL     OW26464   1.286   6.904   0.348
 8522SOL    HW126465   1.214   6.968   0.375
 8522SOL    HW226466   1.371   6.954   0.329
 8523SOL     OW26467   2.923   6.677   6.189
 8523SOL    HW126468   2.873   6.592   6.175
 8523SOL    HW226469   2.986   6.692   6.113
 8524SOL     OW26470   1.198   5.152   5.034
 8524SOL    HW126471   1.253   5.117   5.110
 8524SOL    HW226472   1.165   5.243   5.057
 8525SOL     OW26473   6.348   4.545   0.939
 8525SOL    HW126474   6.436   4.529   0.985
 8525SOL    HW226475   6.288   4.466   0.954
 8526SOL     OW26476   2.271   6.387   0.642
 8526SOL    HW126477   2.242   6.338   0.724
 8526SOL    HW226478   2.248   6.332   0.561
 8527SOL     OW26479   3.331   0.595   6.719
 8527SOL    HW126480   3.326   0.689   6.751
 8527SOL    HW226481   3.385   0.591   6.634
 8528SOL     OW26482   4.690   2.232   1.202
 8528SOL    HW126483   4.662   2.298   1.132
 8528SOL    HW226484   4.790   2.226   1.203
 8529SOL     OW26485   1.260   6.238   6.683
 8529SOL    HW126486   1.250   6.316   6.745
 8529SOL    HW226487   1.356   6.209   6.681
 8530SOL     OW26488   2.915   3.311   4.022
 8530SOL    HW126489   2.883   3.402   4.050
 8530SOL    HW226490   2.935   3.312   3.923
 8531SOL     OW26491   6.715   6.188   3.641
 8531SOL    HW126492   6.774   6.131   3.582
 8531SOL    HW226493   6.642   6.132   3.679
 8532SOL     OW26494   4.041   6.374   4.279
 8532SOL    HW126495   4.077   6.287   4.312
 8532SOL    HW226496   3.958   6.358   4.226
 8533SOL     OW26497   1.075   6.126   6.528
 8533SOL    HW126498   0.989   6.111   6.576
 8533SOL    HW226499   1.149   6.137   6.596
 8534SOL     OW26500   4.489   2.120   4.215
 8534SOL    HW126501   4.479   2.102   4.313
 8534SOL    HW226502   4.416   2.181   4.185
 8535SOL     OW26503   5.422   1.027   3.439
 8535SOL    HW126504   5.438   1.078   3.524
 8535SOL    HW226505   5.340   0.972   3.448
 8536SOL     OW26506   0.730   1.217   4.480
 8536SOL    HW126507   0.764   1.187   4.391
 8536SOL    HW226508   0.797   1.196   4.551
 8537SOL     OW26509   6.145   1.466   3.384
 8537SOL    HW126510   6.142   1.485   3.286
 8537SOL    HW226511   6.184   1.544   3.432
 8538SOL     OW26512   1.214   1.686   0.181
 8538SOL    HW126513   1.242   1.638   0.097
 8538SOL    HW226514   1.285   1.674   0.251
 8539SOL     OW26515   6.148   2.612   3.338
 8539SOL    HW126516   6.138   2.543   3.267
 8539SOL    HW226517   6.060   2.658   3.352
 8540SOL     OW26518   4.226   0.365   6.558
 8540SOL    HW126519   4.229   0.377   6.657
 8540SOL    HW226520   4.240   0.453   6.514
 8541SOL     OW26521   2.314   2.321   4.099
 8541SOL    HW126522   2.334   2.407   4.052
 8541SOL    HW226523   2.231   2.331   4.154
 8542SOL     OW26524   3.858   4.272   6.269
 8542SOL    HW126525   3.893   4.309   6.183
 8542SOL    HW226526   3.789   4.201   6.249
 8543SOL     OW26527   2.094   2.262   0.324
 8543SOL    HW126528   2.042   2.283   0.241
 8543SOL    HW226529   2.188   2.239   0.300
 8544SOL     OW26530   5.230   2.304   4.390
 8544SOL    HW126531   5.216   2.340   4.482
 8544SOL    HW226532   5.150   2.326   4.333
 8545SOL     OW26533   5.069   6.071   5.601
 8545SOL    HW126534   5.018   5.999   5.555
 8545SOL    HW226535   5.065   6.058   5.699
 8546SOL     OW26536   5.345   1.518   3.887
 8546SOL    HW126537   5.373   1.485   3.797
 8546SOL    HW226538   5.339   1.618   3.886
 8547SOL     OW26539   1.693   5.187   4.561
 8547SOL    HW126540   1.658   5.251   4.630
 8547SOL    HW226541   1.711   5.099   4.603
 8548SOL     OW26542   5.396   1.569   5.660
 8548SOL    HW126543   5.334   1.648   5.654
 8548SOL    HW226544   5.375   1.517   5.743
 8549SOL     OW26545   6.595   3.672   3.878
 8549SOL    HW126546   6.531   3.680   3.955
 8549SOL    HW226547   6.688   3.669   3.913
 8550SOL     OW26548   1.853   5.568   6.272
 8550SOL    HW126549   1.914   5.619   6.213
 8550SOL    HW226550   1.906   5.500   6.324
 8551SOL     OW26551   3.628   4.398   6.395
 8551SOL    HW126552   3.587   4.414   6.305
 8551SOL    HW226553   3.721   4.363   6.383
 8552SOL     OW26554   3.524   5.667   3.150
 8552SOL    HW126555   3.508   5.652   3.053
 8552SOL    HW226556   3.531   5.765   3.168
 8553SOL     OW26557   4.918   6.900   0.437
 8553SOL    HW126558   4.906   6.869   0.342
 8553SOL    HW226559   4.831   6.892   0.486
 8554SOL     OW26560   0.408   4.207   6.948
 8554SOL    HW126561   0.413   4.112   6.916
 8554SOL    HW226562   0.366   4.263   6.877
 8555SOL     OW26563   1.102   1.000   3.733
 8555SOL    HW126564   1.058   0.970   3.817
 8555SOL    HW226565   1.070   1.092   3.710
 8556SOL     OW26566   6.705   0.822   3.680
 8556SOL    HW126567   6.768   0.778   3.744
 8556SOL    HW226568   6.648   0.888   3.730
 8557SOL     OW26569   6.850   6.815   1.408
 8557SOL    HW126570   6.893   6.729   1.437
 8557SOL    HW226571   6.921   6.882   1.386
 8558SOL     OW26572   2.054   5.379   2.326
 8558SOL    HW126573   2.054   5.475   2.300
 8558SOL    HW226574   1.961   5.348   2.343
 8559SOL     OW26575   0.774   0.592   1.731
 8559SOL    HW126576   0.724   0.678   1.726
 8559SOL    HW226577   0.718   0.523   1.776
 8560SOL     OW26578   0.040   1.495   0.357
 8560SOL    HW126579   0.062   1.586   0.394
 8560SOL    HW226580   7.008   1.506   0.274
 8561SOL     OW26581   4.872   6.469   2.882
 8561SOL    HW126582   4.818   6.440   2.961
 8561SOL    HW226583   4.924   6.391   2.846
 8562SOL     OW26584   3.941   6.343   4.689
 8562SOL    HW126585   3.841   6.345   4.680
 8562SOL    HW226586   3.981   6.407   4.624
 8563SOL     OW26587   2.481   2.932   6.889
 8563SOL    HW126588   2.455   2.974   6.976
 8563SOL    HW226589   2.549   2.860   6.906
 8564SOL     OW26590   0.651   6.853   3.632
 8564SOL    HW126591   0.578   6.886   3.573
 8564SOL    HW226592   0.680   6.927   3.694
 8565SOL     OW26593   3.769   0.003   0.546
 8565SOL    HW126594   3.772   0.095   0.506
 8565SOL    HW226595   3.678   7.009   0.585
 8566SOL     OW26596   1.109   2.349   3.203
 8566SOL    HW126597   1.151   2.357   3.293
 8566SOL    HW226598   1.034   2.283   3.207
 8567SOL     OW26599   5.802   1.382   0.869
 8567SOL    HW126600   5.890   1.351   0.904
 8567SOL    HW226601   5.805   1.481   0.853
 8568SOL     OW26602   5.336   2.179   0.404
 8568SOL    HW126603   5.347   2.274   0.376
 8568SOL    HW226604   5.334   2.120   0.323
 8569SOL     OW26605   4.558   1.283   4.277
 8569SOL    HW126606   4.573   1.337   4.195
 8569SOL    HW226607   4.569   1.340   4.358
 8570SOL     OW26608   0.651   3.870   6.518
 8570SOL    HW126609   0.695   3.958   6.498
 8570SOL    HW226610   0.560   3.869   6.475
 8571SOL     OW26611   6.749   4.370   4.617
 8571SOL    HW126612   6.668   4.368   4.676
 8571SOL    HW226613   6.753   4.457   4.569
 8572SOL     OW26614   1.973   4.816   5.548
 8572SOL    HW126615   1.901   4.867   5.501
 8572SOL    HW226616   2.030   4.878   5.601
 8573SOL     OW26617   4.504   5.828   6.192
 8573SOL    HW126618   4.458   5.857   6.276
 8573SOL    HW226619   4.598   5.862   6.192
 8574SOL     OW26620   0.244   3.768   5.526
 8574SOL    HW126621   0.319   3.815   5.573
 8574SOL    HW226622   0.245   3.671   5.550
 8575SOL     OW26623   2.978   2.762   0.451
 8575SOL    HW126624   2.897   2.760   0.510
 8575SOL    HW226625   3.056   2.725   0.500
 8576SOL     OW26626   1.023   0.259   1.513
 8576SOL    HW126627   1.118   0.254   1.542
 8576SOL    HW226628   0.963   0.246   1.592
 8577SOL     OW26629   6.184   5.543   2.947
 8577SOL    HW126630   6.110   5.477   2.936
 8577SOL    HW226631   6.259   5.500   2.998
 8578SOL     OW26632   4.444   0.319   3.712
 8578SOL    HW126633   4.406   0.298   3.802
 8578SOL    HW226634   4.509   0.395   3.721
 8579SOL     OW26635   1.453   4.729   3.438
 8579SOL    HW126636   1.422   4.780   3.518
 8579SOL    HW226637   1.508   4.651   3.466
 8580SOL     OW26638   1.449   6.271   1.589
 8580SOL    HW126639   1.371   6.270   1.653
 8580SOL    HW226640   1.478   6.365   1.575
 8581SOL     OW26641   3.034   1.304   1.210
 8581SOL    HW126642   3.120   1.323   1.256
 8581SOL    HW226643   3.049   1.298   1.111
 8582SOL     OW26644   4.505   4.526   2.171
 8582SOL    HW126645   4.478   4.435   2.141
 8582SOL    HW226646   4.500   4.590   2.095
 8583SOL     OW26647   6.008   0.038   5.952
 8583SOL    HW126648   6.022   6.971   5.909
 8583SOL    HW226649   6.071   0.049   6.029
 8584SOL     OW26650   0.197   4.853   0.616
 8584SOL    HW126651   0.196   4.928   0.550
 8584SOL    HW226652   0.117   4.796   0.604
 8585SOL     OW26653   0.250   0.844   0.294
 8585SOL    HW126654   0.277   0.750   0.275
 8585SOL    HW226655   0.281   0.871   0.385
 8586SOL     OW26656   3.795   6.123   2.993
 8586SOL    HW126657   3.785   6.066   3.075
 8586SOL    HW226658   3.814   6.064   2.914
 8587SOL     OW26659   6.943   1.716   2.666
 8587SOL    HW126660   6.856   1.687   2.627
 8587SOL    HW226661   6.963   1.809   2.638
 8588SOL     OW26662   3.995   2.458   0.367
 8588SOL    HW126663   3.934   2.471   0.289
 8588SOL    HW226664   4.088   2.483   0.342
 8589SOL     OW26665   3.373   0.947   4.598
 8589SOL    HW126666   3.286   0.899   4.585
 8589SOL    HW226667   3.418   0.960   4.510
 8590SOL     OW26668   6.402   5.035   4.703
 8590SOL    HW126669   6.399   4.967   4.777
 8590SOL    HW226670   6.447   5.118   4.737
 8591SOL     OW26671   1.298   3.224   6.111
 8591SOL    HW126672   1.355   3.250   6.033
 8591SOL    HW226673   1.244   3.303   6.141
 8592SOL     OW26674   0.012   4.140   1.122
 8592SOL    HW126675   0.065   4.208   1.172
 8592SOL    HW226676   6.943   4.134   1.160
 8593SOL     OW26677   1.871   6.532   2.190
 8593SOL    HW126678   1.913   6.588   2.261
 8593SOL    HW226679   1.876   6.579   2.102
 8594SOL     OW26680   3.215   3.715   4.015
 8594SOL    HW126681   3.118   3.698   3.995
 8594SOL    HW226682   3.231   3.703   4.113
 8595SOL     OW26683   1.576   2.356   2.236
 8595SOL    HW126684   1.537   2.265   2.249
 8595SOL    HW226685   1.502   2.423   2.228
 8596SOL     OW26686   5.360   5.077   1.533
 8596SOL    HW126687   5.347   5.011   1.606
 8596SOL    HW226688   5.331   5.168   1.565
 8597SOL     OW26689   2.850   1.295   0.803
 8597SOL    HW126690   2.868   1.333   0.713
 8597SOL    HW226691   2.785   1.219   0.795
 8598SOL     OW26692   6.396   3.627   1.089
 8598SOL    HW126693   6.424   3.705   1.145
 8598SOL    HW226694   6.296   3.625   1.084
 8599SOL     OW26695   1.043   2.865   3.178
 8599SOL    HW126696   0.943   2.866   3.177
 8599SOL    HW226697   1.075   2.777   3.212
 8600SOL     OW26698   6.600   5.197   6.482
 8600SOL    HW126699   6.576   5.112   6.435
 8600SOL    HW226700   6.521   5.258   6.484
 8601SOL     OW26701   6.968   0.309   4.024
 8601SOL    HW126702   6.940   0.303   4.120
 8601SOL    HW226703   6.924   0.236   3.972
 8602SOL     OW26704   2.751   5.713   2.248
 8602SOL    HW126705   2.842   5.728   2.209
 8602SOL    HW226706   2.723   5.618   2.232
 8603SOL     OW26707   3.921   3.055   6.947
 8603SOL    HW126708   3.956   3.118   6.878
 8603SOL    HW226709   3.831   3.022   6.919
 8604SOL     OW26710   5.612   3.144   3.802
 8604SOL    HW126711   5.633   3.143   3.704
 8604SOL    HW226712   5.561   3.061   3.826
 8605SOL     OW26713   2.601   5.955   3.743
 8605SOL    HW126714   2.507   5.952   3.778
 8605SOL    HW226715   2.616   5.879   3.680
 8606SOL     OW26716   3.260   4.967   6.348
 8606SOL    HW126717   3.208   4.916   6.279
 8606SOL    HW226718   3.307   4.902   6.407
 8607SOL     OW26719   4.295   5.839   2.136
 8607SOL    HW126720   4.259   5.806   2.049
 8607SOL    HW226721   4.325   5.933   2.126
 8608SOL     OW26722   4.042   5.188   2.872
 8608SOL    HW126723   3.976   5.191   2.947
 8608SOL    HW226724   4.134   5.206   2.908
 8609SOL     OW26725   3.544   0.224   5.151
 8609SOL    HW126726   3.565   0.163   5.227
 8609SOL    HW226727   3.464   0.189   5.102
 8610SOL     OW26728   1.096   6.564   3.195
 8610SOL    HW126729   1.049   6.526   3.275
 8610SOL    HW226730   1.193   6.573   3.216
 8611SOL     OW26731   1.954   2.056   4.781
 8611SOL    HW126732   2.039   2.094   4.745
 8611SOL    HW226733   1.933   2.098   4.870
 8612SOL     OW26734   3.647   3.021   6.891
 8612SOL    HW126735   3.610   2.960   6.821
 8612SOL    HW226736   3.593   3.013   6.975
 8613SOL     OW26737   1.853   1.458   1.286
 8613SOL    HW126738   1.886   1.389   1.350
 8613SOL    HW226739   1.856   1.548   1.329
 8614SOL     OW26740   1.177   3.276   2.793
 8614SOL    HW126741   1.085   3.236   2.796
 8614SOL    HW226742   1.171   3.373   2.815
 8615SOL     OW26743   3.852   2.176   5.909
 8615SOL    HW126744   3.787   2.246   5.938
 8615SOL    HW226745   3.814   2.085   5.929
 8616SOL     OW26746   1.134   4.866   0.284
 8616SOL    HW126747   1.195   4.812   0.227
 8616SOL    HW226748   1.149   4.844   0.380
 8617SOL     OW26749   6.082   2.523   0.643
 8617SOL    HW126750   6.151   2.528   0.716
 8617SOL    HW226751   5.994   2.497   0.683
 8618SOL     OW26752   4.351   0.270   2.834
 8618SOL    HW126753   4.260   0.240   2.862
 8618SOL    HW226754   4.391   0.328   2.905
 8619SOL     OW26755   4.199   4.934   0.117
 8619SOL    HW126756   4.182   5.027   0.084
 8619SOL    HW226757   4.207   4.871   0.040
 8620SOL     OW26758   5.422   6.612   2.058
 8620SOL    HW126759   5.352   6.573   2.118
 8620SOL    HW226760   5.424   6.712   2.071
 8621SOL     OW26761   5.924   1.437   3.691
 8621SOL    HW126762   5.881   1.486   3.616
 8621SOL    HW226763   5.858   1.427   3.766
 8622SOL     OW26764   4.934   5.186   0.206
 8622SOL    HW126765   4.998   5.224   0.273
 8622SOL    HW226766   4.840   5.197   0.239
 8623SOL     OW26767   1.176   3.818   3.184
 8623SOL    HW126768   1.092   3.783   3.224
 8623SOL    HW226769   1.155   3.866   3.099
 8624SOL     OW26770   0.878   4.059   3.255
 8624SOL    HW126771   0.896   3.961   3.257
 8624SOL    HW226772   0.905   4.096   3.166
 8625SOL     OW26773   4.594   0.722   4.702
 8625SOL    HW126774   4.574   0.717   4.604
 8625SOL    HW226775   4.508   0.719   4.753
 8626SOL     OW26776   3.381   3.241   4.075
 8626SOL    HW126777   3.372   3.281   3.984
 8626SOL    HW226778   3.293   3.202   4.102
 8627SOL     OW26779   1.163   0.749   1.297
 8627SOL    HW126780   1.174   0.764   1.199
 8627SOL    HW226781   1.166   0.651   1.317
 8628SOL     OW26782   6.356   0.872   6.884
 8628SOL    HW126783   6.381   0.802   6.951
 8628SOL    HW226784   6.424   0.946   6.886
 8629SOL     OW26785   1.042   4.676   3.977
 8629SOL    HW126786   1.005   4.649   4.066
 8629SOL    HW226787   0.985   4.749   3.938
 8630SOL     OW26788   5.776   4.222   4.018
 8630SOL    HW126789   5.696   4.282   4.010
 8630SOL    HW226790   5.833   4.233   3.937
 8631SOL     OW26791   3.806   5.902   4.944
 8631SOL    HW126792   3.904   5.885   4.960
 8631SOL    HW226793   3.753   5.824   4.976
 8632SOL     OW26794   3.247   0.757   3.793
 8632SOL    HW126795   3.188   0.676   3.790
 8632SOL    HW226796   3.235   0.802   3.882
 8633SOL     OW26797   5.237   1.141   4.035
 8633SOL    HW126798   5.283   1.230   4.033
 8633SOL    HW226799   5.235   1.107   4.129
 8634SOL     OW26800   6.871   4.372   2.060
 8634SOL    HW126801   6.789   4.386   2.006
 8634SOL    HW226802   6.866   4.428   2.143
 8635SOL     OW26803   6.075   3.794   5.898
 8635SOL    HW126804   5.993   3.850   5.883
 8635SOL    HW226805   6.140   3.811   5.825
 8636SOL     OW26806   6.359   5.995   0.421
 8636SOL    HW126807   6.270   6.000   0.466
 8636SOL    HW226808   6.428   5.970   0.489
 8637SOL     OW26809   1.913   0.754   0.640
 8637SOL    HW126810   1.996   0.712   0.603
 8637SOL    HW226811   1.910   0.850   0.615
 8638SOL     OW26812   2.716   4.542   7.002
 8638SOL    HW126813   2.776   4.494   6.937
 8638SOL    HW226814   2.764   4.554   0.066
 8639SOL     OW26815   5.541   3.655   1.744
 8639SOL    HW126816   5.522   3.751   1.722
 8639SOL    HW226817   5.488   3.596   1.683
 8640SOL     OW26818   4.793   4.271   0.629
 8640SOL    HW126819   4.737   4.345   0.592
 8640SOL    HW226820   4.881   4.307   0.657
 8641SOL     OW26821   0.331   4.404   3.505
 8641SOL    HW126822   0.336   4.482   3.567
 8641SOL    HW226823   0.422   4.365   3.492
 8642SOL     OW26824   4.720   1.073   2.131
 8642SOL    HW126825   4.716   0.976   2.105
 8642SOL    HW226826   4.630   1.104   2.160
 8643SOL     OW26827   4.228   0.592   6.422
 8643SOL    HW126828   4.287   0.665   6.457
 8643SOL    HW226829   4.137   0.628   6.404
 8644SOL     OW26830   5.324   2.582   4.850
 8644SOL    HW126831   5.385   2.506   4.873
 8644SOL    HW226832   5.258   2.596   4.923
 8645SOL     OW26833   6.585   3.804   1.254
 8645SOL    HW126834   6.588   3.875   1.325
 8645SOL    HW226835   6.579   3.714   1.296
 8646SOL     OW26836   5.313   0.929   0.187
 8646SOL    HW126837   5.287   0.982   0.268
 8646SOL    HW226838   5.392   0.871   0.208
 8647SOL     OW26839   3.832   4.868   0.091
 8647SOL    HW126840   3.820   4.778   0.133
 8647SOL    HW226841   3.800   4.866   7.019
 8648SOL     OW26842   5.472   0.546   4.747
 8648SOL    HW126843   5.558   0.577   4.705
 8648SOL    HW226844   5.473   0.446   4.754
 8649SOL     OW26845   6.159   4.005   5.442
 8649SOL    HW126846   6.159   4.104   5.432
 8649SOL    HW226847   6.069   3.975   5.476
 8650SOL     OW26848   2.066   4.694   3.731
 8650SOL    HW126849   2.089   4.768   3.794
 8650SOL    HW226850   2.124   4.700   3.650
 8651SOL     OW26851   3.471   1.552   0.087
 8651SOL    HW126852   3.396   1.489   0.071
 8651SOL    HW226853   3.435   1.643   0.107
 8652SOL     OW26854   2.137   3.738   3.345
 8652SOL    HW126855   2.200   3.815   3.355
 8652SOL    HW226856   2.112   3.728   3.248
 8653SOL     OW26857   0.631   2.550   6.439
 8653SOL    HW126858   0.644   2.610   6.360
 8653SOL    HW226859   0.565   2.590   6.501
 8654SOL     OW26860   0.394   6.665   3.235
 8654SOL    HW126861   0.310   6.629   3.275
 8654SOL    HW226862   0.441   6.592   3.185
 8655SOL     OW26863   5.899   6.641   4.134
 8655SOL    HW126864   5.921   6.713   4.068
 8655SOL    HW226865   5.802   6.619   4.128
 8656SOL     OW26866   6.090   1.037   1.073
 8656SOL    HW126867   6.093   1.121   1.018
 8656SOL    HW226868   6.083   1.062   1.170
 8657SOL     OW26869   5.106   5.203   6.272
 8657SOL    HW126870   5.134   5.216   6.176
 8657SOL    HW226871   5.167   5.137   6.315
 8658SOL     OW26872   5.440   4.589   0.235
 8658SOL    HW126873   5.517   4.651   0.253
 8658SOL    HW226874   5.377   4.591   0.313
 8659SOL     OW26875   4.277   0.721   2.875
 8659SOL    HW126876   4.302   0.817   2.886
 8659SOL    HW226877   4.182   0.708   2.905
 8660SOL     OW26878   5.900   3.825   0.599
 8660SOL    HW126879   5.973   3.757   0.590
 8660SOL    HW226880   5.835   3.795   0.668
 8661SOL     OW26881   6.408   4.241   1.848
 8661SOL    HW126882   6.362   4.248   1.760
 8661SOL    HW226883   6.405   4.146   1.879
 8662SOL     OW26884   6.319   6.624   1.199
 8662SOL    HW126885   6.331   6.700   1.136
 8662SOL    HW226886   6.227   6.587   1.190
 8663SOL     OW26887   2.262   5.503   0.936
 8663SOL    HW126888   2.293   5.516   1.030
 8663SOL    HW226889   2.162   5.510   0.932
 8664SOL     OW26890   3.811   5.892   6.967
 8664SOL    HW126891   3.813   5.894   6.868
 8664SOL    HW226892   3.899   5.861   7.003
 8665SOL     OW26893   4.490   5.457   5.073
 8665SOL    HW126894   4.561   5.503   5.020
 8665SOL    HW226895   4.525   5.434   5.164
 8666SOL     OW26896   4.721   2.287   5.454
 8666SOL    HW126897   4.738   2.280   5.356
 8666SOL    HW226898   4.758   2.373   5.488
 8667SOL     OW26899   5.496   1.708   3.116
 8667SOL    HW126900   5.575   1.709   3.178
 8667SOL    HW226901   5.526   1.727   3.023
 8668SOL     OW26902   5.210   2.610   4.590
 8668SOL    HW126903   5.224   2.629   4.687
 8668SOL    HW226904   5.298   2.585   4.548
 8669SOL     OW26905   4.022   1.213   6.332
 8669SOL    HW126906   4.063   1.154   6.403
 8669SOL    HW226907   4.079   1.210   6.250
 8670SOL     OW26908   3.867   5.657   4.518
 8670SOL    HW126909   3.856   5.612   4.429
 8670SOL    HW226910   3.925   5.738   4.508
 8671SOL     OW26911   5.802   6.861   3.713
 8671SOL    HW126912   5.788   6.889   3.618
 8671SOL    HW226913   5.714   6.861   3.760
 8672SOL     OW26914   2.842   5.144   4.226
 8672SOL    HW126915   2.891   5.231   4.220
 8672SOL    HW226916   2.896   5.079   4.279
 8673SOL     OW26917   0.154   2.086   0.534
 8673SOL    HW126918   0.126   2.020   0.464
 8673SOL    HW226919   0.076   2.143   0.558
 8674SOL     OW26920   0.097   6.872   2.662
 8674SOL    HW126921   0.116   6.862   2.564
 8674SOL    HW226922   0.001   6.899   2.674
 8675SOL     OW26923   2.775   1.695   3.787
 8675SOL    HW126924   2.791   1.776   3.731
 8675SOL    HW226925   2.851   1.631   3.775
 8676SOL     OW26926   3.468   0.338   2.551
 8676SOL    HW126927   3.402   0.265   2.569
 8676SOL    HW226928   3.540   0.304   2.490
 8677SOL     OW26929   2.669   4.711   6.230
 8677SOL    HW126930   2.642   4.794   6.181
 8677SOL    HW226931   2.731   4.735   6.304
 8678SOL     OW26932   1.500   0.104   6.460
 8678SOL    HW126933   1.481   0.040   6.534
 8678SOL    HW226934   1.448   0.077   6.378
 8679SOL     OW26935   6.413   1.820   5.070
 8679SOL    HW126936   6.419   1.899   5.008
 8679SOL    HW226937   6.442   1.848   5.162
 8680SOL     OW26938   1.952   2.967   0.633
 8680SOL    HW126939   1.939   2.929   0.725
 8680SOL    HW226940   2.035   3.023   0.632
 8681SOL     OW26941   4.185   4.670   0.560
 8681SOL    HW126942   4.198   4.716   0.472
 8681SOL    HW226943   4.261   4.692   0.620
 8682SOL     OW26944   2.554   6.780   2.906
 8682SOL    HW126945   2.547   6.721   2.825
 8682SOL    HW226946   2.590   6.727   2.982
 8683SOL     OW26947   1.092   2.806   0.747
 8683SOL    HW126948   1.176   2.756   0.768
 8683SOL    HW226949   1.020   2.742   0.725
 8684SOL     OW26950   5.882   2.860   5.414
 8684SOL    HW126951   5.791   2.902   5.422
 8684SOL    HW226952   5.872   2.766   5.383
 8685SOL     OW26953   0.879   1.902   6.475
 8685SOL    HW126954   0.805   1.963   6.504
 8685SOL    HW226955   0.928   1.944   6.399
 8686SOL     OW26956   0.005   1.968   2.555
 8686SOL    HW126957   0.104   1.962   2.543
 8686SOL    HW226958   6.990   2.038   2.493
 8687SOL     OW26959   3.522   6.813   2.214
 8687SOL    HW126960   3.476   6.901   2.201
 8687SOL    HW226961   3.510   6.756   2.133
 8688SOL     OW26962   2.860   6.771   1.259
 8688SOL    HW126963   2.890   6.706   1.190
 8688SOL    HW226964   2.825   6.854   1.215
 8689SOL     OW26965   4.058   5.848   0.230
 8689SOL    HW126966   4.001   5.928   0.249
 8689SOL    HW226967   4.007   5.765   0.252
 8690SOL     OW26968   1.237   2.345   3.454
 8690SOL    HW126969   1.203   2.425   3.504
 8690SOL    HW226970   1.231   2.264   3.513
 8691SOL     OW26971   4.999   3.069   6.595
 8691SOL    HW126972   5.073   3.009   6.565
 8691SOL    HW226973   4.919   3.013   6.620
 8692SOL     OW26974   3.163   2.120   3.587
 8692SOL    HW126975   3.134   2.152   3.497
 8692SOL    HW226976   3.145   2.022   3.594
 8693SOL     OW26977   5.651   2.483   0.510
 8693SOL    HW126978   5.637   2.387   0.532
 8693SOL    HW226979   5.705   2.527   0.582
 8694SOL     OW26980   5.093   0.133   6.535
 8694SOL    HW126981   5.005   0.161   6.573
 8694SOL    HW226982   5.078   0.071   6.458
 8695SOL     OW26983   5.137   2.854   5.634
 8695SOL    HW126984   5.075   2.855   5.712
 8695SOL    HW226985   5.232   2.864   5.666
 8696SOL     OW26986   3.297   5.455   0.841
 8696SOL    HW126987   3.264   5.456   0.746
 8696SOL    HW226988   3.386   5.411   0.845
 8697SOL     OW26989   6.533   3.297   1.456
 8697SOL    HW126990   6.546   3.198   1.441
 8697SOL    HW226991   6.476   3.311   1.537
 8698SOL     OW26992   5.554   5.752   4.776
 8698SOL    HW126993   5.486   5.820   4.749
 8698SOL    HW226994   5.592   5.708   4.695
 8699SOL     OW26995   0.899   2.141   5.484
 8699SOL    HW126996   0.905   2.043   5.463
 8699SOL    HW226997   0.987   2.184   5.462
 8700SOL     OW26998   1.830   0.881   4.667
 8700SOL    HW126999   1.816   0.920   4.577
 8700SOL    HW227000   1.928   0.885   4.691
 8701SOL     OW27001   1.024   1.226   5.667
 8701SOL    HW127002   0.930   1.195   5.680
 8701SOL    HW227003   1.084   1.147   5.660
 8702SOL     OW27004   5.644   4.742   0.326
 8702SOL    HW127005   5.714   4.725   0.395
 8702SOL    HW227006   5.656   4.833   0.287
 8703SOL     OW27007   3.202   5.677   0.960
 8703SOL    HW127008   3.116   5.689   0.911
 8703SOL    HW227009   3.246   5.593   0.930
 8704SOL     OW27010   6.445   4.672   2.678
 8704SOL    HW127011   6.359   4.655   2.726
 8704SOL    HW227012   6.467   4.770   2.683
 8705SOL     OW27013   5.398   0.893   6.320
 8705SOL    HW127014   5.357   0.822   6.262
 8705SOL    HW227015   5.482   0.858   6.361
 8706SOL     OW27016   4.589   2.222   6.865
 8706SOL    HW127017   4.546   2.153   6.808
 8706SOL    HW227018   4.520   2.269   6.920
 8707SOL     OW27019   4.749   2.942   6.714
 8707SOL    HW127020   4.735   2.896   6.626
 8707SOL    HW227021   4.664   2.989   6.740
 8708SOL     OW27022   3.614   0.946   1.833
 8708SOL    HW127023   3.532   0.890   1.845
 8708SOL    HW227024   3.592   1.042   1.852
 8709SOL     OW27025   0.248   4.354   0.136
 8709SOL    HW127026   0.233   4.305   0.222
 8709SOL    HW227027   0.288   4.292   0.068
 8710SOL     OW27028   1.358   3.547   2.735
 8710SOL    HW127029   1.294   3.528   2.809
 8710SOL    HW227030   1.307   3.572   2.653
 8711SOL     OW27031   0.046   0.537   2.829
 8711SOL    HW127032   0.112   0.569   2.896
 8711SOL    HW227033   0.086   0.542   2.737
 8712SOL     OW27034   3.294   1.751   4.297
 8712SOL    HW127035   3.228   1.816   4.258
 8712SOL    HW227036   3.312   1.775   4.393
 8713SOL     OW27037   6.751   4.500   3.839
 8713SOL    HW127038   6.791   4.503   3.747
 8713SOL    HW227039   6.661   4.456   3.835
 8714SOL     OW27040   1.628   0.884   6.000
 8714SOL    HW127041   1.726   0.895   6.019
 8714SOL    HW227042   1.584   0.974   5.999
 8715SOL     OW27043   5.751   1.056   1.104
 8715SOL    HW127044   5.789   1.022   1.018
 8715SOL    HW227045   5.800   1.014   1.181
 8716SOL     OW27046   0.723   1.652   1.586
 8716SOL    HW127047   0.788   1.577   1.596
 8716SOL    HW227048   0.767   1.727   1.536
 8717SOL     OW27049   4.134   3.719   2.137
 8717SOL    HW127050   4.123   3.723   2.236
 8717SOL    HW227051   4.226   3.749   2.112
 8718SOL     OW27052   6.807   2.540   4.744
 8718SOL    HW127053   6.798   2.628   4.789
 8718SOL    HW227054   6.824   2.553   4.646
 8719SOL     OW27055   1.386   0.593   5.477
 8719SOL    HW127056   1.468   0.608   5.421
 8719SOL    HW227057   1.304   0.610   5.421
 8720SOL     OW27058   6.565   5.207   4.887
 8720SOL    HW127059   6.664   5.215   4.875
 8720SOL    HW227060   6.520   5.274   4.828
 8721SOL     OW27061   6.440   1.932   4.461
 8721SOL    HW127062   6.421   1.888   4.549
 8721SOL    HW227063   6.410   2.027   4.465
 8722SOL     OW27064   3.579   1.652   0.360
 8722SOL    HW127065   3.571   1.689   0.268
 8722SOL    HW227066   3.494   1.605   0.384
 8723SOL     OW27067   6.267   5.702   0.550
 8723SOL    HW127068   6.218   5.788   0.545
 8723SOL    HW227069   6.355   5.716   0.596
 8724SOL     OW27070   5.512   0.331   5.666
 8724SOL    HW127071   5.574   0.293   5.735
 8724SOL    HW227072   5.530   0.288   5.578
 8725SOL     OW27073   2.025   0.342   0.443
 8725SOL    HW127074   2.055   0.293   0.524
 8725SOL    HW227075   2.094   0.333   0.371
 8726SOL     OW27076   5.833   6.876   1.359
 8726SOL    HW127077   5.862   6.954   1.303
 8726SOL    HW227078   5.735   6.881   1.375
 8727SOL     OW27079   6.571   6.379   1.630
 8727SOL    HW127080   6.481   6.408   1.598
 8727SOL    HW227081   6.583   6.282   1.613
 8728SOL     OW27082   3.048   6.820   5.352
 8728SOL    HW127083   2.961   6.798   5.397
 8728SOL    HW227084   3.123   6.780   5.404
 8729SOL     OW27085   4.319   5.601   3.279
 8729SOL    HW127086   4.273   5.541   3.344
 8729SOL    HW227087   4.414   5.615   3.307
 8730SOL     OW27088   6.994   5.703   2.477
 8730SOL    HW127089   0.025   5.683   2.395
 8730SOL    HW227090   7.004   5.799   2.501
 8731SOL     OW27091   1.502   2.270   3.339
 8731SOL    HW127092   1.507   2.174   3.368
 8731SOL    HW227093   1.421   2.313   3.379
 8732SOL     OW27094   5.255   4.261   1.772
 8732SOL    HW127095   5.326   4.193   1.791
 8732SOL    HW227096   5.282   4.349   1.811
 8733SOL     OW27097   0.856   6.509   2.269
 8733SOL    HW127098   0.870   6.417   2.306
 8733SOL    HW227099   0.758   6.525   2.257
 8734SOL     OW27100   0.468   5.121   1.229
 8734SOL    HW127101   0.438   5.143   1.322
 8734SOL    HW227102   0.540   5.184   1.201
 8735SOL     OW27103   0.362   2.055   7.017
 8735SOL    HW127104   0.385   2.132   6.958
 8735SOL    HW227105   0.323   1.981   6.962
 8736SOL     OW27106   1.234   6.275   0.261
 8736SOL    HW127107   1.160   6.325   0.305
 8736SOL    HW227108   1.319   6.327   0.270
 8737SOL     OW27109   3.572   6.162   5.991
 8737SOL    HW127110   3.624   6.087   6.032
 8737SOL    HW227111   3.541   6.224   6.063
 8738SOL     OW27112   1.550   3.949   4.105
 8738SOL    HW127113   1.493   3.877   4.145
 8738SOL    HW227114   1.506   4.038   4.120
 8739SOL     OW27115   6.570   3.674   5.985
 8739SOL    HW127116   6.480   3.705   6.016
 8739SOL    HW227117   6.560   3.591   5.930
 8740SOL     OW27118   3.417   0.780   6.057
 8740SOL    HW127119   3.485   0.824   5.998
 8740SOL    HW227120   3.464   0.727   6.128
 8741SOL     OW27121   1.401   2.656   2.000
 8741SOL    HW127122   1.476   2.643   2.065
 8741SOL    HW227123   1.438   2.661   1.907
 8742SOL     OW27124   4.784   6.671   1.521
 8742SOL    HW127125   4.706   6.726   1.491
 8742SOL    HW227126   4.803   6.690   1.617
 8743SOL     OW27127   2.365   5.495   1.900
 8743SOL    HW127128   2.288   5.450   1.856
 8743SOL    HW227129   2.440   5.506   1.834
 8744SOL     OW27130   4.450   2.528   6.524
 8744SOL    HW127131   4.460   2.616   6.477
 8744SOL    HW227132   4.499   2.458   6.472
 8745SOL     OW27133   6.155   2.197   5.138
 8745SOL    HW127134   6.137   2.102   5.115
 8745SOL    HW227135   6.224   2.202   5.211
 8746SOL     OW27136   4.941   4.474   5.833
 8746SOL    HW127137   5.008   4.501   5.902
 8746SOL    HW227138   4.933   4.546   5.764
 8747SOL     OW27139   0.827   2.799   3.593
 8747SOL    HW127140   0.870   2.731   3.534
 8747SOL    HW227141   0.753   2.756   3.645
 8748SOL     OW27142   1.241   0.603   6.651
 8748SOL    HW127143   1.258   0.700   6.635
 8748SOL    HW227144   1.173   0.569   6.586
 8749SOL     OW27145   3.276   0.911   4.052
 8749SOL    HW127146   3.365   0.908   4.097
 8749SOL    HW227147   3.265   1.000   4.007
 8750SOL     OW27148   2.060   2.301   5.122
 8750SOL    HW127149   2.069   2.356   5.039
 8750SOL    HW227150   1.968   2.262   5.127
 8751SOL     OW27151   0.533   0.023   2.203
 8751SOL    HW127152   0.516   0.027   2.301
 8751SOL    HW227153   0.480   6.970   2.162
 8752SOL     OW27154   2.362   3.702   6.328
 8752SOL    HW127155   2.391   3.759   6.251
 8752SOL    HW227156   2.332   3.759   6.404
 8753SOL     OW27157   5.203   1.350   5.235
 8753SOL    HW127158   5.131   1.369   5.168
 8753SOL    HW227159   5.292   1.369   5.194
 8754SOL     OW27160   0.762   1.748   6.001
 8754SOL    HW127161   0.713   1.815   5.945
 8754SOL    HW227162   0.859   1.747   5.975
 8755SOL     OW27163   2.299   0.685   0.293
 8755SOL    HW127164   2.262   0.736   0.215
 8755SOL    HW227165   2.224   0.641   0.342
 8756SOL     OW27166   2.154   2.874   3.733
 8756SOL    HW127167   2.078   2.826   3.776
 8756SOL    HW227168   2.235   2.816   3.733
 8757SOL     OW27169   4.527   6.485   5.036
 8757SOL    HW127170   4.589   6.562   5.050
 8757SOL    HW227171   4.511   6.472   4.938
 8758SOL     OW27172   5.401   6.682   1.723
 8758SOL    HW127173   5.380   6.607   1.786
 8758SOL    HW227174   5.379   6.653   1.629
 8759SOL     OW27175   5.218   0.777   6.047
 8759SOL    HW127176   5.191   0.730   6.131
 8759SOL    HW227177   5.317   0.792   6.047
 8760SOL     OW27178   1.769   1.982   4.599
 8760SOL    HW127179   1.682   2.004   4.644
 8760SOL    HW227180   1.845   2.003   4.662
 8761SOL     OW27181   5.488   0.919   6.958
 8761SOL    HW127182   5.398   0.947   6.991
 8761SOL    HW227183   5.489   0.922   6.858
 8762SOL     OW27184   1.166   3.297   1.293
 8762SOL    HW127185   1.158   3.288   1.194
 8762SOL    HW227186   1.075   3.293   1.335
 8763SOL     OW27187   6.350   6.038   5.608
 8763SOL    HW127188   6.437   6.085   5.594
 8763SOL    HW227189   6.361   5.941   5.586
 8764SOL     OW27190   5.026   1.413   4.207
 8764SOL    HW127191   5.060   1.377   4.294
 8764SOL    HW227192   4.929   1.436   4.215
 8765SOL     OW27193   5.585   6.634   5.137
 8765SOL    HW127194   5.612   6.728   5.116
 8765SOL    HW227195   5.508   6.608   5.079
 8766SOL     OW27196   3.138   4.846   3.438
 8766SOL    HW127197   3.162   4.908   3.513
 8766SOL    HW227198   3.052   4.799   3.459
 8767SOL     OW27199   4.528   1.376   3.129
 8767SOL    HW127200   4.517   1.404   3.224
 8767SOL    HW227201   4.441   1.340   3.095
 8768SOL     OW27202   1.265   2.994   0.643
 8768SOL    HW127203   1.324   2.962   0.570
 8768SOL    HW227204   1.225   2.915   0.691
 8769SOL     OW27205   0.874   0.123   5.884
 8769SOL    HW127206   0.877   0.026   5.908
 8769SOL    HW227207   0.869   0.133   5.785
 8770SOL     OW27208   4.979   4.485   1.842
 8770SOL    HW127209   5.027   4.428   1.910
 8770SOL    HW227210   4.882   4.461   1.842
 8771SOL     OW27211   1.713   1.278   6.824
 8771SOL    HW127212   1.810   1.305   6.822
 8771SOL    HW227213   1.706   1.179   6.828
 8772SOL     OW27214   6.065   0.869   6.690
 8772SOL    HW127215   5.990   0.882   6.755
 8772SOL    HW227216   6.094   0.773   6.691
 8773SOL     OW27217   3.658   2.151   3.252
 8773SOL    HW127218   3.586   2.132   3.320
 8773SOL    HW227219   3.617   2.153   3.161
 8774SOL     OW27220   1.080   1.732   0.955
 8774SOL    HW127221   1.075   1.652   1.015
 8774SOL    HW227222   1.167   1.731   0.905
 8775SOL     OW27223   5.872   6.606   3.309
 8775SOL    HW127224   5.850   6.571   3.401
 8775SOL    HW227225   5.817   6.688   3.292
 8776SOL     OW27226   3.448   3.365   4.973
 8776SOL    HW127227   3.425   3.444   5.031
 8776SOL    HW227228   3.502   3.300   5.026
 8777SOL     OW27229   6.370   5.074   1.727
 8777SOL    HW127230   6.326   5.158   1.697
 8777SOL    HW227231   6.345   5.000   1.665
 8778SOL     OW27232   0.110   1.983   3.400
 8778SOL    HW127233   0.031   2.014   3.348
 8778SOL    HW227234   0.124   1.885   3.385
 8779SOL     OW27235   1.763   4.109   1.727
 8779SOL    HW127236   1.733   4.180   1.791
 8779SOL    HW227237   1.705   4.112   1.645
 8780SOL     OW27238   1.147   5.635   4.230
 8780SOL    HW127239   1.143   5.540   4.199
 8780SOL    HW227240   1.185   5.693   4.157
 8781SOL     OW27241   0.347   1.748   2.946
 8781SOL    HW127242   0.414   1.738   3.020
 8781SOL    HW227243   0.255   1.741   2.984
 8782SOL     OW27244   4.591   1.723   2.585
 8782SOL    HW127245   4.685   1.710   2.553
 8782SOL    HW227246   4.587   1.800   2.648
 8783SOL     OW27247   5.949   4.011   4.134
 8783SOL    HW127248   5.968   3.968   4.045
 8783SOL    HW227249   5.888   4.089   4.120
 8784SOL     OW27250   5.745   5.146   5.651
 8784SOL    HW127251   5.674   5.213   5.630
 8784SOL    HW227252   5.749   5.078   5.577
 8785SOL     OW27253   5.531   4.219   6.482
 8785SOL    HW127254   5.608   4.236   6.420
 8785SOL    HW227255   5.536   4.125   6.516
 8786SOL     OW27256   1.358   6.368   6.936
 8786SOL    HW127257   1.405   6.293   6.982
 8786SOL    HW227258   1.423   6.442   6.917
 8787SOL     OW27259   2.122   3.221   1.865
 8787SOL    HW127260   2.169   3.304   1.892
 8787SOL    HW227261   2.045   3.244   1.806
 8788SOL     OW27262   6.866   1.876   5.111
 8788SOL    HW127263   6.871   1.790   5.061
 8788SOL    HW227264   6.869   1.953   5.047
 8789SOL     OW27265   6.757   0.297   6.342
 8789SOL    HW127266   6.704   0.225   6.299
 8789SOL    HW227267   6.695   0.364   6.384
 8790SOL     OW27268   7.018   2.006   6.463
 8790SOL    HW127269   0.050   2.013   6.379
 8790SOL    HW227270   6.950   2.080   6.465
 8791SOL     OW27271   4.995   6.761   5.351
 8791SOL    HW127272   4.912   6.749   5.297
 8791SOL    HW227273   5.022   6.857   5.349
 8792SOL     OW27274   4.061   0.014   3.171
 8792SOL    HW127275   4.038   0.000   3.267
 8792SOL    HW227276   4.053   6.949   3.122
 8793SOL     OW27277   2.353   6.183   3.771
 8793SOL    HW127278   2.275   6.232   3.809
 8793SOL    HW227279   2.437   6.214   3.816
 8794SOL     OW27280   2.193   6.698   2.799
 8794SOL    HW127281   2.225   6.793   2.800
 8794SOL    HW227282   2.093   6.697   2.803
 8795SOL     OW27283   1.778   6.286   5.565
 8795SOL    HW127284   1.735   6.220   5.626
 8795SOL    HW227285   1.868   6.310   5.601
 8796SOL     OW27286   4.413   2.114   5.236
 8796SOL    HW127287   4.490   2.086   5.293
 8796SOL    HW227288   4.329   2.074   5.272
 8797SOL     OW27289   0.796   6.818   6.358
 8797SOL    HW127290   0.856   6.769   6.294
 8797SOL    HW227291   0.751   6.752   6.418
 8798SOL     OW27292   5.526   3.780   5.050
 8798SOL    HW127293   5.492   3.695   5.010
 8798SOL    HW227294   5.501   3.784   5.147
 8799SOL     OW27295   2.788   4.679   2.984
 8799SOL    HW127296   2.856   4.722   2.923
 8799SOL    HW227297   2.710   4.648   2.930
 8800SOL     OW27298   4.616   4.746   6.135
 8800SOL    HW127299   4.549   4.803   6.087
 8800SOL    HW227300   4.606   4.651   6.106
 8801SOL     OW27301   2.475   1.172   4.221
 8801SOL    HW127302   2.392   1.205   4.266
 8801SOL    HW227303   2.490   1.077   4.245
 8802SOL     OW27304   1.624   6.371   2.437
 8802SOL    HW127305   1.661   6.440   2.499
 8802SOL    HW227306   1.573   6.416   2.363
 8803SOL     OW27307   2.442   6.039   6.995
 8803SOL    HW127308   2.451   5.993   6.907
 8803SOL    HW227309   2.528   6.032   0.023
 8804SOL     OW27310   4.033   0.181   1.106
 8804SOL    HW127311   4.086   0.202   1.023
 8804SOL    HW227312   4.054   0.250   1.176
 8805SOL     OW27313   0.979   0.361   3.298
 8805SOL    HW127314   0.980   0.461   3.304
 8805SOL    HW227315   0.947   0.333   3.208
 8806SOL     OW27316   1.584   5.491   0.321
 8806SOL    HW127317   1.565   5.511   0.418
 8806SOL    HW227318   1.638   5.565   0.282
 8807SOL     OW27319   6.725   6.155   5.914
 8807SOL    HW127320   6.687   6.243   5.944
 8807SOL    HW227321   6.825   6.162   5.909
 8808SOL     OW27322   6.030   0.770   0.367
 8808SOL    HW127323   6.129   0.762   0.378
 8808SOL    HW227324   5.986   0.748   0.454
 8809SOL     OW27325   5.451   4.072   1.806
 8809SOL    HW127326   5.481   4.051   1.900
 8809SOL    HW227327   5.414   3.990   1.764
 8810SOL     OW27328   4.913   1.621   3.728
 8810SOL    HW127329   4.843   1.554   3.703
 8810SOL    HW227330   4.981   1.578   3.788
 8811SOL     OW27331   2.605   1.608   3.321
 8811SOL    HW127332   2.592   1.512   3.294
 8811SOL    HW227333   2.587   1.617   3.419
 8812SOL     OW27334   0.942   1.152   0.847
 8812SOL    HW127335   0.949   1.097   0.764
 8812SOL    HW227336   0.931   1.248   0.823
 8813SOL     OW27337   1.041   6.621   1.775
 8813SOL    HW127338   1.041   6.706   1.828
 8813SOL    HW227339   0.996   6.549   1.827
 8814SOL     OW27340   6.713   0.673   6.791
 8814SOL    HW127341   6.753   0.588   6.824
 8814SOL    HW227342   6.786   0.735   6.761
 8815SOL     OW27343   0.232   5.942   1.991
 8815SOL    HW127344   0.327   5.967   1.972
 8815SOL    HW227345   0.196   5.886   1.916
 8816SOL     OW27346   1.134   6.002   1.199
 8816SOL    HW127347   1.189   6.084   1.208
 8816SOL    HW227348   1.090   6.000   1.109
 8817SOL     OW27349   1.490   5.719   5.120
 8817SOL    HW127350   1.477   5.667   5.205
 8817SOL    HW227351   1.547   5.665   5.058
 8818SOL     OW27352   6.902   4.485   4.322
 8818SOL    HW127353   6.923   4.531   4.236
 8818SOL    HW227354   6.861   4.549   4.386
 8819SOL     OW27355   4.670   6.499   4.192
 8819SOL    HW127356   4.648   6.404   4.214
 8819SOL    HW227357   4.766   6.517   4.211
 8820SOL     OW27358   1.911   2.753   3.862
 8820SOL    HW127359   1.854   2.798   3.794
 8820SOL    HW227360   1.858   2.738   3.946
 8821SOL     OW27361   2.408   0.675   6.679
 8821SOL    HW127362   2.379   0.759   6.634
 8821SOL    HW227363   2.434   0.695   6.774
 8822SOL     OW27364   0.983   1.808   3.472
 8822SOL    HW127365   0.930   1.761   3.401
 8822SOL    HW227366   0.968   1.764   3.560
 8823SOL     OW27367   2.052   6.826   0.781
 8823SOL    HW127368   2.080   6.732   0.763
 8823SOL    HW227369   2.099   6.888   0.718
 8824SOL     OW27370   3.139   3.935   0.794
 8824SOL    HW127371   3.170   3.950   0.700
 8824SOL    HW227372   3.042   3.912   0.794
 8825SOL     OW27373   1.701   1.074   2.257
 8825SOL    HW127374   1.777   1.139   2.257
 8825SOL    HW227375   1.641   1.092   2.179
 8826SOL     OW27376   5.540   0.694   6.528
 8826SOL    HW127377   5.562   0.631   6.603
 8826SOL    HW227378   5.509   0.781   6.565
 8827SOL     OW27379   2.382   1.321   3.007
 8827SOL    HW127380   2.325   1.265   2.948
 8827SOL    HW227381   2.355   1.417   2.999
 8828SOL     OW27382   2.986   6.145   3.520
 8828SOL    HW127383   3.045   6.188   3.451
 8828SOL    HW227384   3.001   6.046   3.519
 8829SOL     OW27385   0.427   2.567   6.631
 8829SOL    HW127386   0.426   2.474   6.595
 8829SOL    HW227387   0.392   2.566   6.725
 8830SOL     OW27388   0.936   1.078   0.208
 8830SOL    HW127389   0.886   1.025   0.276
 8830SOL    HW227390   0.907   1.050   0.116
 8831SOL     OW27391   5.805   0.641   2.714
 8831SOL    HW127392   5.854   0.573   2.659
 8831SOL    HW227393   5.807   0.614   2.810
 8832SOL     OW27394   6.875   0.350   2.102
 8832SOL    HW127395   6.783   0.334   2.067
 8832SOL    HW227396   6.932   0.389   2.030
 8833SOL     OW27397   2.816   5.379   4.452
 8833SOL    HW127398   2.730   5.424   4.430
 8833SOL    HW227399   2.799   5.301   4.511
 8834SOL     OW27400   6.420   2.764   4.618
 8834SOL    HW127401   6.405   2.841   4.556
 8834SOL    HW227402   6.416   2.796   4.713
 8835SOL     OW27403   6.601   6.686   5.575
 8835SOL    HW127404   6.602   6.619   5.650
 8835SOL    HW227405   6.690   6.732   5.572
 8836SOL     OW27406   4.419   1.147   0.471
 8836SOL    HW127407   4.343   1.211   0.460
 8836SOL    HW227408   4.494   1.175   0.411
 8837SOL     OW27409   0.495   0.684   1.886
 8837SOL    HW127410   0.562   0.625   1.843
 8837SOL    HW227411   0.465   0.754   1.821
 8838SOL     OW27412   2.927   5.230   3.232
 8838SOL    HW127413   2.970   5.147   3.197
 8838SOL    HW227414   2.871   5.207   3.312
 8839SOL     OW27415   6.173   6.342   3.392
 8839SOL    HW127416   6.258   6.319   3.441
 8839SOL    HW227417   6.167   6.442   3.381
 8840SOL     OW27418   5.378   2.416   2.773
 8840SOL    HW127419   5.464   2.366   2.763
 8840SOL    HW227420   5.304   2.352   2.791
 8841SOL     OW27421   1.152   1.674   5.356
 8841SOL    HW127422   1.158   1.651   5.259
 8841SOL    HW227423   1.142   1.591   5.410
 8842SOL     OW27424   2.647   2.627   1.593
 8842SOL    HW127425   2.651   2.562   1.669
 8842SOL    HW227426   2.617   2.716   1.627
 8843SOL     OW27427   1.186   3.045   5.286
 8843SOL    HW127428   1.263   2.982   5.275
 8843SOL    HW227429   1.219   3.139   5.278
 8844SOL     OW27430   6.364   1.246   5.955
 8844SOL    HW127431   6.313   1.162   5.940
 8844SOL    HW227432   6.455   1.238   5.915
 8845SOL     OW27433   4.572   3.914   0.244
 8845SOL    HW127434   4.622   3.961   0.317
 8845SOL    HW227435   4.630   3.905   0.163
 8846SOL     OW27436   1.760   4.340   4.425
 8846SOL    HW127437   1.747   4.241   4.420
 8846SOL    HW227438   1.851   4.360   4.461
 8847SOL     OW27439   2.715   6.958   2.476
 8847SOL    HW127440   2.785   6.960   2.404
 8847SOL    HW227441   2.758   6.946   2.565
 8848SOL     OW27442   1.899   0.809   1.965
 8848SOL    HW127443   1.872   0.778   1.874
 8848SOL    HW227444   1.995   0.787   1.980
 8849SOL     OW27445   2.071   6.256   2.199
 8849SOL    HW127446   2.031   6.289   2.284
 8849SOL    HW227447   2.117   6.169   2.215
 8850SOL     OW27448   3.317   2.346   6.858
 8850SOL    HW127449   3.375   2.324   6.780
 8850SOL    HW227450   3.224   2.366   6.826
 8851SOL     OW27451   1.454   4.585   2.257
 8851SOL    HW127452   1.549   4.574   2.227
 8851SOL    HW227453   1.427   4.681   2.248
 8852SOL     OW27454   1.403   1.537   6.321
 8852SOL    HW127455   1.348   1.619   6.303
 8852SOL    HW227456   1.371   1.462   6.263
 8853SOL     OW27457   3.535   0.817   1.058
 8853SOL    HW127458   3.472   0.895   1.052
 8853SOL    HW227459   3.579   0.816   1.148
 8854SOL     OW27460   1.431   2.823   4.784
 8854SOL    HW127461   1.420   2.776   4.871
 8854SOL    HW227462   1.455   2.919   4.800
 8855SOL     OW27463   5.631   5.035   1.372
 8855SOL    HW127464   5.713   4.979   1.383
 8855SOL    HW227465   5.581   5.038   1.458
 8856SOL     OW27466   0.479   5.455   6.452
 8856SOL    HW127467   0.477   5.356   6.440
 8856SOL    HW227468   0.386   5.492   6.441
 8857SOL     OW27469   6.475   1.201   5.005
 8857SOL    HW127470   6.498   1.165   5.095
 8857SOL    HW227471   6.426   1.132   4.953
 8858SOL     OW27472   6.088   4.769   4.497
 8858SOL    HW127473   6.113   4.843   4.435
 8858SOL    HW227474   6.040   4.806   4.577
 8859SOL     OW27475   0.188   1.113   3.779
 8859SOL    HW127476   0.232   1.155   3.699
 8859SOL    HW227477   0.095   1.148   3.788
 8860SOL     OW27478   6.405   2.580   1.591
 8860SOL    HW127479   6.359   2.491   1.593
 8860SOL    HW227480   6.354   2.646   1.646
 8861SOL     OW27481   4.303   1.821   1.297
 8861SOL    HW127482   4.379   1.877   1.263
 8861SOL    HW227483   4.332   1.726   1.301
 8862SOL     OW27484   4.651   4.944   5.323
 8862SOL    HW127485   4.743   4.941   5.284
 8862SOL    HW227486   4.650   5.008   5.400
 8863SOL     OW27487   1.945   4.071   3.784
 8863SOL    HW127488   1.875   4.042   3.850
 8863SOL    HW227489   2.035   4.042   3.817
 8864SOL     OW27490   5.828   1.713   5.638
 8864SOL    HW127491   5.818   1.621   5.600
 8864SOL    HW227492   5.922   1.726   5.670
 8865SOL     OW27493   2.236   1.575   6.595
 8865SOL    HW127494   2.205   1.637   6.523
 8865SOL    HW227495   2.302   1.510   6.558
 8866SOL     OW27496   5.789   6.025   1.803
 8866SOL    HW127497   5.851   6.086   1.754
 8866SOL    HW227498   5.749   6.073   1.881
 8867SOL     OW27499   6.731   3.624   2.805
 8867SOL    HW127500   6.820   3.605   2.848
 8867SOL    HW227501   6.682   3.691   2.860
 8868SOL     OW27502   0.085   3.738   3.046
 8868SOL    HW127503   0.018   3.673   3.010
 8868SOL    HW227504   0.072   3.747   3.145
 8869SOL     OW27505   3.162   6.203   3.732
 8869SOL    HW127506   3.073   6.186   3.690
 8869SOL    HW227507   3.193   6.120   3.779
 8870SOL     OW27508   1.581   0.142   2.170
 8870SOL    HW127509   1.555   0.061   2.118
 8870SOL    HW227510   1.670   0.176   2.137
 8871SOL     OW27511   0.634   0.900   2.873
 8871SOL    HW127512   0.678   0.954   2.801
 8871SOL    HW227513   0.698   0.832   2.908
 8872SOL     OW27514   0.548   4.503   5.001
 8872SOL    HW127515   0.477   4.556   4.953
 8872SOL    HW227516   0.505   4.430   5.054
 8873SOL     OW27517   1.465   0.774   2.249
 8873SOL    HW127518   1.499   0.818   2.332
 8873SOL    HW227519   1.427   0.684   2.271
 8874SOL     OW27520   2.310   5.454   0.339
 8874SOL    HW127521   2.387   5.471   0.278
 8874SOL    HW227522   2.230   5.426   0.286
 8875SOL     OW27523   6.897   3.254   3.650
 8875SOL    HW127524   6.993   3.236   3.668
 8875SOL    HW227525   6.884   3.268   3.551
 8876SOL     OW27526   3.498   0.584   6.500
 8876SOL    HW127527   3.452   0.515   6.443
 8876SOL    HW227528   3.580   0.544   6.540
 8877SOL     OW27529   2.039   3.556   1.281
 8877SOL    HW127530   1.961   3.494   1.276
 8877SOL    HW227531   2.041   3.613   1.199
 8878SOL     OW27532   4.013   4.551   1.004
 8878SOL    HW127533   4.000   4.581   0.909
 8878SOL    HW227534   3.932   4.502   1.035
 8879SOL     OW27535   6.294   4.670   2.899
 8879SOL    HW127536   6.268   4.767   2.900
 8879SOL    HW227537   6.234   4.619   2.959
 8880SOL     OW27538   4.602   6.654   3.868
 8880SOL    HW127539   4.574   6.698   3.954
 8880SOL    HW227540   4.678   6.592   3.886
 8881SOL     OW27541   4.102   5.088   4.224
 8881SOL    HW127542   4.039   5.166   4.215
 8881SOL    HW227543   4.078   5.035   4.305
 8882SOL     OW27544   4.249   0.517   0.999
 8882SOL    HW127545   4.324   0.583   1.008
 8882SOL    HW227546   4.280   0.439   0.946
 8883SOL     OW27547   0.384   5.896   4.747
 8883SOL    HW127548   0.431   5.825   4.800
 8883SOL    HW227549   0.358   5.971   4.807
 8884SOL     OW27550   5.381   3.834   4.810
 8884SOL    HW127551   5.379   3.919   4.758
 8884SOL    HW227552   5.447   3.843   4.886
 8885SOL     OW27553   5.933   5.543   0.466
 8885SOL    HW127554   5.873   5.542   0.546
 8885SOL    HW227555   5.942   5.449   0.431
 8886SOL     OW27556   3.185   5.792   0.035
 8886SOL    HW127557   3.139   5.837   0.112
 8886SOL    HW227558   3.118   5.741   7.004
 8887SOL     OW27559   4.730   1.927   1.282
 8887SOL    HW127560   4.701   1.910   1.376
 8887SOL    HW227561   4.763   2.021   1.273
 8888SOL     OW27562   2.473   1.866   3.251
 8888SOL    HW127563   2.446   1.880   3.156
 8888SOL    HW227564   2.502   1.772   3.264
 8889SOL     OW27565   0.210   6.783   5.947
 8889SOL    HW127566   0.191   6.872   5.989
 8889SOL    HW227567   0.308   6.771   5.936
 8890SOL     OW27568   0.454   0.009   6.880
 8890SOL    HW127569   0.361   0.036   6.858
 8890SOL    HW227570   0.462   6.932   6.875
 8891SOL     OW27571   6.024   4.851   6.673
 8891SOL    HW127572   5.957   4.868   6.745
 8891SOL    HW227573   6.112   4.826   6.714
 8892SOL     OW27574   3.070   5.608   3.373
 8892SOL    HW127575   2.990   5.571   3.419
 8892SOL    HW227576   3.075   5.573   3.280
 8893SOL     OW27577   1.526   5.111   4.982
 8893SOL    HW127578   1.473   5.159   5.052
 8893SOL    HW227579   1.614   5.082   5.021
 8894SOL     OW27580   4.300   1.838   0.346
 8894SOL    HW127581   4.335   1.805   0.433
 8894SOL    HW227582   4.228   1.905   0.362
 8895SOL     OW27583   0.762   3.813   0.825
 8895SOL    HW127584   0.734   3.853   0.738
 8895SOL    HW227585   0.681   3.789   0.878
 8896SOL     OW27586   0.193   2.065   4.132
 8896SOL    HW127587   0.190   2.134   4.059
 8896SOL    HW227588   0.099   2.043   4.160
 8897SOL     OW27589   2.196   4.060   3.935
 8897SOL    HW127590   2.212   4.137   3.997
 8897SOL    HW227591   2.245   3.979   3.968
 8898SOL     OW27592   4.819   3.814   3.002
 8898SOL    HW127593   4.883   3.745   3.035
 8898SOL    HW227594   4.797   3.796   2.906
 8899SOL     OW27595   6.798   3.637   6.152
 8899SOL    HW127596   6.715   3.622   6.099
 8899SOL    HW227597   6.878   3.612   6.097
 8900SOL     OW27598   5.460   2.740   4.309
 8900SOL    HW127599   5.463   2.648   4.348
 8900SOL    HW227600   5.424   2.804   4.377
 8901SOL     OW27601   0.924   2.760   3.975
 8901SOL    HW127602   0.977   2.709   4.042
 8901SOL    HW227603   0.936   2.858   3.990
 8902SOL     OW27604   1.011   4.458   0.132
 8902SOL    HW127605   1.027   4.530   0.065
 8902SOL    HW227606   0.933   4.481   0.189
 8903SOL     OW27607   1.327   0.617   4.723
 8903SOL    HW127608   1.254   0.642   4.659
 8903SOL    HW227609   1.346   0.695   4.783
 8904SOL     OW27610   0.661   1.274   3.090
 8904SOL    HW127611   0.661   1.192   3.149
 8904SOL    HW227612   0.746   1.277   3.038
 8905SOL     OW27613   1.814   3.608   2.230
 8905SOL    HW127614   1.788   3.518   2.264
 8905SOL    HW227615   1.826   3.605   2.131
 8906SOL     OW27616   6.997   0.075   0.667
 8906SOL    HW127617   6.999   0.165   0.622
 8906SOL    HW227618   7.010   0.087   0.765
 8907SOL     OW27619   3.775   2.959   4.890
 8907SOL    HW127620   3.681   2.994   4.880
 8907SOL    HW227621   3.830   2.990   4.812
 8908SOL     OW27622   1.597   6.180   0.471
 8908SOL    HW127623   1.559   6.271   0.488
 8908SOL    HW227624   1.523   6.118   0.443
 8909SOL     OW27625   2.894   1.197   6.831
 8909SOL    HW127626   2.994   1.197   6.835
 8909SOL    HW227627   2.861   1.291   6.828
 8910SOL     OW27628   1.632   2.333   4.024
 8910SOL    HW127629   1.698   2.264   3.993
 8910SOL    HW227630   1.559   2.342   3.956
 8911SOL     OW27631   4.770   1.473   4.136
 8911SOL    HW127632   4.671   1.475   4.122
 8911SOL    HW227633   4.817   1.511   4.056
 8912SOL     OW27634   3.536   3.914   4.632
 8912SOL    HW127635   3.504   4.006   4.654
 8912SOL    HW227636   3.593   3.917   4.550
 8913SOL     OW27637   4.935   6.309   6.817
 8913SOL    HW127638   4.854   6.252   6.802
 8913SOL    HW227639   4.931   6.389   6.757
 8914SOL     OW27640   4.978   6.788   5.978
 8914SOL    HW127641   5.045   6.826   6.041
 8914SOL    HW227642   4.973   6.846   5.896
 8915SOL     OW27643   0.547   1.189   3.421
 8915SOL    HW127644   0.577   1.100   3.456
 8915SOL    HW227645   0.617   1.258   3.439
 8916SOL     OW27646   5.397   1.564   6.869
 8916SOL    HW127647   5.495   1.568   6.887
 8916SOL    HW227648   5.348   1.563   6.957
 8917SOL     OW27649   5.908   1.845   0.300
 8917SOL    HW127650   5.911   1.931   0.249
 8917SOL    HW227651   5.875   1.772   0.240
 8918SOL     OW27652   1.167   4.717   1.718
 8918SOL    HW127653   1.117   4.717   1.632
 8918SOL    HW227654   1.144   4.634   1.769
 8919SOL     OW27655   5.839   4.209   6.807
 8919SOL    HW127656   5.809   4.225   6.713
 8919SOL    HW227657   5.883   4.119   6.813
 8920SOL     OW27658   6.987   1.196   0.161
 8920SOL    HW127659   6.946   1.113   0.122
 8920SOL    HW227660   6.962   1.203   0.257
 8921SOL     OW27661   1.347   2.670   0.778
 8921SOL    HW127662   1.414   2.645   0.847
 8921SOL    HW227663   1.300   2.588   0.745
 8922SOL     OW27664   3.399   0.561   4.150
 8922SOL    HW127665   3.491   0.592   4.128
 8922SOL    HW227666   3.389   0.465   4.126
 8923SOL     OW27667   1.815   2.226   5.020
 8923SOL    HW127668   1.736   2.189   4.970
 8923SOL    HW227669   1.814   2.325   5.015
 8924SOL     OW27670   5.059   5.181   4.633
 8924SOL    HW127671   4.991   5.182   4.559
 8924SOL    HW227672   5.118   5.101   4.623
 8925SOL     OW27673   1.068   0.705   3.555
 8925SOL    HW127674   1.057   0.646   3.475
 8925SOL    HW227675   1.118   0.787   3.530
 8926SOL     OW27676   6.777   3.055   5.390
 8926SOL    HW127677   6.694   3.096   5.428
 8926SOL    HW227678   6.755   2.968   5.348
 8927SOL     OW27679   6.650   1.889   6.191
 8927SOL    HW127680   6.737   1.842   6.175
 8927SOL    HW227681   6.646   1.918   6.286
 8928SOL     OW27682   2.067   6.786   5.353
 8928SOL    HW127683   2.048   6.848   5.429
 8928SOL    HW227684   2.139   6.826   5.295
 8929SOL     OW27685   0.210   2.215   4.890
 8929SOL    HW127686   0.246   2.191   4.981
 8929SOL    HW227687   0.164   2.303   4.895
 8930SOL     OW27688   1.507   4.761   3.870
 8930SOL    HW127689   1.464   4.685   3.919
 8930SOL    HW227690   1.591   4.788   3.918
 8931SOL     OW27691   3.777   3.027   1.323
 8931SOL    HW127692   3.753   2.930   1.327
 8931SOL    HW227693   3.783   3.064   1.416
 8932SOL     OW27694   6.841   2.227   2.968
 8932SOL    HW127695   6.911   2.219   2.896
 8932SOL    HW227696   6.813   2.136   2.998
 8933SOL     OW27697   3.711   1.999   6.096
 8933SOL    HW127698   3.740   1.908   6.128
 8933SOL    HW227699   3.613   2.009   6.114
 8934SOL     OW27700   3.042   5.594   4.462
 8934SOL    HW127701   3.112   5.594   4.390
 8934SOL    HW227702   2.960   5.549   4.428
 8935SOL     OW27703   6.868   4.789   1.053
 8935SOL    HW127704   6.815   4.715   1.093
 8935SOL    HW227705   6.941   4.752   0.995
 8936SOL     OW27706   2.181   3.067   0.813
 8936SOL    HW127707   2.177   3.046   0.911
 8936SOL    HW227708   2.231   2.994   0.766
 8937SOL     OW27709   0.183   6.208   5.334
 8937SOL    HW127710   0.094   6.241   5.366
 8937SOL    HW227711   0.229   6.280   5.282
 8938SOL     OW27712   6.261   5.102   1.459
 8938SOL    HW127713   6.175   5.069   1.498
 8938SOL    HW227714   6.294   5.036   1.392
 8939SOL     OW27715   4.851   2.091   4.657
 8939SOL    HW127716   4.855   2.007   4.711
 8939SOL    HW227717   4.818   2.167   4.714
 8940SOL     OW27718   6.422   0.732   3.880
 8940SOL    HW127719   6.518   0.727   3.909
 8940SOL    HW227720   6.390   0.827   3.889
 8941SOL     OW27721   5.594   1.949   6.199
 8941SOL    HW127722   5.597   1.966   6.100
 8941SOL    HW227723   5.507   1.908   6.224
 8942SOL     OW27724   0.343   2.342   5.299
 8942SOL    HW127725   0.434   2.317   5.329
 8942SOL    HW227726   0.280   2.341   5.377
 8943SOL     OW27727   5.008   3.216   1.349
 8943SOL    HW127728   4.911   3.198   1.367
 8943SOL    HW227729   5.019   3.250   1.256
 8944SOL     OW27730   4.642   5.734   0.265
 8944SOL    HW127731   4.553   5.691   0.248
 8944SOL    HW227732   4.715   5.669   0.244
 8945SOL     OW27733   2.086   0.691   4.551
 8945SOL    HW127734   2.135   0.648   4.628
 8945SOL    HW227735   2.017   0.627   4.516
 8946SOL     OW27736   3.640   1.834   5.269
 8946SOL    HW127737   3.563   1.813   5.329
 8946SOL    HW227738   3.620   1.798   5.177
 8947SOL     OW27739   3.505   3.610   5.702
 8947SOL    HW127740   3.516   3.606   5.603
 8947SOL    HW227741   3.510   3.705   5.733
 8948SOL     OW27742   5.399   4.929   3.234
 8948SOL    HW127743   5.350   4.967   3.312
 8948SOL    HW227744   5.375   4.981   3.152
 8949SOL     OW27745   1.895   6.738   6.988
 8949SOL    HW127746   1.962   6.761   6.917
 8949SOL    HW227747   1.881   6.639   6.989
 8950SOL     OW27748   5.049   2.933   5.376
 8950SOL    HW127749   4.949   2.942   5.370
 8950SOL    HW227750   5.074   2.914   5.471
 8951SOL     OW27751   1.750   3.116   5.407
 8951SOL    HW127752   1.750   3.069   5.319
 8951SOL    HW227753   1.844   3.140   5.432
 8952SOL     OW27754   1.493   1.414   3.384
 8952SOL    HW127755   1.524   1.481   3.452
 8952SOL    HW227756   1.502   1.453   3.292
 8953SOL     OW27757   1.659   3.221   0.211
 8953SOL    HW127758   1.699   3.312   0.221
 8953SOL    HW227759   1.587   3.209   0.280
 8954SOL     OW27760   0.978   5.986   6.122
 8954SOL    HW127761   1.029   5.927   6.059
 8954SOL    HW227762   0.999   6.082   6.102
 8955SOL     OW27763   0.012   4.466   3.401
 8955SOL    HW127764   0.074   4.391   3.424
 8955SOL    HW227765   0.044   4.512   3.318
 8956SOL     OW27766   0.537   1.065   6.403
 8956SOL    HW127767   0.483   1.146   6.426
 8956SOL    HW227768   0.533   1.048   6.305
 8957SOL     OW27769   2.722   4.646   1.672
 8957SOL    HW127770   2.762   4.621   1.760
 8957SOL    HW227771   2.772   4.598   1.599
 8958SOL     OW27772   1.510   0.085   3.963
 8958SOL    HW127773   1.492   0.158   3.897
 8958SOL    HW227774   1.436   0.017   3.959
 8959SOL     OW27775   1.139   4.851   0.542
 8959SOL    HW127776   1.221   4.877   0.592
 8959SOL    HW227777   1.059   4.893   0.585
 8960SOL     OW27778   3.978   5.446   2.203
 8960SOL    HW127779   3.883   5.419   2.192
 8960SOL    HW227780   4.038   5.370   2.178
 8961SOL     OW27781   1.107   1.993   4.301
 8961SOL    HW127782   1.094   1.954   4.210
 8961SOL    HW227783   1.185   2.056   4.300
 8962SOL     OW27784   5.999   0.688   3.634
 8962SOL    HW127785   6.000   0.658   3.538
 8962SOL    HW227786   5.952   0.776   3.642
 8963SOL     OW27787   5.297   0.362   4.051
 8963SOL    HW127788   5.267   0.425   3.979
 8963SOL    HW227789   5.337   0.415   4.126
 8964SOL     OW27790   5.017   4.773   2.282
 8964SOL    HW127791   5.095   4.767   2.344
 8964SOL    HW227792   4.973   4.684   2.276
 8965SOL     OW27793   1.168   4.995   1.292
 8965SOL    HW127794   1.213   5.082   1.311
 8965SOL    HW227795   1.229   4.920   1.317
 8966SOL     OW27796   1.824   2.403   5.958
 8966SOL    HW127797   1.843   2.475   6.024
 8966SOL    HW227798   1.859   2.316   5.993
 8967SOL     OW27799   3.899   0.336   0.775
 8967SOL    HW127800   3.799   0.348   0.774
 8967SOL    HW227801   3.939   0.400   0.840
 8968SOL     OW27802   5.037   5.987   1.692
 8968SOL    HW127803   5.061   6.052   1.620
 8968SOL    HW227804   5.115   5.977   1.755
 8969SOL     OW27805   5.855   0.934   3.654
 8969SOL    HW127806   5.913   1.015   3.661
 8969SOL    HW227807   5.785   0.938   3.725
 8970SOL     OW27808   3.735   2.322   1.452
 8970SOL    HW127809   3.745   2.414   1.490
 8970SOL    HW227810   3.749   2.326   1.353
 8971SOL     OW27811   3.544   5.840   2.497
 8971SOL    HW127812   3.633   5.882   2.483
 8971SOL    HW227813   3.504   5.818   2.408
 8972SOL     OW27814   5.581   6.063   5.989
 8972SOL    HW127815   5.588   5.965   6.011
 8972SOL    HW227816   5.492   6.097   6.019
 8973SOL     OW27817   1.562   4.678   0.602
 8973SOL    HW127818   1.652   4.686   0.644
 8973SOL    HW227819   1.493   4.663   0.673
 8974SOL     OW27820   0.936   4.054   6.305
 8974SOL    HW127821   0.856   4.110   6.328
 8974SOL    HW227822   0.992   4.041   6.388
 8975SOL     OW27823   2.542   0.306   0.764
 8975SOL    HW127824   2.630   0.291   0.717
 8975SOL    HW227825   2.468   0.270   0.707
 8976SOL     OW27826   1.799   5.434   4.443
 8976SOL    HW127827   1.783   5.341   4.477
 8976SOL    HW227828   1.738   5.452   4.365
 8977SOL     OW27829   5.935   1.282   5.728
 8977SOL    HW127830   5.975   1.192   5.710
 8977SOL    HW227831   5.953   1.308   5.823
 8978SOL     OW27832   5.675   5.870   0.693
 8978SOL    HW127833   5.702   5.867   0.596
 8978SOL    HW227834   5.584   5.912   0.700
 8979SOL     OW27835   1.889   3.810   4.853
 8979SOL    HW127836   1.875   3.734   4.916
 8979SOL    HW227837   1.977   3.854   4.871
 8980SOL     OW27838   3.344   3.557   5.141
 8980SOL    HW127839   3.429   3.589   5.183
 8980SOL    HW227840   3.284   3.636   5.124
 8981SOL     OW27841   3.569   1.417   5.115
 8981SOL    HW127842   3.542   1.459   5.028
 8981SOL    HW227843   3.492   1.368   5.154
 8982SOL     OW27844   2.522   3.420   0.450
 8982SOL    HW127845   2.478   3.360   0.517
 8982SOL    HW227846   2.457   3.445   0.379
 8983SOL     OW27847   3.727   5.545   6.901
 8983SOL    HW127848   3.738   5.639   6.869
 8983SOL    HW227849   3.671   5.494   6.835
 8984SOL     OW27850   2.312   6.049   3.154
 8984SOL    HW127851   2.354   5.962   3.179
 8984SOL    HW227852   2.349   6.080   3.066
 8985SOL     OW27853   3.389   2.451   0.500
 8985SOL    HW127854   3.342   2.363   0.511
 8985SOL    HW227855   3.402   2.470   0.403
 8986SOL     OW27856   3.447   4.892   2.788
 8986SOL    HW127857   3.479   4.847   2.705
 8986SOL    HW227858   3.519   4.887   2.858
 8987SOL     OW27859   5.119   5.977   2.759
 8987SOL    HW127860   5.036   5.921   2.758
 8987SOL    HW227861   5.190   5.930   2.813
 8988SOL     OW27862   0.568   5.586   3.664
 8988SOL    HW127863   0.558   5.628   3.754
 8988SOL    HW227864   0.639   5.633   3.613
 8989SOL     OW27865   5.028   2.864   6.196
 8989SOL    HW127866   5.017   2.790   6.262
 8989SOL    HW227867   4.959   2.934   6.213
 8990SOL     OW27868   1.051   5.098   4.046
 8990SOL    HW127869   1.105   5.020   4.016
 8990SOL    HW227870   1.067   5.114   4.144
 8991SOL     OW27871   1.539   2.721   4.334
 8991SOL    HW127872   1.486   2.640   4.361
 8991SOL    HW227873   1.592   2.753   4.412
 8992SOL     OW27874   5.373   1.944   0.251
 8992SOL    HW127875   5.390   1.852   0.287
 8992SOL    HW227876   5.439   1.964   0.179
 8993SOL     OW27877   3.871   3.223   6.507
 8993SOL    HW127878   3.966   3.254   6.515
 8993SOL    HW227879   3.835   3.250   6.418
 8994SOL     OW27880   1.882   4.579   4.707
 8994SOL    HW127881   1.897   4.496   4.654
 8994SOL    HW227882   1.816   4.561   4.780
 8995SOL     OW27883   6.969   1.889   1.899
 8995SOL    HW127884   6.976   1.965   1.833
 8995SOL    HW227885   6.979   1.802   1.850
 8996SOL     OW27886   5.290   3.992   6.697
 8996SOL    HW127887   5.390   3.996   6.695
 8996SOL    HW227888   5.259   3.984   6.792
 8997SOL     OW27889   4.764   0.762   5.395
 8997SOL    HW127890   4.684   0.704   5.407
 8997SOL    HW227891   4.825   0.752   5.474
 8998SOL     OW27892   6.317   3.946   4.154
 8998SOL    HW127893   6.323   3.868   4.093
 8998SOL    HW227894   6.409   3.981   4.172
 8999SOL     OW27895   4.359   6.778   5.838
 8999SOL    HW127896   4.412   6.752   5.757
 8999SOL    HW227897   4.262   6.778   5.816
 9000SOL     OW27898   1.376   3.839   1.404
 9000SOL    HW127899   1.390   3.911   1.472
 9000SOL    HW227900   1.324   3.876   1.327
 9001SOL     OW27901   0.224   4.610   2.195
 9001SOL    HW127902   0.210   4.614   2.097
 9001SOL    HW227903   0.263   4.521   2.219
 9002SOL     OW27904   1.109   4.735   5.631
 9002SOL    HW127905   1.091   4.772   5.540
 9002SOL    HW227906   1.025   4.698   5.670
 9003SOL     OW27907   5.377   3.034   1.344
 9003SOL    HW127908   5.297   3.022   1.286
 9003SOL    HW227909   5.427   3.116   1.316
 9004SOL     OW27910   4.367   5.046   0.936
 9004SOL    HW127911   4.286   5.011   0.983
 9004SOL    HW227912   4.340   5.116   0.871
 9005SOL     OW27913   5.826   1.265   6.124
 9005SOL    HW127914   5.761   1.250   6.050
 9005SOL    HW227915   5.917   1.284   6.085
 9006SOL     OW27916   3.135   6.953   1.036
 9006SOL    HW127917   3.064   7.011   1.078
 9006SOL    HW227918   3.180   7.003   0.963
 9007SOL     OW27919   2.453   1.223   2.392
 9007SOL    HW127920   2.440   1.303   2.451
 9007SOL    HW227921   2.523   1.164   2.431
 9008SOL     OW27922   0.475   5.089   3.039
 9008SOL    HW127923   0.444   5.161   2.977
 9008SOL    HW227924   0.466   5.120   3.133
 9009SOL     OW27925   3.344   5.222   1.188
 9009SOL    HW127926   3.444   5.210   1.188
 9009SOL    HW227927   3.305   5.174   1.110
 9010SOL     OW27928   1.681   6.954   4.587
 9010SOL    HW127929   1.662   0.020   4.543
 9010SOL    HW227930   1.775   6.953   4.620
 9011SOL     OW27931   3.949   0.972   1.744
 9011SOL    HW127932   3.957   1.048   1.680
 9011SOL    HW227933   3.930   1.008   1.836
 9012SOL     OW27934   2.198   5.667   0.510
 9012SOL    HW127935   2.248   5.617   0.581
 9012SOL    HW227936   2.110   5.622   0.493
 9013SOL     OW27937   0.862   0.044   4.367
 9013SOL    HW127938   0.943   7.014   4.343
 9013SOL    HW227939   0.801   0.049   4.287
 9014SOL     OW27940   5.852   3.192   1.668
 9014SOL    HW127941   5.754   3.183   1.681
 9014SOL    HW227942   5.900   3.130   1.731
 9015SOL     OW27943   4.855   2.535   1.299
 9015SOL    HW127944   4.866   2.544   1.200
 9015SOL    HW227945   4.789   2.603   1.331
 9016SOL     OW27946   5.526   5.005   6.354
 9016SOL    HW127947   5.598   4.991   6.422
 9016SOL    HW227948   5.561   4.984   6.263
 9017SOL     OW27949   3.814   1.279   4.974
 9017SOL    HW127950   3.754   1.202   4.952
 9017SOL    HW227951   3.788   1.317   5.063
 9018SOL     OW27952   3.783   3.645   6.784
 9018SOL    HW127953   3.874   3.613   6.758
 9018SOL    HW227954   3.783   3.672   6.880
 9019SOL     OW27955   1.104   3.961   2.922
 9019SOL    HW127956   1.059   3.896   2.861
 9019SOL    HW227957   1.155   4.028   2.867
 9020SOL     OW27958   6.489   4.584   1.249
 9020SOL    HW127959   6.546   4.577   1.331
 9020SOL    HW227960   6.404   4.631   1.271
 9021SOL     OW27961   0.269   0.227   4.219
 9021SOL    HW127962   0.205   0.285   4.269
 9021SOL    HW227963   0.359   0.233   4.260
 9022SOL     OW27964   3.766   2.248   6.949
 9022SOL    HW127965   3.762   2.161   6.900
 9022SOL    HW227966   3.771   2.323   6.883
 9023SOL     OW27967   4.191   3.177   1.148
 9023SOL    HW127968   4.092   3.162   1.150
 9023SOL    HW227969   4.219   3.204   1.056
 9024SOL     OW27970   0.680   4.709   5.747
 9024SOL    HW127971   0.580   4.718   5.748
 9024SOL    HW227972   0.712   4.705   5.653
 9025SOL     OW27973   0.022   5.272   0.960
 9025SOL    HW127974   0.073   5.259   1.044
 9025SOL    HW227975   6.993   5.357   0.965
 9026SOL     OW27976   3.669   1.245   0.444
 9026SOL    HW127977   3.709   1.154   0.440
 9026SOL    HW227978   3.703   1.300   0.368
 9027SOL     OW27979   1.032   3.702   3.655
 9027SOL    HW127980   0.987   3.788   3.631
 9027SOL    HW227981   1.131   3.713   3.645
 9028SOL     OW27982   3.580   3.187   5.154
 9028SOL    HW127983   3.506   3.124   5.176
 9028SOL    HW227984   3.668   3.138   5.156
 9029SOL     OW27985   4.367   0.714   4.860
 9029SOL    HW127986   4.292   0.681   4.918
 9029SOL    HW227987   4.407   0.797   4.900
 9030SOL     OW27988   2.070   2.489   3.882
 9030SOL    HW127989   2.083   2.586   3.904
 9030SOL    HW227990   1.972   2.470   3.877
 9031SOL     OW27991   4.164   0.540   4.649
 9031SOL    HW127992   4.261   0.521   4.642
 9031SOL    HW227993   4.130   0.507   4.737
 9032SOL     OW27994   4.489   4.252   1.105
 9032SOL    HW127995   4.509   4.215   1.196
 9032SOL    HW227996   4.466   4.349   1.113
 9033SOL     OW27997   0.502   5.031   2.378
 9033SOL    HW127998   0.506   5.020   2.279
 9033SOL    HW227999   0.579   5.088   2.408
 9034SOL     OW28000   3.476   6.025   5.254
 9034SOL    HW128001   3.408   5.964   5.293
 9034SOL    HW228002   3.567   6.001   5.288
 9035SOL     OW28003   2.033   6.074   0.131
 9035SOL    HW128004   1.934   6.085   0.130
 9035SOL    HW228005   2.056   5.984   0.168
 9036SOL     OW28006   1.577   3.938   5.230
 9036SOL    HW128007   1.582   3.844   5.262
 9036SOL    HW228008   1.485   3.975   5.245
 9037SOL     OW28009   1.188   2.635   4.472
 9037SOL    HW128010   1.210   2.593   4.384
 9037SOL    HW228011   1.154   2.728   4.456
 9038SOL     OW28012   4.673   2.949   6.430
 9038SOL    HW128013   4.645   3.017   6.498
 9038SOL    HW228014   4.598   2.885   6.414
 9039SOL     OW28015   3.580   4.574   6.780
 9039SOL    HW128016   3.618   4.484   6.762
 9039SOL    HW228017   3.652   4.633   6.818
 9040SOL     OW28018   2.494   1.912   2.049
 9040SOL    HW128019   2.587   1.947   2.063
 9040SOL    HW228020   2.498   1.830   1.991
 9041SOL     OW28021   0.925   2.274   1.157
 9041SOL    HW128022   0.920   2.201   1.089
 9041SOL    HW228023   0.902   2.238   1.248
 9042SOL     OW28024   3.994   5.885   5.260
 9042SOL    HW128025   4.064   5.943   5.302
 9042SOL    HW228026   4.018   5.868   5.165
 9043SOL     OW28027   2.206   1.481   6.840
 9043SOL    HW128028   2.214   1.506   6.743
 9043SOL    HW228029   2.291   1.502   6.887
 9044SOL     OW28030   0.621   0.856   0.102
 9044SOL    HW128031   0.531   0.841   0.062
 9044SOL    HW228032   0.627   0.808   0.190
 9045SOL     OW28033   4.097   0.481   3.573
 9045SOL    HW128034   4.050   0.441   3.494
 9045SOL    HW228035   4.154   0.557   3.542
 9046SOL     OW28036   4.082   3.415   2.789
 9046SOL    HW128037   4.085   3.344   2.859
 9046SOL    HW228038   4.105   3.376   2.700
 9047SOL     OW28039   1.393   3.877   5.434
 9047SOL    HW128040   1.298   3.870   5.464
 9047SOL    HW228041   1.425   3.971   5.445
 9048SOL     OW28042   6.093   2.297   6.245
 9048SOL    HW128043   6.050   2.388   6.246
 9048SOL    HW228044   6.080   2.254   6.334
 9049SOL     OW28045   3.489   6.337   6.188
 9049SOL    HW128046   3.406   6.298   6.229
 9049SOL    HW228047   3.479   6.436   6.182
 9050SOL     OW28048   0.671   4.292   1.847
 9050SOL    HW128049   0.753   4.255   1.891
 9050SOL    HW228050   0.600   4.222   1.844
 9051SOL     OW28051   2.825   0.950   1.544
 9051SOL    HW128052   2.883   0.872   1.520
 9051SOL    HW228053   2.850   1.029   1.488
 9052SOL     OW28054   1.708   3.070   3.885
 9052SOL    HW128055   1.742   2.979   3.858
 9052SOL    HW228056   1.775   3.139   3.859
 9053SOL     OW28057   2.264   1.174   1.159
 9053SOL    HW128058   2.343   1.161   1.098
 9053SOL    HW228059   2.183   1.132   1.119
 9054SOL     OW28060   2.449   5.656   3.734
 9054SOL    HW128061   2.417   5.568   3.771
 9054SOL    HW228062   2.409   5.730   3.787
 9055SOL     OW28063   6.788   4.171   5.057
 9055SOL    HW128064   6.807   4.108   4.981
 9055SOL    HW228065   6.716   4.235   5.030
 9056SOL     OW28066   6.247   2.338   2.593
 9056SOL    HW128067   6.320   2.282   2.553
 9056SOL    HW228068   6.160   2.313   2.551
 9057SOL     OW28069   4.861   1.847   4.760
 9057SOL    HW128070   4.860   1.752   4.727
 9057SOL    HW228071   4.891   1.849   4.855
 9058SOL     OW28072   1.286   0.547   6.209
 9058SOL    HW128073   1.201   0.514   6.168
 9058SOL    HW228074   1.329   0.475   6.262
 9059SOL     OW28075   1.311   2.482   2.237
 9059SOL    HW128076   1.273   2.551   2.298
 9059SOL    HW228077   1.322   2.521   2.145
 9060SOL     OW28078   5.328   3.216   4.660
 9060SOL    HW128079   5.318   3.134   4.716
 9060SOL    HW228080   5.389   3.280   4.706
 9061SOL     OW28081   4.429   5.862   2.376
 9061SOL    HW128082   4.403   5.841   2.282
 9061SOL    HW228083   4.517   5.818   2.397
 9062SOL     OW28084   1.309   5.557   1.414
 9062SOL    HW128085   1.377   5.521   1.350
 9062SOL    HW228086   1.245   5.617   1.365
 9063SOL     OW28087   2.974   1.514   3.775
 9063SOL    HW128088   3.073   1.509   3.787
 9063SOL    HW228089   2.936   1.421   3.772
 9064SOL     OW28090   6.607   3.593   0.213
 9064SOL    HW128091   6.555   3.508   0.225
 9064SOL    HW228092   6.700   3.579   0.248
 9065SOL     OW28093   3.246   0.736   0.374
 9065SOL    HW128094   3.179   0.675   0.415
 9065SOL    HW228095   3.208   0.828   0.367
 9066SOL     OW28096   5.414   0.105   0.092
 9066SOL    HW128097   5.487   0.047   0.055
 9066SOL    HW228098   5.437   0.129   0.186
 9067SOL     OW28099   1.779   6.631   3.284
 9067SOL    HW128100   1.730   6.552   3.248
 9067SOL    HW228101   1.738   6.659   3.371
 9068SOL     OW28102   1.214   6.152   5.608
 9068SOL    HW128103   1.143   6.097   5.651
 9068SOL    HW228104   1.177   6.242   5.585
 9069SOL     OW28105   1.788   2.608   6.127
 9069SOL    HW128106   1.840   2.614   6.212
 9069SOL    HW228107   1.728   2.687   6.119
 9070SOL     OW28108   1.569   3.893   4.698
 9070SOL    HW128109   1.493   3.838   4.733
 9070SOL    HW228110   1.621   3.930   4.775
 9071SOL     OW28111   6.497   6.501   0.358
 9071SOL    HW128112   6.447   6.479   0.442
 9071SOL    HW228113   6.454   6.454   0.281
 9072SOL     OW28114   6.836   3.631   0.726
 9072SOL    HW128115   6.823   3.647   0.824
 9072SOL    HW228116   6.756   3.662   0.675
 9073SOL     OW28117   2.270   1.078   1.987
 9073SOL    HW128118   2.285   1.155   2.048
 9073SOL    HW228119   2.343   1.010   2.001
 9074SOL     OW28120   1.384   6.776   2.748
 9074SOL    HW128121   1.303   6.798   2.803
 9074SOL    HW228122   1.371   6.688   2.702
 9075SOL     OW28123   6.585   0.739   1.865
 9075SOL    HW128124   6.676   0.699   1.855
 9075SOL    HW228125   6.589   0.837   1.842
 9076SOL     OW28126   6.989   1.185   5.694
 9076SOL    HW128127   7.001   1.207   5.597
 9076SOL    HW228128   6.965   1.089   5.703
 9077SOL     OW28129   4.949   6.722   2.260
 9077SOL    HW128130   4.928   6.640   2.206
 9077SOL    HW228131   4.916   6.803   2.212
 9078SOL     OW28132   3.908   3.434   5.077
 9078SOL    HW128133   3.890   3.336   5.083
 9078SOL    HW228134   3.913   3.474   5.169
 9079SOL     OW28135   3.577   6.611   4.467
 9079SOL    HW128136   3.574   6.669   4.549
 9079SOL    HW228137   3.486   6.607   4.426
 9080SOL     OW28138   5.401   2.543   6.916
 9080SOL    HW128139   5.375   2.549   7.013
 9080SOL    HW228140   5.500   2.555   6.908
 9081SOL     OW28141   5.528   6.362   2.282
 9081SOL    HW128142   5.543   6.426   2.207
 9081SOL    HW228143   5.610   6.305   2.295
 9082SOL     OW28144   2.586   0.747   3.797
 9082SOL    HW128145   2.510   0.799   3.834
 9082SOL    HW228146   2.672   0.778   3.838
 9083SOL     OW28147   5.053   4.441   4.954
 9083SOL    HW128148   5.110   4.488   4.887
 9083SOL    HW228149   5.025   4.506   5.025
 9084SOL     OW28150   3.120   3.664   3.042
 9084SOL    HW128151   3.125   3.752   3.089
 9084SOL    HW228152   3.196   3.656   2.977
 9085SOL     OW28153   2.323   1.903   1.633
 9085SOL    HW128154   2.367   1.971   1.575
 9085SOL    HW228155   2.248   1.860   1.582
 9086SOL     OW28156   0.808   3.979   1.185
 9086SOL    HW128157   0.798   3.881   1.203
 9086SOL    HW228158   0.718   4.019   1.166
 9087SOL     OW28159   4.891   3.745   2.178
 9087SOL    HW128160   4.950   3.667   2.199
 9087SOL    HW228161   4.853   3.734   2.086
 9088SOL     OW28162   6.888   0.666   6.311
 9088SOL    HW128163   6.973   0.623   6.282
 9088SOL    HW228164   6.811   0.621   6.266
 9089SOL     OW28165   4.389   0.003   5.966
 9089SOL    HW128166   4.297   0.037   5.946
 9089SOL    HW228167   4.394   6.929   5.944
 9090SOL     OW28168   5.255   0.384   4.481
 9090SOL    HW128169   5.289   0.436   4.559
 9090SOL    HW228170   5.263   0.439   4.398
 9091SOL     OW28171   3.096   3.739   0.076
 9091SOL    HW128172   3.112   3.659   0.019
 9091SOL    HW228173   3.149   3.730   0.161
 9092SOL     OW28174   6.991   1.981   6.960
 9092SOL    HW128175   6.997   1.912   6.888
 9092SOL    HW228176   6.946   1.942   0.018
 9093SOL     OW28177   1.535   6.959   5.303
 9093SOL    HW128178   1.608   6.988   5.241
 9093SOL    HW228179   1.446   6.985   5.264
 9094SOL     OW28180   0.615   3.286   2.104
 9094SOL    HW128181   0.669   3.330   2.175
 9094SOL    HW228182   0.521   3.320   2.107
 9095SOL     OW28183   5.352   5.907   5.491
 9095SOL    HW128184   5.397   5.839   5.549
 9095SOL    HW228185   5.412   5.933   5.416
 9096SOL     OW28186   6.327   5.142   2.739
 9096SOL    HW128187   6.241   5.094   2.754
 9096SOL    HW228188   6.318   5.204   2.661
 9097SOL     OW28189   0.753   3.433   5.769
 9097SOL    HW128190   0.678   3.368   5.784
 9097SOL    HW228191   0.779   3.475   5.856
 9098SOL     OW28192   2.147   3.288   4.527
 9098SOL    HW128193   2.137   3.219   4.598
 9098SOL    HW228194   2.124   3.378   4.564
 9099SOL     OW28195   2.208   3.457   0.034
 9099SOL    HW128196   2.137   3.524   0.053
 9099SOL    HW228197   2.173   3.365   0.050
 9100SOL     OW28198   1.068   4.605   2.664
 9100SOL    HW128199   1.073   4.705   2.667
 9100SOL    HW228200   0.972   4.576   2.657
 9101SOL     OW28201   2.129   1.396   1.640
 9101SOL    HW128202   2.083   1.341   1.570
 9101SOL    HW228203   2.099   1.491   1.633
 9102SOL     OW28204   4.350   5.834   2.647
 9102SOL    HW128205   4.339   5.844   2.548
 9102SOL    HW228206   4.392   5.916   2.684
 9103SOL     OW28207   6.566   1.939   0.592
 9103SOL    HW128208   6.506   1.862   0.573
 9103SOL    HW228209   6.514   2.011   0.638
 9104SOL     OW28210   6.661   0.779   0.025
 9104SOL    HW128211   6.656   0.773   6.948
 9104SOL    HW228212   6.681   0.689   0.063
 9105SOL     OW28213   1.889   0.163   6.214
 9105SOL    HW128214   1.860   0.166   6.309
 9105SOL    HW228215   1.868   0.251   6.170
 9106SOL     OW28216   1.408   5.063   6.790
 9106SOL    HW128217   1.432   5.099   6.700
 9106SOL    HW228218   1.428   5.132   6.860
 9107SOL     OW28219   2.251   1.157   0.409
 9107SOL    HW128220   2.283   1.089   0.343
 9107SOL    HW228221   2.327   1.217   0.434
 9108SOL     OW28222   5.514   5.388   5.862
 9108SOL    HW128223   5.597   5.417   5.814
 9108SOL    HW228224   5.538   5.319   5.931
 9109SOL     OW28225   5.133   2.856   2.626
 9109SOL    HW128226   5.087   2.768   2.636
 9109SOL    HW228227   5.109   2.896   2.537
 9110SOL     OW28228   1.430   5.439   4.559
 9110SOL    HW128229   1.392   5.366   4.615
 9110SOL    HW228230   1.480   5.398   4.482
 9111SOL     OW28231   4.352   2.971   5.484
 9111SOL    HW128232   4.430   2.998   5.541
 9111SOL    HW228233   4.273   2.952   5.542
 9112SOL     OW28234   1.759   5.507   2.107
 9112SOL    HW128235   1.695   5.572   2.147
 9112SOL    HW228236   1.798   5.449   2.179
 9113SOL     OW28237   4.792   1.998   3.447
 9113SOL    HW128238   4.823   1.908   3.475
 9113SOL    HW228239   4.860   2.067   3.474
 9114SOL     OW28240   1.352   6.168   4.588
 9114SOL    HW128241   1.282   6.099   4.569
 9114SOL    HW228242   1.442   6.126   4.587
 9115SOL     OW28243   5.492   4.612   4.014
 9115SOL    HW128244   5.399   4.602   4.047
 9115SOL    HW228245   5.494   4.674   3.935
 9116SOL     OW28246   0.822   6.699   3.453
 9116SOL    HW128247   0.836   6.753   3.369
 9116SOL    HW228248   0.766   6.752   3.517
 9117SOL     OW28249   3.826   0.709   6.888
 9117SOL    HW128250   3.756   0.640   6.871
 9117SOL    HW228251   3.897   0.672   6.947
 9118SOL     OW28252   6.030   3.880   0.975
 9118SOL    HW128253   6.080   3.957   1.015
 9118SOL    HW228254   5.943   3.913   0.938
 9119SOL     OW28255   3.569   0.307   0.686
 9119SOL    HW128256   3.491   0.353   0.729
 9119SOL    HW228257   3.589   0.222   0.736
 9120SOL     OW28258   5.590   2.879   5.448
 9120SOL    HW128259   5.538   2.910   5.368
 9120SOL    HW228260   5.543   2.801   5.490
 9121SOL     OW28261   3.245   0.069   5.093
 9121SOL    HW128262   3.248   0.168   5.078
 9121SOL    HW228263   3.241   0.050   5.191
 9122SOL     OW28264   2.308   4.298   2.357
 9122SOL    HW128265   2.377   4.352   2.308
 9122SOL    HW228266   2.335   4.289   2.453
 9123SOL     OW28267   0.963   0.879   3.967
 9123SOL    HW128268   0.964   0.831   4.055
 9123SOL    HW228269   0.993   0.973   3.980
 9124SOL     OW28270   2.643   5.777   1.364
 9124SOL    HW128271   2.704   5.819   1.430
 9124SOL    HW228272   2.696   5.740   1.288
 9125SOL     OW28273   4.838   6.536   0.905
 9125SOL    HW128274   4.882   6.521   0.993
 9125SOL    HW228275   4.856   6.630   0.875
 9126SOL     OW28276   3.974   4.248   0.156
 9126SOL    HW128277   3.905   4.231   0.227
 9126SOL    HW228278   4.065   4.235   0.195
 9127SOL     OW28279   6.966   4.008   5.732
 9127SOL    HW128280   0.039   3.997   5.759
 9127SOL    HW228281   6.960   4.077   5.659
 9128SOL     OW28282   5.895   3.479   5.671
 9128SOL    HW128283   5.858   3.554   5.616
 9128SOL    HW228284   5.835   3.400   5.662
 9129SOL     OW28285   1.592   1.873   0.528
 9129SOL    HW128286   1.640   1.958   0.507
 9129SOL    HW228287   1.633   1.829   0.608
 9130SOL     OW28288   2.739   3.774   5.259
 9130SOL    HW128289   2.650   3.819   5.259
 9130SOL    HW228290   2.736   3.694   5.200
 9131SOL     OW28291   5.848   2.847   0.975
 9131SOL    HW128292   5.816   2.809   1.061
 9131SOL    HW228293   5.794   2.809   0.899
 9132SOL     OW28294   0.310   4.567   3.786
 9132SOL    HW128295   0.370   4.639   3.823
 9132SOL    HW228296   0.354   4.478   3.798
 9133SOL     OW28297   4.827   1.016   0.683
 9133SOL    HW128298   4.755   0.947   0.686
 9133SOL    HW228299   4.865   1.029   0.775
 9134SOL     OW28300   4.315   5.335   0.851
 9134SOL    HW128301   4.380   5.393   0.901
 9134SOL    HW228302   4.230   5.328   0.903
 9135SOL     OW28303   0.305   6.766   2.839
 9135SOL    HW128304   0.220   6.790   2.793
 9135SOL    HW228305   0.306   6.808   2.930
 9136SOL     OW28306   6.240   4.735   6.733
 9136SOL    HW128307   6.281   4.681   6.806
 9136SOL    HW228308   6.305   4.742   6.657
 9137SOL     OW28309   5.001   6.504   6.333
 9137SOL    HW128310   4.917   6.550   6.305
 9137SOL    HW228311   4.987   6.405   6.334
 9138SOL     OW28312   3.360   3.765   1.024
 9138SOL    HW128313   3.423   3.777   0.947
 9138SOL    HW228314   3.334   3.669   1.032
 9139SOL     OW28315   6.791   0.224   1.328
 9139SOL    HW128316   6.731   0.171   1.268
 9139SOL    HW228317   6.881   0.181   1.333
 9140SOL     OW28318   1.222   4.489   2.906
 9140SOL    HW128319   1.160   4.466   2.980
 9140SOL    HW228320   1.172   4.538   2.835
 9141SOL     OW28321   6.833   6.005   5.293
 9141SOL    HW128322   6.824   5.905   5.295
 9141SOL    HW228323   6.748   6.047   5.324
 9142SOL     OW28324   1.234   4.097   3.488
 9142SOL    HW128325   1.278   4.045   3.415
 9142SOL    HW228326   1.147   4.054   3.511
 9143SOL     OW28327   6.691   3.743   2.530
 9143SOL    HW128328   6.732   3.692   2.455
 9143SOL    HW228329   6.697   3.688   2.614
 9144SOL     OW28330   2.562   4.377   5.440
 9144SOL    HW128331   2.555   4.281   5.412
 9144SOL    HW228332   2.640   4.419   5.393
 9145SOL     OW28333   1.310   6.532   5.968
 9145SOL    HW128334   1.330   6.486   6.054
 9145SOL    HW228335   1.241   6.480   5.917
 9146SOL     OW28336   6.339   2.812   3.083
 9146SOL    HW128337   6.240   2.818   3.067
 9146SOL    HW228338   6.386   2.885   3.033
 9147SOL     OW28339   4.169   0.258   4.193
 9147SOL    HW128340   4.171   0.296   4.286
 9147SOL    HW228341   4.075   0.241   4.165
 9148SOL     OW28342   5.961   6.429   1.707
 9148SOL    HW128343   6.043   6.482   1.726
 9148SOL    HW228344   5.986   6.336   1.681
 9149SOL     OW28345   0.303   3.717   1.858
 9149SOL    HW128346   0.298   3.804   1.809
 9149SOL    HW228347   0.397   3.681   1.852
 9150SOL     OW28348   2.906   2.581   1.065
 9150SOL    HW128349   2.855   2.509   1.113
 9150SOL    HW228350   2.978   2.616   1.124
 9151SOL     OW28351   1.929   3.209   3.801
 9151SOL    HW128352   2.016   3.169   3.830
 9151SOL    HW228353   1.930   3.220   3.701
 9152SOL     OW28354   2.385   4.857   3.259
 9152SOL    HW128355   2.445   4.778   3.264
 9152SOL    HW228356   2.291   4.829   3.278
 9153SOL     OW28357   6.636   3.814   0.636
 9153SOL    HW128358   6.570   3.888   0.630
 9153SOL    HW228359   6.601   3.733   0.590
 9154SOL     OW28360   5.827   4.903   2.499
 9154SOL    HW128361   5.900   4.865   2.556
 9154SOL    HW228362   5.741   4.900   2.549
 9155SOL     OW28363   1.114   6.393   2.463
 9155SOL    HW128364   1.187   6.461   2.456
 9155SOL    HW228365   1.050   6.420   2.535
 9156SOL     OW28366   6.950   4.200   7.014
 9156SOL    HW128367   6.923   4.257   0.068
 9156SOL    HW228368   6.878   4.132   6.995
 9157SOL     OW28369   2.086   5.467   6.018
 9157SOL    HW128370   2.123   5.518   6.095
 9157SOL    HW228371   2.055   5.377   6.049
 9158SOL     OW28372   6.619   3.454   4.880
 9158SOL    HW128373   6.560   3.434   4.958
 9158SOL    HW228374   6.563   3.475   4.799
 9159SOL     OW28375   3.733   1.234   4.002
 9159SOL    HW128376   3.684   1.317   3.974
 9159SOL    HW228377   3.730   1.225   4.101
 9160SOL     OW28378   6.759   4.334   0.949
 9160SOL    HW128379   6.784   4.253   1.002
 9160SOL    HW228380   6.757   4.414   1.009
 9161SOL     OW28381   6.916   4.177   1.459
 9161SOL    HW128382   6.953   4.262   1.496
 9161SOL    HW228383   6.898   4.113   1.534
 9162SOL     OW28384   4.220   1.961   1.758
 9162SOL    HW128385   4.298   2.019   1.783
 9162SOL    HW228386   4.208   1.890   1.827
 9163SOL     OW28387   1.729   2.419   3.351
 9163SOL    HW128388   1.737   2.466   3.439
 9163SOL    HW228389   1.661   2.345   3.359
 9164SOL     OW28390   2.850   0.252   0.374
 9164SOL    HW128391   2.913   0.279   0.301
 9164SOL    HW228392   2.885   0.171   0.420
 9165SOL     OW28393   5.093   1.376   6.174
 9165SOL    HW128394   5.044   1.355   6.259
 9165SOL    HW228395   5.100   1.475   6.164
 9166SOL     OW28396   5.312   5.749   1.751
 9166SOL    HW128397   5.287   5.845   1.767
 9166SOL    HW228398   5.403   5.731   1.789
 9167SOL     OW28399   1.737   1.434   4.533
 9167SOL    HW128400   1.770   1.472   4.620
 9167SOL    HW228401   1.815   1.417   4.473
 9168SOL     OW28402   6.348   5.848   4.214
 9168SOL    HW128403   6.414   5.817   4.283
 9168SOL    HW228404   6.395   5.860   4.126
 9169SOL     OW28405   6.512   5.741   0.646
 9169SOL    HW128406   6.549   5.731   0.738
 9169SOL    HW228407   6.582   5.715   0.579
 9170SOL     OW28408   1.607   1.236   6.173
 9170SOL    HW128409   1.545   1.206   6.246
 9170SOL    HW228410   1.566   1.214   6.084
 9171SOL     OW28411   3.433   4.748   0.159
 9171SOL    HW128412   3.428   4.706   0.069
 9171SOL    HW228413   3.524   4.735   0.198
 9172SOL     OW28414   4.503   1.448   4.065
 9172SOL    HW128415   4.456   1.536   4.076
 9172SOL    HW228416   4.505   1.423   3.968
 9173SOL     OW28417   5.577   3.110   4.972
 9173SOL    HW128418   5.520   3.130   4.893
 9173SOL    HW228419   5.565   3.015   5.000
 9174SOL     OW28420   0.451   4.582   0.295
 9174SOL    HW128421   0.471   4.622   0.385
 9174SOL    HW228422   0.352   4.583   0.278
 9175SOL     OW28423   2.254   7.011   6.590
 9175SOL    HW128424   2.348   6.976   6.582
 9175SOL    HW228425   2.231   0.040   6.508
 9176SOL     OW28426   1.729   1.557   2.444
 9176SOL    HW128427   1.711   1.624   2.372
 9176SOL    HW228428   1.716   1.600   2.534
 9177SOL     OW28429   0.527   4.290   3.867
 9177SOL    HW128430   0.552   4.372   3.920
 9177SOL    HW228431   0.508   4.215   3.930
 9178SOL     OW28432   2.147   5.931   0.487
 9178SOL    HW128433   2.098   5.960   0.568
 9178SOL    HW228434   2.160   5.831   0.489
 9179SOL     OW28435   3.555   5.447   4.751
 9179SOL    HW128436   3.562   5.358   4.796
 9179SOL    HW228437   3.474   5.495   4.784
 9180SOL     OW28438   6.953   0.803   5.038
 9180SOL    HW128439   6.995   0.717   5.067
 9180SOL    HW228440   7.017   0.852   4.978
 9181SOL     OW28441   3.136   1.869   3.704
 9181SOL    HW128442   3.144   1.883   3.802
 9181SOL    HW228443   3.223   1.833   3.669
 9182SOL     OW28444   1.227   1.105   2.889
 9182SOL    HW128445   1.311   1.085   2.839
 9182SOL    HW228446   1.244   1.179   2.955
 9183SOL     OW28447   0.461   2.061   6.038
 9183SOL    HW128448   0.459   2.012   6.125
 9183SOL    HW228449   0.457   2.160   6.056
 9184SOL     OW28450   3.578   3.139   0.627
 9184SOL    HW128451   3.629   3.084   0.562
 9184SOL    HW228452   3.544   3.081   0.701
 9185SOL     OW28453   1.084   0.816   0.040
 9185SOL    HW128454   1.058   0.769   6.978
 9185SOL    HW228455   1.156   0.764   0.086
 9186SOL     OW28456   5.949   0.890   6.136
 9186SOL    HW128457   5.852   0.878   6.158
 9186SOL    HW228458   5.998   0.918   6.218
 9187SOL     OW28459   5.492   2.178   0.768
 9187SOL    HW128460   5.470   2.264   0.722
 9187SOL    HW228461   5.460   2.101   0.713
 9188SOL     OW28462   1.626   0.339   1.688
 9188SOL    HW128463   1.627   0.261   1.751
 9188SOL    HW228464   1.635   0.424   1.741
 9189SOL     OW28465   4.065   1.348   4.499
 9189SOL    HW128466   4.019   1.276   4.552
 9189SOL    HW228467   4.089   1.312   4.409
 9190SOL     OW28468   6.381   2.425   5.628
 9190SOL    HW128469   6.447   2.463   5.692
 9190SOL    HW228470   6.322   2.360   5.676
 9191SOL     OW28471   5.487   6.553   0.596
 9191SOL    HW128472   5.399   6.552   0.550
 9191SOL    HW228473   5.557   6.589   0.535
 9192SOL     OW28474   5.643   4.783   4.617
 9192SOL    HW128475   5.562   4.822   4.574
 9192SOL    HW228476   5.688   4.852   4.673
 9193SOL     OW28477   3.595   3.159   3.897
 9193SOL    HW128478   3.653   3.086   3.861
 9193SOL    HW228479   3.524   3.180   3.831
 9194SOL     OW28480   3.151   5.680   2.351
 9194SOL    HW128481   3.118   5.591   2.320
 9194SOL    HW228482   3.202   5.668   2.437
 9195SOL     OW28483   6.911   3.544   2.996
 9195SOL    HW128484   6.963   3.459   3.003
 9195SOL    HW228485   6.827   3.537   3.051
 9196SOL     OW28486   4.487   0.054   3.603
 9196SOL    HW128487   4.479   0.143   3.647
 9196SOL    HW228488   4.488   0.065   3.503
 9197SOL     OW28489   3.307   3.508   6.315
 9197SOL    HW128490   3.239   3.523   6.243
 9197SOL    HW228491   3.348   3.596   6.340
 9198SOL     OW28492   5.132   2.694   5.035
 9198SOL    HW128493   5.170   2.763   5.095
 9198SOL    HW228494   5.063   2.735   4.975
 9199SOL     OW28495   1.240   3.313   6.486
 9199SOL    HW128496   1.293   3.344   6.407
 9199SOL    HW228497   1.302   3.291   6.561
 9200SOL     OW28498   6.098   0.003   0.294
 9200SOL    HW128499   6.164   0.076   0.280
 9200SOL    HW228500   6.005   0.038   0.283
 9201SOL     OW28501   1.625   4.177   3.459
 9201SOL    HW128502   1.563   4.144   3.530
 9201SOL    HW228503   1.711   4.125   3.464
 9202SOL     OW28504   3.248   5.322   4.333
 9202SOL    HW128505   3.296   5.263   4.268
 9202SOL    HW228506   3.303   5.404   4.350
 9203SOL     OW28507   5.128   0.727   6.307
 9203SOL    HW128508   5.203   0.668   6.336
 9203SOL    HW228509   5.042   0.675   6.311
 9204SOL     OW28510   4.703   4.437   1.838
 9204SOL    HW128511   4.699   4.524   1.885
 9204SOL    HW228512   4.617   4.387   1.852
 9205SOL     OW28513   4.895   3.280   2.759
 9205SOL    HW128514   4.984   3.239   2.777
 9205SOL    HW228515   4.857   3.241   2.674
 9206SOL     OW28516   0.437   6.887   3.453
 9206SOL    HW128517   0.488   6.828   3.390
 9206SOL    HW228518   0.385   6.830   3.516
 9207SOL     OW28519   4.421   6.890   0.118
 9207SOL    HW128520   4.324   6.867   0.124
 9207SOL    HW228521   4.455   6.913   0.210
 9208SOL     OW28522   4.686   4.749   2.476
 9208SOL    HW128523   4.640   4.734   2.563
 9208SOL    HW228524   4.630   4.809   2.418
 9209SOL     OW28525   3.702   1.013   2.741
 9209SOL    HW128526   3.749   1.101   2.753
 9209SOL    HW228527   3.611   1.019   2.783
 9210SOL     OW28528   1.386   0.267   0.907
 9210SOL    HW128529   1.353   0.348   0.859
 9210SOL    HW228530   1.326   0.189   0.886
 9211SOL     OW28531   4.771   1.539   6.295
 9211SOL    HW128532   4.770   1.494   6.206
 9211SOL    HW228533   4.845   1.606   6.298
 9212SOL     OW28534   5.778   3.882   4.714
 9212SOL    HW128535   5.790   3.965   4.769
 9212SOL    HW228536   5.855   3.872   4.651
 9213SOL     OW28537   6.512   6.855   2.496
 9213SOL    HW128538   6.444   6.914   2.539
 9213SOL    HW228539   6.577   6.823   2.564
 9214SOL     OW28540   1.669   2.473   5.457
 9214SOL    HW128541   1.632   2.422   5.380
 9214SOL    HW228542   1.769   2.466   5.457
 9215SOL     OW28543   0.603   3.225   2.918
 9215SOL    HW128544   0.540   3.259   2.848
 9215SOL    HW228545   0.563   3.240   3.009
 9216SOL     OW28546   2.763   5.743   5.073
 9216SOL    HW128547   2.816   5.729   4.989
 9216SOL    HW228548   2.814   5.804   5.134
 9217SOL     OW28549   4.411   1.279   6.329
 9217SOL    HW128550   4.327   1.292   6.277
 9217SOL    HW228551   4.407   1.193   6.379
 9218SOL     OW28552   5.993   5.559   6.916
 9218SOL    HW128553   5.955   5.629   6.977
 9218SOL    HW228554   6.088   5.542   6.942
 9219SOL     OW28555   3.510   2.991   5.616
 9219SOL    HW128556   3.541   2.965   5.525
 9219SOL    HW228557   3.575   2.957   5.684
 9220SOL     OW28558   0.736   6.480   3.631
 9220SOL    HW128559   0.701   6.525   3.548
 9220SOL    HW228560   0.787   6.546   3.685
 9221SOL     OW28561   2.480   1.161   0.979
 9221SOL    HW128562   2.480   1.258   0.999
 9221SOL    HW228563   2.464   1.147   0.881
 9222SOL     OW28564   1.628   3.384   3.930
 9222SOL    HW128565   1.566   3.462   3.940
 9222SOL    HW228566   1.656   3.374   3.835
 9223SOL     OW28567   0.581   3.374   4.998
 9223SOL    HW128568   0.569   3.278   4.971
 9223SOL    HW228569   0.490   3.416   5.010
 9224SOL     OW28570   2.086   4.508   3.915
 9224SOL    HW128571   2.173   4.458   3.912
 9224SOL    HW228572   2.068   4.549   3.826
 9225SOL     OW28573   5.208   6.177   6.793
 9225SOL    HW128574   5.269   6.229   6.733
 9225SOL    HW228575   5.113   6.203   6.775
 9226SOL     OW28576   1.160   0.816   1.023
 9226SOL    HW128577   1.118   0.736   0.981
 9226SOL    HW228578   1.227   0.856   0.961
 9227SOL     OW28579   2.379   4.806   0.842
 9227SOL    HW128580   2.352   4.726   0.788
 9227SOL    HW228581   2.299   4.861   0.862
 9228SOL     OW28582   3.348   3.204   5.725
 9228SOL    HW128583   3.416   3.152   5.673
 9228SOL    HW228584   3.274   3.233   5.664
 9229SOL     OW28585   0.376   4.876   0.169
 9229SOL    HW128586   0.328   4.853   0.253
 9229SOL    HW228587   0.342   4.819   0.094
 9230SOL     OW28588   4.416   1.723   5.052
 9230SOL    HW128589   4.359   1.665   4.993
 9230SOL    HW228590   4.511   1.697   5.041
 9231SOL     OW28591   6.938   5.552   3.657
 9231SOL    HW128592   6.869   5.623   3.677
 9231SOL    HW228593   6.935   5.529   3.560
 9232SOL     OW28594   1.271   5.328   2.023
 9232SOL    HW128595   1.366   5.315   1.994
 9232SOL    HW228596   1.254   5.425   2.039
 9233SOL     OW28597   0.503   6.616   0.209
 9233SOL    HW128598   0.541   6.637   0.118
 9233SOL    HW228599   0.573   6.633   0.278
 9234SOL     OW28600   2.295   4.282   0.652
 9234SOL    HW128601   2.256   4.258   0.563
 9234SOL    HW228602   2.253   4.225   0.723
 9235SOL     OW28603   2.132   2.059   3.711
 9235SOL    HW128604   2.214   2.014   3.747
 9235SOL    HW228605   2.148   2.158   3.705
 9236SOL     OW28606   2.408   3.381   6.642
 9236SOL    HW128607   2.420   3.319   6.719
 9236SOL    HW228608   2.341   3.452   6.667
 9237SOL     OW28609   5.555   4.704   3.131
 9237SOL    HW128610   5.640   4.699   3.184
 9237SOL    HW228611   5.495   4.774   3.171
 9238SOL     OW28612   1.808   2.708   5.167
 9238SOL    HW128613   1.803   2.628   5.107
 9238SOL    HW228614   1.886   2.699   5.229
 9239SOL     OW28615   1.162   5.024   6.932
 9239SOL    HW128616   1.194   5.035   0.004
 9239SOL    HW228617   1.240   5.034   6.870
 9240SOL     OW28618   4.257   2.238   2.875
 9240SOL    HW128619   4.278   2.199   2.965
 9240SOL    HW228620   4.162   2.218   2.851
 9241SOL     OW28621   6.074   6.498   1.231
 9241SOL    HW128622   6.091   6.409   1.274
 9241SOL    HW228623   6.043   6.563   1.301
 9242SOL     OW28624   1.360   2.652   0.411
 9242SOL    HW128625   1.263   2.666   0.430
 9242SOL    HW228626   1.390   2.718   0.341
 9243SOL     OW28627   0.834   0.954   7.004
 9243SOL    HW128628   0.888   0.870   7.005
 9243SOL    HW228629   0.747   0.939   0.030
 9244SOL     OW28630   3.236   6.660   5.500
 9244SOL    HW128631   3.162   6.614   5.549
 9244SOL    HW228632   3.283   6.594   5.442
 9245SOL     OW28633   1.328   4.435   3.331
 9245SOL    HW128634   1.416   4.440   3.377
 9245SOL    HW228635   1.256   4.463   3.394
 9246SOL     OW28636   6.649   0.283   5.991
 9246SOL    HW128637   6.572   0.231   6.028
 9246SOL    HW228638   6.676   0.353   6.057
 9247SOL     OW28639   3.521   6.436   2.993
 9247SOL    HW128640   3.432   6.479   2.998
 9247SOL    HW228641   3.553   6.436   2.898
 9248SOL     OW28642   2.463   1.328   6.238
 9248SOL    HW128643   2.466   1.393   6.162
 9248SOL    HW228644   2.372   1.285   6.242
 9249SOL     OW28645   3.566   5.664   0.922
 9249SOL    HW128646   3.658   5.690   0.949
 9249SOL    HW228647   3.515   5.745   0.894
 9250SOL     OW28648   0.499   2.899   4.207
 9250SOL    HW128649   0.596   2.918   4.221
 9250SOL    HW228650   0.458   2.868   4.294
 9251SOL     OW28651   3.073   2.922   1.226
 9251SOL    HW128652   3.129   2.876   1.295
 9251SOL    HW228653   3.060   3.018   1.253
 9252SOL     OW28654   4.616   1.914   5.800
 9252SOL    HW128655   4.605   2.003   5.757
 9252SOL    HW228656   4.675   1.922   5.881
 9253SOL     OW28657   1.277   5.360   5.329
 9253SOL    HW128658   1.259   5.333   5.423
 9253SOL    HW228659   1.191   5.366   5.279
 9254SOL     OW28660   0.151   4.980   2.945
 9254SOL    HW128661   0.175   4.964   3.041
 9254SOL    HW228662   0.116   5.073   2.934
 9255SOL     OW28663   6.645   4.347   0.694
 9255SOL    HW128664   6.699   4.364   0.776
 9255SOL    HW228665   6.568   4.411   0.692
 9256SOL     OW28666   1.826   6.270   1.823
 9256SOL    HW128667   1.803   6.262   1.920
 9256SOL    HW228668   1.924   6.284   1.813
 9257SOL     OW28669   6.492   6.033   3.705
 9257SOL    HW128670   6.485   5.937   3.678
 9257SOL    HW228671   6.401   6.075   3.703
 9258SOL     OW28672   3.642   5.193   1.253
 9258SOL    HW128673   3.670   5.289   1.247
 9258SOL    HW228674   3.720   5.134   1.229
 9259SOL     OW28675   1.969   1.331   6.858
 9259SOL    HW128676   2.053   1.380   6.834
 9259SOL    HW228677   1.977   1.293   6.950
 9260SOL     OW28678   6.093   4.092   5.104
 9260SOL    HW128679   6.122   3.998   5.123
 9260SOL    HW228680   6.046   4.095   5.016
 9261SOL     OW28681   3.773   2.502   1.669
 9261SOL    HW128682   3.869   2.519   1.644
 9261SOL    HW228683   3.769   2.436   1.744
 9262SOL     OW28684   6.081   6.081   4.536
 9262SOL    HW128685   6.158   6.140   4.561
 9262SOL    HW228686   6.067   6.014   4.608
 9263SOL     OW28687   1.924   4.017   4.159
 9263SOL    HW128688   2.009   3.963   4.160
 9263SOL    HW228689   1.872   3.994   4.077
 9264SOL     OW28690   4.234   4.094   6.864
 9264SOL    HW128691   4.274   4.082   6.955
 9264SOL    HW228692   4.252   4.187   6.832
 9265SOL     OW28693   5.970   2.012   0.076
 9265SOL    HW128694   6.046   2.046   0.021
 9265SOL    HW228695   5.913   1.951   0.021
 9266SOL     OW28696   1.133   4.596   1.291
 9266SOL    HW128697   1.075   4.633   1.219
 9266SOL    HW228698   1.181   4.671   1.338
 9267SOL     OW28699   6.320   1.041   4.828
 9267SOL    HW128700   6.286   0.985   4.902
 9267SOL    HW228701   6.374   0.984   4.765
 9268SOL     OW28702   0.660   0.223   2.055
 9268SOL    HW128703   0.634   0.144   2.112
 9268SOL    HW228704   0.750   0.257   2.084
 9269SOL     OW28705   4.072   1.045   0.413
 9269SOL    HW128706   4.107   1.113   0.348
 9269SOL    HW228707   4.054   1.090   0.501
 9270SOL     OW28708   1.783   0.397   6.093
 9270SOL    HW128709   1.685   0.379   6.104
 9270SOL    HW228710   1.806   0.484   6.138
 9271SOL     OW28711   1.414   6.693   4.790
 9271SOL    HW128712   1.353   6.619   4.763
 9271SOL    HW228713   1.362   6.764   4.838
 9272SOL     OW28714   6.396   6.812   6.054
 9272SOL    HW128715   6.494   6.817   6.036
 9272SOL    HW228716   6.358   6.729   6.012
 9273SOL     OW28717   4.875   5.283   4.407
 9273SOL    HW128718   4.949   5.235   4.359
 9273SOL    HW228719   4.887   5.381   4.395
 9274SOL     OW28720   0.763   2.466   0.357
 9274SOL    HW128721   0.813   2.548   0.331
 9274SOL    HW228722   0.738   2.472   0.454
 9275SOL     OW28723   0.211   0.526   0.042
 9275SOL    HW128724   0.268   0.608   0.035
 9275SOL    HW228725   0.228   0.466   6.986
 9276SOL     OW28726   2.548   5.436   0.202
 9276SOL    HW128727   2.543   5.529   0.166
 9276SOL    HW228728   2.613   5.382   0.148
 9277SOL     OW28729   4.942   5.750   1.878
 9277SOL    HW128730   4.948   5.783   1.784
 9277SOL    HW228731   5.006   5.675   1.892
 9278SOL     OW28732   1.080   0.731   5.105
 9278SOL    HW128733   1.082   0.831   5.109
 9278SOL    HW228734   1.049   0.702   5.014
 9279SOL     OW28735   4.545   5.961   1.872
 9279SOL    HW128736   4.481   5.894   1.833
 9279SOL    HW228737   4.516   5.983   1.965
 9280SOL     OW28738   1.678   0.092   2.714
 9280SOL    HW128739   1.645   0.060   2.803
 9280SOL    HW228740   1.614   0.063   2.642
 9281SOL     OW28741   2.476   5.203   6.840
 9281SOL    HW128742   2.547   5.247   6.786
 9281SOL    HW228743   2.425   5.272   6.891
 9282SOL     OW28744   2.620   6.782   5.072
 9282SOL    HW128745   2.639   6.831   5.157
 9282SOL    HW228746   2.565   6.839   5.012
 9283SOL     OW28747   4.310   6.033   0.245
 9283SOL    HW128748   4.318   5.933   0.241
 9283SOL    HW228749   4.277   6.060   0.336
 9284SOL     OW28750   3.419   3.943   4.996
 9284SOL    HW128751   3.501   3.892   4.971
 9284SOL    HW228752   3.343   3.880   5.012
 9285SOL     OW28753   0.591   4.873   2.609
 9285SOL    HW128754   0.680   4.918   2.603
 9285SOL    HW228755   0.539   4.889   2.525
 9286SOL     OW28756   4.338   6.331   1.344
 9286SOL    HW128757   4.315   6.297   1.436
 9286SOL    HW228758   4.254   6.351   1.294
 9287SOL     OW28759   3.536   4.454   6.139
 9287SOL    HW128760   3.580   4.541   6.159
 9287SOL    HW228761   3.589   4.404   6.071
 9288SOL     OW28762   3.827   2.127   2.653
 9288SOL    HW128763   3.832   2.127   2.553
 9288SOL    HW228764   3.731   2.137   2.681
 9289SOL     OW28765   4.895   6.369   0.551
 9289SOL    HW128766   4.914   6.435   0.479
 9289SOL    HW228767   4.797   6.351   0.556
 9290SOL     OW28768   4.558   1.104   4.055
 9290SOL    HW128769   4.465   1.121   4.020
 9290SOL    HW228770   4.569   1.151   4.142
 9291SOL     OW28771   0.872   4.953   6.240
 9291SOL    HW128772   0.810   5.015   6.288
 9291SOL    HW228773   0.819   4.888   6.185
 9292SOL     OW28774   1.432   1.366   6.587
 9292SOL    HW128775   1.409   1.356   6.490
 9292SOL    HW228776   1.505   1.434   6.598
 9293SOL     OW28777   4.967   2.735   4.827
 9293SOL    HW128778   5.015   2.786   4.755
 9293SOL    HW228779   4.894   2.792   4.865
 9294SOL     OW28780   4.502   1.146   0.109
 9294SOL    HW128781   4.575   1.110   0.050
 9294SOL    HW228782   4.433   1.075   0.123
 9295SOL     OW28783   0.721   1.240   5.112
 9295SOL    HW128784   0.659   1.166   5.137
 9295SOL    HW228785   0.706   1.318   5.173
 9296SOL     OW28786   1.626   4.910   0.123
 9296SOL    HW128787   1.596   4.835   0.064
 9296SOL    HW228788   1.552   4.935   0.186
 9297SOL     OW28789   5.907   5.534   2.326
 9297SOL    HW128790   5.889   5.461   2.260
 9297SOL    HW228791   5.863   5.619   2.295
 9298SOL     OW28792   1.652   5.278   6.248
 9298SOL    HW128793   1.635   5.346   6.319
 9298SOL    HW228794   1.679   5.325   6.164
 9299SOL     OW28795   1.956   2.738   4.687
 9299SOL    HW128796   1.908   2.763   4.603
 9299SOL    HW228797   2.042   2.692   4.664
 9300SOL     OW28798   1.498   4.916   5.381
 9300SOL    HW128799   1.589   4.901   5.419
 9300SOL    HW228800   1.435   4.942   5.454
 9301SOL     OW28801   0.398   4.312   5.112
 9301SOL    HW128802   0.411   4.218   5.145
 9301SOL    HW228803   0.339   4.361   5.176
 9302SOL     OW28804   2.288   3.429   5.242
 9302SOL    HW128805   2.243   3.382   5.166
 9302SOL    HW228806   2.307   3.524   5.216
 9303SOL     OW28807   2.221   4.563   0.866
 9303SOL    HW128808   2.214   4.603   0.957
 9303SOL    HW228809   2.313   4.528   0.852
 9304SOL     OW28810   4.024   5.322   0.221
 9304SOL    HW128811   3.947   5.260   0.234
 9304SOL    HW228812   4.009   5.378   0.139
 9305SOL     OW28813   2.090   1.826   1.173
 9305SOL    HW128814   2.111   1.908   1.226
 9305SOL    HW228815   2.174   1.786   1.137
 9306SOL     OW28816   6.452   5.435   4.758
 9306SOL    HW128817   6.457   5.522   4.807
 9306SOL    HW228818   6.495   5.445   4.668
 9307SOL     OW28819   2.717   2.940   1.728
 9307SOL    HW128820   2.632   2.898   1.758
 9307SOL    HW228821   2.732   3.025   1.779
 9308SOL     OW28822   2.119   3.877   2.228
 9308SOL    HW128823   2.193   3.923   2.278
 9308SOL    HW228824   2.156   3.796   2.182
 9309SOL     OW28825   4.926   5.498   6.332
 9309SOL    HW128826   4.951   5.550   6.414
 9309SOL    HW228827   4.936   5.557   6.252
 9310SOL     OW28828   5.832   5.834   0.475
 9310SOL    HW128829   5.880   5.748   0.494
 9310SOL    HW228830   5.755   5.817   0.414
 9311SOL     OW28831   4.659   3.827   1.663
 9311SOL    HW128832   4.564   3.802   1.641
 9311SOL    HW228833   4.664   3.925   1.681
 9312SOL     OW28834   0.400   2.878   2.166
 9312SOL    HW128835   0.329   2.908   2.230
 9312SOL    HW228836   0.384   2.782   2.142
 9313SOL     OW28837   0.108   0.177   1.996
 9313SOL    HW128838   0.062   0.245   1.939
 9313SOL    HW228839   0.173   0.223   2.057
 9314SOL     OW28840   4.984   3.652   0.700
 9314SOL    HW128841   4.930   3.574   0.734
 9314SOL    HW228842   4.929   3.736   0.708
 9315SOL     OW28843   5.408   0.429   6.053
 9315SOL    HW128844   5.431   0.495   5.981
 9315SOL    HW228845   5.320   0.453   6.093
 9316SOL     OW28846   4.452   0.617   5.557
 9316SOL    HW128847   4.439   0.686   5.486
 9316SOL    HW228848   4.364   0.590   5.594
 9317SOL     OW28849   3.530   6.546   3.337
 9317SOL    HW128850   3.532   6.531   3.435
 9317SOL    HW228851   3.484   6.469   3.292
 9318SOL     OW28852   4.482   6.576   1.447
 9318SOL    HW128853   4.453   6.515   1.373
 9318SOL    HW228854   4.504   6.522   1.528
 9319SOL     OW28855   2.373   3.517   0.239
 9319SOL    HW128856   2.407   3.609   0.261
 9319SOL    HW228857   2.315   3.522   0.158
 9320SOL     OW28858   6.952   6.439   6.822
 9320SOL    HW128859   6.968   6.444   6.921
 9320SOL    HW228860   6.883   6.369   6.803
 9321SOL     OW28861   0.696   3.586   4.765
 9321SOL    HW128862   0.614   3.536   4.794
 9321SOL    HW228863   0.770   3.521   4.746
 9322SOL     OW28864   5.748   3.258   6.430
 9322SOL    HW128865   5.759   3.164   6.463
 9322SOL    HW228866   5.833   3.308   6.444
 9323SOL     OW28867   1.562   2.104   5.000
 9323SOL    HW128868   1.499   2.045   4.950
 9323SOL    HW228869   1.602   2.054   5.076
 9324SOL     OW28870   0.614   4.521   1.689
 9324SOL    HW128871   0.636   4.436   1.737
 9324SOL    HW228872   0.607   4.503   1.591
 9325SOL     OW28873   1.208   4.662   3.230
 9325SOL    HW128874   1.232   4.669   3.327
 9325SOL    HW228875   1.181   4.568   3.209
 9326SOL     OW28876   4.556   4.723   1.670
 9326SOL    HW128877   4.475   4.779   1.650
 9326SOL    HW228878   4.538   4.666   1.750
 9327SOL     OW28879   3.965   0.497   4.016
 9327SOL    HW128880   4.056   0.523   3.983
 9327SOL    HW228881   3.905   0.481   3.937
 9328SOL     OW28882   2.555   6.886   4.188
 9328SOL    HW128883   2.634   6.923   4.237
 9328SOL    HW228884   2.557   6.918   4.093
 9329SOL     OW28885   0.179   5.295   6.474
 9329SOL    HW128886   0.148   5.235   6.400
 9329SOL    HW228887   0.105   5.307   6.540
 9330SOL     OW28888   6.803   5.641   6.570
 9330SOL    HW128889   6.807   5.677   6.476
 9330SOL    HW228890   6.849   5.553   6.573
 9331SOL     OW28891   1.590   3.090   4.835
 9331SOL    HW128892   1.602   3.149   4.755
 9331SOL    HW228893   1.665   3.104   4.899
 9332SOL     OW28894   4.809   6.046   1.144
 9332SOL    HW128895   4.884   6.098   1.102
 9332SOL    HW228896   4.751   6.008   1.072
 9333SOL     OW28897   3.911   4.196   1.021
 9333SOL    HW128898   3.845   4.161   1.088
 9333SOL    HW228899   3.988   4.132   1.014
 9334SOL     OW28900   6.202   5.748   5.780
 9334SOL    HW128901   6.240   5.655   5.769
 9334SOL    HW228902   6.144   5.750   5.861
 9335SOL     OW28903   1.242   3.028   1.368
 9335SOL    HW128904   1.337   2.996   1.360
 9335SOL    HW228905   1.235   3.120   1.330
 9336SOL     OW28906   5.827   6.881   5.048
 9336SOL    HW128907   5.881   6.868   4.965
 9336SOL    HW228908   5.867   6.829   5.123
 9337SOL     OW28909   2.632   0.152   6.458
 9337SOL    HW128910   2.590   0.177   6.371
 9337SOL    HW228911   2.592   0.207   6.531
 9338SOL     OW28912   5.685   6.613   0.416
 9338SOL    HW128913   5.780   6.637   0.436
 9338SOL    HW228914   5.671   6.611   0.317
 9339SOL     OW28915   6.386   3.849   5.407
 9339SOL    HW128916   6.304   3.907   5.412
 9339SOL    HW228917   6.453   3.880   5.474
 9340SOL     OW28918   4.085   5.867   1.680
 9340SOL    HW128919   4.013   5.904   1.621
 9340SOL    HW228920   4.173   5.907   1.655
 9341SOL     OW28921   4.915   4.144   6.774
 9341SOL    HW128922   4.830   4.097   6.752
 9341SOL    HW228923   4.981   4.130   6.700
 9342SOL     OW28924   3.215   0.276   4.308
 9342SOL    HW128925   3.229   0.336   4.387
 9342SOL    HW228926   3.187   0.331   4.229
 9343SOL     OW28927   4.464   4.327   1.619
 9343SOL    HW128928   4.557   4.320   1.585
 9343SOL    HW228929   4.451   4.264   1.696
 9344SOL     OW28930   6.150   6.007   5.281
 9344SOL    HW128931   6.091   6.084   5.307
 9344SOL    HW228932   6.097   5.941   5.227
 9345SOL     OW28933   0.321   6.115   0.608
 9345SOL    HW128934   0.335   6.205   0.650
 9345SOL    HW228935   0.349   6.044   0.673
 9346SOL     OW28936   5.997   5.745   0.759
 9346SOL    HW128937   6.030   5.811   0.691
 9346SOL    HW228938   5.915   5.781   0.802
 9347SOL     OW28939   3.549   5.396   0.909
 9347SOL    HW128940   3.544   5.486   0.952
 9347SOL    HW228941   3.597   5.404   0.821
 9348SOL     OW28942   2.808   5.857   1.582
 9348SOL    HW128943   2.864   5.939   1.575
 9348SOL    HW228944   2.735   5.872   1.649
 9349SOL     OW28945   6.224   5.881   1.712
 9349SOL    HW128946   6.172   5.841   1.637
 9349SOL    HW228947   6.303   5.823   1.733
 9350SOL     OW28948   0.012   0.219   5.715
 9350SOL    HW128949   0.105   0.183   5.720
 9350SOL    HW228950   0.007   0.306   5.764
 9351SOL     OW28951   2.967   1.748   6.550
 9351SOL    HW128952   2.925   1.792   6.470
 9351SOL    HW228953   3.066   1.758   6.545
 9352SOL     OW28954   3.398   2.443   6.087
 9352SOL    HW128955   3.459   2.483   6.156
 9352SOL    HW228956   3.384   2.508   6.013
 9353SOL     OW28957   0.912   3.220   1.155
 9353SOL    HW128958   0.825   3.213   1.106
 9353SOL    HW228959   0.896   3.258   1.246
 9354SOL     OW28960   4.889   2.331   1.620
 9354SOL    HW128961   4.854   2.398   1.686
 9354SOL    HW228962   4.815   2.303   1.559
 9355SOL     OW28963   0.006   0.264   2.837
 9355SOL    HW128964   0.010   0.363   2.825
 9355SOL    HW228965   0.064   0.237   2.915
 9356SOL     OW28966   4.316   4.583   2.396
 9356SOL    HW128967   4.317   4.484   2.380
 9356SOL    HW228968   4.384   4.627   2.338
 9357SOL     OW28969   3.446   2.382   1.357
 9357SOL    HW128970   3.529   2.350   1.404
 9357SOL    HW228971   3.374   2.313   1.367
 9358SOL     OW28972   6.156   4.838   2.201
 9358SOL    HW128973   6.137   4.897   2.123
 9358SOL    HW228974   6.224   4.880   2.260
 9359SOL     OW28975   6.527   3.967   5.623
 9359SOL    HW128976   6.541   4.060   5.587
 9359SOL    HW228977   6.615   3.923   5.639
 9360SOL     OW28978   2.384   0.996   0.203
 9360SOL    HW128979   2.431   0.993   0.115
 9360SOL    HW228980   2.448   0.973   0.276
 9361SOL     OW28981   2.809   6.628   2.477
 9361SOL    HW128982   2.904   6.618   2.447
 9361SOL    HW228983   2.759   6.681   2.408
 9362SOL     OW28984   2.395   1.437   2.617
 9362SOL    HW128985   2.335   1.367   2.657
 9362SOL    HW228986   2.365   1.528   2.649
 9363SOL     OW28987   3.142   5.924   2.505
 9363SOL    HW128988   3.158   5.869   2.423
 9363SOL    HW228989   3.112   5.864   2.579
 9364SOL     OW28990   4.408   4.054   0.080
 9364SOL    HW128991   4.481   4.114   0.046
 9364SOL    HW228992   4.448   3.977   0.129
 9365SOL     OW28993   3.016   1.986   4.697
 9365SOL    HW128994   3.018   2.086   4.687
 9365SOL    HW228995   3.105   1.955   4.732
 9366SOL     OW28996   2.857   1.703   0.917
 9366SOL    HW128997   2.879   1.610   0.948
 9366SOL    HW228998   2.887   1.769   0.986
 9367SOL     OW28999   6.931   5.719   2.871
 9367SOL    HW129000   6.892   5.797   2.821
 9367SOL    HW229001   7.000   5.674   2.814
 9368SOL     OW29002   3.084   1.846   1.833
 9368SOL    HW129003   3.109   1.749   1.843
 9368SOL    HW229004   3.162   1.903   1.859
 9369SOL     OW29005   6.934   2.314   4.827
 9369SOL    HW129006   6.969   2.277   4.741
 9369SOL    HW229007   6.887   2.401   4.810
 9370SOL     OW29008   6.255   0.834   2.741
 9370SOL    HW129009   6.317   0.911   2.759
 9370SOL    HW229010   6.219   0.800   2.828
 9371SOL     OW29011   0.277   6.329   0.273
 9371SOL    HW129012   0.193   6.330   0.219
 9371SOL    HW229013   0.291   6.420   0.313
 9372SOL     OW29014   6.106   6.545   3.938
 9372SOL    HW129015   6.039   6.552   4.012
 9372SOL    HW229016   6.174   6.618   3.948
 9373SOL     OW29017   3.766   1.625   3.566
 9373SOL    HW129018   3.731   1.674   3.485
 9373SOL    HW229019   3.691   1.578   3.611
 9374SOL     OW29020   5.069   3.279   0.033
 9374SOL    HW129021   5.164   3.266   0.061
 9374SOL    HW229022   5.051   3.225   6.974
 9375SOL     OW29023   0.421   1.411   3.187
 9375SOL    HW129024   0.491   1.345   3.158
 9375SOL    HW229025   0.451   1.456   3.271
 9376SOL     OW29026   2.617   3.479   0.887
 9376SOL    HW129027   2.598   3.381   0.887
 9376SOL    HW229028   2.569   3.522   0.964
 9377SOL     OW29029   6.037   5.857   3.756
 9377SOL    HW129030   6.063   5.841   3.661
 9377SOL    HW229031   6.108   5.821   3.817
 9378SOL     OW29032   2.160   6.800   0.445
 9378SOL    HW129033   2.199   6.815   0.354
 9378SOL    HW229034   2.073   6.849   0.452
 9379SOL     OW29035   5.144   5.364   3.882
 9379SOL    HW129036   5.221   5.404   3.833
 9379SOL    HW229037   5.152   5.382   3.980
 9380SOL     OW29038   5.870   0.184   5.441
 9380SOL    HW129039   5.796   0.128   5.404
 9380SOL    HW229040   5.888   0.156   5.536
 9381SOL     OW29041   2.310   1.685   5.858
 9381SOL    HW129042   2.217   1.679   5.894
 9381SOL    HW229043   2.351   1.771   5.888
 9382SOL     OW29044   4.581   2.045   2.601
 9382SOL    HW129045   4.552   2.006   2.513
 9382SOL    HW229046   4.509   2.104   2.636
 9383SOL     OW29047   4.157   6.481   4.047
 9383SOL    HW129048   4.126   6.434   4.130
 9383SOL    HW229049   4.201   6.567   4.073
 9384SOL     OW29050   4.786   6.379   2.399
 9384SOL    HW129051   4.812   6.284   2.415
 9384SOL    HW229052   4.824   6.437   2.471
 9385SOL     OW29053   3.625   1.158   3.394
 9385SOL    HW129054   3.711   1.204   3.375
 9385SOL    HW229055   3.601   1.097   3.318
 9386SOL     OW29056   2.752   6.788   5.389
 9386SOL    HW129057   2.693   6.854   5.342
 9386SOL    HW229058   2.748   6.700   5.342
 9387SOL     OW29059   3.143   6.716   0.883
 9387SOL    HW129060   3.197   6.645   0.928
 9387SOL    HW229061   3.160   6.804   0.928
 9388SOL     OW29062   0.368   0.848   2.804
 9388SOL    HW129063   0.464   0.877   2.799
 9388SOL    HW229064   0.313   0.907   2.745
 9389SOL     OW29065   2.643   0.852   5.872
 9389SOL    HW129066   2.637   0.889   5.965
 9389SOL    HW229067   2.727   0.883   5.828
 9390SOL     OW29068   3.092   5.443   2.224
 9390SOL    HW129069   3.128   5.395   2.144
 9390SOL    HW229070   3.019   5.389   2.265
 9391SOL     OW29071   0.618   1.002   5.510
 9391SOL    HW129072   0.603   0.903   5.509
 9391SOL    HW229073   0.692   1.024   5.446
 9392SOL     OW29074   1.637   6.365   4.537
 9392SOL    HW129075   1.629   6.285   4.596
 9392SOL    HW229076   1.573   6.358   4.461
 9393SOL     OW29077   3.456   2.250   5.280
 9393SOL    HW129078   3.392   2.320   5.248
 9393SOL    HW229079   3.443   2.166   5.227
 9394SOL     OW29080   6.245   2.990   2.837
 9394SOL    HW129081   6.218   3.035   2.752
 9394SOL    HW229082   6.183   2.913   2.855
 9395SOL     OW29083   2.432   3.181   1.106
 9395SOL    HW129084   2.504   3.176   1.037
 9395SOL    HW229085   2.354   3.232   1.069
 9396SOL     OW29086   6.155   0.058   6.251
 9396SOL    HW129087   6.060   0.086   6.256
 9396SOL    HW229088   6.213   0.128   6.293
 9397SOL     OW29089   2.401   6.883   0.600
 9397SOL    HW129090   2.463   6.941   0.548
 9397SOL    HW229091   2.330   6.847   0.540
 9398SOL     OW29092   2.724   1.598   6.540
 9398SOL    HW129093   2.812   1.642   6.560
 9398SOL    HW229094   2.740   1.509   6.497
 9399SOL     OW29095   6.935   0.922   5.699
 9399SOL    HW129096   6.850   0.871   5.706
 9399SOL    HW229097   6.986   0.914   5.785
 9400SOL     OW29098   5.622   3.395   2.417
 9400SOL    HW129099   5.688   3.325   2.389
 9400SOL    HW229100   5.668   3.463   2.474
 9401SOL     OW29101   2.760   6.166   3.772
 9401SOL    HW129102   2.696   6.090   3.780
 9401SOL    HW229103   2.803   6.164   3.682
 9402SOL     OW29104   2.311   5.047   6.165
 9402SOL    HW129105   2.362   5.059   6.250
 9402SOL    HW229106   2.324   4.953   6.131
 9403SOL     OW29107   5.200   1.350   3.669
 9403SOL    HW129108   5.162   1.354   3.761
 9403SOL    HW229109   5.128   1.325   3.604
 9404SOL     OW29110   1.456   5.160   6.545
 9404SOL    HW129111   1.411   5.217   6.476
 9404SOL    HW229112   1.503   5.084   6.501
 9405SOL     OW29113   6.294   6.933   0.848
 9405SOL    HW129114   6.284   6.965   0.942
 9405SOL    HW229115   6.232   6.984   0.789
 9406SOL     OW29116   0.383   1.272   5.137
 9406SOL    HW129117   0.289   1.239   5.146
 9406SOL    HW229118   0.434   1.250   5.219
 9407SOL     OW29119   2.988   6.181   3.213
 9407SOL    HW129120   2.998   6.221   3.122
 9407SOL    HW229121   2.897   6.202   3.249
 9408SOL     OW29122   3.877   1.930   6.587
 9408SOL    HW129123   3.798   1.961   6.639
 9408SOL    HW229124   3.951   1.906   6.650
 9409SOL     OW29125   5.941   3.511   3.936
 9409SOL    HW129126   5.917   3.604   3.960
 9409SOL    HW229127   5.922   3.496   3.839
 9410SOL     OW29128   4.403   6.352   2.529
 9410SOL    HW129129   4.485   6.381   2.579
 9410SOL    HW229130   4.417   6.367   2.431
 9411SOL     OW29131   4.284   5.651   0.372
 9411SOL    HW129132   4.323   5.709   0.443
 9411SOL    HW229133   4.213   5.701   0.323
 9412SOL     OW29134   0.076   2.750   1.549
 9412SOL    HW129135   0.000   2.710   1.498
 9412SOL    HW229136   0.146   2.680   1.565
 9413SOL     OW29137   4.174   6.061   5.374
 9413SOL    HW129138   4.157   6.155   5.407
 9413SOL    HW229139   4.272   6.042   5.379
 9414SOL     OW29140   3.188   1.552   2.907
 9414SOL    HW129141   3.104   1.507   2.878
 9414SOL    HW229142   3.246   1.571   2.828
 9415SOL     OW29143   2.300   6.391   2.694
 9415SOL    HW129144   2.378   6.448   2.722
 9415SOL    HW229145   2.221   6.449   2.674
 9416SOL     OW29146   1.480   1.912   2.013
 9416SOL    HW129147   1.458   1.822   2.050
 9416SOL    HW229148   1.462   1.913   1.915
 9417SOL     OW29149   2.439   5.642   5.722
 9417SOL    HW129150   2.462   5.545   5.727
 9417SOL    HW229151   2.369   5.657   5.653
 9418SOL     OW29152   2.307   4.913   1.306
 9418SOL    HW129153   2.342   4.979   1.240
 9418SOL    HW229154   2.354   4.825   1.293
 9419SOL     OW29155   3.089   6.702   5.112
 9419SOL    HW129156   3.011   6.705   5.050
 9419SOL    HW229157   3.060   6.733   5.203
 9420SOL     OW29158   6.554   1.398   4.836
 9420SOL    HW129159   6.537   1.369   4.742
 9420SOL    HW229160   6.508   1.336   4.900
 9421SOL     OW29161   0.797   4.258   5.722
 9421SOL    HW129162   0.794   4.340   5.779
 9421SOL    HW229163   0.888   4.217   5.729
 9422SOL     OW29164   5.377   0.251   2.025
 9422SOL    HW129165   5.434   0.251   1.942
 9422SOL    HW229166   5.281   0.243   1.999
 9423SOL     OW29167   3.844   0.844   4.136
 9423SOL    HW129168   3.888   0.877   4.053
 9423SOL    HW229169   3.914   0.819   4.203
 9424SOL     OW29170   4.015   6.948   4.894
 9424SOL    HW129171   4.030   6.850   4.882
 9424SOL    HW229172   3.923   6.964   4.929
 9425SOL     OW29173   0.980   4.046   5.383
 9425SOL    HW129174   1.041   4.062   5.305
 9425SOL    HW229175   1.005   4.109   5.457
 9426SOL     OW29176   3.063   0.463   6.694
 9426SOL    HW129177   3.082   0.388   6.630
 9426SOL    HW229178   3.127   0.537   6.677
 9427SOL     OW29179   2.759   4.983   4.843
 9427SOL    HW129180   2.752   4.885   4.825
 9427SOL    HW229181   2.808   4.998   4.929
 9428SOL     OW29182   5.856   0.572   2.995
 9428SOL    HW129183   5.836   0.474   3.002
 9428SOL    HW229184   5.844   0.614   3.085
 9429SOL     OW29185   0.933   4.307   2.227
 9429SOL    HW129186   0.980   4.328   2.313
 9429SOL    HW229187   0.937   4.209   2.210
 9430SOL     OW29188   6.998   6.084   1.485
 9430SOL    HW129189   6.936   6.071   1.407
 9430SOL    HW229190   0.017   5.996   1.509
 9431SOL     OW29191   6.886   3.978   0.802
 9431SOL    HW129192   6.818   3.938   0.864
 9431SOL    HW229193   6.855   3.968   0.708
 9432SOL     OW29194   6.065   0.245   3.063
 9432SOL    HW129195   5.966   0.237   3.075
 9432SOL    HW229196   6.107   0.275   3.149
 9433SOL     OW29197   3.510   4.843   5.407
 9433SOL    HW129198   3.431   4.850   5.346
 9433SOL    HW229199   3.594   4.840   5.352
 9434SOL     OW29200   5.877   4.361   3.044
 9434SOL    HW129201   5.919   4.309   2.970
 9434SOL    HW229202   5.784   4.386   3.019
 9435SOL     OW29203   1.661   1.244   4.137
 9435SOL    HW129204   1.612   1.326   4.107
 9435SOL    HW229205   1.759   1.256   4.117
 9436SOL     OW29206   2.437   3.754   0.326
 9436SOL    HW129207   2.404   3.832   0.379
 9436SOL    HW229208   2.534   3.738   0.346
 9437SOL     OW29209   1.934   5.137   3.570
 9437SOL    HW129210   1.991   5.213   3.537
 9437SOL    HW229211   1.838   5.157   3.551
 9438SOL     OW29212   0.581   6.532   2.401
 9438SOL    HW129213   0.578   6.606   2.334
 9438SOL    HW229214   0.491   6.489   2.408
 9439SOL     OW29215   0.293   3.249   2.058
 9439SOL    HW129216   0.290   3.208   1.966
 9439SOL    HW229217   0.357   3.197   2.114
 9440SOL     OW29218   5.017   6.333   5.534
 9440SOL    HW129219   4.918   6.340   5.520
 9440SOL    HW229220   5.039   6.241   5.568
 9441SOL     OW29221   2.056   4.980   5.166
 9441SOL    HW129222   2.080   4.885   5.147
 9441SOL    HW229223   1.997   5.015   5.094
 9442SOL     OW29224   6.830   2.725   0.241
 9442SOL    HW129225   6.826   2.765   0.332
 9442SOL    HW229226   6.920   2.742   0.201
 9443SOL     OW29227   2.053   4.504   0.655
 9443SOL    HW129228   2.074   4.417   0.610
 9443SOL    HW229229   2.076   4.498   0.752
 9444SOL     OW29230   0.350   2.993   0.297
 9444SOL    HW129231   0.347   3.072   0.236
 9444SOL    HW229232   0.374   3.023   0.389
 9445SOL     OW29233   5.776   3.980   2.064
 9445SOL    HW129234   5.788   4.056   2.000
 9445SOL    HW229235   5.825   4.000   2.149
 9446SOL     OW29236   6.205   6.275   2.109
 9446SOL    HW129237   6.211   6.237   2.016
 9446SOL    HW229238   6.232   6.371   2.107
 9447SOL     OW29239   5.197   3.611   2.009
 9447SOL    HW129240   5.293   3.587   2.016
 9447SOL    HW229241   5.159   3.625   2.100
 9448SOL     OW29242   5.704   6.412   0.156
 9448SOL    HW129243   5.682   6.505   0.126
 9448SOL    HW229244   5.800   6.408   0.184
 9449SOL     OW29245   5.966   5.287   5.676
 9449SOL    HW129246   6.005   5.302   5.586
 9449SOL    HW229247   5.888   5.224   5.669
 9450SOL     OW29248   2.560   5.217   4.209
 9450SOL    HW129249   2.653   5.181   4.210
 9450SOL    HW229250   2.552   5.292   4.275
 9451SOL     OW29251   4.374   5.391   6.558
 9451SOL    HW129252   4.431   5.314   6.588
 9451SOL    HW229253   4.429   5.457   6.509
 9452SOL     OW29254   2.354   3.545   1.018
 9452SOL    HW129255   2.335   3.545   1.116
 9452SOL    HW229256   2.307   3.468   0.975
 9453SOL     OW29257   2.235   5.125   2.815
 9453SOL    HW129258   2.168   5.193   2.784
 9453SOL    HW229259   2.255   5.062   2.740
 9454SOL     OW29260   1.563   3.925   6.081
 9454SOL    HW129261   1.495   3.997   6.070
 9454SOL    HW229262   1.566   3.897   6.177
 9455SOL     OW29263   3.482   1.346   2.936
 9455SOL    HW129264   3.515   1.350   2.842
 9455SOL    HW229265   3.383   1.339   2.936
 9456SOL     OW29266   1.430   3.700   1.099
 9456SOL    HW129267   1.340   3.668   1.127
 9456SOL    HW229268   1.497   3.627   1.112
 9457SOL     OW29269   1.639   3.147   6.970
 9457SOL    HW129270   1.545   3.178   6.956
 9457SOL    HW229271   1.675   3.187   0.032
 9458SOL     OW29272   6.521   4.977   5.698
 9458SOL    HW129273   6.447   4.910   5.690
 9458SOL    HW229274   6.609   4.929   5.699
 9459SOL     OW29275   6.247   5.343   1.582
 9459SOL    HW129276   6.338   5.385   1.578
 9459SOL    HW229277   6.242   5.267   1.516
 9460SOL     OW29278   0.952   1.809   4.889
 9460SOL    HW129279   0.921   1.868   4.814
 9460SOL    HW229280   1.026   1.854   4.939
 9461SOL     OW29281   0.767   0.895   3.278
 9461SOL    HW129282   0.677   0.852   3.273
 9461SOL    HW229283   0.779   0.936   3.369
 9462SOL     OW29284   1.278   2.969   2.485
 9462SOL    HW129285   1.251   3.064   2.499
 9462SOL    HW229286   1.204   2.909   2.514
 9463SOL     OW29287   6.524   0.963   0.184
 9463SOL    HW129288   6.586   0.901   0.136
 9463SOL    HW229289   6.465   1.010   0.118
 9464SOL     OW29290   5.839   6.690   6.205
 9464SOL    HW129291   5.859   6.606   6.256
 9464SOL    HW229292   5.921   6.719   6.156
 9465SOL     OW29293   6.667   0.450   3.453
 9465SOL    HW129294   6.628   0.541   3.467
 9465SOL    HW229295   6.739   0.455   3.384
 9466SOL     OW29296   2.490   2.969   5.927
 9466SOL    HW129297   2.548   2.922   5.860
 9466SOL    HW229298   2.410   3.007   5.880
 9467SOL     OW29299   1.807   2.599   1.939
 9467SOL    HW129300   1.831   2.502   1.930
 9467SOL    HW229301   1.749   2.612   2.020
 9468SOL     OW29302   6.609   2.813   5.607
 9468SOL    HW129303   6.601   2.913   5.610
 9468SOL    HW229304   6.519   2.773   5.590
 9469SOL     OW29305   6.436   5.785   2.244
 9469SOL    HW129306   6.402   5.754   2.333
 9469SOL    HW229307   6.371   5.759   2.173
 9470SOL     OW29308   4.762   3.605   0.171
 9470SOL    HW129309   4.828   3.547   0.122
 9470SOL    HW229310   4.768   3.699   0.137
 9471SOL     OW29311   6.687   2.240   5.903
 9471SOL    HW129312   6.737   2.325   5.921
 9471SOL    HW229313   6.643   2.209   5.987
 9472SOL     OW29314   6.026   4.516   4.688
 9472SOL    HW129315   6.110   4.523   4.635
 9472SOL    HW229316   5.948   4.534   4.628
 9473SOL     OW29317   2.918   6.085   6.164
 9473SOL    HW129318   2.991   6.042   6.218
 9473SOL    HW229319   2.921   6.050   6.070
 9474SOL     OW29320   4.831   4.945   2.133
 9474SOL    HW129321   4.906   4.902   2.184
 9474SOL    HW229322   4.748   4.944   2.190
 9475SOL     OW29323   3.171   3.817   1.202
 9475SOL    HW129324   3.177   3.746   1.272
 9475SOL    HW229325   3.238   3.799   1.130
 9476SOL     OW29326   4.128   3.382   5.268
 9476SOL    HW129327   4.195   3.445   5.308
 9476SOL    HW229328   4.175   3.300   5.235
 9477SOL     OW29329   1.291   2.314   0.852
 9477SOL    HW129330   1.241   2.376   0.791
 9477SOL    HW229331   1.382   2.351   0.870
 9478SOL     OW29332   5.500   4.692   5.176
 9478SOL    HW129333   5.583   4.748   5.176
 9478SOL    HW229334   5.525   4.595   5.168
 9479SOL     OW29335   6.130   5.666   6.641
 9479SOL    HW129336   6.158   5.751   6.684
 9479SOL    HW229337   6.066   5.618   6.700
 9480SOL     OW29338   5.133   4.434   6.636
 9480SOL    HW129339   5.208   4.438   6.570
 9480SOL    HW229340   5.168   4.405   6.725
 9481SOL     OW29341   0.129   4.198   1.857
 9481SOL    HW129342   0.173   4.124   1.807
 9481SOL    HW229343   0.094   4.163   1.944
 9482SOL     OW29344   4.731   0.874   2.406
 9482SOL    HW129345   4.716   0.961   2.358
 9482SOL    HW229346   4.811   0.828   2.367
 9483SOL     OW29347   1.968   1.860   0.899
 9483SOL    HW129348   2.030   1.809   0.839
 9483SOL    HW229349   2.003   1.857   0.993
 9484SOL     OW29350   6.023   1.141   3.681
 9484SOL    HW129351   5.992   1.233   3.702
 9484SOL    HW229352   6.112   1.125   3.723
 9485SOL     OW29353   0.780   1.224   2.550
 9485SOL    HW129354   0.779   1.173   2.636
 9485SOL    HW229355   0.808   1.164   2.475
 9486SOL     OW29356   2.602   5.571   0.605
 9486SOL    HW129357   2.639   5.654   0.563
 9486SOL    HW229358   2.666   5.539   0.675
 9487SOL     OW29359   3.221   4.067   3.412
 9487SOL    HW129360   3.271   4.152   3.399
 9487SOL    HW229361   3.193   4.059   3.507
 9488SOL     OW29362   1.910   6.095   1.178
 9488SOL    HW129363   1.879   6.123   1.269
 9488SOL    HW229364   1.928   5.997   1.177
 9489SOL     OW29365   4.224   4.494   1.237
 9489SOL    HW129366   4.157   4.474   1.165
 9489SOL    HW229367   4.230   4.416   1.299
 9490SOL     OW29368   5.146   1.508   0.687
 9490SOL    HW129369   5.242   1.518   0.661
 9490SOL    HW229370   5.135   1.532   0.784
 9491SOL     OW29371   6.108   5.422   3.647
 9491SOL    HW129372   6.054   5.503   3.625
 9491SOL    HW229373   6.053   5.360   3.703
 9492SOL     OW29374   3.289   3.886   1.898
 9492SOL    HW129375   3.189   3.891   1.891
 9492SOL    HW229376   3.328   3.975   1.876
 9493SOL     OW29377   4.575   6.106   2.871
 9493SOL    HW129378   4.558   6.201   2.898
 9493SOL    HW229379   4.640   6.064   2.935
 9494SOL     OW29380   5.634   3.688   6.991
 9494SOL    HW129381   5.558   3.623   6.987
 9494SOL    HW229382   5.672   3.701   6.900
 9495SOL     OW29383   6.348   2.210   4.461
 9495SOL    HW129384   6.407   2.276   4.508
 9495SOL    HW229385   6.352   2.227   4.363
 9496SOL     OW29386   5.586   4.124   0.043
 9496SOL    HW129387   5.643   4.172   6.999
 9496SOL    HW229388   5.620   4.031   0.057
 9497SOL     OW29389   5.209   4.714   0.647
 9497SOL    HW129390   5.237   4.648   0.577
 9497SOL    HW229391   5.208   4.669   0.736
 9498SOL     OW29392   3.624   6.771   5.364
 9498SOL    HW129393   3.585   6.821   5.287
 9498SOL    HW229394   3.574   6.685   5.376
 9499SOL     OW29395   2.917   3.587   5.061
 9499SOL    HW129396   2.923   3.556   4.966
 9499SOL    HW229397   2.998   3.556   5.111
 9500SOL     OW29398   4.434   6.427   1.691
 9500SOL    HW129399   4.411   6.478   1.774
 9500SOL    HW229400   4.352   6.378   1.658
 9501SOL     OW29401   3.649   1.750   4.507
 9501SOL    HW129402   3.700   1.816   4.451
 9501SOL    HW229403   3.667   1.768   4.603
 9502SOL     OW29404   6.409   2.105   4.908
 9502SOL    HW129405   6.326   2.154   4.934
 9502SOL    HW229406   6.488   2.167   4.915
 9503SOL     OW29407   0.299   0.403   1.818
 9503SOL    HW129408   0.249   0.486   1.840
 9503SOL    HW229409   0.307   0.346   1.901
 9504SOL     OW29410   0.177   2.656   0.713
 9504SOL    HW129411   0.212   2.581   0.768
 9504SOL    HW229412   0.096   2.626   0.662
 9505SOL     OW29413   6.478   3.528   3.001
 9505SOL    HW129414   6.428   3.614   3.006
 9505SOL    HW229415   6.415   3.453   2.980
 9506SOL     OW29416   0.028   3.227   6.949
 9506SOL    HW129417   6.966   3.179   6.972
 9506SOL    HW229418   0.080   3.173   6.883
 9507SOL     OW29419   1.299   1.422   4.048
 9507SOL    HW129420   1.390   1.463   4.044
 9507SOL    HW229421   1.303   1.327   4.016
 9508SOL     OW29422   5.425   1.992   0.584
 9508SOL    HW129423   5.492   1.923   0.557
 9508SOL    HW229424   5.415   2.059   0.511
 9509SOL     OW29425   1.718   6.493   5.399
 9509SOL    HW129426   1.675   6.447   5.321
 9509SOL    HW229427   1.728   6.428   5.474
 9510SOL     OW29428   0.133   4.155   2.552
 9510SOL    HW129429   0.148   4.059   2.527
 9510SOL    HW229430   0.035   4.172   2.558
 9511SOL     OW29431   6.996   2.457   0.313
 9511SOL    HW129432   6.981   2.509   0.229
 9511SOL    HW229433   6.958   2.365   0.302
 9512SOL     OW29434   0.691   2.124   3.851
 9512SOL    HW129435   0.729   2.210   3.817
 9512SOL    HW229436   0.595   2.115   3.822
 9513SOL     OW29437   2.077   3.633   3.811
 9513SOL    HW129438   2.069   3.720   3.762
 9513SOL    HW229439   2.089   3.559   3.746
 9514SOL     OW29440   2.146   3.529   6.717
 9514SOL    HW129441   2.121   3.623   6.742
 9514SOL    HW229442   2.155   3.523   6.617
 9515SOL     OW29443   1.327   6.179   6.362
 9515SOL    HW129444   1.253   6.191   6.428
 9515SOL    HW229445   1.412   6.217   6.399
 9516SOL     OW29446   4.868   3.502   4.024
 9516SOL    HW129447   4.925   3.561   3.967
 9516SOL    HW229448   4.835   3.554   4.103
 9517SOL     OW29449   0.677   5.282   1.193
 9517SOL    HW129450   0.749   5.300   1.260
 9517SOL    HW229451   0.718   5.250   1.108
 9518SOL     OW29452   0.679   2.674   5.919
 9518SOL    HW129453   0.778   2.666   5.926
 9518SOL    HW229454   0.650   2.649   5.827
 9519SOL     OW29455   3.231   3.288   2.804
 9519SOL    HW129456   3.154   3.233   2.770
 9519SOL    HW229457   3.251   3.361   2.739
 9520SOL     OW29458   0.323   0.913   5.257
 9520SOL    HW129459   0.265   0.832   5.270
 9520SOL    HW229460   0.335   0.959   5.345
 9521SOL     OW29461   3.909   6.605   1.411
 9521SOL    HW129462   3.837   6.640   1.470
 9521SOL    HW229463   3.871   6.580   1.322
 9522SOL     OW29464   3.988   5.522   1.647
 9522SOL    HW129465   3.941   5.603   1.680
 9522SOL    HW229466   4.064   5.549   1.587
 9523SOL     OW29467   2.573   4.924   4.579
 9523SOL    HW129468   2.613   4.840   4.615
 9523SOL    HW229469   2.492   4.902   4.524
 9524SOL     OW29470   1.996   3.977   1.039
 9524SOL    HW129471   2.036   4.032   1.113
 9524SOL    HW229472   1.900   4.001   1.028
 9525SOL     OW29473   1.845   2.060   5.482
 9525SOL    HW129474   1.940   2.082   5.503
 9525SOL    HW229475   1.784   2.118   5.536
 9526SOL     OW29476   5.184   5.138   6.653
 9526SOL    HW129477   5.214   5.233   6.663
 9526SOL    HW229478   5.197   5.089   6.740
 9527SOL     OW29479   3.142   6.944   3.788
 9527SOL    HW129480   3.235   6.980   3.788
 9527SOL    HW229481   3.099   6.961   3.877
 9528SOL     OW29482   6.547   1.308   1.003
 9528SOL    HW129483   6.582   1.225   1.047
 9528SOL    HW229484   6.539   1.381   1.070
 9529SOL     OW29485   6.272   2.489   1.991
 9529SOL    HW129486   6.303   2.523   2.080
 9529SOL    HW229487   6.190   2.432   2.004
 9530SOL     OW29488   0.856   5.271   4.158
 9530SOL    HW129489   0.928   5.245   4.094
 9530SOL    HW229490   0.779   5.208   4.150
 9531SOL     OW29491   4.482   4.552   3.844
 9531SOL    HW129492   4.556   4.489   3.865
 9531SOL    HW229493   4.519   4.635   3.802
 9532SOL     OW29494   6.368   5.300   1.922
 9532SOL    HW129495   6.414   5.319   1.835
 9532SOL    HW229496   6.423   5.235   1.975
 9533SOL     OW29497   1.672   5.758   4.146
 9533SOL    HW129498   1.592   5.808   4.178
 9533SOL    HW229499   1.668   5.664   4.178
 9534SOL     OW29500   5.728   5.107   4.421
 9534SOL    HW129501   5.740   5.008   4.414
 9534SOL    HW229502   5.634   5.132   4.395
 9535SOL     OW29503   1.816   1.431   6.207
 9535SOL    HW129504   1.759   1.352   6.183
 9535SOL    HW229505   1.831   1.433   6.306
 9536SOL     OW29506   3.873   3.639   5.266
 9536SOL    HW129507   3.912   3.643   5.358
 9536SOL    HW229508   3.917   3.707   5.208
 9537SOL     OW29509   1.800   1.790   4.084
 9537SOL    HW129510   1.810   1.730   4.004
 9537SOL    HW229511   1.713   1.770   4.130
 9538SOL     OW29512   3.367   0.623   5.001
 9538SOL    HW129513   3.449   0.596   4.950
 9538SOL    HW229514   3.286   0.594   4.952
 9539SOL     OW29515   3.445   2.911   3.702
 9539SOL    HW129516   3.449   2.903   3.801
 9539SOL    HW229517   3.349   2.909   3.672
 9540SOL     OW29518   4.712   5.218   3.789
 9540SOL    HW129519   4.722   5.316   3.771
 9540SOL    HW229520   4.712   5.168   3.702
 9541SOL     OW29521   1.290   0.383   4.872
 9541SOL    HW129522   1.238   0.390   4.956
 9541SOL    HW229523   1.294   0.472   4.827
 9542SOL     OW29524   5.825   4.859   4.353
 9542SOL    HW129525   5.764   4.837   4.277
 9542SOL    HW229526   5.913   4.892   4.317
 9543SOL     OW29527   3.365   0.319   6.101
 9543SOL    HW129528   3.269   0.318   6.071
 9543SOL    HW229529   3.415   0.390   6.051
 9544SOL     OW29530   4.984   3.783   3.494
 9544SOL    HW129531   5.039   3.776   3.411
 9544SOL    HW229532   5.027   3.848   3.557
 9545SOL     OW29533   0.745   4.815   1.608
 9545SOL    HW129534   0.748   4.864   1.695
 9545SOL    HW229535   0.713   4.721   1.625
 9546SOL     OW29536   3.387   1.234   5.724
 9546SOL    HW129537   3.324   1.157   5.711
 9546SOL    HW229538   3.343   1.318   5.695
 9547SOL     OW29539   3.574   5.931   4.605
 9547SOL    HW129540   3.599   6.001   4.672
 9547SOL    HW229541   3.652   5.871   4.589
 9548SOL     OW29542   1.124   5.130   5.400
 9548SOL    HW129543   1.111   5.033   5.382
 9548SOL    HW229544   1.044   5.166   5.449
 9549SOL     OW29545   3.963   1.544   2.714
 9549SOL    HW129546   3.923   1.634   2.696
 9549SOL    HW229547   4.061   1.546   2.692
 9550SOL     OW29548   5.833   2.864   1.555
 9550SOL    HW129549   5.823   2.955   1.514
 9550SOL    HW229550   5.783   2.797   1.500
 9551SOL     OW29551   6.228   2.548   6.014
 9551SOL    HW129552   6.158   2.588   5.955
 9551SOL    HW229553   6.299   2.506   5.958
 9552SOL     OW29554   2.547   1.033   6.600
 9552SOL    HW129555   2.618   0.995   6.658
 9552SOL    HW229556   2.511   1.117   6.642
 9553SOL     OW29557   5.400   2.399   0.653
 9553SOL    HW129558   5.453   2.475   0.616
 9553SOL    HW229559   5.303   2.424   0.654
 9554SOL     OW29560   2.847   6.348   4.139
 9554SOL    HW129561   2.874   6.269   4.085
 9554SOL    HW229562   2.749   6.365   4.126
 9555SOL     OW29563   6.468   1.562   3.432
 9555SOL    HW129564   6.491   1.523   3.522
 9555SOL    HW229565   6.475   1.491   3.362
 9556SOL     OW29566   1.264   4.355   1.232
 9556SOL    HW129567   1.216   4.433   1.274
 9556SOL    HW229568   1.252   4.358   1.133
 9557SOL     OW29569   4.762   6.982   1.729
 9557SOL    HW129570   4.732   6.925   1.806
 9557SOL    HW229571   4.687   6.994   1.665
 9558SOL     OW29572   5.924   6.201   6.279
 9558SOL    HW129573   5.863   6.163   6.210
 9558SOL    HW229574   5.918   6.301   6.276
 9559SOL     OW29575   1.608   3.616   6.709
 9559SOL    HW129576   1.523   3.646   6.665
 9559SOL    HW229577   1.632   3.524   6.677
 9560SOL     OW29578   3.569   0.610   2.173
 9560SOL    HW129579   3.489   0.569   2.131
 9560SOL    HW229580   3.542   0.689   2.228
 9561SOL     OW29581   0.714   6.866   0.972
 9561SOL    HW129582   0.808   6.831   0.981
 9561SOL    HW229583   0.699   6.937   1.041
 9562SOL     OW29584   2.938   5.862   4.513
 9562SOL    HW129585   3.005   5.791   4.492
 9562SOL    HW229586   2.958   5.943   4.458
 9563SOL     OW29587   0.282   6.835   0.050
 9563SOL    HW129588   0.367   6.816   0.000
 9563SOL    HW229589   0.220   6.757   0.041
 9564SOL     OW29590   0.793   1.030   1.487
 9564SOL    HW129591   0.748   0.993   1.568
 9564SOL    HW229592   0.854   1.105   1.514
 9565SOL     OW29593   2.769   1.086   4.238
 9565SOL    HW129594   2.705   1.022   4.281
 9565SOL    HW229595   2.862   1.052   4.250
 9566SOL     OW29596   2.736   6.168   0.747
 9566SOL    HW129597   2.682   6.192   0.666
 9566SOL    HW229598   2.679   6.113   0.809
 9567SOL     OW29599   6.856   4.498   0.561
 9567SOL    HW129600   6.910   4.434   0.507
 9567SOL    HW229601   6.789   4.448   0.615
 9568SOL     OW29602   3.977   1.473   0.652
 9568SOL    HW129603   3.926   1.472   0.565
 9568SOL    HW229604   4.060   1.528   0.640
 9569SOL     OW29605   6.587   0.883   2.262
 9569SOL    HW129606   6.621   0.952   2.198
 9569SOL    HW229607   6.592   0.793   2.219
 9570SOL     OW29608   0.422   2.842   0.684
 9570SOL    HW129609   0.327   2.810   0.689
 9570SOL    HW229610   0.441   2.904   0.760
 9571SOL     OW29611   2.426   2.674   6.013
 9571SOL    HW129612   2.476   2.738   5.954
 9571SOL    HW229613   2.328   2.690   6.002
 9572SOL     OW29614   2.212   4.042   3.426
 9572SOL    HW129615   2.234   4.096   3.344
 9572SOL    HW229616   2.264   4.078   3.504
 9573SOL     OW29617   6.649   0.885   5.730
 9573SOL    HW129618   6.633   0.984   5.732
 9573SOL    HW229619   6.566   0.837   5.759
 9574SOL     OW29620   4.156   3.176   1.626
 9574SOL    HW129621   4.123   3.155   1.718
 9574SOL    HW229622   4.093   3.240   1.582
 9575SOL     OW29623   6.044   0.246   2.662
 9575SOL    HW129624   6.031   0.345   2.655
 9575SOL    HW229625   6.087   0.212   2.578
 9576SOL     OW29626   1.503   1.433   0.337
 9576SOL    HW129627   1.573   1.504   0.338
 9576SOL    HW229628   1.542   1.348   0.303
 9577SOL     OW29629   6.876   5.911   0.403
 9577SOL    HW129630   6.943   5.973   0.442
 9577SOL    HW229631   6.910   5.874   0.316
 9578SOL     OW29632   1.106   2.811   2.633
 9578SOL    HW129633   1.116   2.799   2.732
 9578SOL    HW229634   1.021   2.860   2.614
 9579SOL     OW29635   5.820   0.174   2.220
 9579SOL    HW129636   5.821   0.208   2.314
 9579SOL    HW229637   5.860   0.082   2.217
 9580SOL     OW29638   4.924   4.045   1.463
 9580SOL    HW129639   4.829   4.025   1.441
 9580SOL    HW229640   4.930   4.132   1.512
 9581SOL     OW29641   0.263   0.712   6.745
 9581SOL    HW129642   0.323   0.688   6.669
 9581SOL    HW229643   0.177   0.663   6.737
 9582SOL     OW29644   3.796   6.132   4.533
 9582SOL    HW129645   3.727   6.171   4.472
 9582SOL    HW229646   3.757   6.121   4.625
 9583SOL     OW29647   3.169   4.362   1.390
 9583SOL    HW129648   3.164   4.390   1.486
 9583SOL    HW229649   3.155   4.442   1.332
 9584SOL     OW29650   1.752   4.351   5.394
 9584SOL    HW129651   1.833   4.324   5.343
 9584SOL    HW229652   1.778   4.416   5.466
 9585SOL     OW29653   5.084   6.385   1.767
 9585SOL    HW129654   5.006   6.367   1.707
 9585SOL    HW229655   5.088   6.315   1.838
 9586SOL     OW29656   4.878   5.227   1.692
 9586SOL    HW129657   4.924   5.237   1.780
 9586SOL    HW229658   4.940   5.181   1.628
 9587SOL     OW29659   1.756   6.282   2.137
 9587SOL    HW129660   1.701   6.263   2.218
 9587SOL    HW229661   1.828   6.348   2.160
 9588SOL     OW29662   6.237   6.169   0.982
 9588SOL    HW129663   6.158   6.217   1.019
 9588SOL    HW229664   6.222   6.070   0.988
 9589SOL     OW29665   1.941   3.803   6.425
 9589SOL    HW129666   2.025   3.853   6.447
 9589SOL    HW229667   1.892   3.781   6.509
 9590SOL     OW29668   5.954   2.325   1.649
 9590SOL    HW129669   5.875   2.330   1.711
 9590SOL    HW229670   6.030   2.282   1.697
 9591SOL     OW29671   3.539   6.644   6.103
 9591SOL    HW129672   3.634   6.616   6.089
 9591SOL    HW229673   3.534   6.708   6.179
 9592SOL     OW29674   3.229   4.463   6.771
 9592SOL    HW129675   3.171   4.532   6.728
 9592SOL    HW229676   3.304   4.439   6.710
 9593SOL     OW29677   1.546   1.378   5.680
 9593SOL    HW129678   1.542   1.419   5.771
 9593SOL    HW229679   1.639   1.346   5.663
 9594SOL     OW29680   2.793   6.192   4.370
 9594SOL    HW129681   2.726   6.213   4.441
 9594SOL    HW229682   2.800   6.269   4.306
 9595SOL     OW29683   0.801   3.352   3.476
 9595SOL    HW129684   0.802   3.381   3.380
 9595SOL    HW229685   0.806   3.252   3.480
 9596SOL     OW29686   0.725   5.339   0.150
 9596SOL    HW129687   0.743   5.280   0.229
 9596SOL    HW229688   0.795   5.323   0.080
 9597SOL     OW29689   0.574   4.496   1.420
 9597SOL    HW129690   0.603   4.401   1.404
 9597SOL    HW229691   0.607   4.554   1.346
 9598SOL     OW29692   2.216   3.884   2.788
 9598SOL    HW129693   2.209   3.788   2.760
 9598SOL    HW229694   2.269   3.934   2.720
 9599SOL     OW29695   3.296   6.740   4.421
 9599SOL    HW129696   3.243   6.656   4.434
 9599SOL    HW229697   3.235   6.819   4.427
 9600SOL     OW29698   2.809   0.053   0.872
 9600SOL    HW129699   2.864   6.998   0.840
 9600SOL    HW229700   2.745   0.022   0.942
 9601SOL     OW29701   5.842   4.026   0.865
 9601SOL    HW129702   5.837   4.071   0.776
 9601SOL    HW229703   5.751   4.017   0.904
 9602SOL     OW29704   4.756   4.333   5.650
 9602SOL    HW129705   4.735   4.244   5.690
 9602SOL    HW229706   4.805   4.389   5.717
 9603SOL     OW29707   5.497   6.438   6.234
 9603SOL    HW129708   5.500   6.396   6.325
 9603SOL    HW229709   5.409   6.485   6.222
 9604SOL     OW29710   4.717   0.402   1.615
 9604SOL    HW129711   4.743   0.472   1.548
 9604SOL    HW229712   4.794   0.381   1.674
 9605SOL     OW29713   0.231   5.421   2.899
 9605SOL    HW129714   0.184   5.491   2.845
 9605SOL    HW229715   0.235   5.450   2.995
 9606SOL     OW29716   1.801   0.773   6.930
 9606SOL    HW129717   1.738   0.835   6.975
 9606SOL    HW229718   1.764   0.746   6.841
 9607SOL     OW29719   2.694   1.297   0.238
 9607SOL    HW129720   2.669   1.391   0.214
 9607SOL    HW229721   2.794   1.291   0.248
 9608SOL     OW29722   7.017   4.812   2.820
 9608SOL    HW129723   0.046   4.889   2.858
 9608SOL    HW229724   6.982   4.755   2.895
 9609SOL     OW29725   4.236   2.921   6.772
 9609SOL    HW129726   4.150   2.869   6.767
 9609SOL    HW229727   4.242   2.964   6.862
 9610SOL     OW29728   1.793   4.802   2.757
 9610SOL    HW129729   1.887   4.814   2.789
 9610SOL    HW229730   1.793   4.788   2.658
 9611SOL     OW29731   1.709   6.675   0.417
 9611SOL    HW129732   1.763   6.733   0.356
 9611SOL    HW229733   1.681   6.593   0.368
 9612SOL     OW29734   0.511   3.583   1.583
 9612SOL    HW129735   0.609   3.593   1.600
 9612SOL    HW229736   0.494   3.584   1.484
 9613SOL     OW29737   5.822   6.428   3.536
 9613SOL    HW129738   5.805   6.414   3.633
 9613SOL    HW229739   5.834   6.340   3.491
 9614SOL     OW29740   3.668   1.804   2.403
 9614SOL    HW129741   3.613   1.873   2.357
 9614SOL    HW229742   3.667   1.820   2.501
 9615SOL     OW29743   3.024   1.772   1.365
 9615SOL    HW129744   2.989   1.839   1.431
 9615SOL    HW229745   3.124   1.771   1.369
 9616SOL     OW29746   3.778   3.374   1.255
 9616SOL    HW129747   3.873   3.382   1.285
 9616SOL    HW229748   3.775   3.339   1.162
 9617SOL     OW29749   1.947   2.968   3.514
 9617SOL    HW129750   2.028   2.934   3.562
 9617SOL    HW229751   1.913   2.898   3.452
 9618SOL     OW29752   3.077   0.361   1.222
 9618SOL    HW129753   3.006   0.431   1.209
 9618SOL    HW229754   3.155   0.381   1.164
 9619SOL     OW29755   1.899   0.202   5.704
 9619SOL    HW129756   1.878   0.150   5.787
 9619SOL    HW229757   1.815   0.244   5.668
 9620SOL     OW29758   4.181   0.365   4.442
 9620SOL    HW129759   4.147   0.426   4.513
 9620SOL    HW229760   4.189   0.272   4.479
 9621SOL     OW29761   1.434   2.682   1.739
 9621SOL    HW129762   1.534   2.686   1.749
 9621SOL    HW229763   1.405   2.747   1.669
 9622SOL     OW29764   6.417   1.716   0.575
 9622SOL    HW129765   6.441   1.738   0.669
 9622SOL    HW229766   6.317   1.717   0.565
 9623SOL     OW29767   2.237   3.205   6.353
 9623SOL    HW129768   2.219   3.255   6.438
 9623SOL    HW229769   2.188   3.248   6.277
 9624SOL     OW29770   6.082   4.109   2.949
 9624SOL    HW129771   6.181   4.125   2.948
 9624SOL    HW229772   6.051   4.090   2.856
 9625SOL     OW29773   5.762   5.746   0.209
 9625SOL    HW129774   5.739   5.812   0.138
 9625SOL    HW229775   5.721   5.658   0.187
 9626SOL     OW29776   3.916   4.903   0.884
 9626SOL    HW129777   3.942   4.810   0.856
 9626SOL    HW229778   3.848   4.898   0.957
 9627SOL     OW29779   0.944   6.361   6.519
 9627SOL    HW129780   0.990   6.272   6.520
 9627SOL    HW229781   0.891   6.372   6.603
 9628SOL     OW29782   5.229   5.033   0.906
 9628SOL    HW129783   5.325   5.035   0.878
 9628SOL    HW229784   5.205   5.120   0.948
 9629SOL     OW29785   2.197   0.503   1.611
 9629SOL    HW129786   2.252   0.587   1.606
 9629SOL    HW229787   2.183   0.478   1.707
 9630SOL     OW29788   6.013   0.042   4.568
 9630SOL    HW129789   5.935   0.001   4.614
 9630SOL    HW229790   6.017   0.140   4.589
 9631SOL     OW29791   6.415   0.102   6.137
 9631SOL    HW129792   6.468   0.090   6.221
 9631SOL    HW229793   6.385   0.013   6.103
 9632SOL     OW29794   1.522   6.418   2.781
 9632SOL    HW129795   1.465   6.414   2.863
 9632SOL    HW229796   1.514   6.331   2.732
 9633SOL     OW29797   5.684   4.964   6.562
 9633SOL    HW129798   5.732   4.882   6.592
 9633SOL    HW229799   5.615   4.989   6.630
 9634SOL     OW29800   1.428   6.761   4.152
 9634SOL    HW129801   1.506   6.729   4.205
 9634SOL    HW229802   1.415   6.701   4.073
 9635SOL     OW29803   2.606   5.543   4.977
 9635SOL    HW129804   2.675   5.606   5.014
 9635SOL    HW229805   2.564   5.492   5.052
 9636SOL     OW29806   4.072   1.599   5.698
 9636SOL    HW129807   4.164   1.604   5.659
 9636SOL    HW229808   4.013   1.666   5.653
 9637SOL     OW29809   2.430   2.107   6.314
 9637SOL    HW129810   2.341   2.086   6.356
 9637SOL    HW229811   2.423   2.192   6.262
 9638SOL     OW29812   6.583   3.392   5.745
 9638SOL    HW129813   6.566   3.421   5.651
 9638SOL    HW229814   6.510   3.426   5.804
 9639SOL     OW29815   4.221   1.756   2.436
 9639SOL    HW129816   4.164   1.837   2.454
 9639SOL    HW229817   4.264   1.727   2.521
 9640SOL     OW29818   2.397   2.749   3.761
 9640SOL    HW129819   2.421   2.654   3.742
 9640SOL    HW229820   2.448   2.809   3.699
 9641SOL     OW29821   4.690   0.193   0.382
 9641SOL    HW129822   4.757   0.176   0.454
 9641SOL    HW229823   4.633   0.272   0.407
 9642SOL     OW29824   2.496   0.307   4.747
 9642SOL    HW129825   2.405   0.274   4.769
 9642SOL    HW229826   2.563   0.260   4.805
 9643SOL     OW29827   5.413   4.042   3.393
 9643SOL    HW129828   5.376   4.039   3.485
 9643SOL    HW229829   5.348   4.000   3.329
 9644SOL     OW29830   1.082   3.090   6.174
 9644SOL    HW129831   1.151   3.156   6.142
 9644SOL    HW229832   1.038   3.125   6.257
 9645SOL     OW29833   3.119   5.140   5.435
 9645SOL    HW129834   3.218   5.128   5.427
 9645SOL    HW229835   3.085   5.084   5.510
 9646SOL     OW29836   4.291   4.985   2.395
 9646SOL    HW129837   4.259   4.912   2.336
 9646SOL    HW229838   4.310   4.949   2.486
 9647SOL     OW29839   6.369   3.657   1.459
 9647SOL    HW129840   6.299   3.586   1.458
 9647SOL    HW229841   6.459   3.617   1.439
 9648SOL     OW29842   3.817   1.755   1.269
 9648SOL    HW129843   3.840   1.843   1.310
 9648SOL    HW229844   3.760   1.703   1.332
 9649SOL     OW29845   2.954   6.538   0.002
 9649SOL    HW129846   3.040   6.488   0.012
 9649SOL    HW229847   2.879   6.485   0.040
 9650SOL     OW29848   7.001   5.262   2.559
 9650SOL    HW129849   0.055   5.198   2.569
 9650SOL    HW229850   6.984   5.279   2.462
 9651SOL     OW29851   0.214   1.845   5.664
 9651SOL    HW129852   0.121   1.882   5.657
 9651SOL    HW229853   0.274   1.893   5.601
 9652SOL     OW29854   0.985   5.112   1.706
 9652SOL    HW129855   0.915   5.058   1.752
 9652SOL    HW229856   1.016   5.064   1.624
 9653SOL     OW29857   4.320   4.711   4.733
 9653SOL    HW129858   4.286   4.683   4.823
 9653SOL    HW229859   4.395   4.776   4.744
 9654SOL     OW29860   2.671   2.511   1.831
 9654SOL    HW129861   2.631   2.540   1.918
 9654SOL    HW229862   2.763   2.474   1.848
 9655SOL     OW29863   6.891   1.756   6.144
 9655SOL    HW129864   6.917   1.717   6.233
 9655SOL    HW229865   6.954   1.829   6.119
 9656SOL     OW29866   3.000   6.969   2.616
 9656SOL    HW129867   2.950   0.033   2.622
 9656SOL    HW229868   2.997   6.935   2.522
 9657SOL     OW29869   5.639   0.963   4.576
 9657SOL    HW129870   5.550   1.000   4.551
 9657SOL    HW229871   5.691   0.943   4.493
 9658SOL     OW29872   6.302   2.636   2.578
 9658SOL    HW129873   6.401   2.635   2.589
 9658SOL    HW229874   6.266   2.546   2.602
 9659SOL     OW29875   0.065   4.626   0.577
 9659SOL    HW129876   6.996   4.595   0.549
 9659SOL    HW229877   0.125   4.547   0.590
 9660SOL     OW29878   0.717   5.849   1.109
 9660SOL    HW129879   0.754   5.778   1.170
 9660SOL    HW229880   0.641   5.811   1.056
 9661SOL     OW29881   4.514   0.000   0.826
 9661SOL    HW129882   4.462   6.948   0.784
 9661SOL    HW229883   4.510   7.014   0.926
 9662SOL     OW29884   5.832   2.284   5.076
 9662SOL    HW129885   5.824   2.195   5.122
 9662SOL    HW229886   5.854   2.270   4.980
 9663SOL     OW29887   1.670   5.283   3.348
 9663SOL    HW129888   1.577   5.261   3.320
 9663SOL    HW229889   1.668   5.333   3.434
 9664SOL     OW29890   4.673   6.846   3.075
 9664SOL    HW129891   4.635   6.877   2.987
 9664SOL    HW229892   4.651   6.912   3.146
 9665SOL     OW29893   5.769   4.952   4.802
 9665SOL    HW129894   5.777   5.046   4.770
 9665SOL    HW229895   5.849   4.900   4.772
 9666SOL     OW29896   6.057   4.170   1.881
 9666SOL    HW129897   6.113   4.136   1.956
 9666SOL    HW229898   6.115   4.191   1.802
 9667SOL     OW29899   3.433   3.526   3.964
 9667SOL    HW129900   3.353   3.585   3.972
 9667SOL    HW229901   3.427   3.472   3.880
 9668SOL     OW29902   0.131   1.279   5.876
 9668SOL    HW129903   0.196   1.341   5.833
 9668SOL    HW229904   0.068   1.243   5.807
 9669SOL     OW29905   0.694   0.536   0.485
 9669SOL    HW129906   0.691   0.437   0.474
 9669SOL    HW229907   0.746   0.576   0.410
 9670SOL     OW29908   4.968   4.213   6.325
 9670SOL    HW129909   4.891   4.173   6.276
 9670SOL    HW229910   5.015   4.142   6.378
 9671SOL     OW29911   0.305   5.428   5.574
 9671SOL    HW129912   0.287   5.378   5.490
 9671SOL    HW229913   0.255   5.385   5.650
 9672SOL     OW29914   1.103   6.331   4.552
 9672SOL    HW129915   1.014   6.286   4.541
 9672SOL    HW229916   1.176   6.262   4.544
 9673SOL     OW29917   3.791   3.837   6.552
 9673SOL    HW129918   3.787   3.749   6.599
 9673SOL    HW229919   3.794   3.911   6.620
 9674SOL     OW29920   3.198   6.446   1.586
 9674SOL    HW129921   3.134   6.466   1.511
 9674SOL    HW229922   3.154   6.465   1.673
 9675SOL     OW29923   6.446   1.313   2.374
 9675SOL    HW129924   6.442   1.395   2.431
 9675SOL    HW229925   6.518   1.325   2.305
 9676SOL     OW29926   0.936   3.384   4.658
 9676SOL    HW129927   0.918   3.365   4.562
 9676SOL    HW229928   0.979   3.305   4.701
 9677SOL     OW29929   2.317   4.296   5.832
 9677SOL    HW129930   2.296   4.258   5.923
 9677SOL    HW229931   2.331   4.221   5.768
 9678SOL     OW29932   4.025   3.252   3.029
 9678SOL    HW129933   3.967   3.197   3.090
 9678SOL    HW229934   4.099   3.294   3.081
 9679SOL     OW29935   1.570   2.830   1.422
 9679SOL    HW129936   1.503   2.786   1.482
 9679SOL    HW229937   1.528   2.849   1.333
 9680SOL     OW29938   5.848   5.862   3.265
 9680SOL    HW129939   5.931   5.812   3.243
 9680SOL    HW229940   5.776   5.840   3.199
 9681SOL     OW29941   2.017   0.865   1.326
 9681SOL    HW129942   1.996   0.785   1.383
 9681SOL    HW229943   1.933   0.917   1.310
 9682SOL     OW29944   5.269   5.089   3.466
 9682SOL    HW129945   5.349   5.034   3.488
 9682SOL    HW229946   5.247   5.149   3.544
 9683SOL     OW29947   3.594   5.122   0.531
 9683SOL    HW129948   3.619   5.207   0.577
 9683SOL    HW229949   3.609   5.131   0.432
 9684SOL     OW29950   0.380   3.716   4.649
 9684SOL    HW129951   0.454   3.770   4.610
 9684SOL    HW229952   0.305   3.709   4.583
 9685SOL     OW29953   2.185   2.982   1.065
 9685SOL    HW129954   2.273   2.941   1.090
 9685SOL    HW229955   2.165   3.057   1.128
 9686SOL     OW29956   6.610   0.643   1.512
 9686SOL    HW129957   6.614   0.731   1.559
 9686SOL    HW229958   6.652   0.572   1.570
 9687SOL     OW29959   2.497   1.075   2.914
 9687SOL    HW129960   2.506   1.163   2.960
 9687SOL    HW229961   2.401   1.047   2.913
 9688SOL     OW29962   0.096   1.970   2.817
 9688SOL    HW129963   0.066   1.962   2.722
 9688SOL    HW229964   0.044   1.907   2.875
 9689SOL     OW29965   2.738   6.064   0.057
 9689SOL    HW129966   2.762   5.967   0.062
 9689SOL    HW229967   2.813   6.115   0.014
 9690SOL     OW29968   5.926   4.827   6.963
 9690SOL    HW129969   5.910   4.834   0.039
 9690SOL    HW229970   5.977   4.743   6.944
 9691SOL     OW29971   1.617   5.472   1.705
 9691SOL    HW129972   1.626   5.395   1.768
 9691SOL    HW229973   1.528   5.469   1.660
 9692SOL     OW29974   2.810   5.003   1.783
 9692SOL    HW129975   2.778   5.096   1.800
 9692SOL    HW229976   2.898   5.006   1.736
 9693SOL     OW29977   6.534   5.749   1.503
 9693SOL    HW129978   6.634   5.756   1.509
 9693SOL    HW229979   6.496   5.730   1.593
 9694SOL     OW29980   1.388   2.414   0.290
 9694SOL    HW129981   1.362   2.491   0.348
 9694SOL    HW229982   1.415   2.337   0.348
 9695SOL     OW29983   6.508   4.032   1.087
 9695SOL    HW129984   6.528   3.956   1.148
 9695SOL    HW229985   6.490   3.998   0.995
 9696SOL     OW29986   4.179   2.843   1.632
 9696SOL    HW129987   4.106   2.910   1.644
 9696SOL    HW229988   4.266   2.885   1.658
 9697SOL     OW29989   0.623   4.694   0.091
 9697SOL    HW129990   0.571   4.643   0.159
 9697SOL    HW229991   0.651   4.782   0.128
 9698SOL     OW29992   6.000   0.828   5.146
 9698SOL    HW129993   6.024   0.771   5.224
 9698SOL    HW229994   5.918   0.791   5.101
 9699SOL     OW29995   0.970   3.209   6.395
 9699SOL    HW129996   0.956   3.308   6.396
 9699SOL    HW229997   1.047   3.186   6.455
 9700SOL     OW29998   3.378   4.666   5.908
 9700SOL    HW129999   3.347   4.642   6.000
 9700SOL    HW230000   3.362   4.589   5.846
 9701SOL     OW30001   4.002   5.346   4.665
 9701SOL    HW130002   3.946   5.421   4.701
 9701SOL    HW230003   4.049   5.301   4.740
 9702SOL     OW30004   5.127   1.234   0.762
 9702SOL    HW130005   5.064   1.260   0.836
 9702SOL    HW230006   5.169   1.317   0.725
 9703SOL     OW30007   3.307   5.954   4.623
 9703SOL    HW130008   3.407   5.951   4.626
 9703SOL    HW230009   3.276   5.927   4.532
 9704SOL     OW30010   3.359   6.803   2.714
 9704SOL    HW130011   3.268   6.831   2.743
 9704SOL    HW230012   3.424   6.817   2.789
 9705SOL     OW30013   3.662   4.742   0.804
 9705SOL    HW130014   3.703   4.788   0.883
 9705SOL    HW230015   3.697   4.781   0.720
 9706SOL     OW30016   6.517   2.789   1.810
 9706SOL    HW130017   6.423   2.755   1.819
 9706SOL    HW230018   6.541   2.843   1.891
 9707SOL     OW30019   1.070   3.951   2.508
 9707SOL    HW130020   1.062   3.961   2.408
 9707SOL    HW230021   1.166   3.961   2.534
 9708SOL     OW30022   1.992   1.836   4.261
 9708SOL    HW130023   2.016   1.933   4.265
 9708SOL    HW230024   1.920   1.823   4.193
 9709SOL     OW30025   0.868   6.002   3.440
 9709SOL    HW130026   0.800   6.069   3.471
 9709SOL    HW230027   0.889   5.939   3.514
 9710SOL     OW30028   0.325   1.493   2.843
 9710SOL    HW130029   0.232   1.503   2.809
 9710SOL    HW230030   0.357   1.579   2.882
 9711SOL     OW30031   1.651   3.117   5.841
 9711SOL    HW130032   1.634   3.065   5.758
 9711SOL    HW230033   1.741   3.094   5.878
 9712SOL     OW30034   5.572   1.913   4.846
 9712SOL    HW130035   5.643   1.851   4.814
 9712SOL    HW230036   5.604   2.008   4.840
 9713SOL     OW30037   0.715   4.759   3.516
 9713SOL    HW130038   0.623   4.783   3.484
 9713SOL    HW230039   0.739   4.668   3.482
 9714SOL     OW30040   1.806   1.908   2.081
 9714SOL    HW130041   1.861   1.968   2.139
 9714SOL    HW230042   1.765   1.962   2.007
 9715SOL     OW30043   5.422   5.662   5.159
 9715SOL    HW130044   5.374   5.674   5.246
 9715SOL    HW230045   5.508   5.713   5.161
 9716SOL     OW30046   4.128   1.900   6.733
 9716SOL    HW130047   4.157   1.852   6.650
 9716SOL    HW230048   4.126   1.836   6.810
 9717SOL     OW30049   5.308   5.973   3.974
 9717SOL    HW130050   5.320   6.041   4.046
 9717SOL    HW230051   5.276   6.017   3.890
 9718SOL     OW30052   4.046   3.439   1.258
 9718SOL    HW130053   4.112   3.514   1.254
 9718SOL    HW230054   4.067   3.380   1.336
 9719SOL     OW30055   0.345   2.531   0.016
 9719SOL    HW130056   0.429   2.496   0.058
 9719SOL    HW230057   0.267   2.479   0.048
 9720SOL     OW30058   0.601   6.136   2.618
 9720SOL    HW130059   0.670   6.111   2.551
 9720SOL    HW230060   0.624   6.097   2.707
 9721SOL     OW30061   0.114   3.740   2.070
 9721SOL    HW130062   0.049   3.664   2.062
 9721SOL    HW230063   0.185   3.730   2.001
 9722SOL     OW30064   0.286   0.881   3.230
 9722SOL    HW130065   0.304   0.811   3.160
 9722SOL    HW230066   0.229   0.843   3.302
 9723SOL     OW30067   0.719   0.588   3.177
 9723SOL    HW130068   0.745   0.608   3.083
 9723SOL    HW230069   0.665   0.664   3.214
 9724SOL     OW30070   3.009   2.434   1.689
 9724SOL    HW130071   2.968   2.418   1.779
 9724SOL    HW230072   3.090   2.377   1.679
 9725SOL     OW30073   4.898   3.518   6.262
 9725SOL    HW130074   4.916   3.420   6.275
 9725SOL    HW230075   4.840   3.551   6.336
 9726SOL     OW30076   5.456   6.891   4.524
 9726SOL    HW130077   5.407   6.864   4.607
 9726SOL    HW230078   5.424   6.981   4.494
 9727SOL     OW30079   0.623   3.007   5.623
 9727SOL    HW130080   0.613   3.096   5.578
 9727SOL    HW230081   0.661   3.019   5.714
 9728SOL     OW30082   1.575   6.347   5.978
 9728SOL    HW130083   1.516   6.373   6.054
 9728SOL    HW230084   1.526   6.285   5.917
 9729SOL     OW30085   1.435   4.473   3.071
 9729SOL    HW130086   1.355   4.502   3.017
 9729SOL    HW230087   1.414   4.483   3.168
 9730SOL     OW30088   6.813   2.992   2.592
 9730SOL    HW130089   6.907   3.001   2.557
 9730SOL    HW230090   6.749   3.018   2.520
 9731SOL     OW30091   3.917   5.316   0.807
 9731SOL    HW130092   3.831   5.346   0.766
 9731SOL    HW230093   3.963   5.252   0.745
 9732SOL     OW30094   0.100   5.958   2.506
 9732SOL    HW130095   0.176   5.973   2.442
 9732SOL    HW230096   0.069   6.046   2.541
 9733SOL     OW30097   5.474   5.204   5.046
 9733SOL    HW130098   5.492   5.123   5.101
 9733SOL    HW230099   5.499   5.186   4.950
 9734SOL     OW30100   5.585   1.960   4.209
 9734SOL    HW130101   5.501   2.006   4.241
 9734SOL    HW230102   5.596   1.874   4.257
 9735SOL     OW30103   2.489   4.877   2.084
 9735SOL    HW130104   2.581   4.899   2.115
 9735SOL    HW230105   2.446   4.960   2.047
 9736SOL     OW30106   5.752   1.246   6.904
 9736SOL    HW130107   5.809   1.321   6.936
 9736SOL    HW230108   5.667   1.244   6.957
 9737SOL     OW30109   4.137   2.188   4.988
 9737SOL    HW130110   4.191   2.262   5.029
 9737SOL    HW230111   4.197   2.108   4.973
 9738SOL     OW30112   1.558   1.136   3.453
 9738SOL    HW130113   1.526   1.070   3.385
 9738SOL    HW230114   1.530   1.228   3.426
 9739SOL     OW30115   6.757   5.313   1.835
 9739SOL    HW130116   6.700   5.231   1.828
 9739SOL    HW230117   6.851   5.290   1.811
 9740SOL     OW30118   6.406   4.004   2.767
 9740SOL    HW130119   6.352   3.921   2.755
 9740SOL    HW230120   6.494   3.981   2.808
 9741SOL     OW30121   4.332   1.629   2.651
 9741SOL    HW130122   4.329   1.580   2.738
 9741SOL    HW230123   4.426   1.629   2.617
 9742SOL     OW30124   5.518   0.697   3.181
 9742SOL    HW130125   5.520   0.664   3.087
 9742SOL    HW230126   5.573   0.780   3.188
 9743SOL     OW30127   1.612   2.970   5.614
 9743SOL    HW130128   1.686   2.918   5.656
 9743SOL    HW230129   1.635   2.991   5.518
 9744SOL     OW30130   1.983   1.079   2.143
 9744SOL    HW130131   1.900   1.043   2.099
 9744SOL    HW230132   2.042   1.121   2.075
 9745SOL     OW30133   0.983   2.658   4.967
 9745SOL    HW130134   0.889   2.648   4.998
 9745SOL    HW230135   0.984   2.687   4.872
 9746SOL     OW30136   5.443   0.670   5.439
 9746SOL    HW130137   5.353   0.713   5.445
 9746SOL    HW230138   5.497   0.695   5.520
 9747SOL     OW30139   1.239   0.779   0.531
 9747SOL    HW130140   1.171   0.840   0.490
 9747SOL    HW230141   1.320   0.775   0.472
 9748SOL     OW30142   1.434   5.877   4.246
 9748SOL    HW130143   1.403   5.940   4.175
 9748SOL    HW230144   1.355   5.829   4.285
 9749SOL     OW30145   1.294   3.786   4.745
 9749SOL    HW130146   1.274   3.689   4.763
 9749SOL    HW230147   1.241   3.817   4.667
 9750SOL     OW30148   4.764   5.000   3.278
 9750SOL    HW130149   4.830   5.051   3.223
 9750SOL    HW230150   4.794   4.999   3.374
 9751SOL     OW30151   1.522   1.982   0.862
 9751SOL    HW130152   1.459   1.997   0.786
 9751SOL    HW230153   1.472   1.943   0.939
 9752SOL     OW30154   4.463   0.963   5.596
 9752SOL    HW130155   4.462   0.903   5.516
 9752SOL    HW230156   4.373   1.003   5.610
 9753SOL     OW30157   6.828   5.710   5.246
 9753SOL    HW130158   6.891   5.702   5.169
 9753SOL    HW230159   6.751   5.648   5.232
 9754SOL     OW30160   0.976   1.725   6.871
 9754SOL    HW130161   1.031   1.651   6.909
 9754SOL    HW230162   0.911   1.688   6.804
 9755SOL     OW30163   4.214   3.556   5.031
 9755SOL    HW130164   4.214   3.572   4.932
 9755SOL    HW230165   4.135   3.500   5.056
 9756SOL     OW30166   5.929   3.443   6.980
 9756SOL    HW130167   5.929   3.498   0.041
 9756SOL    HW230168   5.871   3.362   6.994
 9757SOL     OW30169   5.221   2.807   3.935
 9757SOL    HW130170   5.301   2.761   3.974
 9757SOL    HW230171   5.248   2.897   3.900
 9758SOL     OW30172   2.047   0.736   6.727
 9758SOL    HW130173   2.093   0.647   6.726
 9758SOL    HW230174   1.988   0.742   6.808
 9759SOL     OW30175   2.662   6.175   1.556
 9759SOL    HW130176   2.610   6.125   1.487
 9759SOL    HW230177   2.600   6.205   1.629
 9760SOL     OW30178   5.353   4.947   5.365
 9760SOL    HW130179   5.433   4.956   5.307
 9760SOL    HW230180   5.308   4.859   5.348
 9761SOL     OW30181   5.441   5.161   1.858
 9761SOL    HW130182   5.437   5.259   1.842
 9761SOL    HW230183   5.440   5.143   1.956
 9762SOL     OW30184   2.453   1.811   5.221
 9762SOL    HW130185   2.444   1.868   5.302
 9762SOL    HW230186   2.532   1.750   5.232
 9763SOL     OW30187   3.705   1.298   1.593
 9763SOL    HW130188   3.701   1.377   1.654
 9763SOL    HW230189   3.674   1.324   1.502
 9764SOL     OW30190   1.355   3.047   2.896
 9764SOL    HW130191   1.288   3.121   2.890
 9764SOL    HW230192   1.447   3.086   2.885
 9765SOL     OW30193   0.234   2.006   5.909
 9765SOL    HW130194   0.312   2.013   5.971
 9765SOL    HW230195   0.252   1.935   5.841
 9766SOL     OW30196   3.019   0.631   3.096
 9766SOL    HW130197   3.015   0.727   3.069
 9766SOL    HW230198   2.930   0.589   3.085
 9767SOL     OW30199   5.209   0.791   5.367
 9767SOL    HW130200   5.142   0.860   5.395
 9767SOL    HW230201   5.241   0.812   5.274
 9768SOL     OW30202   4.869   1.910   2.310
 9768SOL    HW130203   4.795   1.882   2.250
 9768SOL    HW230204   4.904   1.999   2.280
 9769SOL     OW30205   1.148   2.169   1.363
 9769SOL    HW130206   1.123   2.072   1.362
 9769SOL    HW230207   1.190   2.194   1.276
 9770SOL     OW30208   5.196   5.244   6.009
 9770SOL    HW130209   5.267   5.315   6.015
 9770SOL    HW230210   5.237   5.160   5.974
 9771SOL     OW30211   4.492   5.116   6.783
 9771SOL    HW130212   4.496   5.215   6.769
 9771SOL    HW230213   4.576   5.085   6.827
 9772SOL     OW30214   6.737   6.954   2.198
 9772SOL    HW130215   6.833   6.947   2.169
 9772SOL    HW230216   6.694   6.865   2.192
 9773SOL     OW30217   5.851   5.615   3.558
 9773SOL    HW130218   5.855   5.608   3.658
 9773SOL    HW230219   5.758   5.641   3.531
 9774SOL     OW30220   5.877   5.025   3.871
 9774SOL    HW130221   5.911   5.113   3.905
 9774SOL    HW230222   5.952   4.959   3.868
 9775SOL     OW30223   1.914   2.979   4.359
 9775SOL    HW130224   1.879   3.009   4.270
 9775SOL    HW230225   1.837   2.951   4.416
 9776SOL     OW30226   6.465   5.521   4.439
 9776SOL    HW130227   6.366   5.523   4.427
 9776SOL    HW230228   6.503   5.611   4.420
 9777SOL     OW30229   5.818   3.944   5.854
 9777SOL    HW130230   5.807   4.039   5.883
 9777SOL    HW230231   5.772   3.884   5.920
 9778SOL     OW30232   4.897   6.774   2.885
 9778SOL    HW130233   4.839   6.813   2.957
 9778SOL    HW230234   4.911   6.676   2.904
 9779SOL     OW30235   2.721   1.312   5.334
 9779SOL    HW130236   2.713   1.342   5.429
 9779SOL    HW230237   2.670   1.375   5.275
 9780SOL     OW30238   2.807   3.077   0.799
 9780SOL    HW130239   2.850   3.055   0.711
 9780SOL    HW230240   2.828   3.005   0.865
 9781SOL     OW30241   2.569   4.678   5.084
 9781SOL    HW130242   2.513   4.728   5.018
 9781SOL    HW230243   2.665   4.680   5.055
 9782SOL     OW30244   6.082   0.364   1.504
 9782SOL    HW130245   6.148   0.421   1.455
 9782SOL    HW230246   6.060   0.407   1.592
 9783SOL     OW30247   6.181   1.634   2.376
 9783SOL    HW130248   6.109   1.620   2.307
 9783SOL    HW230249   6.140   1.642   2.466
 9784SOL     OW30250   4.301   1.589   2.952
 9784SOL    HW130251   4.269   1.556   3.041
 9784SOL    HW230252   4.355   1.672   2.964
 9785SOL     OW30253   6.698   2.493   2.657
 9785SOL    HW130254   6.752   2.489   2.741
 9785SOL    HW230255   6.702   2.586   2.620
 9786SOL     OW30256   2.142   5.378   5.518
 9786SOL    HW130257   2.195   5.332   5.446
 9786SOL    HW230258   2.162   5.335   5.606
 9787SOL     OW30259   4.903   4.014   1.907
 9787SOL    HW130260   5.002   4.018   1.916
 9787SOL    HW230261   4.877   3.932   1.856
 9788SOL     OW30262   6.584   0.827   4.614
 9788SOL    HW130263   6.637   0.745   4.592
 9788SOL    HW230264   6.551   0.821   4.708
 9789SOL     OW30265   2.562   5.896   4.961
 9789SOL    HW130266   2.482   5.841   4.983
 9789SOL    HW230267   2.641   5.861   5.010
 9790SOL     OW30268   5.808   1.729   4.290
 9790SOL    HW130269   5.726   1.728   4.347
 9790SOL    HW230270   5.842   1.636   4.279
 9791SOL     OW30271   1.276   1.202   1.640
 9791SOL    HW130272   1.201   1.187   1.704
 9791SOL    HW230273   1.248   1.173   1.549
 9792SOL     OW30274   4.571   4.858   0.957
 9792SOL    HW130275   4.531   4.948   0.975
 9792SOL    HW230276   4.670   4.863   0.967
 9793SOL     OW30277   5.862   5.801   1.928
 9793SOL    HW130278   5.783   5.781   1.987
 9793SOL    HW230279   5.844   5.885   1.876
 9794SOL     OW30280   5.291   3.226   6.249
 9794SOL    HW130281   5.266   3.141   6.203
 9794SOL    HW230282   5.216   3.292   6.241
 9795SOL     OW30283   1.538   3.682   3.920
 9795SOL    HW130284   1.468   3.678   3.992
 9795SOL    HW230285   1.623   3.717   3.959
 9796SOL     OW30286   3.130   5.008   0.436
 9796SOL    HW130287   3.082   5.048   0.513
 9796SOL    HW230288   3.213   5.061   0.417
 9797SOL     OW30289   4.579   3.384   6.299
 9797SOL    HW130290   4.573   3.430   6.211
 9797SOL    HW230291   4.545   3.291   6.290
 9798SOL     OW30292   2.855   0.512   1.148
 9798SOL    HW130293   2.814   0.574   1.214
 9798SOL    HW230294   2.793   0.500   1.070
 9799SOL     OW30295   2.975   3.194   2.567
 9799SOL    HW130296   2.915   3.128   2.523
 9799SOL    HW230297   3.002   3.159   2.657
 9800SOL     OW30298   4.327   5.521   6.933
 9800SOL    HW130299   4.273   5.440   6.913
 9800SOL    HW230300   4.278   5.603   6.902
 9801SOL     OW30301   3.677   6.168   6.602
 9801SOL    HW130302   3.606   6.225   6.562
 9801SOL    HW230303   3.764   6.217   6.602
 9802SOL     OW30304   0.401   3.128   1.220
 9802SOL    HW130305   0.330   3.160   1.283
 9802SOL    HW230306   0.360   3.115   1.129
 9803SOL     OW30307   6.143   0.370   6.831
 9803SOL    HW130308   6.050   0.354   6.797
 9803SOL    HW230309   6.176   0.458   6.797
 9804SOL     OW30310   6.461   5.177   3.964
 9804SOL    HW130311   6.404   5.185   3.883
 9804SOL    HW230312   6.521   5.256   3.971
 9805SOL     OW30313   1.589   5.429   6.794
 9805SOL    HW130314   1.542   5.362   6.851
 9805SOL    HW230315   1.674   5.390   6.760
 9806SOL     OW30316   6.992   2.649   2.419
 9806SOL    HW130317   6.957   2.575   2.361
 9806SOL    HW230318   6.946   2.647   2.507
 9807SOL     OW30319   3.888   1.863   0.398
 9807SOL    HW130320   3.887   1.767   0.426
 9807SOL    HW230321   3.852   1.871   0.305
 9808SOL     OW30322   0.238   1.739   4.595
 9808SOL    HW130323   0.163   1.745   4.661
 9808SOL    HW230324   0.284   1.651   4.605
 9809SOL     OW30325   6.872   1.141   4.370
 9809SOL    HW130326   6.934   1.188   4.432
 9809SOL    HW230327   6.793   1.199   4.352
 9810SOL     OW30328   2.951   1.198   3.109
 9810SOL    HW130329   2.920   1.134   3.038
 9810SOL    HW230330   2.884   1.272   3.118
 9811SOL     OW30331   6.697   6.493   2.791
 9811SOL    HW130332   6.617   6.553   2.784
 9811SOL    HW230333   6.764   6.535   2.852
 9812SOL     OW30334   5.007   2.319   6.222
 9812SOL    HW130335   4.922   2.270   6.243
 9812SOL    HW230336   5.082   2.281   6.277
 9813SOL     OW30337   6.832   4.580   0.233
 9813SOL    HW130338   6.870   4.663   0.193
 9813SOL    HW230339   6.770   4.605   0.307
 9814SOL     OW30340   0.180   6.422   5.624
 9814SOL    HW130341   0.187   6.354   5.697
 9814SOL    HW230342   0.085   6.450   5.614
 9815SOL     OW30343   5.787   3.540   1.787
 9815SOL    HW130344   5.858   3.609   1.796
 9815SOL    HW230345   5.702   3.583   1.757
 9816SOL     OW30346   6.510   0.018   0.057
 9816SOL    HW130347   6.537   6.970   0.123
 9816SOL    HW230348   6.551   0.106   0.083
 9817SOL     OW30349   3.225   6.027   0.518
 9817SOL    HW130350   3.166   6.100   0.550
 9817SOL    HW230351   3.288   6.062   0.448
 9818SOL     OW30352   0.902   0.068   3.420
 9818SOL    HW130353   0.917   7.008   3.475
 9818SOL    HW230354   0.971   0.136   3.443
 9819SOL     OW30355   6.309   4.276   5.116
 9819SOL    HW130356   6.216   4.241   5.122
 9819SOL    HW230357   6.374   4.200   5.109
 9820SOL     OW30358   3.438   1.755   6.706
 9820SOL    HW130359   3.444   1.668   6.754
 9820SOL    HW230360   3.401   1.824   6.768
 9821SOL     OW30361   4.355   2.595   1.775
 9821SOL    HW130362   4.257   2.610   1.756
 9821SOL    HW230363   4.393   2.533   1.706
 9822SOL     OW30364   3.551   6.283   5.272
 9822SOL    HW130365   3.627   6.286   5.208
 9822SOL    HW230366   3.502   6.196   5.263
 9823SOL     OW30367   1.722   0.397   3.258
 9823SOL    HW130368   1.668   0.315   3.274
 9823SOL    HW230369   1.777   0.417   3.339
 9824SOL     OW30370   0.999   6.237   5.255
 9824SOL    HW130371   1.014   6.336   5.251
 9824SOL    HW230372   1.083   6.190   5.229
 9825SOL     OW30373   5.348   5.898   6.157
 9825SOL    HW130374   5.322   5.952   6.237
 9825SOL    HW230375   5.269   5.848   6.123
 9826SOL     OW30376   2.594   6.612   5.670
 9826SOL    HW130377   2.518   6.628   5.607
 9826SOL    HW230378   2.643   6.529   5.644
 9827SOL     OW30379   1.879   5.729   1.984
 9827SOL    HW130380   1.884   5.749   1.886
 9827SOL    HW230381   1.842   5.637   1.997
 9828SOL     OW30382   3.582   2.095   4.956
 9828SOL    HW130383   3.532   2.011   4.977
 9828SOL    HW230384   3.520   2.173   4.962
 9829SOL     OW30385   4.806   5.241   5.292
 9829SOL    HW130386   4.818   5.179   5.370
 9829SOL    HW230387   4.721   5.293   5.304
 9830SOL     OW30388   5.800   1.972   2.678
 9830SOL    HW130389   5.866   1.975   2.603
 9830SOL    HW230390   5.827   1.902   2.744
 9831SOL     OW30391   0.509   4.048   1.874
 9831SOL    HW130392   0.511   3.999   1.962
 9831SOL    HW230393   0.417   4.044   1.836
 9832SOL     OW30394   4.503   4.505   4.694
 9832SOL    HW130395   4.419   4.557   4.709
 9832SOL    HW230396   4.532   4.516   4.599
 9833SOL     OW30397   3.449   4.136   4.294
 9833SOL    HW130398   3.376   4.164   4.356
 9833SOL    HW230399   3.421   4.156   4.200
 9834SOL     OW30400   2.339   5.629   5.250
 9834SOL    HW130401   2.323   5.618   5.348
 9834SOL    HW230402   2.252   5.625   5.201
 9835SOL     OW30403   3.631   3.933   4.384
 9835SOL    HW130404   3.613   3.849   4.332
 9835SOL    HW230405   3.561   4.001   4.363
 9836SOL     OW30406   0.219   3.448   5.122
 9836SOL    HW130407   0.284   3.489   5.186
 9836SOL    HW230408   0.258   3.447   5.030
 9837SOL     OW30409   5.421   2.216   2.338
 9837SOL    HW130410   5.407   2.315   2.328
 9837SOL    HW230411   5.421   2.192   2.435
 9838SOL     OW30412   0.862   0.089   1.767
 9838SOL    HW130413   0.856   0.182   1.804
 9838SOL    HW230414   0.884   0.025   1.841
 9839SOL     OW30415   4.318   0.748   2.585
 9839SOL    HW130416   4.325   0.649   2.583
 9839SOL    HW230417   4.325   0.781   2.680
 9840SOL     OW30418   6.443   0.711   0.290
 9840SOL    HW130419   6.406   0.660   0.212
 9840SOL    HW230420   6.490   0.793   0.257
 9841SOL     OW30421   0.385   6.377   4.050
 9841SOL    HW130422   0.460   6.351   4.111
 9841SOL    HW230423   0.419   6.383   3.956
 9842SOL     OW30424   2.783   2.152   6.342
 9842SOL    HW130425   2.691   2.169   6.378
 9842SOL    HW230426   2.843   2.227   6.367
 9843SOL     OW30427   0.649   6.889   1.359
 9843SOL    HW130428   0.596   6.969   1.330
 9843SOL    HW230429   0.686   6.905   1.450
 9844SOL     OW30430   4.901   0.378   3.912
 9844SOL    HW130431   4.874   0.473   3.925
 9844SOL    HW230432   4.964   0.371   3.835
 9845SOL     OW30433   1.661   3.440   1.497
 9845SOL    HW130434   1.705   3.508   1.557
 9845SOL    HW230435   1.562   3.447   1.506
 9846SOL     OW30436   5.288   2.082   1.027
 9846SOL    HW130437   5.247   2.042   0.945
 9846SOL    HW230438   5.221   2.084   1.100
 9847SOL     OW30439   4.235   3.979   0.728
 9847SOL    HW130440   4.200   4.039   0.657
 9847SOL    HW230441   4.252   3.888   0.690
 9848SOL     OW30442   3.542   3.917   5.283
 9848SOL    HW130443   3.568   3.843   5.221
 9848SOL    HW230444   3.508   3.994   5.229
 9849SOL     OW30445   0.869   1.673   4.606
 9849SOL    HW130446   0.888   1.770   4.622
 9849SOL    HW230447   0.781   1.665   4.559
 9850SOL     OW30448   0.634   0.446   4.773
 9850SOL    HW130449   0.711   0.488   4.724
 9850SOL    HW230450   0.549   0.490   4.746
 9851SOL     OW30451   3.948   4.958   4.435
 9851SOL    HW130452   4.016   4.902   4.483
 9851SOL    HW230453   3.882   4.899   4.389
 9852SOL     OW30454   2.033   1.332   0.323
 9852SOL    HW130455   2.104   1.275   0.364
 9852SOL    HW230456   2.061   1.428   0.323
 9853SOL     OW30457   6.574   4.287   3.834
 9853SOL    HW130458   6.594   4.191   3.851
 9853SOL    HW230459   6.494   4.314   3.889
 9854SOL     OW30460   1.080   5.189   6.182
 9854SOL    HW130461   1.046   5.099   6.154
 9854SOL    HW230462   1.094   5.191   6.281
 9855SOL     OW30463   1.590   4.484   1.564
 9855SOL    HW130464   1.687   4.504   1.550
 9855SOL    HW230465   1.538   4.569   1.566
 9856SOL     OW30466   5.602   4.269   3.278
 9856SOL    HW130467   5.573   4.292   3.185
 9856SOL    HW230468   5.623   4.353   3.328
 9857SOL     OW30469   3.725   1.055   4.542
 9857SOL    HW130470   3.818   1.073   4.574
 9857SOL    HW230471   3.660   1.105   4.599
 9858SOL     OW30472   6.553   6.467   2.308
 9858SOL    HW130473   6.462   6.466   2.350
 9858SOL    HW230474   6.573   6.560   2.276
 9859SOL     OW30475   6.391   6.081   3.285
 9859SOL    HW130476   6.426   6.170   3.256
 9859SOL    HW230477   6.342   6.038   3.210
 9860SOL     OW30478   1.194   3.283   4.432
 9860SOL    HW130479   1.201   3.331   4.520
 9860SOL    HW230480   1.185   3.350   4.359
 9861SOL     OW30481   3.269   1.415   4.429
 9861SOL    HW130482   3.360   1.449   4.408
 9861SOL    HW230483   3.204   1.491   4.426
 9862SOL     OW30484   1.137   5.263   0.645
 9862SOL    HW130485   1.169   5.355   0.624
 9862SOL    HW230486   1.040   5.255   0.620
 9863SOL     OW30487   3.829   6.194   0.562
 9863SOL    HW130488   3.759   6.125   0.583
 9863SOL    HW230489   3.904   6.186   0.628
 9864SOL     OW30490   2.748   5.746   5.350
 9864SOL    HW130491   2.793   5.824   5.305
 9864SOL    HW230492   2.683   5.705   5.287
 9865SOL     OW30493   0.483   6.211   5.123
 9865SOL    HW130494   0.527   6.122   5.134
 9865SOL    HW230495   0.552   6.281   5.108
 9866SOL     OW30496   6.137   5.231   4.271
 9866SOL    HW130497   6.217   5.182   4.236
 9866SOL    HW230498   6.065   5.231   4.202
 9867SOL     OW30499   4.595   2.094   2.010
 9867SOL    HW130500   4.642   2.051   2.087
 9867SOL    HW230501   4.651   2.169   1.975
 9868SOL     OW30502   1.883   4.004   3.516
 9868SOL    HW130503   1.930   4.020   3.603
 9868SOL    HW230504   1.948   4.009   3.440
 9869SOL     OW30505   6.861   2.477   0.768
 9869SOL    HW130506   6.903   2.523   0.690
 9869SOL    HW230507   6.767   2.451   0.745
 9870SOL     OW30508   3.185   1.323   2.621
 9870SOL    HW130509   3.114   1.335   2.690
 9870SOL    HW230510   3.267   1.375   2.647
 9871SOL     OW30511   0.228   4.492   4.583
 9871SOL    HW130512   0.146   4.436   4.578
 9871SOL    HW230513   0.297   4.446   4.640
 9872SOL     OW30514   1.709   4.923   5.625
 9872SOL    HW130515   1.688   4.831   5.657
 9872SOL    HW230516   1.772   4.967   5.690
 9873SOL     OW30517   1.291   1.405   6.119
 9873SOL    HW130518   1.357   1.471   6.084
 9873SOL    HW230519   1.270   1.338   6.047
 9874SOL     OW30520   1.012   2.738   4.683
 9874SOL    HW130521   1.026   2.688   4.598
 9874SOL    HW230522   1.080   2.811   4.691
 9875SOL     OW30523   6.495   5.144   0.615
 9875SOL    HW130524   6.451   5.163   0.703
 9875SOL    HW230525   6.529   5.229   0.575
 9876SOL     OW30526   1.381   6.664   3.514
 9876SOL    HW130527   1.315   6.739   3.522
 9876SOL    HW230528   1.346   6.584   3.563
 9877SOL     OW30529   0.666   5.586   5.117
 9877SOL    HW130530   0.722   5.503   5.116
 9877SOL    HW230531   0.715   5.659   5.069
 9878SOL     OW30532   2.385   2.692   0.069
 9878SOL    HW130533   2.370   2.650   7.002
 9878SOL    HW230534   2.302   2.684   0.124
 9879SOL     OW30535   0.061   5.103   6.301
 9879SOL    HW130536   6.984   5.110   6.294
 9879SOL    HW230537   0.103   5.173   6.244
 9880SOL     OW30538   2.477   1.310   0.407
 9880SOL    HW130539   2.537   1.326   0.328
 9880SOL    HW230540   2.528   1.263   0.479
 9881SOL     OW30541   5.752   0.456   4.144
 9881SOL    HW130542   5.793   0.514   4.073
 9881SOL    HW230543   5.685   0.395   4.102
 9882SOL     OW30544   3.284   2.986   4.905
 9882SOL    HW130545   3.252   2.979   5.000
 9882SOL    HW230546   3.383   2.997   4.904
 9883SOL     OW30547   2.091   6.693   2.059
 9883SOL    HW130548   2.078   6.651   1.969
 9883SOL    HW230549   2.141   6.630   2.119
 9884SOL     OW30550   2.535   3.712   5.546
 9884SOL    HW130551   2.633   3.727   5.531
 9884SOL    HW230552   2.521   3.660   5.630
 9885SOL     OW30553   5.727   3.071   4.319
 9885SOL    HW130554   5.776   3.045   4.236
 9885SOL    HW230555   5.762   3.018   4.396
 9886SOL     OW30556   4.349   5.973   1.245
 9886SOL    HW130557   4.427   6.026   1.279
 9886SOL    HW230558   4.360   5.957   1.147
 9887SOL     OW30559   3.359   0.096   6.886
 9887SOL    HW130560   3.453   0.128   6.870
 9887SOL    HW230561   3.361   0.004   6.924
 9888SOL     OW30562   6.100   5.462   2.537
 9888SOL    HW130563   6.028   5.423   2.479
 9888SOL    HW230564   6.062   5.538   2.589
 9889SOL     OW30565   6.981   5.451   3.385
 9889SOL    HW130566   6.964   5.497   3.297
 9889SOL    HW230567   0.037   5.390   3.375
 9890SOL     OW30568   6.885   3.952   1.908
 9890SOL    HW130569   6.941   3.985   1.984
 9890SOL    HW230570   6.904   4.007   1.827
 9891SOL     OW30571   5.909   4.696   1.164
 9891SOL    HW130572   5.997   4.720   1.205
 9891SOL    HW230573   5.866   4.623   1.217
 9892SOL     OW30574   2.202   4.693   4.072
 9892SOL    HW130575   2.158   4.619   4.021
 9892SOL    HW230576   2.133   4.742   4.126
 9893SOL     OW30577   4.965   5.390   3.447
 9893SOL    HW130578   4.920   5.420   3.532
 9893SOL    HW230579   4.908   5.415   3.369
 9894SOL     OW30580   4.454   3.229   5.874
 9894SOL    HW130581   4.441   3.138   5.914
 9894SOL    HW230582   4.496   3.289   5.943
 9895SOL     OW30583   5.378   2.228   6.600
 9895SOL    HW130584   5.398   2.145   6.548
 9895SOL    HW230585   5.443   2.300   6.575
 9896SOL     OW30586   4.497   3.937   0.851
 9896SOL    HW130587   4.497   3.891   0.940
 9896SOL    HW230588   4.403   3.950   0.820
 9897SOL     OW30589   6.191   2.136   3.767
 9897SOL    HW130590   6.280   2.144   3.721
 9897SOL    HW230591   6.183   2.208   3.836
 9898SOL     OW30592   1.363   4.721   5.716
 9898SOL    HW130593   1.269   4.727   5.684
 9898SOL    HW230594   1.384   4.801   5.773
 9899SOL     OW30595   5.303   5.305   1.633
 9899SOL    HW130596   5.250   5.373   1.582
 9899SOL    HW230597   5.324   5.340   1.724
 9900SOL     OW30598   1.467   3.030   3.726
 9900SOL    HW130599   1.500   3.041   3.633
 9900SOL    HW230600   1.540   3.056   3.790
 9901SOL     OW30601   3.065   2.458   5.357
 9901SOL    HW130602   3.134   2.421   5.296
 9901SOL    HW230603   3.000   2.386   5.382
 9902SOL     OW30604   4.369   3.627   6.958
 9902SOL    HW130605   4.423   3.616   0.019
 9902SOL    HW230606   4.338   3.537   6.927
 9903SOL     OW30607   4.020   1.814   2.089
 9903SOL    HW130608   3.938   1.758   2.090
 9903SOL    HW230609   3.997   1.907   2.063
 9904SOL     OW30610   6.454   1.152   1.266
 9904SOL    HW130611   6.441   1.058   1.233
 9904SOL    HW230612   6.542   1.159   1.313
 9905SOL     OW30613   1.367   6.884   5.013
 9905SOL    HW130614   1.461   6.893   4.979
 9905SOL    HW230615   1.343   6.966   5.065
 9906SOL     OW30616   2.718   2.828   6.321
 9906SOL    HW130617   2.804   2.866   6.286
 9906SOL    HW230618   2.641   2.874   6.276
 9907SOL     OW30619   2.391   6.123   2.647
 9907SOL    HW130620   2.363   6.219   2.657
 9907SOL    HW230621   2.483   6.120   2.608
 9908SOL     OW30622   1.251   3.258   5.653
 9908SOL    HW130623   1.240   3.289   5.558
 9908SOL    HW230624   1.170   3.284   5.706
 9909SOL     OW30625   3.773   0.149   2.573
 9909SOL    HW130626   3.703   0.079   2.557
 9909SOL    HW230627   3.858   0.105   2.603
 9910SOL     OW30628   0.136   3.916   1.251
 9910SOL    HW130629   0.065   3.867   1.300
 9910SOL    HW230630   0.095   3.969   1.176
 9911SOL     OW30631   3.394   4.913   3.287
 9911SOL    HW130632   3.338   4.875   3.361
 9911SOL    HW230633   3.396   5.012   3.295
 9912SOL     OW30634   5.030   0.303   1.566
 9912SOL    HW130635   5.125   0.275   1.559
 9912SOL    HW230636   5.023   0.402   1.548
 9913SOL     OW30637   4.969   1.961   3.145
 9913SOL    HW130638   5.016   2.034   3.095
 9913SOL    HW230639   4.883   1.996   3.182
 9914SOL     OW30640   1.612   6.926   4.881
 9914SOL    HW130641   1.622   6.904   4.784
 9914SOL    HW230642   1.640   7.021   4.896
 9915SOL     OW30643   5.267   3.499   4.475
 9915SOL    HW130644   5.249   3.547   4.390
 9915SOL    HW230645   5.190   3.439   4.497
 9916SOL     OW30646   2.020   3.010   1.996
 9916SOL    HW130647   2.041   2.914   1.974
 9916SOL    HW230648   2.084   3.070   1.949
 9917SOL     OW30649   2.499   3.341   5.867
 9917SOL    HW130650   2.549   3.255   5.871
 9917SOL    HW230651   2.486   3.368   5.771
 9918SOL     OW30652   1.923   1.215   5.939
 9918SOL    HW130653   2.008   1.256   5.972
 9918SOL    HW230654   1.894   1.143   6.003
 9919SOL     OW30655   0.547   5.546   2.980
 9919SOL    HW130656   0.535   5.632   3.030
 9919SOL    HW230657   0.460   5.518   2.939
 9920SOL     OW30658   4.314   6.931   1.317
 9920SOL    HW130659   4.302   0.004   1.346
 9920SOL    HW230660   4.284   6.870   1.391
 9921SOL     OW30661   5.513   0.467   3.327
 9921SOL    HW130662   5.510   0.556   3.282
 9921SOL    HW230663   5.606   0.450   3.359
 9922SOL     OW30664   4.346   4.223   0.881
 9922SOL    HW130665   4.280   4.151   0.902
 9922SOL    HW230666   4.421   4.220   0.947
 9923SOL     OW30667   6.358   2.127   6.432
 9923SOL    HW130668   6.273   2.111   6.483
 9923SOL    HW230669   6.370   2.055   6.363
 9924SOL     OW30670   6.614   0.942   3.349
 9924SOL    HW130671   6.541   0.927   3.283
 9924SOL    HW230672   6.579   0.930   3.442
 9925SOL     OW30673   2.404   2.672   5.134
 9925SOL    HW130674   2.343   2.631   5.066
 9925SOL    HW230675   2.398   2.772   5.128
 9926SOL     OW30676   1.373   0.965   0.271
 9926SOL    HW130677   1.403   0.870   0.273
 9926SOL    HW230678   1.410   1.014   0.350
 9927SOL     OW30679   0.478   2.066   2.429
 9927SOL    HW130680   0.552   2.032   2.371
 9927SOL    HW230681   0.516   2.095   2.518
 9928SOL     OW30682   0.276   3.735   2.677
 9928SOL    HW130683   0.272   3.795   2.597
 9928SOL    HW230684   0.261   3.790   2.760
 9929SOL     OW30685   2.651   3.888   0.132
 9929SOL    HW130686   2.627   3.975   0.175
 9929SOL    HW230687   2.745   3.892   0.099
 9930SOL     OW30688   0.427   6.296   6.306
 9930SOL    HW130689   0.475   6.245   6.377
 9930SOL    HW230690   0.407   6.389   6.339
 9931SOL     OW30691   1.714   5.671   5.454
 9931SOL    HW130692   1.637   5.640   5.399
 9931SOL    HW230693   1.765   5.592   5.488
 9932SOL     OW30694   1.398   1.688   0.408
 9932SOL    HW130695   1.442   1.599   0.421
 9932SOL    HW230696   1.451   1.759   0.455
 9933SOL     OW30697   1.210   2.185   3.921
 9933SOL    HW130698   1.124   2.234   3.908
 9933SOL    HW230699   1.253   2.168   3.832
 9934SOL     OW30700   4.007   1.039   5.792
 9934SOL    HW130701   3.940   1.083   5.733
 9934SOL    HW230702   4.024   1.098   5.872
 9935SOL     OW30703   2.930   1.848   1.129
 9935SOL    HW130704   2.974   1.818   1.214
 9935SOL    HW230705   2.895   1.941   1.141
 9936SOL     OW30706   6.009   6.091   6.532
 9936SOL    HW130707   5.976   6.138   6.614
 9936SOL    HW230708   5.965   6.130   6.451
 9937SOL     OW30709   0.453   0.419   3.492
 9937SOL    HW130710   0.529   0.401   3.430
 9937SOL    HW230711   0.422   0.333   3.533
 9938SOL     OW30712   6.251   1.381   4.347
 9938SOL    HW130713   6.239   1.473   4.385
 9938SOL    HW230714   6.263   1.315   4.421
 9939SOL     OW30715   2.871   4.583   1.161
 9939SOL    HW130716   2.784   4.540   1.136
 9939SOL    HW230717   2.853   4.665   1.214
 9940SOL     OW30718   6.996   0.899   3.696
 9940SOL    HW130719   6.937   0.976   3.671
 9940SOL    HW230720   7.004   0.894   3.795
 9941SOL     OW30721   5.137   4.382   6.209
 9941SOL    HW130722   5.080   4.309   6.244
 9941SOL    HW230723   5.104   4.470   6.242
 9942SOL     OW30724   4.577   5.340   3.125
 9942SOL    HW130725   4.568   5.406   3.050
 9942SOL    HW230726   4.671   5.340   3.158
 9943SOL     OW30727   2.506   3.990   6.874
 9943SOL    HW130728   2.598   3.954   6.888
 9943SOL    HW230729   2.488   4.000   6.776
 9944SOL     OW30730   1.185   5.406   6.654
 9944SOL    HW130731   1.276   5.442   6.637
 9944SOL    HW230732   1.159   5.423   6.749
 9945SOL     OW30733   5.871   3.546   6.436
 9945SOL    HW130734   5.931   3.571   6.360
 9945SOL    HW230735   5.909   3.583   6.521
 9946SOL     OW30736   5.504   1.554   2.238
 9946SOL    HW130737   5.425   1.492   2.239
 9946SOL    HW230738   5.511   1.601   2.326
 9947SOL     OW30739   1.264   1.875   3.455
 9947SOL    HW130740   1.173   1.857   3.418
 9947SOL    HW230741   1.293   1.796   3.510
 9948SOL     OW30742   6.518   6.975   4.434
 9948SOL    HW130743   6.505   6.905   4.505
 9948SOL    HW230744   6.451   0.025   4.445
 9949SOL     OW30745   5.623   4.969   3.925
 9949SOL    HW130746   5.718   4.994   3.909
 9949SOL    HW230747   5.569   5.052   3.940
 9950SOL     OW30748   6.554   4.341   5.378
 9950SOL    HW130749   6.543   4.326   5.476
 9950SOL    HW230750   6.640   4.389   5.361
 9951SOL     OW30751   0.692   2.389   2.757
 9951SOL    HW130752   0.633   2.436   2.822
 9951SOL    HW230753   0.658   2.404   2.664
 9952SOL     OW30754   0.389   4.808   2.186
 9952SOL    HW130755   0.343   4.881   2.235
 9952SOL    HW230756   0.330   4.727   2.182
 9953SOL     OW30757   6.094   2.397   3.540
 9953SOL    HW130758   6.028   2.471   3.553
 9953SOL    HW230759   6.060   2.313   3.583
 9954SOL     OW30760   3.542   1.703   5.776
 9954SOL    HW130761   3.570   1.652   5.695
 9954SOL    HW230762   3.588   1.792   5.777
 9955SOL     OW30763   6.256   3.763   0.746
 9955SOL    HW130764   6.210   3.684   0.705
 9955SOL    HW230765   6.191   3.838   0.755
 9956SOL     OW30766   2.105   3.742   3.078
 9956SOL    HW130767   2.038   3.804   3.037
 9956SOL    HW230768   2.090   3.649   3.044
 9957SOL     OW30769   4.864   0.042   0.777
 9957SOL    HW130770   4.789   0.101   0.746
 9957SOL    HW230771   4.904   0.081   0.860
 9958SOL     OW30772   5.193   4.981   6.869
 9958SOL    HW130773   5.158   5.061   6.917
 9958SOL    HW230774   5.184   4.900   6.928
 9959SOL     OW30775   4.483   4.332   0.470
 9959SOL    HW130776   4.445   4.391   0.398
 9959SOL    HW230777   4.430   4.247   0.473
 9960SOL     OW30778   0.718   1.096   6.612
 9960SOL    HW130779   0.664   1.145   6.681
 9960SOL    HW230780   0.661   1.081   6.531
 9961SOL     OW30781   2.937   5.050   1.474
 9961SOL    HW130782   2.931   4.953   1.496
 9961SOL    HW230783   3.033   5.077   1.467
 9962SOL     OW30784   3.476   0.013   1.055
 9962SOL    HW130785   3.489   6.951   1.108
 9962SOL    HW230786   3.564   0.040   1.015
 9963SOL     OW30787   0.631   1.386   6.285
 9963SOL    HW130788   0.714   1.379   6.341
 9963SOL    HW230789   0.627   1.477   6.244
 9964SOL     OW30790   4.666   4.059   5.783
 9964SOL    HW130791   4.635   3.969   5.813
 9964SOL    HW230792   4.743   4.049   5.721
 9965SOL     OW30793   2.924   5.743   4.837
 9965SOL    HW130794   2.879   5.758   4.749
 9965SOL    HW230795   2.982   5.661   4.831
 9966SOL     OW30796   4.001   4.828   2.621
 9966SOL    HW130797   3.948   4.793   2.545
 9966SOL    HW230798   4.023   4.925   2.606
 9967SOL     OW30799   0.229   0.183   2.996
 9967SOL    HW130800   0.264   0.256   2.938
 9967SOL    HW230801   0.300   0.114   3.010
 9968SOL     OW30802   3.520   6.789   0.428
 9968SOL    HW130803   3.513   6.851   0.350
 9968SOL    HW230804   3.499   6.696   0.399
 9969SOL     OW30805   1.570   5.088   3.780
 9969SOL    HW130806   1.517   5.119   3.859
 9969SOL    HW230807   1.662   5.063   3.809
 9970SOL     OW30808   6.289   3.797   1.660
 9970SOL    HW130809   6.331   3.751   1.582
 9970SOL    HW230810   6.328   3.888   1.671
 9971SOL     OW30811   0.590   4.391   2.457
 9971SOL    HW130812   0.593   4.475   2.404
 9971SOL    HW230813   0.562   4.315   2.399
 9972SOL     OW30814   2.911   3.031   7.004
 9972SOL    HW130815   2.947   3.017   0.074
 9972SOL    HW230816   2.882   3.126   6.993
 9973SOL     OW30817   3.411   2.115   3.722
 9973SOL    HW130818   3.326   2.133   3.672
 9973SOL    HW230819   3.396   2.125   3.820
 9974SOL     OW30820   0.764   3.026   3.174
 9974SOL    HW130821   0.695   3.097   3.190
 9974SOL    HW230822   0.847   3.048   3.226
 9975SOL     OW30823   1.704   5.184   0.091
 9975SOL    HW130824   1.620   5.209   0.043
 9975SOL    HW230825   1.709   5.084   0.097
 9976SOL     OW30826   2.922   3.896   6.663
 9976SOL    HW130827   2.945   3.988   6.695
 9976SOL    HW230828   2.911   3.898   6.563
 9977SOL     OW30829   5.320   5.989   5.762
 9977SOL    HW130830   5.384   5.927   5.806
 9977SOL    HW230831   5.324   5.978   5.663
 9978SOL     OW30832   0.510   3.131   6.443
 9978SOL    HW130833   0.457   3.057   6.484
 9978SOL    HW230834   0.606   3.106   6.440
 9979SOL     OW30835   4.373   3.196   5.336
 9979SOL    HW130836   4.348   3.109   5.379
 9979SOL    HW230837   4.471   3.197   5.318
 9980SOL     OW30838   2.258   0.822   0.618
 9980SOL    HW130839   2.193   0.825   0.543
 9980SOL    HW230840   2.208   0.818   0.705
 9981SOL     OW30841   0.602   2.547   1.960
 9981SOL    HW130842   0.575   2.513   1.869
 9981SOL    HW230843   0.657   2.630   1.949
 9982SOL     OW30844   2.185   2.142   5.303
 9982SOL    HW130845   2.285   2.138   5.314
 9982SOL    HW230846   2.163   2.196   5.221
 9983SOL     OW30847   0.740   2.840   1.706
 9983SOL    HW130848   0.770   2.752   1.670
 9983SOL    HW230849   0.751   2.841   1.806
 9984SOL     OW30850   6.909   6.005   0.692
 9984SOL    HW130851   6.925   6.099   0.660
 9984SOL    HW230852   6.822   6.001   0.742
 9985SOL     OW30853   4.180   5.244   0.575
 9985SOL    HW130854   4.131   5.322   0.537
 9985SOL    HW230855   4.115   5.182   0.619
 9986SOL     OW30856   5.235   4.523   0.448
 9986SOL    HW130857   5.163   4.508   0.380
 9986SOL    HW230858   5.279   4.437   0.470
 9987SOL     OW30859   5.397   2.776   2.081
 9987SOL    HW130860   5.367   2.867   2.053
 9987SOL    HW230861   5.321   2.712   2.076
 9988SOL     OW30862   5.393   6.513   4.500
 9988SOL    HW130863   5.322   6.443   4.504
 9988SOL    HW230864   5.430   6.529   4.592
 9989SOL     OW30865   6.369   5.006   1.995
 9989SOL    HW130866   6.344   5.051   1.909
 9989SOL    HW230867   6.379   4.908   1.980
 9990SOL     OW30868   0.163   0.272   3.720
 9990SOL    HW130869   0.074   0.235   3.695
 9990SOL    HW230870   0.233   0.231   3.661
 9991SOL     OW30871   1.437   4.295   4.163
 9991SOL    HW130872   1.373   4.338   4.100
 9991SOL    HW230873   1.531   4.310   4.132
 9992SOL     OW30874   3.412   4.871   1.069
 9992SOL    HW130875   3.350   4.843   0.995
 9992SOL    HW230876   3.362   4.871   1.156
 9993SOL     OW30877   3.978   6.941   4.539
 9993SOL    HW130878   4.062   6.995   4.530
 9993SOL    HW230879   3.999   6.852   4.577
 9994SOL     OW30880   6.485   5.046   4.397
 9994SOL    HW130881   6.577   5.006   4.399
 9994SOL    HW230882   6.438   5.025   4.482
 9995SOL     OW30883   2.853   0.617   5.344
 9995SOL    HW130884   2.898   0.550   5.285
 9995SOL    HW230885   2.829   0.698   5.290
 9996SOL     OW30886   2.092   4.036   0.598
 9996SOL    HW130887   2.136   4.064   0.684
 9996SOL    HW230888   2.150   4.060   0.521
 9997SOL     OW30889   6.271   3.288   4.238
 9997SOL    HW130890   6.191   3.265   4.183
 9997SOL    HW230891   6.283   3.388   4.239
 9998SOL     OW30892   5.078   4.049   2.497
 9998SOL    HW130893   5.072   4.037   2.398
 9998SOL    HW230894   5.029   4.132   2.524
 9999SOL     OW30895   0.843   6.296   4.448
 9999SOL    HW130896   0.814   6.384   4.411
 9999SOL    HW230897   0.856   6.232   4.372
10000SOL     OW30898   5.325   1.911   1.923
10000SOL    HW130899   5.241   1.900   1.977
10000SOL    HW230900   5.317   1.993   1.865
10001SOL     OW30901   3.792   5.952   2.476
10001SOL    HW130902   3.821   5.934   2.382
10001SOL    HW230903   3.872   5.982   2.529
10002SOL     OW30904   2.946   0.942   1.896
10002SOL    HW130905   3.011   0.985   1.959
10002SOL    HW230906   2.901   1.014   1.842
10003SOL     OW30907   1.192   0.941   3.445
10003SOL    HW130908   1.189   1.002   3.524
10003SOL    HW230909   1.139   0.982   3.370
10004SOL     OW30910   6.548   4.864   4.967
10004SOL    HW130911   6.647   4.875   4.958
10004SOL    HW230912   6.509   4.838   4.878
10005SOL     OW30913   1.911   5.747   3.259
10005SOL    HW130914   1.860   5.826   3.225
10005SOL    HW230915   1.980   5.721   3.192
10006SOL     OW30916   5.329   0.510   5.753
10006SOL    HW130917   5.392   0.435   5.735
10006SOL    HW230918   5.254   0.508   5.688
10007SOL     OW30919   1.670   5.343   4.857
10007SOL    HW130920   1.706   5.344   4.950
10007SOL    HW230921   1.584   5.291   4.855
10008SOL     OW30922   4.057   1.902   5.850
10008SOL    HW130923   4.091   1.981   5.903
10008SOL    HW230924   4.035   1.827   5.913
10009SOL     OW30925   1.031   4.386   1.687
10009SOL    HW130926   0.988   4.394   1.597
10009SOL    HW230927   1.130   4.381   1.677
10010SOL     OW30928   2.284   4.796   6.841
10010SOL    HW130929   2.316   4.703   6.826
10010SOL    HW230930   2.194   4.808   6.797
10011SOL     OW30931   1.412   3.462   0.359
10011SOL    HW130932   1.402   3.470   0.458
10011SOL    HW230933   1.413   3.365   0.334
10012SOL     OW30934   4.866   1.352   1.798
10012SOL    HW130935   4.782   1.303   1.822
10012SOL    HW230936   4.920   1.297   1.734
10013SOL     OW30937   1.117   6.040   4.549
10013SOL    HW130938   1.068   5.963   4.507
10013SOL    HW230939   1.125   6.024   4.648
10014SOL     OW30940   0.877   6.627   3.011
10014SOL    HW130941   0.863   6.686   3.091
10014SOL    HW230942   0.933   6.549   3.037
10015SOL     OW30943   3.974   4.495   5.654
10015SOL    HW130944   3.908   4.537   5.591
10015SOL    HW230945   4.039   4.440   5.601
10016SOL     OW30946   2.491   6.800   3.382
10016SOL    HW130947   2.473   6.730   3.451
10016SOL    HW230948   2.435   6.881   3.401
10017SOL     OW30949   2.830   1.648   3.055
10017SOL    HW130950   2.879   1.729   3.088
10017SOL    HW230951   2.771   1.674   2.979
10018SOL     OW30952   6.360   3.271   6.068
10018SOL    HW130953   6.429   3.271   6.141
10018SOL    HW230954   6.320   3.180   6.060
10019SOL     OW30955   0.617   1.659   2.602
10019SOL    HW130956   0.712   1.691   2.601
10019SOL    HW230957   0.596   1.618   2.513
10020SOL     OW30958   6.660   0.410   1.940
10020SOL    HW130959   6.577   0.464   1.936
10020SOL    HW230960   6.638   0.312   1.933
10021SOL     OW30961   1.337   4.202   1.808
10021SOL    HW130962   1.410   4.136   1.789
10021SOL    HW230963   1.318   4.203   1.906
10022SOL     OW30964   3.055   6.185   0.289
10022SOL    HW130965   3.067   6.086   0.298
10022SOL    HW230966   2.974   6.213   0.339
10023SOL     OW30967   2.350   0.178   5.898
10023SOL    HW130968   2.432   0.190   5.954
10023SOL    HW230969   2.270   0.176   5.957
10024SOL     OW30970   1.803   4.500   3.201
10024SOL    HW130971   1.753   4.476   3.118
10024SOL    HW230972   1.858   4.582   3.184
10025SOL     OW30973   1.437   4.281   1.450
10025SOL    HW130974   1.498   4.355   1.479
10025SOL    HW230975   1.378   4.314   1.376
10026SOL     OW30976   4.958   1.450   3.268
10026SOL    HW130977   5.012   1.534   3.273
10026SOL    HW230978   4.883   1.462   3.203
10027SOL     OW30979   1.787   1.806   5.499
10027SOL    HW130980   1.811   1.900   5.477
10027SOL    HW230981   1.771   1.797   5.597
10028SOL     OW30982   4.113   0.581   1.588
10028SOL    HW130983   4.159   0.544   1.507
10028SOL    HW230984   4.160   0.664   1.618
10029SOL     OW30985   0.390   3.441   4.646
10029SOL    HW130986   0.293   3.455   4.623
10029SOL    HW230987   0.436   3.529   4.652
10030SOL     OW30988   2.503   6.802   4.746
10030SOL    HW130989   2.477   6.864   4.821
10030SOL    HW230990   2.420   6.762   4.707
10031SOL     OW30991   3.956   5.310   4.155
10031SOL    HW130992   3.858   5.292   4.166
10031SOL    HW230993   3.975   5.404   4.180
10032SOL     OW30994   3.165   5.988   5.111
10032SOL    HW130995   3.223   5.968   5.190
10032SOL    HW230996   3.203   5.944   5.030
10033SOL     OW30997   4.164   1.528   3.186
10033SOL    HW130998   4.081   1.487   3.148
10033SOL    HW230999   4.185   1.484   3.274
10034SOL     OW31000   2.253   0.525   3.191
10034SOL    HW131001   2.165   0.484   3.214
10034SOL    HW231002   2.290   0.481   3.109
10035SOL     OW31003   6.267   3.256   1.204
10035SOL    HW131004   6.184   3.286   1.156
10035SOL    HW231005   6.266   3.156   1.212
10036SOL     OW31006   6.224   0.637   6.756
10036SOL    HW131007   6.317   0.602   6.745
10036SOL    HW231008   6.228   0.731   6.792
10037SOL     OW31009   6.370   0.000   6.841
10037SOL    HW131010   6.361   6.940   6.896
10037SOL    HW231011   6.430   0.065   6.889
10038SOL     OW31012   4.433   0.209   0.019
10038SOL    HW131013   4.429   0.114   0.052
10038SOL    HW231014   4.515   0.253   0.057
10039SOL     OW31015   5.393   5.377   4.152
10039SOL    HW131016   5.301   5.365   4.190
10039SOL    HW231017   5.407   5.473   4.129
10040SOL     OW31018   3.841   0.253   0.401
10040SOL    HW131019   3.754   0.296   0.379
10040SOL    HW231020   3.904   0.322   0.438
10041SOL     OW31021   6.380   4.656   5.628
10041SOL    HW131022   6.357   4.659   5.531
10041SOL    HW231023   6.479   4.664   5.638
10042SOL     OW31024   0.891   1.041   5.325
10042SOL    HW131025   0.814   1.023   5.264
10042SOL    HW231026   0.964   1.085   5.272
10043SOL     OW31027   1.358   0.741   3.386
10043SOL    HW131028   1.332   0.677   3.313
10043SOL    HW231029   1.298   0.821   3.383
10044SOL     OW31030   2.229   1.055   5.063
10044SOL    HW131031   2.151   1.117   5.055
10044SOL    HW231032   2.218   0.979   4.998
10045SOL     OW31033   4.371   6.547   4.426
10045SOL    HW131034   4.419   6.633   4.409
10045SOL    HW231035   4.421   6.471   4.383
10046SOL     OW31036   0.122   2.513   1.759
10046SOL    HW131037   0.102   2.460   1.842
10046SOL    HW231038   0.191   2.582   1.779
10047SOL     OW31039   6.371   1.878   4.748
10047SOL    HW131040   6.369   1.957   4.808
10047SOL    HW231041   6.348   1.796   4.800
10048SOL     OW31042   3.628   1.571   1.742
10048SOL    HW131043   3.544   1.528   1.708
10048SOL    HW231044   3.639   1.550   1.839
10049SOL     OW31045   2.000   1.052   6.731
10049SOL    HW131046   2.086   1.100   6.746
10049SOL    HW231047   2.011   0.956   6.759
10050SOL     OW31048   5.100   2.922   4.672
10050SOL    HW131049   5.115   2.934   4.574
10050SOL    HW231050   5.169   2.973   4.723
10051SOL     OW31051   6.891   2.605   4.495
10051SOL    HW131052   6.915   2.642   4.405
10051SOL    HW231053   6.934   2.661   4.566
10052SOL     OW31054   1.889   3.609   1.967
10052SOL    HW131055   1.882   3.700   1.926
10052SOL    HW231056   1.827   3.547   1.919
10053SOL     OW31057   3.365   5.188   3.340
10053SOL    HW131058   3.425   5.202   3.419
10053SOL    HW231059   3.348   5.276   3.296
10054SOL     OW31060   4.315   5.677   6.047
10054SOL    HW131061   4.233   5.675   6.104
10054SOL    HW231062   4.381   5.741   6.086
10055SOL     OW31063   6.692   2.386   5.165
10055SOL    HW131064   6.638   2.327   5.225
10055SOL    HW231065   6.678   2.360   5.070
10056SOL     OW31066   6.239   4.774   0.834
10056SOL    HW131067   6.314   4.815   0.783
10056SOL    HW231068   6.276   4.714   0.906
10057SOL     OW31069   4.178   2.010   4.356
10057SOL    HW131070   4.125   1.927   4.378
10057SOL    HW231071   4.144   2.087   4.410
10058SOL     OW31072   6.482   5.303   3.382
10058SOL    HW131073   6.505   5.210   3.355
10058SOL    HW231074   6.394   5.328   3.341
10059SOL     OW31075   5.190   0.213   1.160
10059SOL    HW131076   5.200   0.285   1.091
10059SOL    HW231077   5.133   0.246   1.235
10060SOL     OW31078   2.742   2.063   2.092
10060SOL    HW131079   2.794   2.148   2.082
10060SOL    HW231080   2.784   1.992   2.036
10061SOL     OW31081   5.968   0.943   4.374
10061SOL    HW131082   5.964   0.929   4.275
10061SOL    HW231083   5.965   1.041   4.393
10062SOL     OW31084   5.641   6.193   3.440
10062SOL    HW131085   5.698   6.112   3.455
10062SOL    HW231086   5.573   6.200   3.512
10063SOL     OW31087   1.051   3.244   3.850
10063SOL    HW131088   1.065   3.289   3.762
10063SOL    HW231089   1.131   3.189   3.873
10064SOL     OW31090   5.382   5.576   4.937
10064SOL    HW131091   5.448   5.609   4.871
10064SOL    HW231092   5.395   5.623   5.024
10065SOL     OW31093   1.563   6.834   2.153
10065SOL    HW131094   1.595   6.757   2.098
10065SOL    HW231095   1.607   6.832   2.243
10066SOL     OW31096   0.619   0.742   3.990
10066SOL    HW131097   0.596   0.785   3.902
10066SOL    HW231098   0.664   0.655   3.973
10067SOL     OW31099   5.220   4.995   4.502
10067SOL    HW131100   5.316   5.009   4.527
10067SOL    HW231101   5.203   4.897   4.487
10068SOL     OW31102   5.463   2.978   4.487
10068SOL    HW131103   5.487   2.987   4.584
10068SOL    HW231104   5.542   3.004   4.431
10069SOL     OW31105   2.427   1.098   3.677
10069SOL    HW131106   2.356   1.167   3.660
10069SOL    HW231107   2.425   1.030   3.603
10070SOL     OW31108   0.166   6.331   4.711
10070SOL    HW131109   0.263   6.357   4.710
10070SOL    HW231110   0.159   6.232   4.727
10071SOL     OW31111   4.444   5.398   3.556
10071SOL    HW131112   4.509   5.464   3.519
10071SOL    HW231113   4.467   5.379   3.651
10072SOL     OW31114   0.879   6.254   3.638
10072SOL    HW131115   0.842   6.174   3.686
10072SOL    HW231116   0.816   6.331   3.646
10073SOL     OW31117   5.983   4.835   5.214
10073SOL    HW131118   6.042   4.913   5.236
10073SOL    HW231119   6.035   4.750   5.225
10074SOL     OW31120   1.476   6.623   5.777
10074SOL    HW131121   1.439   6.595   5.688
10074SOL    HW231122   1.408   6.609   5.848
10075SOL     OW31123   1.384   2.437   3.068
10075SOL    HW131124   1.311   2.420   3.135
10075SOL    HW231125   1.343   2.457   2.979
10076SOL     OW31126   4.734   0.035   4.439
10076SOL    HW131127   4.744   0.093   4.520
10076SOL    HW231128   4.762   0.087   4.358
10077SOL     OW31129   3.861   2.494   6.669
10077SOL    HW131130   3.878   2.559   6.595
10077SOL    HW231131   3.941   2.490   6.729
10078SOL     OW31132   6.328   6.240   4.607
10078SOL    HW131133   6.372   6.230   4.696
10078SOL    HW231134   6.283   6.330   4.602
10079SOL     OW31135   1.148   2.695   1.796
10079SOL    HW131136   1.156   2.743   1.709
10079SOL    HW231137   1.238   2.687   1.838
10080SOL     OW31138   2.039   2.460   0.506
10080SOL    HW131139   2.076   2.553   0.504
10080SOL    HW231140   2.078   2.407   0.431
10081SOL     OW31141   1.041   0.470   6.497
10081SOL    HW131142   1.055   0.435   6.405
10081SOL    HW231143   0.996   0.400   6.553
10082SOL     OW31144   6.302   2.348   1.570
10082SOL    HW131145   6.236   2.300   1.628
10082SOL    HW231146   6.296   2.314   1.476
10083SOL     OW31147   4.579   1.237   3.805
10083SOL    HW131148   4.585   1.165   3.736
10083SOL    HW231149   4.619   1.204   3.891
10084SOL     OW31150   3.174   0.872   6.303
10084SOL    HW131151   3.080   0.892   6.278
10084SOL    HW231152   3.190   0.773   6.295
10085SOL     OW31153   0.938   4.849   2.933
10085SOL    HW131154   0.893   4.765   2.902
10085SOL    HW231155   0.896   4.879   3.018
10086SOL     OW31156   6.128   5.130   2.230
10086SOL    HW131157   6.211   5.083   2.262
10086SOL    HW231158   6.150   5.226   2.210
10087SOL     OW31159   0.981   0.969   4.416
10087SOL    HW131160   1.044   0.968   4.338
10087SOL    HW231161   0.913   1.041   4.403
10088SOL     OW31162   0.255   0.009   5.098
10088SOL    HW131163   0.193   0.068   5.047
10088SOL    HW231164   0.344   0.054   5.106
10089SOL     OW31165   2.811   1.585   2.717
10089SOL    HW131166   2.773   1.528   2.644
10089SOL    HW231167   2.737   1.622   2.773
10090SOL     OW31168   1.280   4.342   0.709
10090SOL    HW131169   1.252   4.421   0.653
10090SOL    HW231170   1.380   4.340   0.716
10091SOL     OW31171   1.141   3.804   4.480
10091SOL    HW131172   1.128   3.738   4.406
10091SOL    HW231173   1.086   3.885   4.462
10092SOL     OW31174   1.858   3.657   5.439
10092SOL    HW131175   1.941   3.653   5.383
10092SOL    HW231176   1.801   3.577   5.420
10093SOL     OW31177   0.544   5.105   5.074
10093SOL    HW131178   0.557   5.073   5.168
10093SOL    HW231179   0.615   5.172   5.052
10094SOL     OW31180   2.378   0.737   2.302
10094SOL    HW131181   2.436   0.668   2.258
10094SOL    HW231182   2.311   0.692   2.361
10095SOL     OW31183   6.196   1.525   5.315
10095SOL    HW131184   6.284   1.478   5.325
10095SOL    HW231185   6.154   1.536   5.405
10096SOL     OW31186   6.572   5.249   2.676
10096SOL    HW131187   6.573   5.347   2.695
10096SOL    HW231188   6.484   5.211   2.706
10097SOL     OW31189   1.173   1.100   0.519
10097SOL    HW131190   1.091   1.049   0.542
10097SOL    HW231191   1.156   1.158   0.439
10098SOL     OW31192   1.687   5.826   5.689
10098SOL    HW131193   1.697   5.922   5.665
10098SOL    HW231194   1.695   5.770   5.607
10099SOL     OW31195   6.987   3.486   5.742
10099SOL    HW131196   6.958   3.569   5.694
10099SOL    HW231197   6.995   3.411   5.677
10100SOL     OW31198   4.542   0.463   5.074
10100SOL    HW131199   4.453   0.493   5.109
10100SOL    HW231200   4.606   0.540   5.076
10101SOL     OW31201   0.066   4.610   2.421
10101SOL    HW131202   0.124   4.619   2.340
10101SOL    HW231203   0.121   4.576   2.498
10102SOL     OW31204   3.225   1.038   2.674
10102SOL    HW131205   3.208   1.136   2.670
10102SOL    HW231206   3.198   1.003   2.764
10103SOL     OW31207   3.024   1.400   5.037
10103SOL    HW131208   2.980   1.489   5.051
10103SOL    HW231209   3.009   1.369   4.943
10104SOL     OW31210   0.528   4.160   5.522
10104SOL    HW131211   0.610   4.208   5.489
10104SOL    HW231212   0.534   4.148   5.621
10105SOL     OW31213   1.238   1.536   6.685
10105SOL    HW131214   1.258   1.556   6.781
10105SOL    HW231215   1.308   1.473   6.649
10106SOL     OW31216   5.279   4.959   0.521
10106SOL    HW131217   5.346   5.007   0.577
10106SOL    HW231218   5.235   4.887   0.576
10107SOL     OW31219   6.387   1.060   5.629
10107SOL    HW131220   6.463   1.109   5.673
10107SOL    HW231221   6.357   0.985   5.688
10108SOL     OW31222   6.339   6.240   6.872
10108SOL    HW131223   6.406   6.172   6.843
10108SOL    HW231224   6.384   6.329   6.883
10109SOL     OW31225   4.068   6.094   2.754
10109SOL    HW131226   4.140   6.076   2.687
10109SOL    HW231227   4.002   6.019   2.753
10110SOL     OW31228   3.444   6.540   5.292
10110SOL    HW131229   3.426   6.578   5.201
10110SOL    HW231230   3.500   6.458   5.283
10111SOL     OW31231   6.694   3.937   3.452
10111SOL    HW131232   6.757   3.979   3.517
10111SOL    HW231233   6.738   3.931   3.362
10112SOL     OW31234   5.859   3.667   5.429
10112SOL    HW131235   5.845   3.578   5.385
10112SOL    HW231236   5.794   3.733   5.392
10113SOL     OW31237   4.082   0.890   0.126
10113SOL    HW131238   4.017   0.827   0.170
10113SOL    HW231239   4.150   0.920   0.193
10114SOL     OW31240   5.414   1.485   0.602
10114SOL    HW131241   5.426   1.414   0.533
10114SOL    HW231242   5.484   1.474   0.673
10115SOL     OW31243   1.981   2.195   3.470
10115SOL    HW131244   2.007   2.288   3.443
10115SOL    HW231245   2.063   2.137   3.471
10116SOL     OW31246   0.969   6.739   1.003
10116SOL    HW131247   0.974   6.707   1.098
10116SOL    HW231248   1.024   6.823   0.994
10117SOL     OW31249   6.380   0.268   4.418
10117SOL    HW131250   6.334   0.312   4.495
10117SOL    HW231251   6.320   0.199   4.378
10118SOL     OW31252   0.510   4.813   3.029
10118SOL    HW131253   0.478   4.908   3.039
10118SOL    HW231254   0.579   4.808   2.957
10119SOL     OW31255   1.926   0.032   4.231
10119SOL    HW131256   1.936   6.958   4.205
10119SOL    HW231257   1.934   0.089   4.150
10120SOL     OW31258   0.500   3.504   4.004
10120SOL    HW131259   0.533   3.564   3.931
10120SOL    HW231260   0.535   3.412   3.990
10121SOL     OW31261   7.006   4.676   5.006
10121SOL    HW131262   6.935   4.745   4.991
10121SOL    HW231263   0.051   4.682   4.932
10122SOL     OW31264   5.802   3.212   0.048
10122SOL    HW131265   5.783   3.133   7.013
10122SOL    HW231266   5.723   3.232   0.106
10123SOL     OW31267   0.100   6.047   0.881
10123SOL    HW131268   0.017   6.042   0.825
10123SOL    HW231269   0.101   6.132   0.933
10124SOL     OW31270   2.536   4.300   7.019
10124SOL    HW131271   2.556   4.207   6.987
10124SOL    HW231272   2.613   4.360   6.998
10125SOL     OW31273   1.653   0.644   3.138
10125SOL    HW131274   1.659   0.728   3.193
10125SOL    HW231275   1.669   0.565   3.197
10126SOL     OW31276   5.904   5.834   6.517
10126SOL    HW131277   5.978   5.771   6.542
10126SOL    HW231278   5.934   5.928   6.529
10127SOL     OW31279   3.079   5.701   5.684
10127SOL    HW131280   3.018   5.636   5.640
10127SOL    HW231281   3.173   5.667   5.681
10128SOL     OW31282   0.677   1.497   1.189
10128SOL    HW131283   0.655   1.503   1.091
10128SOL    HW231284   0.639   1.577   1.236
10129SOL     OW31285   4.760   2.759   3.930
10129SOL    HW131286   4.780   2.723   4.022
10129SOL    HW231287   4.675   2.719   3.896
10130SOL     OW31288   1.529   5.175   2.646
10130SOL    HW131289   1.577   5.164   2.732
10130SOL    HW231290   1.446   5.119   2.647
10131SOL     OW31291   0.256   2.148   2.305
10131SOL    HW131292   0.345   2.132   2.349
10131SOL    HW231293   0.235   2.071   2.244
10132SOL     OW31294   2.897   6.509   2.971
10132SOL    HW131295   2.971   6.479   3.031
10132SOL    HW231296   2.908   6.607   2.952
10133SOL     OW31297   3.933   6.554   3.027
10133SOL    HW131298   3.880   6.497   3.090
10133SOL    HW231299   3.947   6.505   2.941
10134SOL     OW31300   6.469   0.270   3.644
10134SOL    HW131301   6.506   0.344   3.588
10134SOL    HW231302   6.398   0.306   3.705
10135SOL     OW31303   4.854   3.822   2.714
10135SOL    HW131304   4.795   3.871   2.650
10135SOL    HW231305   4.878   3.733   2.675
10136SOL     OW31306   5.865   0.005   3.234
10136SOL    HW131307   5.803   6.954   3.206
10136SOL    HW231308   5.959   7.002   3.211
10137SOL     OW31309   6.754   5.517   4.177
10137SOL    HW131310   6.849   5.549   4.176
10137SOL    HW231311   6.753   5.418   4.195
10138SOL     OW31312   5.154   2.180   0.702
10138SOL    HW131313   5.153   2.096   0.756
10138SOL    HW231314   5.237   2.183   0.646
10139SOL     OW31315   3.850   3.053   2.552
10139SOL    HW131316   3.768   2.997   2.541
10139SOL    HW231317   3.872   3.060   2.650
10140SOL     OW31318   6.530   5.668   5.785
10140SOL    HW131319   6.556   5.699   5.694
10140SOL    HW231320   6.504   5.571   5.782
10141SOL     OW31321   3.273   2.199   4.261
10141SOL    HW131322   3.178   2.231   4.270
10141SOL    HW231323   3.299   2.150   4.344
10142SOL     OW31324   5.235   6.608   5.543
10142SOL    HW131325   5.207   6.557   5.624
10142SOL    HW231326   5.221   6.706   5.559
10143SOL     OW31327   4.525   0.387   1.251
10143SOL    HW131328   4.580   0.469   1.266
10143SOL    HW231329   4.537   0.325   1.329
10144SOL     OW31330   4.085   5.980   5.632
10144SOL    HW131331   4.144   5.987   5.551
10144SOL    HW231332   3.992   6.009   5.608
10145SOL     OW31333   3.081   5.960   5.594
10145SOL    HW131334   3.125   6.005   5.672
10145SOL    HW231335   3.060   5.865   5.618
10146SOL     OW31336   4.068   5.079   5.359
10146SOL    HW131337   4.023   5.148   5.301
10146SOL    HW231338   4.166   5.100   5.365
10147SOL     OW31339   5.113   4.728   4.566
10147SOL    HW131340   5.101   4.663   4.641
10147SOL    HW231341   5.024   4.747   4.525
10148SOL     OW31342   6.150   5.969   0.178
10148SOL    HW131343   6.163   5.871   0.194
10148SOL    HW231344   6.239   6.011   0.161
10149SOL     OW31345   4.663   1.908   0.457
10149SOL    HW131346   4.613   1.872   0.536
10149SOL    HW231347   4.737   1.846   0.432
10150SOL     OW31348   4.697   4.136   0.878
10150SOL    HW131349   4.723   4.184   0.795
10150SOL    HW231350   4.610   4.089   0.863
10151SOL     OW31351   1.398   0.358   6.374
10151SOL    HW131352   1.435   0.417   6.445
10151SOL    HW231353   1.409   0.262   6.400
10152SOL     OW31354   1.762   5.625   3.944
10152SOL    HW131355   1.716   5.663   4.024
10152SOL    HW231356   1.774   5.696   3.875
10153SOL     OW31357   4.110   6.088   3.664
10153SOL    HW131358   4.094   6.142   3.747
10153SOL    HW231359   4.061   6.129   3.587
10154SOL     OW31360   6.343   6.545   5.944
10154SOL    HW131361   6.288   6.462   5.934
10154SOL    HW231362   6.351   6.590   5.855
10155SOL     OW31363   3.841   1.628   5.865
10155SOL    HW131364   3.842   1.692   5.789
10155SOL    HW231365   3.902   1.660   5.937
10156SOL     OW31366   6.285   6.874   1.776
10156SOL    HW131367   6.291   6.901   1.872
10156SOL    HW231368   6.210   6.924   1.733
10157SOL     OW31369   5.591   1.870   5.759
10157SOL    HW131370   5.677   1.820   5.751
10157SOL    HW231371   5.542   1.867   5.672
10158SOL     OW31372   4.715   3.842   0.027
10158SOL    HW131373   4.802   3.886   0.052
10158SOL    HW231374   4.730   3.783   6.970
10159SOL     OW31375   2.722   3.212   6.150
10159SOL    HW131376   2.735   3.310   6.138
10159SOL    HW231377   2.811   3.169   6.166
10160SOL     OW31378   1.185   4.407   2.516
10160SOL    HW131379   1.124   4.334   2.548
10160SOL    HW231380   1.160   4.493   2.560
10161SOL     OW31381   3.417   4.755   0.526
10161SOL    HW131382   3.356   4.778   0.601
10161SOL    HW231383   3.369   4.700   0.459
10162SOL     OW31384   3.197   4.027   0.540
10162SOL    HW131385   3.263   4.096   0.569
10162SOL    HW231386   3.105   4.058   0.564
10163SOL     OW31387   5.707   4.244   6.276
10163SOL    HW131388   5.791   4.297   6.287
10163SOL    HW231389   5.717   4.182   6.198
10164SOL     OW31390   6.220   2.986   4.975
10164SOL    HW131391   6.211   2.887   4.991
10164SOL    HW231392   6.265   3.001   4.887
10165SOL     OW31393   1.583   2.378   3.669
10165SOL    HW131394   1.512   2.367   3.738
10165SOL    HW231395   1.613   2.288   3.637
10166SOL     OW31396   3.752   0.792   2.051
10166SOL    HW131397   3.692   0.853   1.999
10166SOL    HW231398   3.696   0.729   2.105
10167SOL     OW31399   4.412   1.086   6.530
10167SOL    HW131400   4.325   1.084   6.581
10167SOL    HW231401   4.480   1.138   6.582
10168SOL     OW31402   6.761   3.718   4.703
10168SOL    HW131403   6.750   3.734   4.605
10168SOL    HW231404   6.852   3.748   4.731
10169SOL     OW31405   6.981   4.147   3.291
10169SOL    HW131406   6.904   4.200   3.326
10169SOL    HW231407   0.039   4.163   3.348
10170SOL     OW31408   0.615   4.301   6.022
10170SOL    HW131409   0.589   4.248   5.941
10170SOL    HW231410   0.665   4.383   5.994
10171SOL     OW31411   6.563   4.047   6.745
10171SOL    HW131412   6.552   3.950   6.722
10171SOL    HW231413   6.642   4.084   6.697
10172SOL     OW31414   6.285   0.355   3.255
10172SOL    HW131415   6.269   0.413   3.334
10172SOL    HW231416   6.305   0.411   3.175
10173SOL     OW31417   1.901   2.287   1.149
10173SOL    HW131418   1.983   2.334   1.184
10173SOL    HW231419   1.835   2.354   1.117
10174SOL     OW31420   5.811   5.038   1.938
10174SOL    HW131421   5.755   5.121   1.933
10174SOL    HW231422   5.767   4.972   1.999
10175SOL     OW31423   6.901   2.634   3.893
10175SOL    HW131424   6.851   2.646   3.808
10175SOL    HW231425   6.940   2.721   3.922
10176SOL     OW31426   0.989   3.157   5.547
10176SOL    HW131427   0.985   3.216   5.466
10176SOL    HW231428   1.027   3.068   5.522
10177SOL     OW31429   2.711   0.395   0.192
10177SOL    HW131430   2.777   0.402   0.117
10177SOL    HW231431   2.757   0.358   0.273
10178SOL     OW31432   6.530   3.141   4.855
10178SOL    HW131433   6.437   3.172   4.877
10178SOL    HW231434   6.586   3.220   4.831
10179SOL     OW31435   1.062   1.608   6.101
10179SOL    HW131436   1.080   1.510   6.103
10179SOL    HW231437   1.111   1.653   6.176
10180SOL     OW31438   3.444   5.871   6.606
10180SOL    HW131439   3.486   5.780   6.596
10180SOL    HW231440   3.401   5.876   6.696
10181SOL     OW31441   5.164   3.319   2.053
10181SOL    HW131442   5.090   3.292   1.992
10181SOL    HW231443   5.197   3.410   2.027
10182SOL     OW31444   5.800   1.702   1.927
10182SOL    HW131445   5.709   1.667   1.951
10182SOL    HW231446   5.797   1.802   1.925
10183SOL     OW31447   1.077   2.205   5.916
10183SOL    HW131448   1.015   2.137   5.877
10183SOL    HW231449   1.039   2.239   6.002
10184SOL     OW31450   4.694   1.573   5.954
10184SOL    HW131451   4.660   1.655   5.908
10184SOL    HW231452   4.634   1.550   6.030
10185SOL     OW31453   5.112   5.830   1.039
10185SOL    HW131454   5.209   5.827   1.015
10185SOL    HW231455   5.088   5.923   1.069
10186SOL     OW31456   5.736   3.382   3.368
10186SOL    HW131457   5.668   3.314   3.341
10186SOL    HW231458   5.800   3.341   3.433
10187SOL     OW31459   0.438   2.150   2.068
10187SOL    HW131460   0.370   2.220   2.090
10187SOL    HW231461   0.400   2.060   2.088
10188SOL     OW31462   3.692   6.567   6.825
10188SOL    HW131463   3.775   6.527   6.864
10188SOL    HW231464   3.627   6.495   6.804
10189SOL     OW31465   2.400   0.734   5.815
10189SOL    HW131466   2.434   0.658   5.760
10189SOL    HW231467   2.477   0.786   5.851
10190SOL     OW31468   5.236   2.734   1.208
10190SOL    HW131469   5.188   2.647   1.208
10190SOL    HW231470   5.189   2.798   1.270
10191SOL     OW31471   4.621   4.090   6.766
10191SOL    HW131472   4.602   4.140   6.681
10191SOL    HW231473   4.586   3.997   6.759
10192SOL     OW31474   4.479   0.888   5.090
10192SOL    HW131475   4.506   0.966   5.034
10192SOL    HW231476   4.560   0.839   5.121
10193SOL     OW31477   4.307   3.952   1.722
10193SOL    HW131478   4.357   4.027   1.766
10193SOL    HW231479   4.292   3.879   1.789
10194SOL     OW31480   6.087   5.129   4.937
10194SOL    HW131481   6.132   5.049   4.976
10194SOL    HW231482   6.149   5.208   4.941
10195SOL     OW31483   6.158   4.438   1.239
10195SOL    HW131484   6.116   4.518   1.197
10195SOL    HW231485   6.101   4.357   1.222
10196SOL     OW31486   5.296   1.632   4.595
10196SOL    HW131487   5.200   1.657   4.580
10196SOL    HW231488   5.314   1.629   4.694
10197SOL     OW31489   0.330   1.872   5.024
10197SOL    HW131490   0.287   1.896   4.937
10197SOL    HW231491   0.326   1.951   5.086
10198SOL     OW31492   3.957   0.723   1.858
10198SOL    HW131493   3.958   0.725   1.958
10198SOL    HW231494   3.980   0.813   1.822
10199SOL     OW31495   2.469   2.475   6.446
10199SOL    HW131496   2.448   2.464   6.349
10199SOL    HW231497   2.518   2.561   6.460
10200SOL     OW31498   4.966   2.170   1.104
10200SOL    HW131499   4.954   2.228   1.024
10200SOL    HW231500   5.051   2.193   1.150
10201SOL     OW31501   0.791   4.406   0.753
10201SOL    HW131502   0.804   4.308   0.765
10201SOL    HW231503   0.796   4.452   0.841
10202SOL     OW31504   3.870   2.418   6.260
10202SOL    HW131505   3.863   2.332   6.310
10202SOL    HW231506   3.778   2.455   6.243
10203SOL     OW31507   5.459   3.015   4.167
10203SOL    HW131508   5.470   3.084   4.239
10203SOL    HW231509   5.467   2.924   4.207
10204SOL     OW31510   5.471   6.764   6.967
10204SOL    HW131511   5.517   6.830   6.906
10204SOL    HW231512   5.447   6.682   6.915
10205SOL     OW31513   0.400   1.756   0.440
10205SOL    HW131514   0.315   1.777   0.487
10205SOL    HW231515   0.463   1.710   0.502
10206SOL     OW31516   0.695   1.152   5.968
10206SOL    HW131517   0.782   1.120   6.004
10206SOL    HW231518   0.677   1.245   6.000
10207SOL     OW31519   1.250   2.115   6.494
10207SOL    HW131520   1.292   2.025   6.491
10207SOL    HW231521   1.183   2.118   6.569
10208SOL     OW31522   5.667   5.372   3.918
10208SOL    HW131523   5.592   5.306   3.906
10208SOL    HW231524   5.658   5.416   4.008
10209SOL     OW31525   6.947   6.998   6.119
10209SOL    HW131526   0.020   0.004   6.126
10209SOL    HW231527   6.915   7.011   6.025
10210SOL     OW31528   4.474   6.624   0.846
10210SOL    HW131529   4.540   6.611   0.772
10210SOL    HW231530   4.515   6.682   0.917
10211SOL     OW31531   3.325   6.399   4.870
10211SOL    HW131532   3.420   6.378   4.845
10211SOL    HW231533   3.276   6.433   4.790
10212SOL     OW31534   1.076   6.992   5.131
10212SOL    HW131535   1.172   7.020   5.130
10212SOL    HW231536   1.024   0.025   5.067
10213SOL     OW31537   4.768   2.838   1.158
10213SOL    HW131538   4.845   2.892   1.123
10213SOL    HW231539   4.747   2.867   1.251
10214SOL     OW31540   1.289   1.614   1.776
10214SOL    HW131541   1.347   1.574   1.705
10214SOL    HW231542   1.200   1.637   1.737
10215SOL     OW31543   3.899   3.118   3.236
10215SOL    HW131544   3.826   3.170   3.282
10215SOL    HW231545   3.858   3.055   3.170
10216SOL     OW31546   6.073   0.495   1.759
10216SOL    HW131547   6.084   0.581   1.810
10216SOL    HW231548   6.039   0.424   1.821
10217SOL     OW31549   2.503   0.850   3.549
10217SOL    HW131550   2.562   0.804   3.615
10217SOL    HW231551   2.420   0.796   3.536
10218SOL     OW31552   1.001   2.921   1.248
10218SOL    HW131553   0.966   3.012   1.225
10218SOL    HW231554   1.101   2.923   1.253
10219SOL     OW31555   0.055   1.565   2.164
10219SOL    HW131556   0.125   1.628   2.197
10219SOL    HW231557   0.065   1.553   2.065
10220SOL     OW31558   4.033   2.696   1.004
10220SOL    HW131559   3.955   2.644   0.968
10220SOL    HW231560   4.020   2.713   1.102
10221SOL     OW31561   0.940   5.359   3.350
10221SOL    HW131562   0.895   5.401   3.430
10221SOL    HW231563   0.950   5.428   3.279
10222SOL     OW31564   2.955   3.588   4.645
10222SOL    HW131565   2.968   3.514   4.712
10222SOL    HW231566   2.918   3.550   4.560
10223SOL     OW31567   0.721   5.158   0.707
10223SOL    HW131568   0.632   5.198   0.688
10223SOL    HW231569   0.757   5.197   0.793
10224SOL     OW31570   6.268   3.484   3.630
10224SOL    HW131571   6.352   3.484   3.577
10224SOL    HW231572   6.194   3.444   3.575
10225SOL     OW31573   1.621   4.105   5.792
10225SOL    HW131574   1.598   4.040   5.863
10225SOL    HW231575   1.719   4.101   5.772
10226SOL     OW31576   3.437   1.490   6.784
10226SOL    HW131577   3.473   1.474   6.876
10226SOL    HW231578   3.337   1.499   6.788
10227SOL     OW31579   5.401   3.956   0.613
10227SOL    HW131580   5.445   3.890   0.674
10227SOL    HW231581   5.432   4.048   0.636
10228SOL     OW31582   6.616   0.320   0.558
10228SOL    HW131583   6.696   0.366   0.596
10228SOL    HW231584   6.640   0.280   0.469
10229SOL     OW31585   0.393   3.104   5.070
10229SOL    HW131586   0.301   3.142   5.076
10229SOL    HW231587   0.418   3.062   5.158
10230SOL     OW31588   6.672   5.795   2.104
10230SOL    HW131589   6.684   5.700   2.073
10230SOL    HW231590   6.603   5.798   2.176
10231SOL     OW31591   1.470   5.802   3.828
10231SOL    HW131592   1.460   5.849   3.740
10231SOL    HW231593   1.503   5.867   3.897
10232SOL     OW31594   3.143   0.563   3.342
10232SOL    HW131595   3.100   0.580   3.254
10232SOL    HW231596   3.205   0.485   3.335
10233SOL     OW31597   3.988   4.077   5.892
10233SOL    HW131598   3.976   4.028   5.978
10233SOL    HW231599   3.957   4.172   5.903
10234SOL     OW31600   5.906   0.314   1.310
10234SOL    HW131601   5.961   0.337   1.230
10234SOL    HW231602   5.964   0.313   1.391
10235SOL     OW31603   1.008   1.037   3.242
10235SOL    HW131604   0.913   1.016   3.264
10235SOL    HW231605   1.020   1.136   3.238
10236SOL     OW31606   2.696   6.716   0.095
10236SOL    HW131607   2.661   6.623   0.110
10236SOL    HW231608   2.734   6.723   0.003
10237SOL     OW31609   0.586   3.212   6.998
10237SOL    HW131610   0.588   3.309   6.973
10237SOL    HW231611   0.500   3.193   0.023
10238SOL     OW31612   4.123   5.052   1.106
10238SOL    HW131613   4.078   4.964   1.094
10238SOL    HW231614   4.143   5.066   1.203
10239SOL     OW31615   1.680   2.945   4.519
10239SOL    HW131616   1.618   3.013   4.480
10239SOL    HW231617   1.682   2.955   4.619
10240SOL     OW31618   2.229   0.025   1.899
10240SOL    HW131619   2.298   6.986   1.936
10240SOL    HW231620   2.201   7.016   1.808
10241SOL     OW31621   5.090   1.779   2.141
10241SOL    HW131622   5.059   1.857   2.087
10241SOL    HW231623   5.105   1.700   2.080
10242SOL     OW31624   0.299   2.454   0.861
10242SOL    HW131625   0.392   2.488   0.849
10242SOL    HW231626   0.290   2.364   0.818
10243SOL     OW31627   2.616   4.473   1.144
10243SOL    HW131628   2.615   4.386   1.194
10243SOL    HW231629   2.578   4.459   1.052
10244SOL     OW31630   2.287   3.820   1.435
10244SOL    HW131631   2.333   3.833   1.523
10244SOL    HW231632   2.355   3.798   1.365
10245SOL     OW31633   3.400   4.006   0.822
10245SOL    HW131634   3.421   3.910   0.801
10245SOL    HW231635   3.304   4.015   0.847
10246SOL     OW31636   3.376   2.999   4.467
10246SOL    HW131637   3.300   2.978   4.530
10246SOL    HW231638   3.377   3.097   4.448
10247SOL     OW31639   1.154   4.089   5.146
10247SOL    HW131640   1.204   4.175   5.134
10247SOL    HW231641   1.203   4.015   5.099
10248SOL     OW31642   1.339   0.013   3.538
10248SOL    HW131643   1.268   7.007   3.602
10248SOL    HW231644   1.312   7.011   3.444
10249SOL     OW31645   1.980   5.021   7.001
10249SOL    HW131646   1.971   4.921   7.009
10249SOL    HW231647   1.926   5.054   6.924
10250SOL     OW31648   5.531   2.993   0.285
10250SOL    HW131649   5.523   2.977   0.186
10250SOL    HW231650   5.504   2.911   0.334
10251SOL     OW31651   1.527   0.295   3.808
10251SOL    HW131652   1.608   0.327   3.858
10251SOL    HW231653   1.520   0.342   3.721
10252SOL     OW31654   4.948   3.611   5.542
10252SOL    HW131655   4.945   3.658   5.454
10252SOL    HW231656   4.856   3.588   5.572
10253SOL     OW31657   3.780   6.944   0.163
10253SOL    HW131658   3.694   6.976   0.203
10253SOL    HW231659   3.762   6.901   0.075
10254SOL     OW31660   5.248   2.064   5.126
10254SOL    HW131661   5.200   2.043   5.211
10254SOL    HW231662   5.321   1.998   5.111
10255SOL     OW31663   2.983   5.882   1.254
10255SOL    HW131664   2.970   5.901   1.157
10255SOL    HW231665   3.064   5.823   1.266
10256SOL     OW31666   5.252   1.032   1.757
10256SOL    HW131667   5.193   1.108   1.732
10256SOL    HW231668   5.279   1.041   1.854
10257SOL     OW31669   3.058   4.967   3.175
10257SOL    HW131670   3.111   4.937   3.095
10257SOL    HW231671   3.099   4.929   3.258
10258SOL     OW31672   3.164   2.195   3.109
10258SOL    HW131673   3.262   2.211   3.124
10258SOL    HW231674   3.117   2.194   3.198
10259SOL     OW31675   0.773   4.357   4.167
10259SOL    HW131676   0.714   4.436   4.149
10259SOL    HW231677   0.780   4.343   4.266
10260SOL     OW31678   1.570   1.289   3.713
10260SOL    HW131679   1.512   1.264   3.790
10260SOL    HW231680   1.543   1.237   3.632
10261SOL     OW31681   0.468   3.748   0.939
10261SOL    HW131682   0.404   3.737   1.015
10261SOL    HW231683   0.451   3.835   0.894
10262SOL     OW31684   3.985   0.759   6.643
10262SOL    HW131685   3.888   0.752   6.665
10262SOL    HW231686   3.997   0.755   6.543
10263SOL     OW31687   6.332   0.889   0.788
10263SOL    HW131688   6.339   0.833   0.705
10263SOL    HW231689   6.236   0.909   0.806
10264SOL     OW31690   6.255   5.080   6.377
10264SOL    HW131691   6.196   5.099   6.455
10264SOL    HW231692   6.202   5.034   6.305
10265SOL     OW31693   2.301   2.839   0.717
10265SOL    HW131694   2.340   2.765   0.773
10265SOL    HW231695   2.371   2.906   0.696
10266SOL     OW31696   3.077   3.053   2.784
10266SOL    HW131697   3.167   3.010   2.789
10266SOL    HW231698   3.027   3.038   2.870
10267SOL     OW31699   5.260   0.538   0.690
10267SOL    HW131700   5.180   0.514   0.744
10267SOL    HW231701   5.323   0.592   0.747
10268SOL     OW31702   5.468   0.353   1.445
10268SOL    HW131703   5.479   0.432   1.385
10268SOL    HW231704   5.539   0.285   1.425
10269SOL     OW31705   1.719   2.470   6.738
10269SOL    HW131706   1.703   2.518   6.652
10269SOL    HW231707   1.696   2.529   6.815
10270SOL     OW31708   3.291   6.139   2.457
10270SOL    HW131709   3.383   6.110   2.430
10270SOL    HW231710   3.235   6.059   2.476
10271SOL     OW31711   2.913   2.295   0.948
10271SOL    HW131712   2.863   2.376   0.918
10271SOL    HW231713   2.912   2.226   0.876
10272SOL     OW31714   6.736   0.916   4.392
10272SOL    HW131715   6.782   1.002   4.372
10272SOL    HW231716   6.705   0.917   4.487
10273SOL     OW31717   2.987   5.372   4.228
10273SOL    HW131718   3.078   5.351   4.262
10273SOL    HW231719   2.924   5.381   4.306
10274SOL     OW31720   0.275   5.106   5.591
10274SOL    HW131721   0.234   5.020   5.562
10274SOL    HW231722   0.317   5.093   5.681
10275SOL     OW31723   0.015   0.845   2.974
10275SOL    HW131724   6.973   0.815   3.044
10275SOL    HW231725   0.085   0.775   2.960
10276SOL     OW31726   4.745   5.595   5.521
10276SOL    HW131727   4.767   5.575   5.426
10276SOL    HW231728   4.770   5.689   5.543
10277SOL     OW31729   1.290   6.971   4.159
10277SOL    HW131730   1.330   6.880   4.162
10277SOL    HW231731   1.342   0.010   4.220
10278SOL     OW31732   0.121   0.440   5.010
10278SOL    HW131733   0.037   0.473   5.054
10278SOL    HW231734   0.167   0.515   4.964
10279SOL     OW31735   2.557   5.458   4.339
10279SOL    HW131736   2.571   5.553   4.370
10279SOL    HW231737   2.476   5.454   4.281
10280SOL     OW31738   5.461   3.560   0.716
10280SOL    HW131739   5.384   3.615   0.748
10280SOL    HW231740   5.515   3.613   0.651
10281SOL     OW31741   6.744   2.234   3.374
10281SOL    HW131742   6.696   2.167   3.317
10281SOL    HW231743   6.822   2.271   3.324
10282SOL     OW31744   4.869   3.318   3.050
10282SOL    HW131745   4.807   3.259   3.101
10282SOL    HW231746   4.850   3.309   2.952
10283SOL     OW31747   0.274   3.652   1.121
10283SOL    HW131748   0.264   3.559   1.084
10283SOL    HW231749   0.186   3.699   1.115
10284SOL     OW31750   0.396   2.350   3.912
10284SOL    HW131751   0.441   2.276   3.860
10284SOL    HW231752   0.411   2.437   3.865
10285SOL     OW31753   4.183   6.614   3.347
10285SOL    HW131754   4.085   6.623   3.329
10285SOL    HW231755   4.208   6.673   3.424
10286SOL     OW31756   2.934   0.808   3.719
10286SOL    HW131757   2.926   0.771   3.626
10286SOL    HW231758   3.008   0.875   3.721
10287SOL     OW31759   2.114   5.949   1.763
10287SOL    HW131760   2.132   5.943   1.861
10287SOL    HW231761   2.032   5.894   1.741
10288SOL     OW31762   3.503   6.838   5.141
10288SOL    HW131763   3.439   6.915   5.146
10288SOL    HW231764   3.467   6.768   5.080
10289SOL     OW31765   3.220   6.148   0.844
10289SOL    HW131766   3.155   6.156   0.919
10289SOL    HW231767   3.178   6.182   0.759
10290SOL     OW31768   3.070   3.337   2.357
10290SOL    HW131769   2.997   3.393   2.318
10290SOL    HW231770   3.034   3.284   2.434
10291SOL     OW31771   3.219   1.233   2.967
10291SOL    HW131772   3.256   1.141   2.964
10291SOL    HW231773   3.128   1.232   3.009
10292SOL     OW31774   0.156   0.844   6.339
10292SOL    HW131775   0.115   0.901   6.268
10292SOL    HW231776   0.174   0.899   6.420
10293SOL     OW31777   0.583   3.838   3.765
10293SOL    HW131778   0.618   3.755   3.722
10293SOL    HW231779   0.485   3.848   3.746
10294SOL     OW31780   3.641   2.061   2.962
10294SOL    HW131781   3.582   2.006   3.021
10294SOL    HW231782   3.726   2.011   2.943
10295SOL     OW31783   1.225   2.405   6.231
10295SOL    HW131784   1.303   2.344   6.246
10295SOL    HW231785   1.255   2.485   6.178
10296SOL     OW31786   5.946   0.971   5.788
10296SOL    HW131787   5.847   0.981   5.802
10296SOL    HW231788   5.967   0.983   5.691
10297SOL     OW31789   2.815   1.694   6.935
10297SOL    HW131790   2.749   1.747   6.881
10297SOL    HW231791   2.830   1.605   6.892
10298SOL     OW31792   1.132   4.519   1.921
10298SOL    HW131793   1.093   4.448   1.862
10298SOL    HW231794   1.079   4.525   2.006
10299SOL     OW31795   4.914   6.533   2.610
10299SOL    HW131796   4.918   6.521   2.709
10299SOL    HW231797   4.875   6.622   2.589
10300SOL     OW31798   1.223   4.218   2.066
10300SOL    HW131799   1.143   4.230   2.006
10300SOL    HW231800   1.228   4.295   2.131
10301SOL     OW31801   3.904   1.997   5.438
10301SOL    HW131802   3.932   2.081   5.484
10301SOL    HW231803   3.928   2.002   5.341
10302SOL     OW31804   2.811   6.644   4.413
10302SOL    HW131805   2.778   6.701   4.338
10302SOL    HW231806   2.790   6.689   4.500
10303SOL     OW31807   1.165   6.017   3.864
10303SOL    HW131808   1.154   6.082   3.788
10303SOL    HW231809   1.210   6.063   3.941
10304SOL     OW31810   6.326   0.061   0.496
10304SOL    HW131811   6.343   0.119   0.417
10304SOL    HW231812   6.313   6.988   0.466
10305SOL     OW31813   3.352   3.741   6.156
10305SOL    HW131814   3.262   3.718   6.120
10305SOL    HW231815   3.400   3.800   6.091
10306SOL     OW31816   5.468   6.625   1.328
10306SOL    HW131817   5.408   6.586   1.398
10306SOL    HW231818   5.412   6.666   1.256
10307SOL     OW31819   2.958   1.438   4.777
10307SOL    HW131820   3.020   1.367   4.745
10307SOL    HW231821   2.968   1.520   4.721
10308SOL     OW31822   2.166   4.752   2.558
10308SOL    HW131823   2.115   4.731   2.642
10308SOL    HW231824   2.210   4.841   2.567
10309SOL     OW31825   6.388   0.827   5.808
10309SOL    HW131826   6.320   0.772   5.760
10309SOL    HW231827   6.369   0.824   5.907
10310SOL     OW31828   2.601   3.613   0.009
10310SOL    HW131829   2.612   3.699   0.059
10310SOL    HW231830   2.684   3.558   0.019
10311SOL     OW31831   6.050   5.660   0.182
10311SOL    HW131832   5.995   5.642   0.264
10311SOL    HW231833   6.002   5.727   0.124
10312SOL     OW31834   4.124   0.277   1.989
10312SOL    HW131835   4.196   0.334   2.027
10312SOL    HW231836   4.040   0.331   1.980
10313SOL     OW31837   3.841   5.919   2.812
10313SOL    HW131838   3.875   5.890   2.722
10313SOL    HW231839   3.866   5.851   2.880
10314SOL     OW31840   0.697   0.355   6.777
10314SOL    HW131841   0.609   0.310   6.789
10314SOL    HW231842   0.690   0.424   6.705
10315SOL     OW31843   5.134   6.665   3.743
10315SOL    HW131844   5.217   6.674   3.687
10315SOL    HW231845   5.095   6.755   3.759
10316SOL     OW31846   6.412   2.033   5.851
10316SOL    HW131847   6.371   2.002   5.765
10316SOL    HW231848   6.347   2.091   5.900
10317SOL     OW31849   3.686   5.911   5.791
10317SOL    HW131850   3.749   5.864   5.853
10317SOL    HW231851   3.592   5.894   5.819
10318SOL     OW31852   5.285   0.294   6.385
10318SOL    HW131853   5.239   0.265   6.468
10318SOL    HW231854   5.370   0.242   6.373
10319SOL     OW31855   0.426   4.680   5.647
10319SOL    HW131856   0.458   4.607   5.587
10319SOL    HW231857   0.391   4.756   5.591
10320SOL     OW31858   7.015   0.009   3.199
10320SOL    HW131859   6.973   6.957   3.250
10320SOL    HW231860   6.956   0.033   3.121
10321SOL     OW31861   5.824   2.375   2.140
10321SOL    HW131862   5.782   2.451   2.191
10321SOL    HW231863   5.754   2.311   2.110
10322SOL     OW31864   4.089   4.980   4.845
10322SOL    HW131865   4.116   4.922   4.768
10322SOL    HW231866   4.137   4.949   4.927
10323SOL     OW31867   6.542   4.815   5.236
10323SOL    HW131868   6.549   4.884   5.308
10323SOL    HW231869   6.554   4.858   5.147
10324SOL     OW31870   2.948   3.556   2.597
10324SOL    HW131871   2.921   3.480   2.538
10324SOL    HW231872   2.910   3.641   2.561
10325SOL     OW31873   0.239   5.150   2.531
10325SOL    HW131874   0.292   5.110   2.605
10325SOL    HW231875   0.214   5.078   2.466
10326SOL     OW31876   5.564   3.908   6.637
10326SOL    HW131877   5.596   3.897   6.542
10326SOL    HW231878   5.600   3.833   6.692
10327SOL     OW31879   2.461   3.202   1.684
10327SOL    HW131880   2.417   3.190   1.773
10327SOL    HW231881   2.473   3.300   1.665
10328SOL     OW31882   6.370   2.940   2.234
10328SOL    HW131883   6.320   2.904   2.312
10328SOL    HW231884   6.372   3.040   2.237
10329SOL     OW31885   2.833   0.552   2.836
10329SOL    HW131886   2.875   0.477   2.887
10329SOL    HW231887   2.777   0.515   2.762
10330SOL     OW31888   4.637   0.646   1.195
10330SOL    HW131889   4.556   0.693   1.158
10330SOL    HW231890   4.705   0.634   1.122
10331SOL     OW31891   6.528   6.086   6.740
10331SOL    HW131892   6.505   6.018   6.809
10331SOL    HW231893   6.490   6.059   6.652
10332SOL     OW31894   1.026   0.776   6.506
10332SOL    HW131895   0.994   0.684   6.481
10332SOL    HW231896   0.960   0.818   6.568
10333SOL     OW31897   0.542   5.911   4.505
10333SOL    HW131898   0.479   5.897   4.581
10333SOL    HW231899   0.634   5.930   4.540
10334SOL     OW31900   3.463   0.201   4.219
10334SOL    HW131901   3.388   0.208   4.284
10334SOL    HW231902   3.427   0.210   4.126
10335SOL     OW31903   1.221   4.311   6.743
10335SOL    HW131904   1.170   4.394   6.723
10335SOL    HW231905   1.257   4.272   6.658
10336SOL     OW31906   6.207   6.555   1.817
10336SOL    HW131907   6.286   6.602   1.778
10336SOL    HW231908   6.183   6.596   1.905
10337SOL     OW31909   6.657   5.651   0.203
10337SOL    HW131910   6.733   5.696   0.251
10337SOL    HW231911   6.575   5.707   0.213
10338SOL     OW31912   1.482   6.488   2.246
10338SOL    HW131913   1.548   6.520   2.178
10338SOL    HW231914   1.451   6.396   2.222
10339SOL     OW31915   6.283   3.513   6.391
10339SOL    HW131916   6.191   3.497   6.357
10339SOL    HW231917   6.324   3.589   6.340
10340SOL     OW31918   1.967   2.484   6.491
10340SOL    HW131919   1.990   2.403   6.437
10340SOL    HW231920   1.869   2.488   6.506
10341SOL     OW31921   2.071   3.381   2.168
10341SOL    HW131922   2.033   3.474   2.177
10341SOL    HW231923   2.141   3.381   2.096
10342SOL     OW31924   1.834   0.418   3.518
10342SOL    HW131925   1.869   0.491   3.577
10342SOL    HW231926   1.859   0.329   3.557
10343SOL     OW31927   2.670   5.218   0.388
10343SOL    HW131928   2.709   5.141   0.437
10343SOL    HW231929   2.628   5.186   0.303
10344SOL     OW31930   3.573   3.951   6.860
10344SOL    HW131931   3.510   4.028   6.874
10344SOL    HW231932   3.657   3.986   6.817
10345SOL     OW31933   1.331   3.000   5.609
10345SOL    HW131934   1.303   3.091   5.638
10345SOL    HW231935   1.430   2.990   5.620
10346SOL     OW31936   7.003   5.236   1.719
10346SOL    HW131937   6.961   5.279   1.638
10346SOL    HW231938   0.080   5.234   1.708
10347SOL     OW31939   4.493   1.135   3.322
10347SOL    HW131940   4.426   1.097   3.259
10347SOL    HW231941   4.467   1.229   3.345
10348SOL     OW31942   6.184   2.525   0.206
10348SOL    HW131943   6.140   2.581   0.136
10348SOL    HW231944   6.253   2.580   0.253
10349SOL     OW31945   0.652   0.264   6.487
10349SOL    HW131946   0.648   0.362   6.470
10349SOL    HW231947   0.701   0.219   6.412
10350SOL     OW31948   2.912   6.107   5.444
10350SOL    HW131949   2.886   6.188   5.496
10350SOL    HW231950   2.975   6.052   5.498
10351SOL     OW31951   4.876   4.960   5.703
10351SOL    HW131952   4.956   5.018   5.720
10351SOL    HW231953   4.869   4.891   5.774
10352SOL     OW31954   3.479   1.052   6.225
10352SOL    HW131955   3.558   1.098   6.265
10352SOL    HW231956   3.509   0.996   6.147
10353SOL     OW31957   6.455   2.856   4.868
10353SOL    HW131958   6.506   2.783   4.913
10353SOL    HW231959   6.509   2.940   4.868
10354SOL     OW31960   5.180   1.083   1.022
10354SOL    HW131961   5.152   1.054   0.931
10354SOL    HW231962   5.141   1.173   1.043
10355SOL     OW31963   2.923   6.329   2.174
10355SOL    HW131964   2.965   6.304   2.261
10355SOL    HW231965   2.969   6.280   2.100
10356SOL     OW31966   0.116   3.869   6.041
10356SOL    HW131967   0.085   3.777   6.019
10356SOL    HW231968   0.164   3.868   6.129
10357SOL     OW31969   2.269   2.057   5.856
10357SOL    HW131970   2.245   2.147   5.892
10357SOL    HW231971   2.189   2.016   5.812
10358SOL     OW31972   6.798   2.682   2.938
10358SOL    HW131973   6.861   2.639   3.002
10358SOL    HW231974   6.716   2.714   2.986
10359SOL     OW31975   0.456   1.495   1.414
10359SOL    HW131976   0.486   1.590   1.409
10359SOL    HW231977   0.521   1.437   1.365
10360SOL     OW31978   4.704   5.655   3.082
10360SOL    HW131979   4.632   5.603   3.035
10360SOL    HW231980   4.667   5.741   3.115
10361SOL     OW31981   2.800   5.676   2.539
10361SOL    HW131982   2.747   5.709   2.461
10361SOL    HW231983   2.847   5.752   2.583
10362SOL     OW31984   2.273   5.225   5.066
10362SOL    HW131985   2.204   5.202   5.134
10362SOL    HW231986   2.251   5.178   4.980
10363SOL     OW31987   5.512   0.631   2.912
10363SOL    HW131988   5.527   0.616   2.814
10363SOL    HW231989   5.464   0.718   2.924
10364SOL     OW31990   2.658   3.923   1.213
10364SOL    HW131991   2.746   3.944   1.170
10364SOL    HW231992   2.658   3.828   1.245
10365SOL     OW31993   3.939   5.441   0.000
10365SOL    HW131994   3.943   5.346   6.991
10365SOL    HW231995   3.856   5.484   6.988
10366SOL     OW31996   2.272   6.774   3.880
10366SOL    HW131997   2.240   6.776   3.974
10366SOL    HW231998   2.360   6.820   3.873
10367SOL     OW31999   6.123   2.044   3.217
10367SOL    HW132000   6.026   2.031   3.237
10367SOL    HW232001   6.169   2.079   3.298
10368SOL     OW32002   2.319   1.309   2.192
10368SOL    HW132003   2.361   1.257   2.266
10368SOL    HW232004   2.371   1.392   2.174
10369SOL     OW32005   3.581   1.921   0.847
10369SOL    HW132006   3.661   1.867   0.821
10369SOL    HW232007   3.510   1.861   0.884
10370SOL     OW32008   4.245   0.988   5.167
10370SOL    HW132009   4.333   0.941   5.159
10370SOL    HW232010   4.195   0.953   5.246
10371SOL     OW32011   4.398   5.833   4.990
10371SOL    HW132012   4.420   5.788   5.077
10371SOL    HW232013   4.417   5.770   4.914
10372SOL     OW32014   2.592   0.754   4.523
10372SOL    HW132015   2.555   0.772   4.614
10372SOL    HW232016   2.591   0.655   4.505
10373SOL     OW32017   1.076   6.930   4.490
10373SOL    HW132018   1.121   6.841   4.500
10373SOL    HW232019   1.145   7.002   4.491
10374SOL     OW32020   2.790   1.789   3.316
10374SOL    HW132021   2.717   1.725   3.295
10374SOL    HW232022   2.861   1.743   3.369
10375SOL     OW32023   5.864   2.202   1.109
10375SOL    HW132024   5.895   2.207   1.014
10375SOL    HW232025   5.860   2.106   1.138
10376SOL     OW32026   0.322   1.405   3.828
10376SOL    HW132027   0.297   1.368   3.738
10376SOL    HW232028   0.262   1.482   3.849
10377SOL     OW32029   0.236   0.567   3.538
10377SOL    HW132030   0.171   0.509   3.588
10377SOL    HW232031   0.316   0.512   3.513
10378SOL     OW32032   6.583   0.488   5.830
10378SOL    HW132033   6.586   0.412   5.896
10378SOL    HW232034   6.496   0.486   5.782
10379SOL     OW32035   4.979   0.183   4.782
10379SOL    HW132036   5.012   0.213   4.692
10379SOL    HW232037   5.016   0.092   4.801
10380SOL     OW32038   5.541   0.568   2.653
10380SOL    HW132039   5.635   0.579   2.685
10380SOL    HW232040   5.537   0.580   2.554
10381SOL     OW32041   4.684   5.301   6.120
10381SOL    HW132042   4.736   5.306   6.205
10381SOL    HW232043   4.601   5.357   6.129
10382SOL     OW32044   2.475   5.762   5.971
10382SOL    HW132045   2.440   5.703   5.899
10382SOL    HW232046   2.565   5.797   5.946
10383SOL     OW32047   0.777   2.878   0.952
10383SOL    HW132048   0.752   2.812   0.880
10383SOL    HW232049   0.795   2.829   1.037
10384SOL     OW32050   6.817   6.989   0.484
10384SOL    HW132051   6.732   6.948   0.517
10384SOL    HW232052   6.881   7.001   0.560
10385SOL     OW32053   6.161   1.036   5.966
10385SOL    HW132054   6.100   1.022   5.889
10385SOL    HW232055   6.118   1.003   6.050
10386SOL     OW32056   6.549   2.842   5.283
10386SOL    HW132057   6.595   2.830   5.194
10386SOL    HW232058   6.571   2.765   5.342
10387SOL     OW32059   1.625   2.840   2.773
10387SOL    HW132060   1.716   2.801   2.781
10387SOL    HW232061   1.623   2.930   2.817
10388SOL     OW32062   1.750   4.882   3.206
10388SOL    HW132063   1.820   4.877   3.277
10388SOL    HW232064   1.757   4.970   3.159
10389SOL     OW32065   1.203   4.887   3.871
10389SOL    HW132066   1.248   4.871   3.783
10389SOL    HW232067   1.171   4.800   3.908
10390SOL     OW32068   1.323   3.260   3.080
10390SOL    HW132069   1.408   3.299   3.045
10390SOL    HW232070   1.340   3.168   3.115
10391SOL     OW32071   2.054   6.308   6.691
10391SOL    HW132072   1.965   6.265   6.673
10391SOL    HW232073   2.092   6.342   6.605
10392SOL     OW32074   6.633   5.131   0.208
10392SOL    HW132075   6.660   5.052   0.262
10392SOL    HW232076   6.535   5.128   0.191
10393SOL     OW32077   0.826   1.100   4.234
10393SOL    HW132078   0.853   1.165   4.162
10393SOL    HW232079   0.757   1.038   4.198
10394SOL     OW32080   2.729   6.431   0.098
10394SOL    HW132081   2.689   6.350   0.142
10394SOL    HW232082   2.685   6.445   0.008
10395SOL     OW32083   0.027   0.607   4.735
10395SOL    HW132084   0.107   0.601   4.794
10395SOL    HW232085   0.055   0.600   4.639
10396SOL     OW32086   0.934   0.374   4.424
10396SOL    HW132087   0.898   0.284   4.445
10396SOL    HW232088   0.921   0.393   4.327
10397SOL     OW32089   3.660   0.881   3.809
10397SOL    HW132090   3.626   0.796   3.848
10397SOL    HW232091   3.759   0.887   3.824
10398SOL     OW32092   6.094   2.784   1.600
10398SOL    HW132093   6.125   2.751   1.689
10398SOL    HW232094   5.995   2.788   1.598
10399SOL     OW32095   5.089   2.433   5.010
10399SOL    HW132096   5.092   2.520   5.059
10399SOL    HW232097   5.016   2.435   4.942
10400SOL     OW32098   2.532   5.538   2.723
10400SOL    HW132099   2.617   5.494   2.752
10400SOL    HW232100   2.470   5.470   2.685
10401SOL     OW32101   0.428   5.645   2.143
10401SOL    HW132102   0.369   5.697   2.205
10401SOL    HW232103   0.420   5.547   2.163
10402SOL     OW32104   0.895   3.438   4.401
10402SOL    HW132105   0.813   3.478   4.360
10402SOL    HW232106   0.976   3.484   4.363
10403SOL     OW32107   5.716   1.402   1.516
10403SOL    HW132108   5.769   1.481   1.547
10403SOL    HW232109   5.749   1.371   1.427
10404SOL     OW32110   0.631   6.710   4.075
10404SOL    HW132111   0.710   6.656   4.104
10404SOL    HW232112   0.628   6.796   4.127
10405SOL     OW32113   1.673   6.094   5.755
10405SOL    HW132114   1.581   6.133   5.763
10405SOL    HW232115   1.716   6.090   5.845
10406SOL     OW32116   2.538   4.009   5.926
10406SOL    HW132117   2.584   4.076   5.984
10406SOL    HW232118   2.575   4.013   5.833
10407SOL     OW32119   1.071   2.494   6.425
10407SOL    HW132120   1.123   2.571   6.463
10407SOL    HW232121   1.126   2.447   6.357
10408SOL     OW32122   4.322   4.764   3.378
10408SOL    HW132123   4.298   4.808   3.291
10408SOL    HW232124   4.419   4.738   3.376
10409SOL     OW32125   0.490   4.157   2.286
10409SOL    HW132126   0.396   4.127   2.274
10409SOL    HW232127   0.540   4.148   2.200
10410SOL     OW32128   4.757   0.616   1.448
10410SOL    HW132129   4.782   0.702   1.493
10410SOL    HW232130   4.704   0.637   1.365
10411SOL     OW32131   2.393   4.894   2.954
10411SOL    HW132132   2.436   4.971   2.908
10411SOL    HW232133   2.318   4.926   3.012
10412SOL     OW32134   1.169   1.962   0.238
10412SOL    HW132135   1.255   2.010   0.252
10412SOL    HW232136   1.186   1.864   0.235
10413SOL     OW32137   6.819   2.708   6.918
10413SOL    HW132138   6.752   2.779   6.895
10413SOL    HW232139   6.853   2.666   6.834
10414SOL     OW32140   5.575   6.136   6.476
10414SOL    HW132141   5.576   6.048   6.523
10414SOL    HW232142   5.657   6.187   6.499
10415SOL     OW32143   0.368   5.966   4.145
10415SOL    HW132144   0.430   5.889   4.127
10415SOL    HW232145   0.408   6.025   4.215
10416SOL     OW32146   5.452   1.830   5.068
10416SOL    HW132147   5.499   1.847   4.982
10416SOL    HW232148   5.507   1.865   5.144
10417SOL     OW32149   3.999   4.783   3.733
10417SOL    HW132150   4.090   4.751   3.706
10417SOL    HW232151   4.001   4.813   3.828
10418SOL     OW32152   6.820   4.577   6.855
10418SOL    HW132153   6.725   4.546   6.860
10418SOL    HW232154   6.825   4.673   6.883
10419SOL     OW32155   3.122   1.186   4.692
10419SOL    HW132156   3.058   1.149   4.625
10419SOL    HW232157   3.143   1.116   4.760
10420SOL     OW32158   6.924   3.323   3.365
10420SOL    HW132159   6.829   3.299   3.344
10420SOL    HW232160   6.984   3.252   3.330
10421SOL     OW32161   1.145   4.685   4.474
10421SOL    HW132162   1.103   4.594   4.475
10421SOL    HW232163   1.240   4.678   4.444
10422SOL     OW32164   6.608   3.778   5.034
10422SOL    HW132165   6.656   3.709   4.980
10422SOL    HW232166   6.549   3.832   4.974
10423SOL     OW32167   3.387   5.154   4.139
10423SOL    HW132168   3.355   5.211   4.063
10423SOL    HW232169   3.474   5.112   4.113
10424SOL     OW32170   3.462   0.941   0.296
10424SOL    HW132171   3.436   0.853   0.335
10424SOL    HW232172   3.550   0.970   0.334
10425SOL     OW32173   1.790   1.103   0.756
10425SOL    HW132174   1.743   1.021   0.790
10425SOL    HW232175   1.752   1.184   0.801
10426SOL     OW32176   6.277   2.145   6.077
10426SOL    HW132177   6.317   2.059   6.108
10426SOL    HW232178   6.211   2.177   6.146
10427SOL     OW32179   5.560   6.931   4.241
10427SOL    HW132180   5.505   6.991   4.183
10427SOL    HW232181   5.509   6.847   4.260
10428SOL     OW32182   2.018   0.777   4.080
10428SOL    HW132183   2.016   0.832   3.996
10428SOL    HW232184   1.962   0.820   4.150
10429SOL     OW32185   1.228   3.228   2.542
10429SOL    HW132186   1.264   3.314   2.505
10429SOL    HW232187   1.202   3.242   2.637
10430SOL     OW32188   2.704   0.479   3.772
10430SOL    HW132189   2.699   0.478   3.672
10430SOL    HW232190   2.663   0.564   3.806
10431SOL     OW32191   2.973   0.899   3.217
10431SOL    HW132192   2.963   0.954   3.134
10431SOL    HW232193   3.039   0.943   3.278
10432SOL     OW32194   0.966   5.377   5.688
10432SOL    HW132195   0.939   5.283   5.672
10432SOL    HW232196   0.908   5.417   5.759
10433SOL     OW32197   1.948   0.058   2.724
10433SOL    HW132198   1.851   0.077   2.710
10433SOL    HW232199   1.997   0.068   2.637
10434SOL     OW32200   4.257   6.559   5.156
10434SOL    HW132201   4.324   6.585   5.086
10434SOL    HW232202   4.222   6.468   5.135
10435SOL     OW32203   2.287   2.107   6.947
10435SOL    HW132204   2.255   2.027   6.997
10435SOL    HW232205   2.381   2.127   6.973
10436SOL     OW32206   6.356   4.099   4.760
10436SOL    HW132207   6.361   4.032   4.685
10436SOL    HW232208   6.378   4.054   4.846
10437SOL     OW32209   5.100   5.855   5.190
10437SOL    HW132210   5.161   5.795   5.241
10437SOL    HW232211   5.083   5.938   5.242
10438SOL     OW32212   6.861   6.079   6.489
10438SOL    HW132213   6.927   6.126   6.429
10438SOL    HW232214   6.845   6.134   6.571
10439SOL     OW32215   6.420   6.705   4.901
10439SOL    HW132216   6.360   6.625   4.903
10439SOL    HW232217   6.408   6.753   4.814
10440SOL     OW32218   0.065   2.253   6.930
10440SOL    HW132219   0.071   2.155   6.948
10440SOL    HW232220   0.068   2.269   6.831
10441SOL     OW32221   3.710   2.040   1.054
10441SOL    HW132222   3.680   2.001   1.141
10441SOL    HW232223   3.652   2.005   0.980
10442SOL     OW32224   2.060   1.725   5.995
10442SOL    HW132225   2.097   1.704   6.085
10442SOL    HW232226   1.969   1.765   6.005
10443SOL     OW32227   0.037   2.019   3.114
10443SOL    HW132228   0.043   1.923   3.142
10443SOL    HW232229   6.994   2.028   3.040
10444SOL     OW32230   3.748   5.776   3.968
10444SOL    HW132231   3.745   5.676   3.973
10444SOL    HW232232   3.671   5.814   4.020
10445SOL     OW32233   1.506   4.094   2.948
10445SOL    HW132234   1.557   4.055   3.024
10445SOL    HW232235   1.505   4.029   2.872
10446SOL     OW32236   1.678   4.229   6.197
10446SOL    HW132237   1.750   4.212   6.130
10446SOL    HW232238   1.616   4.299   6.162
10447SOL     OW32239   0.241   2.224   2.692
10447SOL    HW132240   0.208   2.137   2.655
10447SOL    HW232241   0.164   2.284   2.712
10448SOL     OW32242   2.454   6.093   2.926
10448SOL    HW132243   2.553   6.110   2.932
10448SOL    HW232244   2.418   6.135   2.843
10449SOL     OW32245   4.211   5.492   5.345
10449SOL    HW132246   4.233   5.589   5.357
10449SOL    HW232247   4.193   5.451   5.434
10450SOL     OW32248   0.072   0.832   5.934
10450SOL    HW132249   0.065   0.886   6.018
10450SOL    HW232250   0.023   0.746   5.946
10451SOL     OW32251   2.303   0.757   3.320
10451SOL    HW132252   2.279   0.698   3.243
10451SOL    HW232253   2.322   0.849   3.287
10452SOL     OW32254   0.236   3.645   4.433
10452SOL    HW132255   0.187   3.587   4.498
10452SOL    HW232256   0.299   3.589   4.380
10453SOL     OW32257   3.979   5.658   3.467
10453SOL    HW132258   3.978   5.710   3.382
10453SOL    HW232259   4.047   5.585   3.461
10454SOL     OW32260   6.863   0.090   5.899
10454SOL    HW132261   6.777   0.140   5.902
10454SOL    HW232262   6.915   0.119   5.818
10455SOL     OW32263   6.133   6.559   3.670
10455SOL    HW132264   6.140   6.559   3.770
10455SOL    HW232265   6.083   6.478   3.640
10456SOL     OW32266   0.940   5.523   6.823
10456SOL    HW132267   0.922   5.546   6.727
10456SOL    HW232268   0.854   5.518   6.873
10457SOL     OW32269   3.717   2.584   6.929
10457SOL    HW132270   3.743   2.626   6.843
10457SOL    HW232271   3.618   2.566   6.929
10458SOL     OW32272   6.854   5.733   6.324
10458SOL    HW132273   6.808   5.809   6.278
10458SOL    HW232274   6.953   5.747   6.320
10459SOL     OW32275   0.244   5.222   0.299
10459SOL    HW132276   0.183   5.148   0.326
10459SOL    HW232277   0.313   5.188   0.236
10460SOL     OW32278   0.518   2.558   0.777
10460SOL    HW132279   0.486   2.637   0.724
10460SOL    HW232280   0.544   2.485   0.714
10461SOL     OW32281   6.984   5.033   5.440
10461SOL    HW132282   7.003   5.122   5.481
10461SOL    HW232283   0.047   4.992   5.408
10462SOL     OW32284   4.103   1.825   0.861
10462SOL    HW132285   4.056   1.785   0.940
10462SOL    HW232286   4.057   1.910   0.835
10463SOL     OW32287   4.923   2.585   6.343
10463SOL    HW132288   4.841   2.600   6.288
10463SOL    HW232289   4.986   2.524   6.294
10464SOL     OW32290   6.570   4.921   2.753
10464SOL    HW132291   6.537   4.996   2.811
10464SOL    HW232292   6.641   4.957   2.692
10465SOL     OW32293   5.251   4.432   2.167
10465SOL    HW132294   5.307   4.389   2.237
10465SOL    HW232295   5.156   4.401   2.176
10466SOL     OW32296   5.982   4.894   6.343
10466SOL    HW132297   5.893   4.860   6.311
10466SOL    HW232298   5.984   4.891   6.443
10467SOL     OW32299   1.980   2.613   0.006
10467SOL    HW132300   1.980   2.613   6.928
10467SOL    HW232301   1.909   2.675   0.039
10468SOL     OW32302   2.888   5.045   3.561
10468SOL    HW132303   2.862   4.963   3.510
10468SOL    HW232304   2.829   5.121   3.533
10469SOL     OW32305   6.258   1.464   4.702
10469SOL    HW132306   6.246   1.366   4.719
10469SOL    HW232307   6.310   1.505   4.777
10470SOL     OW32308   2.414   2.573   4.009
10470SOL    HW132309   2.324   2.609   4.033
10470SOL    HW232310   2.449   2.623   3.929
10471SOL     OW32311   3.278   6.905   0.141
10471SOL    HW132312   3.202   6.942   0.087
10471SOL    HW232313   3.242   6.867   0.227
10472SOL     OW32314   2.930   4.824   6.842
10472SOL    HW132315   2.994   4.820   6.765
10472SOL    HW232316   2.850   4.877   6.817
10473SOL     OW32317   5.199   5.204   0.024
10473SOL    HW132318   5.104   5.228   0.047
10473SOL    HW232319   5.241   5.156   0.101
10474SOL     OW32320   5.079   1.041   3.543
10474SOL    HW132321   5.105   1.118   3.486
10474SOL    HW232322   5.124   1.049   3.632
10475SOL     OW32323   1.109   0.059   1.201
10475SOL    HW132324   1.148   0.010   1.123
10475SOL    HW232325   1.056   7.019   1.257
10476SOL     OW32326   3.550   6.257   6.836
10476SOL    HW132327   3.540   6.181   6.900
10476SOL    HW232328   3.586   6.223   6.749
10477SOL     OW32329   6.254   5.964   3.077
10477SOL    HW132330   6.320   5.977   3.002
10477SOL    HW232331   6.200   6.048   3.089
10478SOL     OW32332   5.873   0.492   0.003
10478SOL    HW132333   5.783   0.471   0.043
10478SOL    HW232334   5.861   0.545   6.942
10479SOL     OW32335   0.582   2.380   2.169
10479SOL    HW132336   0.578   2.445   2.094
10479SOL    HW232337   0.518   2.305   2.152
10480SOL     OW32338   1.737   0.039   2.385
10480SOL    HW132339   1.796   0.101   2.333
10480SOL    HW232340   1.665   0.091   2.431
10481SOL     OW32341   0.003   0.887   2.661
10481SOL    HW132342   6.954   0.860   2.726
10481SOL    HW232343   7.018   0.984   2.641
10482SOL     OW32344   5.365   3.821   4.044
10482SOL    HW132345   5.428   3.898   4.060
10482SOL    HW232346   5.415   3.745   4.003
10483SOL     OW32347   6.099   5.943   0.572
10483SOL    HW132348   6.062   6.003   0.642
10483SOL    HW232349   6.033   5.934   0.497
10484SOL     OW32350   6.374   1.218   1.749
10484SOL    HW132351   6.326   1.142   1.794
10484SOL    HW232352   6.309   1.268   1.691
10485SOL     OW32353   5.497   3.434   5.683
10485SOL    HW132354   5.405   3.400   5.703
10485SOL    HW232355   5.514   3.426   5.585
10486SOL     OW32356   5.769   2.718   1.767
10486SOL    HW132357   5.786   2.785   1.695
10486SOL    HW232358   5.761   2.765   1.855
10487SOL     OW32359   6.096   6.799   1.425
10487SOL    HW132360   6.041   6.841   1.353
10487SOL    HW232361   6.063   6.827   1.515
10488SOL     OW32362   2.591   2.463   6.037
10488SOL    HW132363   2.678   2.494   5.998
10488SOL    HW232364   2.531   2.541   6.050
10489SOL     OW32365   0.163   5.702   6.208
10489SOL    HW132366   0.205   5.792   6.197
10489SOL    HW232367   0.195   5.661   6.293
10490SOL     OW32368   6.809   1.131   3.634
10490SOL    HW132369   6.750   1.176   3.568
10490SOL    HW232370   6.753   1.093   3.708
10491SOL     OW32371   1.857   4.646   6.024
10491SOL    HW132372   1.797   4.646   6.104
10491SOL    HW232373   1.883   4.552   6.003
10492SOL     OW32374   5.009   3.453   5.126
10492SOL    HW132375   4.952   3.394   5.183
10492SOL    HW232376   4.954   3.528   5.090
10493SOL     OW32377   3.678   1.022   1.575
10493SOL    HW132378   3.718   1.113   1.583
10493SOL    HW232379   3.656   0.988   1.667
10494SOL     OW32380   5.763   1.723   4.826
10494SOL    HW132381   5.807   1.753   4.911
10494SOL    HW232382   5.823   1.744   4.748
10495SOL     OW32383   1.380   6.779   0.744
10495SOL    HW132384   1.430   6.706   0.790
10495SOL    HW232385   1.361   6.751   0.649
10496SOL     OW32386   0.278   6.774   6.398
10496SOL    HW132387   0.256   6.767   6.496
10496SOL    HW232388   0.348   6.843   6.384
10497SOL     OW32389   1.451   0.634   0.985
10497SOL    HW132390   1.467   0.607   0.890
10497SOL    HW232391   1.368   0.690   0.990
10498SOL     OW32392   1.821   6.414   6.060
10498SOL    HW132393   1.877   6.345   6.106
10498SOL    HW232394   1.731   6.376   6.038
10499SOL     OW32395   3.118   5.851   3.522
10499SOL    HW132396   3.096   5.776   3.461
10499SOL    HW232397   3.208   5.836   3.563
10500SOL     OW32398   1.278   2.030   6.116
10500SOL    HW132399   1.357   2.027   6.055
10500SOL    HW232400   1.197   2.059   6.065
10501SOL     OW32401   1.740   3.868   2.729
10501SOL    HW132402   1.797   3.875   2.810
10501SOL    HW232403   1.772   3.934   2.660
10502SOL     OW32404   3.313   6.455   6.773
10502SOL    HW132405   3.268   6.387   6.715
10502SOL    HW232406   3.412   6.445   6.765
10503SOL     OW32407   3.298   2.821   6.993
10503SOL    HW132408   3.227   2.803   0.039
10503SOL    HW232409   3.256   2.859   6.911
10504SOL     OW32410   3.192   3.165   0.922
10504SOL    HW132411   3.169   3.110   1.002
10504SOL    HW232412   3.136   3.248   0.921
10505SOL     OW32413   6.442   5.828   1.282
10505SOL    HW132414   6.507   5.902   1.266
10505SOL    HW232415   6.463   5.782   1.368
10506SOL     OW32416   0.813   3.833   6.172
10506SOL    HW132417   0.837   3.904   6.237
10506SOL    HW232418   0.817   3.744   6.216
10507SOL     OW32419   1.016   0.496   6.099
10507SOL    HW132420   0.955   0.557   6.150
10507SOL    HW232421   0.970   0.466   6.015
10508SOL     OW32422   5.362   4.345   3.619
10508SOL    HW132423   5.414   4.272   3.576
10508SOL    HW232424   5.277   4.361   3.568
10509SOL     OW32425   1.381   6.685   6.359
10509SOL    HW132426   1.299   6.736   6.335
10509SOL    HW232427   1.421   6.722   6.443
10510SOL     OW32428   6.207   5.910   6.780
10510SOL    HW132429   6.290   5.916   6.836
10510SOL    HW232430   6.139   5.974   6.815
10511SOL     OW32431   4.491   2.739   0.128
10511SOL    HW132432   4.456   2.745   0.222
10511SOL    HW232433   4.415   2.739   0.064
10512SOL     OW32434   4.125   0.358   5.952
10512SOL    HW132435   4.159   0.266   5.930
10512SOL    HW232436   4.059   0.351   6.027
10513SOL     OW32437   0.452   2.335   6.052
10513SOL    HW132438   0.545   2.366   6.038
10513SOL    HW232439   0.411   2.384   6.129
10514SOL     OW32440   6.922   4.330   0.227
10514SOL    HW132441   6.910   4.429   0.232
10514SOL    HW232442   6.953   4.296   0.316
10515SOL     OW32443   6.634   2.078   3.672
10515SOL    HW132444   6.625   2.049   3.577
10515SOL    HW232445   6.553   2.128   3.701
10516SOL     OW32446   4.390   1.063   6.074
10516SOL    HW132447   4.476   1.106   6.047
10516SOL    HW232448   4.407   0.969   6.100
10517SOL     OW32449   6.412   1.548   2.485
10517SOL    HW132450   6.388   1.536   2.581
10517SOL    HW232451   6.337   1.594   2.437
10518SOL     OW32452   1.008   6.196   0.775
10518SOL    HW132453   0.958   6.270   0.821
10518SOL    HW232454   1.019   6.119   0.838
10519SOL     OW32455   3.031   3.293   6.237
10519SOL    HW132456   3.045   3.289   6.138
10519SOL    HW232457   2.987   3.379   6.261
10520SOL     OW32458   3.438   2.610   6.895
10520SOL    HW132459   3.384   2.682   6.940
10520SOL    HW232460   3.392   2.522   6.906
10521SOL     OW32461   6.693   5.969   1.268
10521SOL    HW132462   6.729   5.881   1.238
10521SOL    HW232463   6.643   6.012   1.193
10522SOL     OW32464   6.714   0.503   0.791
10522SOL    HW132465   6.696   0.546   0.879
10522SOL    HW232466   6.739   0.407   0.806
10523SOL     OW32467   0.126   5.568   5.951
10523SOL    HW132468   0.116   5.604   6.044
10523SOL    HW232469   0.067   5.620   5.889
10524SOL     OW32470   1.968   0.244   4.420
10524SOL    HW132471   1.929   0.162   4.379
10524SOL    HW232472   2.065   0.251   4.396
10525SOL     OW32473   1.798   6.743   5.133
10525SOL    HW132474   1.770   6.700   5.048
10525SOL    HW232475   1.789   6.843   5.125
10526SOL     OW32476   0.103   1.039   2.050
10526SOL    HW132477   0.121   1.053   1.952
10526SOL    HW232478   0.091   1.128   2.094
10527SOL     OW32479   0.690   2.853   4.551
10527SOL    HW132480   0.749   2.924   4.514
10527SOL    HW232481   0.689   2.858   4.651
10528SOL     OW32482   6.968   5.294   5.063
10528SOL    HW132483   7.017   5.207   5.063
10528SOL    HW232484   6.898   5.293   5.134
10529SOL     OW32485   6.708   6.954   3.441
10529SOL    HW132486   6.661   6.866   3.433
10529SOL    HW232487   6.696   7.005   3.356
10530SOL     OW32488   2.816   2.297   5.668
10530SOL    HW132489   2.890   2.242   5.707
10530SOL    HW232490   2.828   2.392   5.693
10531SOL     OW32491   1.375   3.385   4.695
10531SOL    HW132492   1.393   3.461   4.757
10531SOL    HW232493   1.409   3.408   4.603
10532SOL     OW32494   4.119   2.488   6.361
10532SOL    HW132495   4.102   2.574   6.410
10532SOL    HW232496   4.037   2.464   6.309
10533SOL     OW32497   2.594   1.113   5.585
10533SOL    HW132498   2.625   1.062   5.505
10533SOL    HW232499   2.502   1.082   5.609
10534SOL     OW32500   0.144   5.495   0.761
10534SOL    HW132501   0.093   5.580   0.744
10534SOL    HW232502   0.095   5.440   0.828
10535SOL     OW32503   0.636   1.569   2.275
10535SOL    HW132504   0.617   1.489   2.331
10535SOL    HW232505   0.717   1.551   2.218
10536SOL     OW32506   4.711   0.734   2.677
10536SOL    HW132507   4.758   0.779   2.753
10536SOL    HW232508   4.734   0.781   2.592
10537SOL     OW32509   2.793   5.399   2.515
10537SOL    HW132510   2.822   5.407   2.610
10537SOL    HW232511   2.753   5.485   2.484
10538SOL     OW32512   4.258   4.228   0.196
10538SOL    HW132513   4.287   4.317   0.162
10538SOL    HW232514   4.326   4.159   0.171
10539SOL     OW32515   0.481   3.372   6.197
10539SOL    HW132516   0.398   3.371   6.141
10539SOL    HW232517   0.487   3.286   6.248
10540SOL     OW32518   1.917   0.602   5.769
10540SOL    HW132519   1.825   0.611   5.730
10540SOL    HW232520   1.918   0.526   5.834
10541SOL     OW32521   4.143   3.308   0.203
10541SOL    HW132522   4.136   3.353   0.292
10541SOL    HW232523   4.239   3.298   0.178
10542SOL     OW32524   6.952   2.584   0.534
10542SOL    HW132525   6.973   2.677   0.504
10542SOL    HW232526   6.973   2.520   0.460
10543SOL     OW32527   0.418   1.681   5.774
10543SOL    HW132528   0.491   1.735   5.817
10543SOL    HW232529   0.366   1.740   5.712
10544SOL     OW32530   2.372   2.290   2.691
10544SOL    HW132531   2.324   2.277   2.605
10544SOL    HW232532   2.470   2.300   2.674
10545SOL     OW32533   0.022   0.251   2.330
10545SOL    HW132534   6.987   0.188   2.381
10545SOL    HW232535   6.988   0.319   2.284
10546SOL     OW32536   2.457   0.027   4.433
10546SOL    HW132537   2.523   0.009   4.360
10546SOL    HW232538   2.406   6.966   4.454
10547SOL     OW32539   4.420   1.590   1.351
10547SOL    HW132540   4.331   1.545   1.357
10547SOL    HW232541   4.476   1.544   1.281
10548SOL     OW32542   5.124   4.085   4.464
10548SOL    HW132543   5.213   4.124   4.487
10548SOL    HW232544   5.089   4.031   4.540
10549SOL     OW32545   1.255   0.314   2.339
10549SOL    HW132546   1.204   0.248   2.284
10549SOL    HW232547   1.336   0.270   2.378
10550SOL     OW32548   5.289   0.575   3.854
10550SOL    HW132549   5.374   0.589   3.803
10550SOL    HW232550   5.211   0.581   3.791
10551SOL     OW32551   1.072   2.158   5.201
10551SOL    HW132552   1.059   2.191   5.295
10551SOL    HW232553   1.041   2.229   5.138
10552SOL     OW32554   3.282   2.647   5.877
10552SOL    HW132555   3.238   2.598   5.802
10552SOL    HW232556   3.376   2.671   5.851
10553SOL     OW32557   0.792   5.837   6.983
10553SOL    HW132558   0.862   5.788   0.012
10553SOL    HW232559   0.742   5.773   6.925
10554SOL     OW32560   6.679   4.820   6.901
10554SOL    HW132561   6.620   4.750   6.940
10554SOL    HW232562   6.646   4.845   6.810
10555SOL     OW32563   3.391   1.577   2.668
10555SOL    HW132564   3.314   1.637   2.645
10555SOL    HW232565   3.458   1.577   2.594
10556SOL     OW32566   1.997   3.327   5.089
10556SOL    HW132567   1.973   3.394   5.019
10556SOL    HW232568   2.072   3.269   5.055
10557SOL     OW32569   6.951   2.600   3.138
10557SOL    HW132570   6.970   2.503   3.155
10557SOL    HW232571   0.007   2.655   3.166
10558SOL     OW32572   4.676   6.623   5.350
10558SOL    HW132573   4.723   6.621   5.439
10558SOL    HW232574   4.583   6.589   5.361
10559SOL     OW32575   4.903   1.949   0.948
10559SOL    HW132576   4.846   1.982   0.872
10559SOL    HW232577   4.937   2.027   1.000
10560SOL     OW32578   1.370   4.163   4.939
10560SOL    HW132579   1.430   4.182   4.861
10560SOL    HW232580   1.345   4.067   4.939
10561SOL     OW32581   2.004   4.840   6.729
10561SOL    HW132582   2.060   4.912   6.688
10561SOL    HW232583   2.005   4.759   6.670
10562SOL     OW32584   4.433   1.182   0.749
10562SOL    HW132585   4.451   1.142   0.659
10562SOL    HW232586   4.491   1.262   0.762
10563SOL     OW32587   2.071   1.906   5.206
10563SOL    HW132588   2.052   1.848   5.285
10563SOL    HW232589   2.113   1.991   5.237
10564SOL     OW32590   5.564   1.201   1.633
10564SOL    HW132591   5.581   1.128   1.566
10564SOL    HW232592   5.620   1.281   1.610
10565SOL     OW32593   6.394   0.839   5.367
10565SOL    HW132594   6.400   0.901   5.445
10565SOL    HW232595   6.347   0.885   5.292
10566SOL     OW32596   3.497   4.016   6.229
10566SOL    HW132597   3.493   3.974   6.139
10566SOL    HW232598   3.417   4.074   6.243
10567SOL     OW32599   1.934   3.692   4.277
10567SOL    HW132600   1.961   3.765   4.340
10567SOL    HW232601   2.011   3.631   4.261
10568SOL     OW32602   5.380   1.091   2.286
10568SOL    HW132603   5.332   1.020   2.338
10568SOL    HW232604   5.467   1.112   2.331
10569SOL     OW32605   6.053   3.079   3.075
10569SOL    HW132606   6.018   3.030   2.995
10569SOL    HW232607   5.983   3.079   3.147
10570SOL     OW32608   2.146   4.533   2.335
10570SOL    HW132609   2.201   4.459   2.374
10570SOL    HW232610   2.152   4.614   2.393
10571SOL     OW32611   6.570   5.828   2.590
10571SOL    HW132612   6.475   5.828   2.559
10571SOL    HW232613   6.623   5.761   2.538
10572SOL     OW32614   5.966   3.745   2.361
10572SOL    HW132615   6.059   3.781   2.372
10572SOL    HW232616   5.900   3.818   2.379
10573SOL     OW32617   6.297   5.609   3.837
10573SOL    HW132618   6.319   5.676   3.766
10573SOL    HW232619   6.382   5.576   3.879
10574SOL     OW32620   0.861   2.075   3.528
10574SOL    HW132621   0.770   2.041   3.550
10574SOL    HW232622   0.922   1.998   3.512
10575SOL     OW32623   1.100   1.013   5.113
10575SOL    HW132624   1.052   1.072   5.049
10575SOL    HW232625   1.156   1.068   5.175
10576SOL     OW32626   1.612   5.634   4.879
10576SOL    HW132627   1.628   5.548   4.830
10576SOL    HW232628   1.584   5.705   4.814
10577SOL     OW32629   1.922   2.930   5.960
10577SOL    HW132630   1.832   2.915   6.000
10577SOL    HW232631   1.984   2.967   6.029
10578SOL     OW32632   5.629   0.035   5.321
10578SOL    HW132633   5.653   7.013   5.234
10578SOL    HW232634   5.603   6.988   5.388
10579SOL     OW32635   4.461   1.871   0.652
10579SOL    HW132636   4.489   1.779   0.627
10579SOL    HW232637   4.442   1.875   0.750
10580SOL     OW32638   6.999   6.319   6.394
10580SOL    HW132639   6.939   6.399   6.404
10580SOL    HW232640   0.013   6.317   6.301
10581SOL     OW32641   5.550   0.761   3.702
10581SOL    HW132642   5.475   0.813   3.660
10581SOL    HW232643   5.547   0.666   3.669
10582SOL     OW32644   3.682   5.278   6.739
10582SOL    HW132645   3.727   5.261   6.826
10582SOL    HW232646   3.751   5.303   6.670
10583SOL     OW32647   3.775   0.991   0.378
10583SOL    HW132648   3.786   0.893   0.392
10583SOL    HW232649   3.863   1.036   0.389
10584SOL     OW32650   5.324   6.315   1.582
10584SOL    HW132651   5.379   6.249   1.633
10584SOL    HW232652   5.235   6.275   1.560
10585SOL     OW32653   0.865   2.875   6.263
10585SOL    HW132654   0.875   2.789   6.211
10585SOL    HW232655   0.925   2.945   6.223
10586SOL     OW32656   2.849   6.072   5.875
10586SOL    HW132657   2.805   6.161   5.868
10586SOL    HW232658   2.780   6.000   5.867
10587SOL     OW32659   6.091   3.592   0.609
10587SOL    HW132660   6.179   3.544   0.611
10587SOL    HW232661   6.047   3.576   0.521
10588SOL     OW32662   1.077   4.904   2.688
10588SOL    HW132663   1.046   4.872   2.777
10588SOL    HW232664   0.998   4.931   2.633
10589SOL     OW32665   5.473   2.517   4.475
10589SOL    HW132666   5.491   2.421   4.455
10589SOL    HW232667   5.560   2.566   4.486
10590SOL     OW32668   1.259   0.271   3.369
10590SOL    HW132669   1.162   0.296   3.362
10590SOL    HW232670   1.268   0.191   3.428
10591SOL     OW32671   1.222   1.733   6.305
10591SOL    HW132672   1.272   1.818   6.323
10591SOL    HW232673   1.172   1.706   6.387
10592SOL     OW32674   6.677   1.591   0.474
10592SOL    HW132675   6.691   1.586   0.573
10592SOL    HW232676   6.580   1.602   0.455
10593SOL     OW32677   2.059   5.416   1.511
10593SOL    HW132678   2.086   5.509   1.485
10593SOL    HW232679   2.103   5.392   1.597
10594SOL     OW32680   6.162   1.651   4.182
10594SOL    HW132681   6.251   1.691   4.157
10594SOL    HW232682   6.162   1.628   4.279
10595SOL     OW32683   3.843   6.758   6.417
10595SOL    HW132684   3.899   6.714   6.487
10595SOL    HW232685   3.899   6.783   6.339
10596SOL     OW32686   4.005   6.962   2.373
10596SOL    HW132687   4.017   6.994   2.279
10596SOL    HW232688   3.916   6.916   2.381
10597SOL     OW32689   2.181   0.784   4.928
10597SOL    HW132690   2.192   0.708   4.865
10597SOL    HW232691   2.109   0.762   4.994
10598SOL     OW32692   2.193   2.330   6.870
10598SOL    HW132693   2.208   2.233   6.886
10598SOL    HW232694   2.237   2.357   6.784
10599SOL     OW32695   6.079   0.683   0.087
10599SOL    HW132696   6.032   0.689   0.175
10599SOL    HW232697   6.018   0.642   0.019
10600SOL     OW32698   2.597   2.754   5.785
10600SOL    HW132699   2.652   2.784   5.707
10600SOL    HW232700   2.541   2.676   5.759
10601SOL     OW32701   2.684   6.528   6.123
10601SOL    HW132702   2.674   6.598   6.052
10601SOL    HW232703   2.606   6.532   6.185
10602SOL     OW32704   5.013   1.680   1.659
10602SOL    HW132705   5.015   1.587   1.623
10602SOL    HW232706   4.919   1.715   1.654
10603SOL     OW32707   1.827   5.167   3.938
10603SOL    HW132708   1.819   5.225   3.857
10603SOL    HW232709   1.906   5.106   3.927
10604SOL     OW32710   6.469   4.308   4.244
10604SOL    HW132711   6.504   4.258   4.323
10604SOL    HW232712   6.531   4.383   4.222
10605SOL     OW32713   0.936   5.272   6.965
10605SOL    HW132714   0.971   5.364   6.945
10605SOL    HW232715   1.006   5.204   6.944
10606SOL     OW32716   0.276   0.626   1.492
10606SOL    HW132717   0.179   0.633   1.469
10606SOL    HW232718   0.299   0.530   1.509
10607SOL     OW32719   4.864   4.396   6.541
10607SOL    HW132720   4.866   4.320   6.477
10607SOL    HW232721   4.956   4.411   6.578
10608SOL     OW32722   5.625   1.401   4.299
10608SOL    HW132723   5.606   1.442   4.388
10608SOL    HW232724   5.587   1.458   4.227
10609SOL     OW32725   4.360   6.326   0.529
10609SOL    HW132726   4.387   6.413   0.487
10609SOL    HW232727   4.441   6.269   0.542
10610SOL     OW32728   1.418   3.231   5.876
10610SOL    HW132729   1.371   3.251   5.791
10610SOL    HW232730   1.503   3.182   5.857
10611SOL     OW32731   5.460   2.498   6.167
10611SOL    HW132732   5.502   2.455   6.248
10611SOL    HW232733   5.519   2.484   6.088
10612SOL     OW32734   2.506   6.947   6.558
10612SOL    HW132735   2.580   7.013   6.553
10612SOL    HW232736   2.529   6.867   6.503
10613SOL     OW32737   0.433   6.542   5.697
10613SOL    HW132738   0.481   6.629   5.682
10613SOL    HW232739   0.366   6.528   5.624
10614SOL     OW32740   6.303   1.118   4.514
10614SOL    HW132741   6.335   1.040   4.460
10614SOL    HW232742   6.205   1.109   4.531
10615SOL     OW32743   5.067   5.128   4.890
10615SOL    HW132744   5.070   5.153   4.793
10615SOL    HW232745   5.129   5.187   4.942
10616SOL     OW32746   3.307   6.284   0.230
10616SOL    HW132747   3.218   6.248   0.256
10616SOL    HW232748   3.377   6.214   0.246
10617SOL     OW32749   2.230   2.445   0.983
10617SOL    HW132750   2.239   2.346   0.983
10617SOL    HW232751   2.141   2.471   0.945
10618SOL     OW32752   5.987   3.014   0.090
10618SOL    HW132753   6.012   2.975   0.179
10618SOL    HW232754   5.944   3.103   0.104
10619SOL     OW32755   0.936   4.356   3.693
10619SOL    HW132756   0.876   4.346   3.772
10619SOL    HW232757   0.912   4.288   3.624
10620SOL     OW32758   1.606   6.042   4.568
10620SOL    HW132759   1.691   6.089   4.592
10620SOL    HW232760   1.623   5.979   4.492
10621SOL     OW32761   1.906   5.893   6.709
10621SOL    HW132762   1.973   5.945   6.657
10621SOL    HW232763   1.905   5.798   6.676
10622SOL     OW32764   3.518   0.050   1.466
10622SOL    HW132765   3.600   7.021   1.487
10622SOL    HW232766   3.536   0.109   1.387
10623SOL     OW32767   6.096   2.583   3.910
10623SOL    HW132768   6.140   2.633   3.835
10623SOL    HW232769   6.142   2.606   3.996
10624SOL     OW32770   1.488   1.183   4.652
10624SOL    HW132771   1.456   1.266   4.608
10624SOL    HW232772   1.540   1.206   4.735
10625SOL     OW32773   0.799   3.065   7.003
10625SOL    HW132774   0.707   3.102   6.997
10625SOL    HW232775   0.861   3.135   0.017
10626SOL     OW32776   0.497   1.564   2.026
10626SOL    HW132777   0.501   1.466   2.008
10626SOL    HW232778   0.539   1.584   2.115
10627SOL     OW32779   6.336   6.422   2.648
10627SOL    HW132780   6.237   6.428   2.629
10627SOL    HW232781   6.375   6.514   2.651
10628SOL     OW32782   6.334   5.294   5.557
10628SOL    HW132783   6.382   5.222   5.608
10628SOL    HW232784   6.348   5.281   5.459
10629SOL     OW32785   2.886   5.515   5.576
10629SOL    HW132786   2.851   5.431   5.534
10629SOL    HW232787   2.811   5.579   5.591
10630SOL     OW32788   5.975   1.777   3.484
10630SOL    HW132789   6.075   1.784   3.486
10630SOL    HW232790   5.934   1.861   3.520
10631SOL     OW32791   0.496   6.678   3.814
10631SOL    HW132792   0.555   6.757   3.827
10631SOL    HW232793   0.423   6.701   3.749
10632SOL     OW32794   6.697   2.008   4.711
10632SOL    HW132795   6.719   2.062   4.630
10632SOL    HW232796   6.601   1.979   4.708
10633SOL     OW32797   2.252   5.645   1.187
10633SOL    HW132798   2.226   5.668   1.281
10633SOL    HW232799   2.255   5.728   1.132
10634SOL     OW32800   3.478   6.224   0.750
10634SOL    HW132801   3.455   6.320   0.735
10634SOL    HW232802   3.400   6.178   0.792
10635SOL     OW32803   2.511   0.460   1.338
10635SOL    HW132804   2.490   0.449   1.436
10635SOL    HW232805   2.425   0.471   1.287
10636SOL     OW32806   0.671   1.857   1.004
10636SOL    HW132807   0.693   1.802   0.923
10636SOL    HW232808   0.749   1.858   1.066
10637SOL     OW32809   3.552   4.204   4.654
10637SOL    HW132810   3.628   4.164   4.705
10637SOL    HW232811   3.580   4.294   4.618
10638SOL     OW32812   6.599   6.525   4.699
10638SOL    HW132813   6.609   6.471   4.783
10638SOL    HW232814   6.574   6.619   4.723
10639SOL     OW32815   1.737   1.089   5.005
10639SOL    HW132816   1.714   1.002   4.962
10639SOL    HW232817   1.679   1.161   4.967
10640SOL     OW32818   4.993   1.433   6.986
10640SOL    HW132819   5.005   1.384   6.899
10640SOL    HW232820   5.069   1.495   7.000
10641SOL     OW32821   5.651   1.681   0.156
10641SOL    HW132822   5.584   1.671   0.230
10641SOL    HW232823   5.615   1.742   0.086
10642SOL     OW32824   0.260   2.372   2.062
10642SOL    HW132825   0.249   2.439   2.135
10642SOL    HW232826   0.170   2.340   2.033
10643SOL     OW32827   2.766   3.428   5.563
10643SOL    HW132828   2.804   3.347   5.519
10643SOL    HW232829   2.823   3.507   5.543
10644SOL     OW32830   4.588   1.816   4.191
10644SOL    HW132831   4.591   1.771   4.102
10644SOL    HW232832   4.510   1.879   4.194
10645SOL     OW32833   2.258   0.201   4.795
10645SOL    HW132834   2.191   0.131   4.769
10645SOL    HW232835   2.216   0.265   4.859
10646SOL     OW32836   1.256   3.003   5.937
10646SOL    HW132837   1.218   2.998   6.030
10646SOL    HW232838   1.304   3.089   5.925
10647SOL     OW32839   6.723   4.936   0.367
10647SOL    HW132840   6.795   4.967   0.430
10647SOL    HW232841   6.655   4.883   0.418
10648SOL     OW32842   4.885   2.902   6.934
10648SOL    HW132843   4.810   2.916   6.999
10648SOL    HW232844   4.850   2.915   6.841
10649SOL     OW32845   6.642   4.675   5.655
10649SOL    HW132846   6.705   4.723   5.594
10649SOL    HW232847   6.676   4.582   5.672
10650SOL     OW32848   2.569   6.362   4.118
10650SOL    HW132849   2.479   6.383   4.157
10650SOL    HW232850   2.558   6.327   4.025
10651SOL     OW32851   4.962   6.705   5.640
10651SOL    HW132852   5.023   6.689   5.563
10651SOL    HW232853   4.948   6.803   5.652
10652SOL     OW32854   3.651   0.412   6.231
10652SOL    HW132855   3.647   0.511   6.219
10652SOL    HW232856   3.566   0.380   6.273
10653SOL     OW32857   5.276   4.237   4.089
10653SOL    HW132858   5.208   4.259   4.159
10653SOL    HW232859   5.242   4.266   4.000
10654SOL     OW32860   3.898   1.058   0.892
10654SOL    HW132861   3.816   1.114   0.899
10654SOL    HW232862   3.970   1.097   0.950
10655SOL     OW32863   2.898   5.961   0.986
10655SOL    HW132864   2.812   5.994   0.948
10655SOL    HW232865   2.927   5.880   0.936
10656SOL     OW32866   6.503   2.283   0.123
10656SOL    HW132867   6.437   2.271   0.197
10656SOL    HW232868   6.571   2.351   0.149
10657SOL     OW32869   5.841   0.820   1.383
10657SOL    HW132870   5.912   0.817   1.312
10657SOL    HW232871   5.821   0.727   1.414
10658SOL     OW32872   0.165   5.262   4.263
10658SOL    HW132873   0.167   5.346   4.208
10658SOL    HW232874   0.074   5.221   4.257
10659SOL     OW32875   6.143   0.381   0.824
10659SOL    HW132876   6.081   0.433   0.765
10659SOL    HW232877   6.236   0.387   0.788
10660SOL     OW32878   4.700   5.111   5.540
10660SOL    HW132879   4.759   5.063   5.605
10660SOL    HW232880   4.680   5.203   5.575
10661SOL     OW32881   0.482   6.558   2.754
10661SOL    HW132882   0.403   6.601   2.798
10661SOL    HW232883   0.454   6.522   2.665
10662SOL     OW32884   6.412   1.225   0.555
10662SOL    HW132885   6.465   1.307   0.575
10662SOL    HW232886   6.474   1.149   0.535
10663SOL     OW32887   6.937   0.229   0.147
10663SOL    HW132888   0.011   0.255   0.150
10663SOL    HW232889   6.890   0.262   0.229
10664SOL     OW32890   2.326   5.367   7.002
10664SOL    HW132891   2.251   5.340   0.040
10664SOL    HW232892   2.404   5.397   0.034
10665SOL     OW32893   6.207   1.717   1.035
10665SOL    HW132894   6.161   1.631   1.056
10665SOL    HW232895   6.249   1.754   1.117
10666SOL     OW32896   2.078   6.564   0.224
10666SOL    HW132897   2.103   6.528   0.134
10666SOL    HW232898   2.158   6.603   0.268
10667SOL     OW32899   3.430   2.108   6.124
10667SOL    HW132900   3.334   2.083   6.124
10667SOL    HW232901   3.457   2.138   6.032
10668SOL     OW32902   1.575   1.598   6.539
10668SOL    HW132903   1.665   1.563   6.516
10668SOL    HW232904   1.509   1.568   6.471
10669SOL     OW32905   1.837   0.087   0.029
10669SOL    HW132906   1.840   0.125   0.121
10669SOL    HW232907   1.751   0.036   0.017
10670SOL     OW32908   5.989   4.446   5.885
10670SOL    HW132909   6.044   4.499   5.950
10670SOL    HW232910   6.038   4.439   5.798
10671SOL     OW32911   2.312   1.585   3.244
10671SOL    HW132912   2.214   1.605   3.256
10671SOL    HW232913   2.340   1.518   3.312
10672SOL     OW32914   6.970   3.225   1.444
10672SOL    HW132915   6.988   3.162   1.520
10672SOL    HW232916   6.948   3.172   1.362
10673SOL     OW32917   2.777   3.022   5.382
10673SOL    HW132918   2.706   3.053   5.317
10673SOL    HW232919   2.734   2.996   5.468
10674SOL     OW32920   3.941   3.370   1.529
10674SOL    HW132921   3.842   3.358   1.530
10674SOL    HW232922   3.965   3.460   1.565
10675SOL     OW32923   0.277   0.117   5.725
10675SOL    HW132924   0.284   0.147   5.630
10675SOL    HW232925   0.366   0.085   5.756
10676SOL     OW32926   6.168   6.864   6.412
10676SOL    HW132927   6.259   6.827   6.396
10676SOL    HW232928   6.149   6.936   6.345
10677SOL     OW32929   0.483   0.476   0.831
10677SOL    HW132930   0.498   0.563   0.785
10677SOL    HW232931   0.437   0.491   0.918
10678SOL     OW32932   2.284   6.055   2.182
10678SOL    HW132933   2.362   5.994   2.168
10678SOL    HW232934   2.307   6.147   2.149
10679SOL     OW32935   5.241   5.398   4.669
10679SOL    HW132936   5.179   5.320   4.668
10679SOL    HW232937   5.191   5.481   4.647
10680SOL     OW32938   1.616   3.222   2.600
10680SOL    HW132939   1.591   3.131   2.567
10680SOL    HW232940   1.603   3.289   2.526
10681SOL     OW32941   6.702   1.943   5.863
10681SOL    HW132942   6.606   1.965   5.843
10681SOL    HW232943   6.707   1.882   5.942
10682SOL     OW32944   0.112   1.751   3.070
10682SOL    HW132945   0.095   1.723   3.164
10682SOL    HW232946   0.076   1.681   3.008
10683SOL     OW32947   1.681   1.516   4.843
10683SOL    HW132948   1.699   1.517   4.941
10683SOL    HW232949   1.609   1.582   4.822
10684SOL     OW32950   6.160   4.363   6.865
10684SOL    HW132951   6.062   4.382   6.861
10684SOL    HW232952   6.184   4.302   6.789
10685SOL     OW32953   0.130   2.657   2.904
10685SOL    HW132954   0.036   2.687   2.891
10685SOL    HW232955   0.181   2.726   2.955
10686SOL     OW32956   3.375   5.340   0.076
10686SOL    HW132957   3.381   5.292   7.011
10686SOL    HW232958   3.443   5.302   0.139
10687SOL     OW32959   0.450   4.891   3.411
10687SOL    HW132960   0.372   4.839   3.374
10687SOL    HW232961   0.456   4.979   3.364
10688SOL     OW32962   6.631   5.052   1.807
10688SOL    HW132963   6.628   4.998   1.891
10688SOL    HW232964   6.538   5.069   1.774
10689SOL     OW32965   0.559   1.058   2.648
10689SOL    HW132966   0.535   1.126   2.717
10689SOL    HW232967   0.607   1.103   2.573
10690SOL     OW32968   4.305   4.872   1.638
10690SOL    HW132969   4.248   4.877   1.720
10690SOL    HW232970   4.257   4.821   1.567
10691SOL     OW32971   0.041   1.372   1.649
10691SOL    HW132972   0.023   1.423   1.565
10691SOL    HW232973   6.994   1.300   1.660
10692SOL     OW32974   3.592   6.195   3.536
10692SOL    HW132975   3.658   6.241   3.475
10692SOL    HW232976   3.609   6.097   3.536
10693SOL     OW32977   6.710   1.792   1.942
10693SOL    HW132978   6.800   1.836   1.946
10693SOL    HW232979   6.719   1.702   1.899
10694SOL     OW32980   4.011   6.461   0.288
10694SOL    HW132981   3.980   6.416   0.371
10694SOL    HW232982   3.988   6.558   0.292
10695SOL     OW32983   0.273   3.072   3.941
10695SOL    HW132984   0.209   3.044   4.013
10695SOL    HW232985   0.365   3.079   3.979
10696SOL     OW32986   0.132   6.231   1.856
10696SOL    HW132987   0.193   6.152   1.852
10696SOL    HW232988   0.116   6.255   1.952
10697SOL     OW32989   2.143   5.474   3.341
10697SOL    HW132990   2.167   5.456   3.245
10697SOL    HW232991   2.140   5.573   3.356
10698SOL     OW32992   2.943   6.551   3.621
10698SOL    HW132993   3.001   6.588   3.693
10698SOL    HW232994   3.000   6.515   3.547
10699SOL     OW32995   2.676   2.380   2.902
10699SOL    HW132996   2.773   2.378   2.927
10699SOL    HW232997   2.668   2.372   2.802
10700SOL     OW32998   6.969   6.792   0.912
10700SOL    HW132999   6.935   6.872   0.962
10700SOL    HW233000   7.014   6.821   0.828
10701SOL     OW33001   2.818   6.379   1.237
10701SOL    HW133002   2.863   6.311   1.294
10701SOL    HW233003   2.886   6.425   1.180
10702SOL     OW33004   6.576   3.045   1.511
10702SOL    HW133005   6.607   2.977   1.445
10702SOL    HW233006   6.627   3.034   1.597
10703SOL     OW33007   3.729   3.627   3.847
10703SOL    HW133008   3.708   3.539   3.805
10703SOL    HW233009   3.645   3.680   3.858
10704SOL     OW33010   4.899   6.950   2.138
10704SOL    HW133011   4.826   6.928   2.073
10704SOL    HW233012   4.879   0.015   2.182
10705SOL     OW33013   0.322   2.732   6.177
10705SOL    HW133014   0.420   2.744   6.163
10705SOL    HW233015   0.289   2.802   6.240
10706SOL     OW33016   3.627   1.372   2.264
10706SOL    HW133017   3.580   1.284   2.258
10706SOL    HW233018   3.724   1.360   2.247
10707SOL     OW33019   5.707   0.051   6.150
10707SOL    HW133020   5.732   6.993   6.096
10707SOL    HW233021   5.789   0.092   6.190
10708SOL     OW33022   5.406   1.356   1.099
10708SOL    HW133023   5.483   1.386   1.156
10708SOL    HW233024   5.324   1.405   1.127
10709SOL     OW33025   6.620   6.211   5.677
10709SOL    HW133026   6.670   6.187   5.760
10709SOL    HW233027   6.647   6.150   5.602
10710SOL     OW33028   5.872   5.482   3.243
10710SOL    HW133029   5.889   5.506   3.339
10710SOL    HW233030   5.785   5.434   3.236
10711SOL     OW33031   1.435   6.666   3.856
10711SOL    HW133032   1.414   6.586   3.800
10711SOL    HW233033   1.530   6.693   3.839
10712SOL     OW33034   3.537   1.540   4.876
10712SOL    HW133035   3.578   1.600   4.807
10712SOL    HW233036   3.494   1.462   4.832
10713SOL     OW33037   0.833   6.259   1.369
10713SOL    HW133038   0.737   6.231   1.366
10713SOL    HW233039   0.888   6.185   1.406
10714SOL     OW33040   6.861   5.161   5.972
10714SOL    HW133041   6.857   5.116   5.883
10714SOL    HW233042   6.794   5.119   6.034
10715SOL     OW33043   5.666   1.144   4.195
10715SOL    HW133044   5.605   1.146   4.115
10715SOL    HW233045   5.658   1.231   4.244
10716SOL     OW33046   6.134   0.219   3.561
10716SOL    HW133047   6.214   0.159   3.568
10716SOL    HW233048   6.162   0.314   3.567
10717SOL     OW33049   0.032   0.077   1.058
10717SOL    HW133050   0.066   0.169   1.040
10717SOL    HW233051   0.096   0.029   1.117
10718SOL     OW33052   0.015   4.822   0.122
10718SOL    HW133053   6.995   4.889   0.061
10718SOL    HW233054   0.064   4.754   0.068
10719SOL     OW33055   5.114   0.761   1.783
10719SOL    HW133056   5.093   0.820   1.862
10719SOL    HW233057   5.084   0.806   1.699
10720SOL     OW33058   0.560   3.467   6.901
10720SOL    HW133059   0.539   3.458   6.803
10720SOL    HW233060   0.505   3.542   6.939
10721SOL     OW33061   4.969   2.316   4.298
10721SOL    HW133062   4.871   2.300   4.293
10721SOL    HW233063   5.017   2.229   4.312
10722SOL     OW33064   0.541   4.066   0.311
10722SOL    HW133065   0.603   4.133   0.353
10722SOL    HW233066   0.541   4.078   0.212
10723SOL     OW33067   6.566   4.296   6.885
10723SOL    HW133068   6.537   4.212   6.839
10723SOL    HW233069   6.612   4.273   6.970
10724SOL     OW33070   3.799   6.483   5.805
10724SOL    HW133071   3.855   6.410   5.845
10724SOL    HW233072   3.702   6.460   5.815
10725SOL     OW33073   6.560   5.998   4.713
10725SOL    HW133074   6.559   6.087   4.759
10725SOL    HW233075   6.636   5.996   4.648
10726SOL     OW33076   5.264   0.621   4.325
10726SOL    HW133077   5.206   0.696   4.291
10726SOL    HW233078   5.337   0.603   4.259
10727SOL     OW33079   2.065   6.059   6.117
10727SOL    HW133080   2.099   5.967   6.096
10727SOL    HW233081   2.142   6.120   6.132
10728SOL     OW33082   4.849   5.638   3.327
10728SOL    HW133083   4.792   5.610   3.250
10728SOL    HW233084   4.926   5.692   3.294
10729SOL     OW33085   6.061   3.343   3.389
10729SOL    HW133086   6.147   3.308   3.351
10729SOL    HW233087   6.017   3.404   3.323
10730SOL     OW33088   2.138   5.980   2.704
10730SOL    HW133089   2.215   5.942   2.755
10730SOL    HW233090   2.156   5.969   2.606
10731SOL     OW33091   4.784   6.833   6.322
10731SOL    HW133092   4.789   6.739   6.289
10731SOL    HW233093   4.693   6.850   6.360
10732SOL     OW33094   6.233   6.184   2.857
10732SOL    HW133095   6.259   6.264   2.803
10732SOL    HW233096   6.185   6.215   2.940
10733SOL     OW33097   0.644   0.793   6.344
10733SOL    HW133098   0.598   0.882   6.353
10733SOL    HW233099   0.606   0.745   6.265
10734SOL     OW33100   1.291   1.299   5.041
10734SOL    HW133101   1.278   1.250   5.128
10734SOL    HW233102   1.249   1.389   5.047
10735SOL     OW33103   1.035   5.614   2.407
10735SOL    HW133104   1.097   5.557   2.462
10735SOL    HW233105   0.986   5.677   2.467
10736SOL     OW33106   5.561   6.502   3.592
10736SOL    HW133107   5.603   6.519   3.681
10736SOL    HW233108   5.632   6.480   3.525
10737SOL     OW33109   6.269   1.377   2.182
10737SOL    HW133110   6.326   1.333   2.252
10737SOL    HW233111   6.232   1.462   2.218
10738SOL     OW33112   3.581   1.188   1.932
10738SOL    HW133113   3.540   1.149   2.015
10738SOL    HW233114   3.534   1.273   1.908
10739SOL     OW33115   5.321   2.573   3.405
10739SOL    HW133116   5.276   2.584   3.494
10739SOL    HW233117   5.329   2.663   3.361
10740SOL     OW33118   1.843   6.870   6.226
10740SOL    HW133119   1.777   6.877   6.301
10740SOL    HW233120   1.852   6.959   6.181
10741SOL     OW33121   2.484   2.476   3.714
10741SOL    HW133122   2.531   2.460   3.628
10741SOL    HW233123   2.533   2.431   3.788
10742SOL     OW33124   6.297   6.504   2.358
10742SOL    HW133125   6.239   6.570   2.405
10742SOL    HW233126   6.266   6.411   2.381
10743SOL     OW33127   3.120   1.097   5.735
10743SOL    HW133128   3.080   1.165   5.673
10743SOL    HW233129   3.064   1.090   5.817
10744SOL     OW33130   2.184   0.759   1.123
10744SOL    HW133131   2.130   0.813   1.187
10744SOL    HW233132   2.136   0.753   1.035
10745SOL     OW33133   1.177   5.319   1.780
10745SOL    HW133134   1.211   5.280   1.866
10745SOL    HW233135   1.100   5.264   1.746
10746SOL     OW33136   1.978   5.989   6.392
10746SOL    HW133137   2.053   6.004   6.456
10746SOL    HW233138   2.000   6.031   6.304
10747SOL     OW33139   5.740   1.307   4.873
10747SOL    HW133140   5.664   1.368   4.847
10747SOL    HW233141   5.710   1.248   4.948
10748SOL     OW33142   4.104   6.060   0.806
10748SOL    HW133143   4.110   6.158   0.822
10748SOL    HW233144   4.177   6.013   0.856
10749SOL     OW33145   5.338   5.436   2.121
10749SOL    HW133146   5.386   5.445   2.208
10749SOL    HW233147   5.240   5.434   2.136
10750SOL     OW33148   5.041   2.045   4.308
10750SOL    HW133149   4.984   1.964   4.294
10750SOL    HW233150   5.058   2.057   4.406
10751SOL     OW33151   0.197   4.859   5.413
10751SOL    HW133152   0.212   4.874   5.315
10751SOL    HW233153   0.162   4.766   5.427
10752SOL     OW33154   6.281   6.483   0.587
10752SOL    HW133155   6.260   6.550   0.658
10752SOL    HW233156   6.198   6.436   0.558
10753SOL     OW33157   4.498   6.711   4.148
10753SOL    HW133158   4.550   6.627   4.161
10753SOL    HW233159   4.402   6.689   4.134
10754SOL     OW33160   0.973   4.207   1.921
10754SOL    HW133161   0.986   4.118   1.879
10754SOL    HW233162   0.974   4.278   1.850
10755SOL     OW33163   6.140   3.221   1.586
10755SOL    HW133164   6.059   3.163   1.598
10755SOL    HW233165   6.223   3.166   1.595
10756SOL     OW33166   0.466   1.476   0.487
10756SOL    HW133167   0.412   1.419   0.424
10756SOL    HW233168   0.563   1.472   0.461
10757SOL     OW33169   0.466   4.004   1.495
10757SOL    HW133170   0.561   4.013   1.525
10757SOL    HW233171   0.448   3.909   1.470
10758SOL     OW33172   0.925   0.259   6.679
10758SOL    HW133173   0.984   0.220   6.751
10758SOL    HW233174   0.835   0.280   6.717
10759SOL     OW33175   2.762   2.132   6.074
10759SOL    HW133176   2.771   2.108   6.170
10759SOL    HW233177   2.696   2.207   6.064
10760SOL     OW33178   0.970   5.534   0.314
10760SOL    HW133179   0.870   5.544   0.310
10760SOL    HW233180   0.994   5.470   0.387
10761SOL     OW33181   0.242   1.025   5.778
10761SOL    HW133182   0.212   0.929   5.780
10761SOL    HW233183   0.181   1.080   5.836
10762SOL     OW33184   3.107   6.380   6.466
10762SOL    HW133185   3.020   6.363   6.419
10762SOL    HW233186   3.175   6.315   6.433
10763SOL     OW33187   5.251   0.012   3.341
10763SOL    HW133188   5.165   0.005   3.290
10763SOL    HW233189   5.240   0.077   3.417
10764SOL     OW33190   4.539   0.707   4.423
10764SOL    HW133191   4.571   0.620   4.385
10764SOL    HW233192   4.442   0.719   4.401
10765SOL     OW33193   6.463   2.030   2.401
10765SOL    HW133194   6.430   2.100   2.464
10765SOL    HW233195   6.559   2.009   2.422
10766SOL     OW33196   1.586   5.514   6.395
10766SOL    HW133197   1.671   5.548   6.356
10766SOL    HW233198   1.509   5.543   6.338
10767SOL     OW33199   1.558   5.549   0.598
10767SOL    HW133200   1.641   5.559   0.652
10767SOL    HW233201   1.494   5.490   0.646
10768SOL     OW33202   5.434   5.979   0.653
10768SOL    HW133203   5.421   6.013   0.559
10768SOL    HW233204   5.393   5.888   0.661
10769SOL     OW33205   3.338   3.269   4.454
10769SOL    HW133206   3.383   3.286   4.541
10769SOL    HW233207   3.366   3.340   4.388
10770SOL     OW33208   5.259   0.187   3.587
10770SOL    HW133209   5.247   0.253   3.513
10770SOL    HW233210   5.354   0.155   3.588
10771SOL     OW33211   4.870   5.922   5.503
10771SOL    HW133212   4.831   5.925   5.595
10771SOL    HW233213   4.829   5.994   5.447
10772SOL     OW33214   5.506   5.296   2.716
10772SOL    HW133215   5.437   5.250   2.772
10772SOL    HW233216   5.547   5.371   2.768
10773SOL     OW33217   0.229   3.629   1.597
10773SOL    HW133218   0.319   3.587   1.612
10773SOL    HW233219   0.186   3.647   1.685
10774SOL     OW33220   1.011   3.044   0.528
10774SOL    HW133221   1.095   2.998   0.558
10774SOL    HW233222   0.990   3.119   0.590
10775SOL     OW33223   1.720   4.405   0.246
10775SOL    HW133224   1.731   4.339   0.320
10775SOL    HW233225   1.734   4.498   0.282
10776SOL     OW33226   1.167   2.492   3.731
10776SOL    HW133227   1.114   2.507   3.648
10776SOL    HW233228   1.108   2.454   3.803
10777SOL     OW33229   3.554   1.558   2.460
10777SOL    HW133230   3.618   1.634   2.455
10777SOL    HW233231   3.559   1.505   2.375
10778SOL     OW33232   6.345   6.921   3.068
10778SOL    HW133233   6.378   7.005   3.112
10778SOL    HW233234   6.374   6.842   3.122
10779SOL     OW33235   5.055   3.908   4.689
10779SOL    HW133236   4.993   3.873   4.759
10779SOL    HW233237   5.130   3.843   4.674
10780SOL     OW33238   1.918   5.864   5.069
10780SOL    HW133239   1.861   5.891   4.991
10780SOL    HW233240   1.991   5.930   5.081
10781SOL     OW33241   5.973   2.189   5.342
10781SOL    HW133242   5.875   2.169   5.329
10781SOL    HW233243   6.010   2.229   5.258
10782SOL     OW33244   1.552   2.586   4.658
10782SOL    HW133245   1.535   2.682   4.677
10782SOL    HW233246   1.466   2.541   4.635
10783SOL     OW33247   1.172   2.516   2.845
10783SOL    HW133248   1.149   2.613   2.860
10783SOL    HW233249   1.093   2.469   2.806
10784SOL     OW33250   3.297   5.655   2.587
10784SOL    HW133251   3.382   5.708   2.585
10784SOL    HW233252   3.318   5.558   2.573
10785SOL     OW33253   2.132   5.643   2.293
10785SOL    HW133254   2.060   5.711   2.310
10785SOL    HW233255   2.192   5.676   2.220
10786SOL     OW33256   3.898   1.351   2.192
10786SOL    HW133257   3.933   1.443   2.210
10786SOL    HW233258   3.945   1.312   2.112
10787SOL     OW33259   3.800   0.643   3.230
10787SOL    HW133260   3.766   0.559   3.274
10787SOL    HW233261   3.800   0.717   3.298
10788SOL     OW33262   1.263   4.584   0.543
10788SOL    HW133263   1.300   4.578   0.450
10788SOL    HW233264   1.180   4.639   0.542
10789SOL     OW33265   6.734   1.123   1.406
10789SOL    HW133266   6.705   1.190   1.475
10789SOL    HW233267   6.833   1.114   1.409
10790SOL     OW33268   0.815   1.484   4.795
10790SOL    HW133269   0.837   1.561   4.736
10790SOL    HW233270   0.807   1.515   4.889
10791SOL     OW33271   1.305   2.105   3.621
10791SOL    HW133272   1.267   2.027   3.571
10791SOL    HW233273   1.369   2.072   3.690
10792SOL     OW33274   4.092   1.663   1.617
10792SOL    HW133275   4.128   1.744   1.570
10792SOL    HW233276   4.157   1.633   1.686
10793SOL     OW33277   4.141   1.929   4.748
10793SOL    HW133278   4.164   1.875   4.667
10793SOL    HW233279   4.121   2.023   4.722
10794SOL     OW33280   4.761   2.604   0.638
10794SOL    HW133281   4.713   2.677   0.590
10794SOL    HW233282   4.758   2.521   0.582
10795SOL     OW33283   0.191   3.749   3.456
10795SOL    HW133284   0.097   3.768   3.426
10795SOL    HW233285   0.188   3.692   3.538
10796SOL     OW33286   0.551   6.885   6.169
10796SOL    HW133287   0.505   6.956   6.222
10796SOL    HW233288   0.574   6.808   6.229
10797SOL     OW33289   3.970   4.078   6.963
10797SOL    HW133290   4.062   4.094   6.927
10797SOL    HW233291   3.955   4.134   0.022
10798SOL     OW33292   2.183   0.305   0.230
10798SOL    HW133293   2.283   0.299   0.231
10798SOL    HW233294   2.147   0.250   0.155
10799SOL     OW33295   2.648   0.984   2.696
10799SOL    HW133296   2.629   0.901   2.644
10799SOL    HW233297   2.609   0.975   2.788
10800SOL     OW33298   2.072   6.953   5.850
10800SOL    HW133299   2.072   0.007   5.915
10800SOL    HW233300   2.031   6.873   5.893
10801SOL     OW33301   2.619   6.695   5.916
10801SOL    HW133302   2.601   6.653   5.827
10801SOL    HW233303   2.650   6.789   5.903
10802SOL     OW33304   0.937   4.910   4.730
10802SOL    HW133305   1.025   4.958   4.730
10802SOL    HW233306   0.941   4.834   4.665
10803SOL     OW33307   0.391   4.348   4.732
10803SOL    HW133308   0.387   4.319   4.828
10803SOL    HW233309   0.457   4.290   4.683
10804SOL     OW33310   5.162   4.607   0.908
10804SOL    HW133311   5.126   4.667   0.980
10804SOL    HW233312   5.092   4.542   0.880
10805SOL     OW33313   4.186   6.763   0.469
10805SOL    HW133314   4.112   6.716   0.517
10805SOL    HW233315   4.151   6.802   0.384
10806SOL     OW33316   5.209   3.680   0.082
10806SOL    HW133317   5.302   3.712   0.102
10806SOL    HW233318   5.174   3.626   0.158
10807SOL     OW33319   4.725   6.921   3.377
10807SOL    HW133320   4.714   6.829   3.415
10807SOL    HW233321   4.635   6.957   3.352
10808SOL     OW33322   6.883   2.656   6.654
10808SOL    HW133323   6.901   2.753   6.637
10808SOL    HW233324   6.837   2.617   6.574
10809SOL     OW33325   2.579   1.073   3.382
10809SOL    HW133326   2.544   0.999   3.440
10809SOL    HW233327   2.670   1.100   3.413
10810SOL     OW33328   0.413   1.745   6.075
10810SOL    HW133329   0.371   1.690   6.003
10810SOL    HW233330   0.475   1.689   6.129
10811SOL     OW33331   4.638   4.692   5.485
10811SOL    HW133332   4.614   4.600   5.516
10811SOL    HW233333   4.581   4.717   5.407
10812SOL     OW33334   6.633   2.071   3.166
10812SOL    HW133335   6.618   2.007   3.242
10812SOL    HW233336   6.546   2.113   3.141
10813SOL     OW33337   2.497   6.173   1.798
10813SOL    HW133338   2.551   6.108   1.853
10813SOL    HW233339   2.431   6.218   1.857
10814SOL     OW33340   1.689   6.637   4.838
10814SOL    HW133341   1.743   6.610   4.759
10814SOL    HW233342   1.593   6.648   4.811
10815SOL     OW33343   5.200   2.202   2.797
10815SOL    HW133344   5.139   2.156   2.733
10815SOL    HW233345   5.152   2.219   2.883
10816SOL     OW33346   2.304   1.721   2.398
10816SOL    HW133347   2.380   1.783   2.378
10816SOL    HW233348   2.238   1.767   2.458
10817SOL     OW33349   4.594   6.776   2.406
10817SOL    HW133350   4.577   6.867   2.366
10817SOL    HW233351   4.514   6.749   2.460
10818SOL     OW33352   4.956   3.236   6.800
10818SOL    HW133353   4.966   3.166   6.729
10818SOL    HW233354   4.962   3.327   6.758
10819SOL     OW33355   0.414   3.774   5.981
10819SOL    HW133356   0.380   3.710   5.912
10819SOL    HW233357   0.417   3.728   6.070
10820SOL     OW33358   0.282   6.864   4.489
10820SOL    HW133359   0.276   6.872   4.390
10820SOL    HW233360   0.199   6.900   4.531
10821SOL     OW33361   6.812   0.225   0.395
10821SOL    HW133362   6.880   0.260   0.459
10821SOL    HW233363   6.811   0.125   0.399
10822SOL     OW33364   1.451   4.599   1.246
10822SOL    HW133365   1.546   4.569   1.239
10822SOL    HW233366   1.391   4.524   1.215
10823SOL     OW33367   1.470   0.830   1.581
10823SOL    HW133368   1.561   0.825   1.540
10823SOL    HW233369   1.473   0.794   1.674
10824SOL     OW33370   5.620   0.274   2.702
10824SOL    HW133371   5.576   0.361   2.681
10824SOL    HW233372   5.570   0.227   2.775
10825SOL     OW33373   3.299   1.357   1.319
10825SOL    HW133374   3.353   1.278   1.345
10825SOL    HW233375   3.356   1.439   1.321
10826SOL     OW33376   6.738   2.988   1.783
10826SOL    HW133377   6.713   2.894   1.759
10826SOL    HW233378   6.690   3.014   1.867
10827SOL     OW33379   0.363   2.644   4.306
10827SOL    HW133380   0.381   2.709   4.380
10827SOL    HW233381   0.443   2.640   4.246
10828SOL     OW33382   1.062   5.868   0.324
10828SOL    HW133383   1.096   5.925   0.399
10828SOL    HW233384   0.970   5.835   0.347
10829SOL     OW33385   2.672   3.439   1.392
10829SOL    HW133386   2.736   3.369   1.423
10829SOL    HW233387   2.592   3.441   1.453
10830SOL     OW33388   4.767   1.762   3.988
10830SOL    HW133389   4.690   1.720   3.940
10830SOL    HW233390   4.751   1.860   3.997
10831SOL     OW33391   5.384   2.310   3.489
10831SOL    HW133392   5.376   2.389   3.428
10831SOL    HW233393   5.480   2.293   3.509
10832SOL     OW33394   0.134   2.275   1.626
10832SOL    HW133395   0.131   2.369   1.660
10832SOL    HW233396   0.229   2.247   1.614
10833SOL     OW33397   3.066   6.566   4.405
10833SOL    HW133398   2.968   6.589   4.400
10833SOL    HW233399   3.091   6.547   4.500
10834SOL     OW33400   0.369   0.846   5.979
10834SOL    HW133401   0.393   0.924   5.920
10834SOL    HW233402   0.278   0.813   5.954
10835SOL     OW33403   6.672   1.714   2.590
10835SOL    HW133404   6.611   1.634   2.593
10835SOL    HW233405   6.676   1.749   2.497
10836SOL     OW33406   1.990   2.252   6.333
10836SOL    HW133407   2.036   2.175   6.290
10836SOL    HW233408   1.907   2.221   6.378
10837SOL     OW33409   0.876   5.662   1.237
10837SOL    HW133410   0.818   5.655   1.319
10837SOL    HW233411   0.921   5.575   1.221
10838SOL     OW33412   5.880   6.662   0.638
10838SOL    HW133413   5.912   6.578   0.682
10838SOL    HW233414   5.955   6.704   0.588
10839SOL     OW33415   2.198   2.182   0.937
10839SOL    HW133416   2.225   2.086   0.926
10839SOL    HW233417   2.146   2.212   0.857
10840SOL     OW33418   3.676   4.913   2.510
10840SOL    HW133419   3.738   4.931   2.434
10840SOL    HW233420   3.642   4.819   2.504
10841SOL     OW33421   4.558   4.215   5.998
10841SOL    HW133422   4.598   4.159   5.926
10841SOL    HW233423   4.625   4.285   6.026
10842SOL     OW33424   6.298   3.049   1.892
10842SOL    HW133425   6.312   3.038   1.794
10842SOL    HW233426   6.383   3.028   1.941
10843SOL     OW33427   0.559   0.795   1.632
10843SOL    HW133428   0.610   0.878   1.656
10843SOL    HW233429   0.527   0.801   1.538
10844SOL     OW33430   3.512   6.449   3.621
10844SOL    HW133431   3.416   6.454   3.648
10844SOL    HW233432   3.531   6.359   3.583
10845SOL     OW33433   2.113   2.728   0.535
10845SOL    HW133434   2.041   2.795   0.549
10845SOL    HW233435   2.191   2.750   0.595
10846SOL     OW33436   3.232   2.011   1.977
10846SOL    HW133437   3.175   2.041   2.054
10846SOL    HW233438   3.326   2.043   1.991
10847SOL     OW33439   4.261   2.820   6.193
10847SOL    HW133440   4.284   2.863   6.105
10847SOL    HW233441   4.166   2.840   6.216
10848SOL     OW33442   1.604   1.291   0.090
10848SOL    HW133443   1.596   1.384   0.056
10848SOL    HW233444   1.564   1.227   0.024
10849SOL     OW33445   2.746   4.769   4.287
10849SOL    HW133446   2.835   4.812   4.291
10849SOL    HW233447   2.681   4.829   4.239
10850SOL     OW33448   5.448   0.065   1.204
10850SOL    HW133449   5.365   0.122   1.208
10850SOL    HW233450   5.448   0.013   1.118
10851SOL     OW33451   3.939   2.205   6.625
10851SOL    HW133452   3.900   2.149   6.551
10851SOL    HW233453   3.919   2.302   6.608
10852SOL     OW33454   0.965   6.933   6.538
10852SOL    HW133455   0.917   6.883   6.466
10852SOL    HW233456   0.943   6.892   6.627
10853SOL     OW33457   2.199   1.467   4.543
10853SOL    HW133458   2.278   1.512   4.501
10853SOL    HW233459   2.182   1.508   4.633
10854SOL     OW33460   6.846   6.419   0.080
10854SOL    HW133461   6.820   6.479   0.155
10854SOL    HW233462   6.921   6.359   0.110
10855SOL     OW33463   1.290   6.231   1.182
10855SOL    HW133464   1.302   6.308   1.120
10855SOL    HW233465   1.224   6.255   1.253
10856SOL     OW33466   6.048   0.243   6.500
10856SOL    HW133467   6.070   0.166   6.560
10856SOL    HW233468   6.015   0.320   6.555
10857SOL     OW33469   6.272   0.340   4.670
10857SOL    HW133470   6.317   0.424   4.700
10857SOL    HW233471   6.190   0.363   4.619
10858SOL     OW33472   2.169   1.702   0.766
10858SOL    HW133473   2.264   1.707   0.734
10858SOL    HW233474   2.156   1.617   0.817
10859SOL     OW33475   0.806   5.061   2.222
10859SOL    HW133476   0.810   5.130   2.150
10859SOL    HW233477   0.826   5.103   2.310
10860SOL     OW33478   5.992   2.419   0.352
10860SOL    HW133479   6.017   2.424   0.448
10860SOL    HW233480   6.069   2.448   0.296
10861SOL     OW33481   3.311   2.848   2.271
10861SOL    HW133482   3.307   2.781   2.345
10861SOL    HW233483   3.406   2.864   2.245
10862SOL     OW33484   3.783   3.152   5.615
10862SOL    HW133485   3.758   3.243   5.648
10862SOL    HW233486   3.703   3.092   5.618
10863SOL     OW33487   2.359   1.617   2.978
10863SOL    HW133488   2.358   1.605   3.077
10863SOL    HW233489   2.289   1.683   2.951
10864SOL     OW33490   3.121   4.840   2.055
10864SOL    HW133491   3.034   4.835   2.006
10864SOL    HW233492   3.132   4.759   2.113
10865SOL     OW33493   2.976   1.403   2.819
10865SOL    HW133494   2.912   1.349   2.874
10865SOL    HW233495   2.931   1.485   2.785
10866SOL     OW33496   6.952   3.704   3.337
10866SOL    HW133497   6.922   3.617   3.297
10866SOL    HW233498   6.885   3.776   3.315
10867SOL     OW33499   4.382   3.446   0.640
10867SOL    HW133500   4.355   3.537   0.670
10867SOL    HW233501   4.482   3.439   0.639
10868SOL     OW33502   1.266   1.103   4.803
10868SOL    HW133503   1.266   1.169   4.879
10868SOL    HW233504   1.343   1.123   4.742
10869NA      NA33505   6.832   2.082   5.721
10870NA      NA33506   4.513   4.576   5.102
10871NA      NA33507   1.422   4.907   2.927
10872NA      NA33508   5.649   4.052   3.345
10873NA      NA33509   3.645   2.273   5.399
10874NA      NA33510   2.261   4.929   0.264
10875NA      NA33511   1.360   5.702   6.855
10876NA      NA33512   3.472   4.396   0.989
10877NA      NA33513   4.417   5.257   0.639
10878NA      NA33514   3.318   1.058   6.384
10879NA      NA33515   5.435   6.878   1.845
10880NA      NA33516   1.883   6.645   5.336
10881NA      NA33517   4.005   5.308   1.758
10882NA      NA33518   3.564   3.502   6.721
   7.02243   7.02243   7.02243
